<event>
 7    1  0.1445801E-008  0.4614232E+02  0.7816164E-02  0.1320468E+00
        -11   -1    0    0    0    0  0.00000000000E+00  0.00000000000E+00  0.45593999997E+02  0.45594000000E+02  0.51100000000E-03 0.  1.
         11   -1    0    0    0    0 -0.00000000000E+00 -0.00000000000E+00 -0.45593999997E+02  0.45594000000E+02  0.51100000000E-03 0. -1.
    9900012    2    1    2    0    0 -0.31978148285E+02 -0.31174579369E+02  0.58870269036E+01  0.46142318161E+02  0.10000003649E+02 0.  0.
         12    1    1    2    0    0  0.31978148285E+02  0.31174579369E+02 -0.58870269036E+01  0.45045681839E+02  0.00000000000E+00 0. -1.
         11    1    3    3    0    0 -0.11270332577E+02 -0.12066783583E+02 -0.25702330631E+01  0.16710289067E+02  0.51100000000E-03 0. -1.
        -11    1    3    3    0    0 -0.18090062508E+02 -0.17057473616E+02  0.73503478653E+01  0.25927502419E+02  0.51100000000E-03 0.  1.
         12    1    3    3    0    0 -0.26177532002E+01 -0.20503221693E+01  0.11069121013E+01  0.35045266749E+01  0.00000000000E+00 0. -1.
</event>
<event>
 7    1  0.1445801E-008  0.4614232E+02  0.7816164E-02  0.1320468E+00
        -11   -1    0    0    0    0  0.00000000000E+00  0.00000000000E+00  0.45593999997E+02  0.45594000000E+02  0.51100000000E-03 0.  1.
         11   -1    0    0    0    0 -0.00000000000E+00 -0.00000000000E+00 -0.45593999997E+02  0.45594000000E+02  0.51100000000E-03 0. -1.
    9900012    2    1    2    0    0 -0.10866232379E+02  0.38718607389E+02  0.20295514928E+02  0.46142317737E+02  0.99999997847E+01 0.  0.
         12    1    1    2    0    0  0.10866232379E+02 -0.38718607389E+02 -0.20295514928E+02  0.45045682263E+02  0.00000000000E+00 0. -1.
         11    1    3    3    0    0 -0.21226858148E+01  0.94484185929E+00  0.62025962136E+00  0.24048375135E+01  0.51100000000E-03 0. -1.
        -11    1    3    3    0    0 -0.83847296959E+01  0.30874082136E+02  0.17648128058E+02  0.36537228467E+02  0.51100000000E-03 0.  1.
        -12    1    3    3    0    0 -0.35881686870E+00  0.68996833945E+01  0.20271272483E+01  0.72002517574E+01  0.00000000000E+00 0.  1.
</event>
<event>
 7    1  0.1445801E-008  0.4614232E+02  0.7816164E-02  0.1320468E+00
        -11   -1    0    0    0    0  0.00000000000E+00  0.00000000000E+00  0.45593999997E+02  0.45594000000E+02  0.51100000000E-03 0.  1.
         11   -1    0    0    0    0 -0.00000000000E+00 -0.00000000000E+00 -0.45593999997E+02  0.45594000000E+02  0.51100000000E-03 0. -1.
    9900012    2    1    2    0    0 -0.15671747708E+02 -0.12142892166E+02  0.40448237856E+02  0.46142318164E+02  0.10000003678E+02 0.  0.
         12    1    1    2    0    0  0.15671747708E+02  0.12142892166E+02 -0.40448237856E+02  0.45045681836E+02  0.00000000000E+00 0. -1.
         11    1    3    3    0    0 -0.48853100473E+00 -0.79475378043E-01  0.19803169977E-01  0.49534967948E+00  0.51100000000E-03 0. -1.
        -11    1    3    3    0    0 -0.89537838642E+01 -0.19442832355E+01  0.20314475725E+02  0.22285161140E+02  0.51100000000E-03 0.  1.
        -12    1    3    3    0    0 -0.62294328389E+01 -0.10119133552E+02  0.20113958961E+02  0.23361807345E+02  0.00000000000E+00 0.  1.
</event>
<event>
 7    1  0.1445801E-008  0.4614232E+02  0.7816164E-02  0.1320468E+00
        -11   -1    0    0    0    0  0.00000000000E+00  0.00000000000E+00  0.45593999997E+02  0.45594000000E+02  0.51100000000E-03 0.  1.
         11   -1    0    0    0    0 -0.00000000000E+00 -0.00000000000E+00 -0.45593999997E+02  0.45594000000E+02  0.51100000000E-03 0. -1.
    9900012    2    1    2    0    0  0.42918943167E+02  0.71932125389E+01  0.11633363722E+02  0.46142321620E+02  0.10000035192E+02 0.  0.
         12    1    1    2    0    0 -0.42918943167E+02 -0.71932125389E+01 -0.11633363722E+02  0.45045678380E+02  0.00000000000E+00 0. -1.
         11    1    3    3    0    0  0.96503855665E+01  0.17847193222E+01  0.59285483579E-01  0.98142080512E+01  0.51100000000E-03 0. -1.
        -11    1    3    3    0    0  0.15612502543E+02 -0.39855497020E+00  0.73838315169E+01  0.17275128071E+02  0.51100000000E-03 0.  1.
         12    1    3    3    0    0  0.17656055057E+02  0.58070481869E+01  0.41902467211E+01  0.19052985499E+02  0.00000000000E+00 0. -1.
</event>
<event>
 7    1  0.1445801E-008  0.4614232E+02  0.7816164E-02  0.1320468E+00
        -11   -1    0    0    0    0  0.00000000000E+00  0.00000000000E+00  0.45593999997E+02  0.45594000000E+02  0.51100000000E-03 0.  1.
         11   -1    0    0    0    0 -0.00000000000E+00 -0.00000000000E+00 -0.45593999997E+02  0.45594000000E+02  0.51100000000E-03 0. -1.
    9900012    2    1    2    0    0 -0.38487089435E+02  0.22838371987E+02  0.51250582925E+01  0.46142317514E+02  0.99999977430E+01 0.  0.
         12    1    1    2    0    0  0.38487089435E+02 -0.22838371987E+02 -0.51250582925E+01  0.45045682486E+02  0.00000000000E+00 0. -1.
         11    1    3    3    0    0 -0.45042210589E+01  0.58539034201E+01  0.52247982414E+00  0.74046727157E+01  0.51100000000E-03 0. -1.
        -11    1    3    3    0    0 -0.32919420396E+02  0.16295112934E+02  0.32361808719E+01  0.36873999127E+02  0.51100000000E-03 0.  1.
        -12    1    3    3    0    0 -0.10634479799E+01  0.68935563253E+00  0.13663975965E+01  0.18636456707E+01  0.00000000000E+00 0.  1.
</event>
<event>
 7    1  0.1445801E-008  0.4614232E+02  0.7816164E-02  0.1320468E+00
        -11   -1    0    0    0    0  0.00000000000E+00  0.00000000000E+00  0.45593999997E+02  0.45594000000E+02  0.51100000000E-03 0.  1.
         11   -1    0    0    0    0 -0.00000000000E+00 -0.00000000000E+00 -0.45593999997E+02  0.45594000000E+02  0.51100000000E-03 0. -1.
    9900012    2    1    2    0    0  0.15453969181E+02 -0.17148658406E+02  0.38680892886E+02  0.46142321817E+02  0.10000036980E+02 0.  0.
         12    1    1    2    0    0 -0.15453969181E+02  0.17148658406E+02 -0.38680892886E+02  0.45045678183E+02  0.00000000000E+00 0. -1.
         11    1    3    3    0    0 -0.33136632009E-02 -0.48123214272E+01  0.47907487054E+01  0.67904139726E+01  0.51100000000E-03 0. -1.
        -11    1    3    3    0    0  0.13534437934E+02 -0.11634401911E+02  0.29019794826E+02  0.34068883311E+02  0.51100000000E-03 0.  1.
         12    1    3    3    0    0  0.19228449103E+01 -0.70193506734E+00  0.48703493541E+01  0.52830245333E+01  0.00000000000E+00 0. -1.
</event>
<event>
 7    1  0.1445801E-008  0.4614232E+02  0.7816164E-02  0.1320468E+00
        -11   -1    0    0    0    0  0.00000000000E+00  0.00000000000E+00  0.45593999997E+02  0.45594000000E+02  0.51100000000E-03 0. -1.
         11   -1    0    0    0    0 -0.00000000000E+00 -0.00000000000E+00 -0.45593999997E+02  0.45594000000E+02  0.51100000000E-03 0.  1.
    9900012    2    1    2    0    0  0.24347807254E+02 -0.75208809483E+01 -0.37144772855E+02  0.46142317424E+02  0.99999969274E+01 0.  0.
         12    1    1    2    0    0 -0.24347807254E+02  0.75208809483E+01  0.37144772855E+02  0.45045682576E+02  0.00000000000E+00 0. -1.
         11    1    3    3    0    0 -0.30293816406E+00 -0.64184469099E+00  0.16456607957E+00  0.72857284760E+00  0.51100000000E-03 0. -1.
        -11    1    3    3    0    0  0.19022501607E+02 -0.56888714504E+01 -0.25886108522E+02  0.32623755768E+02  0.51100000000E-03 0.  1.
         12    1    3    3    0    0  0.56282438111E+01 -0.11901648070E+01 -0.11423230413E+02  0.12789988809E+02  0.00000000000E+00 0. -1.
</event>
<event>
 7    1  0.1445801E-008  0.4614232E+02  0.7816164E-02  0.1320468E+00
        -11   -1    0    0    0    0  0.00000000000E+00  0.00000000000E+00  0.45593999997E+02  0.45594000000E+02  0.51100000000E-03 0.  1.
         11   -1    0    0    0    0 -0.00000000000E+00 -0.00000000000E+00 -0.45593999997E+02  0.45594000000E+02  0.51100000000E-03 0. -1.
    9900012    2    1    2    0    0  0.29646654292E+02 -0.45324573270E+01  0.33610208632E+02  0.46142318692E+02  0.10000008493E+02 0.  0.
         12    1    1    2    0    0 -0.29646654292E+02  0.45324573270E+01 -0.33610208632E+02  0.45045681308E+02  0.00000000000E+00 0. -1.
         11    1    3    3    0    0  0.73363088693E+01 -0.20329726103E+01  0.11923452286E+02  0.14146487908E+02  0.51100000000E-03 0. -1.
        -11    1    3    3    0    0  0.14413408137E+01  0.17071410961E+01  0.21787662868E+01  0.31207077493E+01  0.51100000000E-03 0.  1.
        -12    1    3    3    0    0  0.20869004609E+02 -0.42066258128E+01  0.19507990060E+02  0.28875123035E+02  0.00000000000E+00 0.  1.
</event>
<event>
 7    1  0.1445801E-008  0.4614232E+02  0.7816164E-02  0.1320468E+00
        -11   -1    0    0    0    0  0.00000000000E+00  0.00000000000E+00  0.45593999997E+02  0.45594000000E+02  0.51100000000E-03 0. -1.
         11   -1    0    0    0    0 -0.00000000000E+00 -0.00000000000E+00 -0.45593999997E+02  0.45594000000E+02  0.51100000000E-03 0.  1.
    9900012    2    1    2    0    0  0.22853896502E+02 -0.37815500861E+02 -0.87635979968E+01  0.46142319402E+02  0.10000014963E+02 0.  0.
         12    1    1    2    0    0 -0.22853896502E+02  0.37815500861E+02  0.87635979968E+01  0.45045680598E+02  0.00000000000E+00 0. -1.
         11    1    3    3    0    0  0.31799931347E+01 -0.66174512981E+01 -0.48415769557E+01  0.87945372646E+01  0.51100000000E-03 0. -1.
        -11    1    3    3    0    0  0.16143159502E+02 -0.22532684351E+02 -0.38928280964E+01  0.27990669403E+02  0.51100000000E-03 0.  1.
         12    1    3    3    0    0  0.35307438648E+01 -0.86653652119E+01 -0.29192944770E-01  0.93571127343E+01  0.00000000000E+00 0. -1.
</event>
<event>
 7    1  0.1445801E-008  0.4614232E+02  0.7816164E-02  0.1320468E+00
        -11   -1    0    0    0    0  0.00000000000E+00  0.00000000000E+00  0.45593999997E+02  0.45594000000E+02  0.51100000000E-03 0. -1.
         11   -1    0    0    0    0 -0.00000000000E+00 -0.00000000000E+00 -0.45593999997E+02  0.45594000000E+02  0.51100000000E-03 0.  1.
    9900012    2    1    2    0    0  0.30874792087E+02 -0.14682965269E+01 -0.32767434301E+02  0.46142318389E+02  0.10000005729E+02 0.  0.
         12    1    1    2    0    0 -0.30874792087E+02  0.14682965269E+01  0.32767434301E+02  0.45045681611E+02  0.00000000000E+00 0. -1.
         11    1    3    3    0    0  0.13078045196E+01 -0.42163108712E+00 -0.97287182674E-01  0.13775305776E+01  0.51100000000E-03 0. -1.
        -11    1    3    3    0    0  0.21526521514E+01 -0.18271593254E+00 -0.70382966979E-01  0.21615389009E+01  0.51100000000E-03 0.  1.
        -12    1    3    3    0    0  0.27414335416E+02 -0.86394950722E+00 -0.32599764151E+02  0.42603248911E+02  0.00000000000E+00 0.  1.
</event>
<event>
 7    1  0.1445801E-008  0.4614232E+02  0.7816164E-02  0.1320468E+00
        -11   -1    0    0    0    0  0.00000000000E+00  0.00000000000E+00  0.45593999997E+02  0.45594000000E+02  0.51100000000E-03 0.  1.
         11   -1    0    0    0    0 -0.00000000000E+00 -0.00000000000E+00 -0.45593999997E+02  0.45594000000E+02  0.51100000000E-03 0. -1.
    9900012    2    1    2    0    0 -0.17263405070E+02 -0.17623077008E+02  0.37689724693E+02  0.46142319349E+02  0.10000014483E+02 0.  0.
         12    1    1    2    0    0  0.17263405070E+02  0.17623077008E+02 -0.37689724693E+02  0.45045680651E+02  0.00000000000E+00 0. -1.
         11    1    3    3    0    0 -0.53075980319E+01 -0.64055949109E+01  0.70303757560E+01  0.10891667759E+02  0.51100000000E-03 0. -1.
        -11    1    3    3    0    0 -0.10951577557E+02 -0.10391925465E+02  0.23206076781E+02  0.27684854446E+02  0.51100000000E-03 0.  1.
         12    1    3    3    0    0 -0.10042294810E+01 -0.82555663146E+00  0.74532721564E+01  0.75657971450E+01  0.00000000000E+00 0. -1.
</event>
<event>
 7    1  0.1445801E-008  0.4614231E+02  0.7816164E-02  0.1320468E+00
        -11   -1    0    0    0    0  0.00000000000E+00  0.00000000000E+00  0.45593999997E+02  0.45594000000E+02  0.51100000000E-03 0.  1.
         11   -1    0    0    0    0 -0.00000000000E+00 -0.00000000000E+00 -0.45593999997E+02  0.45594000000E+02  0.51100000000E-03 0. -1.
    9900012    2    1    2    0    0  0.20380980398E+02 -0.29004886123E+02  0.27792915441E+02  0.46142312862E+02  0.99999553287E+01 0.  0.
         12    1    1    2    0    0 -0.20380980398E+02  0.29004886123E+02 -0.27792915441E+02  0.45045687138E+02  0.00000000000E+00 0. -1.
         11    1    3    3    0    0  0.78906775939E+00 -0.39508152434E+01  0.75208333775E+00  0.40984385593E+01  0.51100000000E-03 0. -1.
        -11    1    3    3    0    0  0.90554579690E+01 -0.14628163531E+02  0.16650317988E+02  0.23941962674E+02  0.51100000000E-03 0.  1.
         12    1    3    3    0    0  0.10536454669E+02 -0.10425907349E+02  0.10390514115E+02  0.18101911629E+02  0.00000000000E+00 0. -1.
</event>
<event>
 7    1  0.1445801E-008  0.4614232E+02  0.7816164E-02  0.1320468E+00
        -11   -1    0    0    0    0  0.00000000000E+00  0.00000000000E+00  0.45593999997E+02  0.45594000000E+02  0.51100000000E-03 0. -1.
         11   -1    0    0    0    0 -0.00000000000E+00 -0.00000000000E+00 -0.45593999997E+02  0.45594000000E+02  0.51100000000E-03 0.  1.
    9900012    2    1    2    0    0  0.18741966321E+02 -0.31763522178E+02 -0.25863696922E+02  0.46142318063E+02  0.10000002752E+02 0.  0.
         12    1    1    2    0    0 -0.18741966321E+02  0.31763522178E+02  0.25863696922E+02  0.45045681937E+02  0.00000000000E+00 0. -1.
         11    1    3    3    0    0  0.15261120965E+02 -0.21150932200E+02 -0.17166164377E+02  0.31224044352E+02  0.51100000000E-03 0. -1.
        -11    1    3    3    0    0  0.10745103350E+01 -0.81186880934E+01 -0.78640809968E+01  0.11353917342E+02  0.51100000000E-03 0.  1.
        -12    1    3    3    0    0  0.24063350206E+01 -0.24939018850E+01 -0.83345154793E+00  0.35643563691E+01  0.00000000000E+00 0.  1.
</event>
<event>
 7    1  0.1445801E-008  0.4614232E+02  0.7816164E-02  0.1320468E+00
        -11   -1    0    0    0    0  0.00000000000E+00  0.00000000000E+00  0.45593999997E+02  0.45594000000E+02  0.51100000000E-03 0.  1.
         11   -1    0    0    0    0 -0.00000000000E+00 -0.00000000000E+00 -0.45593999997E+02  0.45594000000E+02  0.51100000000E-03 0. -1.
    9900012    2    1    2    0    0 -0.18898272486E+01 -0.40738225957E+02  0.19129528536E+02  0.46142319151E+02  0.10000012674E+02 0.  0.
         12    1    1    2    0    0  0.18898272486E+01  0.40738225957E+02 -0.19129528536E+02  0.45045680849E+02  0.00000000000E+00 0. -1.
         11    1    3    3    0    0  0.97254725191E+00 -0.12425012552E+02  0.90967510250E+01  0.15429765538E+02  0.51100000000E-03 0.  1.
        -11    1    3    3    0    0 -0.11039460690E+00  0.27832878212E+00  0.16017070832E+00  0.33957149043E+00  0.51100000000E-03 0. -1.
        -12    1    3    3    0    0 -0.27519798936E+01 -0.28591542187E+02  0.98726068028E+01  0.30372982123E+02  0.00000000000E+00 0.  1.
</event>
<event>
 7    1  0.1445801E-008  0.4614232E+02  0.7816164E-02  0.1320468E+00
        -11   -1    0    0    0    0  0.00000000000E+00  0.00000000000E+00  0.45593999997E+02  0.45594000000E+02  0.51100000000E-03 0.  1.
         11   -1    0    0    0    0 -0.00000000000E+00 -0.00000000000E+00 -0.45593999997E+02  0.45594000000E+02  0.51100000000E-03 0. -1.
    9900012    2    1    2    0    0  0.12689454430E+02 -0.29248472417E+01  0.43122343406E+02  0.46142317788E+02  0.10000000243E+02 0.  0.
         12    1    1    2    0    0 -0.12689454430E+02  0.29248472417E+01 -0.43122343406E+02  0.45045682212E+02  0.00000000000E+00 0. -1.
         11    1    3    3    0    0  0.81084648267E+01 -0.22750287924E+01  0.35130175439E+02  0.36125506010E+02  0.51100000000E-03 0.  1.
        -11    1    3    3    0    0  0.44416329465E+01 -0.33258033198E+00  0.83840367089E+01  0.94937234374E+01  0.51100000000E-03 0. -1.
        -12    1    3    3    0    0  0.13935665709E+00 -0.31723811741E+00 -0.39186874165E+00  0.52308834024E+00  0.00000000000E+00 0.  1.
</event>
<event>
 7    1  0.1445801E-008  0.4614232E+02  0.7816164E-02  0.1320468E+00
        -11   -1    0    0    0    0  0.00000000000E+00  0.00000000000E+00  0.45593999997E+02  0.45594000000E+02  0.51100000000E-03 0.  1.
         11   -1    0    0    0    0 -0.00000000000E+00 -0.00000000000E+00 -0.45593999997E+02  0.45594000000E+02  0.51100000000E-03 0. -1.
    9900012    2    1    2    0    0 -0.41654915117E+02 -0.17106485204E+02  0.11615977087E+01  0.46142322087E+02  0.10000039445E+02 0.  0.
         12    1    1    2    0    0  0.41654915117E+02  0.17106485204E+02 -0.11615977087E+01  0.45045677913E+02  0.00000000000E+00 0. -1.
         11    1    3    3    0    0 -0.26189190372E+02 -0.12514969530E+02  0.53485786697E+00  0.29030746251E+02  0.51100000000E-03 0.  1.
        -11    1    3    3    0    0  0.35862613917E+00  0.34109630304E+00 -0.15269983358E+00  0.51795453077E+00  0.51100000000E-03 0. -1.
        -12    1    3    3    0    0 -0.15824350884E+02 -0.49326119766E+01  0.77943967529E+00  0.16593621306E+02  0.00000000000E+00 0.  1.
</event>
<event>
 7    1  0.1445801E-008  0.4614232E+02  0.7816164E-02  0.1320468E+00
        -11   -1    0    0    0    0  0.00000000000E+00  0.00000000000E+00  0.45593999997E+02  0.45594000000E+02  0.51100000000E-03 0.  1.
         11   -1    0    0    0    0 -0.00000000000E+00 -0.00000000000E+00 -0.45593999997E+02  0.45594000000E+02  0.51100000000E-03 0. -1.
    9900012    2    1    2    0    0  0.62615362093E+01 -0.49124376588E+01  0.44337057045E+02  0.46142317556E+02  0.99999981281E+01 0.  0.
         12    1    1    2    0    0 -0.62615362093E+01  0.49124376588E+01 -0.44337057045E+02  0.45045682444E+02  0.00000000000E+00 0. -1.
         11    1    3    3    0    0  0.50447911522E+00  0.15217739966E+01  0.20309949317E+01  0.25875154006E+01  0.51100000000E-03 0. -1.
        -11    1    3    3    0    0  0.67731630255E+01 -0.53199167356E+01  0.31990046702E+02  0.33129146378E+02  0.51100000000E-03 0.  1.
        -12    1    3    3    0    0 -0.10161059314E+01 -0.11142949198E+01  0.10316015411E+02  0.10425655777E+02  0.00000000000E+00 0.  1.
</event>
<event>
 7    1  0.1445801E-008  0.4614232E+02  0.7816164E-02  0.1320468E+00
        -11   -1    0    0    0    0  0.00000000000E+00  0.00000000000E+00  0.45593999997E+02  0.45594000000E+02  0.51100000000E-03 0.  1.
         11   -1    0    0    0    0 -0.00000000000E+00 -0.00000000000E+00 -0.45593999997E+02  0.45594000000E+02  0.51100000000E-03 0. -1.
    9900012    2    1    2    0    0  0.39344947481E+02  0.91621967157E+01  0.19928442467E+02  0.46142316965E+02  0.99999927438E+01 0.  0.
         12    1    1    2    0    0 -0.39344947481E+02 -0.91621967157E+01 -0.19928442467E+02  0.45045683035E+02  0.00000000000E+00 0. -1.
         11    1    3    3    0    0  0.15457929637E+02  0.60711379973E+01  0.74244196311E+01  0.18191435138E+02  0.51100000000E-03 0. -1.
        -11    1    3    3    0    0  0.21312009807E+02  0.48755434181E+01  0.11067758229E+02  0.24504447721E+02  0.51100000000E-03 0.  1.
         12    1    3    3    0    0  0.25750080365E+01 -0.17844846997E+01  0.14362646065E+01  0.34464341067E+01  0.00000000000E+00 0. -1.
</event>
<event>
 7    1  0.1445801E-008  0.4614232E+02  0.7816164E-02  0.1320468E+00
        -11   -1    0    0    0    0  0.00000000000E+00  0.00000000000E+00  0.45593999997E+02  0.45594000000E+02  0.51100000000E-03 0.  1.
         11   -1    0    0    0    0 -0.00000000000E+00 -0.00000000000E+00 -0.45593999997E+02  0.45594000000E+02  0.51100000000E-03 0. -1.
    9900012    2    1    2    0    0 -0.13730338146E+02  0.19004770570E+02  0.38463092010E+02  0.46142323881E+02  0.10000055807E+02 0.  0.
         12    1    1    2    0    0  0.13730338146E+02 -0.19004770570E+02 -0.38463092010E+02  0.45045676119E+02  0.00000000000E+00 0. -1.
         11    1    3    3    0    0 -0.59395868518E+01  0.33480178383E+01  0.13396354456E+02  0.15031640908E+02  0.51100000000E-03 0. -1.
        -11    1    3    3    0    0  0.32579362101E+00  0.22776085094E+01  0.61136228731E+01  0.65322298567E+01  0.51100000000E-03 0.  1.
         12    1    3    3    0    0 -0.81165449149E+01  0.13379144222E+02  0.18953114681E+02  0.24578453116E+02  0.00000000000E+00 0. -1.
</event>
<event>
 7    1  0.1445801E-008  0.4614232E+02  0.7816164E-02  0.1320468E+00
        -11   -1    0    0    0    0  0.00000000000E+00  0.00000000000E+00  0.45593999997E+02  0.45594000000E+02  0.51100000000E-03 0.  1.
         11   -1    0    0    0    0 -0.00000000000E+00 -0.00000000000E+00 -0.45593999997E+02  0.45594000000E+02  0.51100000000E-03 0. -1.
    9900012    2    1    2    0    0 -0.15718104201E+02 -0.41033516791E+02  0.99148947610E+01  0.46142318320E+02  0.10000005098E+02 0.  0.
         12    1    1    2    0    0  0.15718104201E+02  0.41033516791E+02 -0.99148947610E+01  0.45045681680E+02  0.00000000000E+00 0. -1.
         11    1    3    3    0    0 -0.72517681936E+00 -0.10270160099E+02 -0.59060820878E+00  0.10312656699E+02  0.51100000000E-03 0. -1.
        -11    1    3    3    0    0 -0.13317513792E+02 -0.26663986853E+02  0.95690024740E+01  0.31303197554E+02  0.51100000000E-03 0.  1.
         12    1    3    3    0    0 -0.16754135895E+01 -0.40993698388E+01  0.93650049581E+00  0.45264640670E+01  0.00000000000E+00 0. -1.
</event>
<event>
 7    1  0.1445801E-008  0.4614232E+02  0.7816164E-02  0.1320468E+00
        -11   -1    0    0    0    0  0.00000000000E+00  0.00000000000E+00  0.45593999997E+02  0.45594000000E+02  0.51100000000E-03 0.  1.
         11   -1    0    0    0    0 -0.00000000000E+00 -0.00000000000E+00 -0.45593999997E+02  0.45594000000E+02  0.51100000000E-03 0. -1.
    9900012    2    1    2    0    0  0.37219866601E+02  0.16146137467E+02  0.19572871151E+02  0.46142317521E+02  0.99999978102E+01 0.  0.
         12    1    1    2    0    0 -0.37219866601E+02 -0.16146137467E+02 -0.19572871151E+02  0.45045682479E+02  0.00000000000E+00 0. -1.
         11    1    3    3    0    0  0.36354267473E+01  0.61374878395E+00  0.40832715827E+01  0.55014654669E+01  0.51100000000E-03 0. -1.
        -11    1    3    3    0    0  0.16928229938E+02  0.11332768907E+02  0.91311235841E+01  0.22324292555E+02  0.51100000000E-03 0.  1.
        -12    1    3    3    0    0  0.16656209916E+02  0.41996197760E+01  0.63584759843E+01  0.18316559499E+02  0.00000000000E+00 0.  1.
</event>
<event>
 7    1  0.1445801E-008  0.4614232E+02  0.7816164E-02  0.1320468E+00
        -11   -1    0    0    0    0  0.00000000000E+00  0.00000000000E+00  0.45593999997E+02  0.45594000000E+02  0.51100000000E-03 0.  1.
         11   -1    0    0    0    0 -0.00000000000E+00 -0.00000000000E+00 -0.45593999997E+02  0.45594000000E+02  0.51100000000E-03 0. -1.
    9900012    2    1    2    0    0  0.19624581384E+02 -0.12195249409E+02  0.38668659767E+02  0.46142317068E+02  0.99999936768E+01 0.  0.
         12    1    1    2    0    0 -0.19624581384E+02  0.12195249409E+02 -0.38668659767E+02  0.45045682932E+02  0.00000000000E+00 0. -1.
         11    1    3    3    0    0  0.87072362527E+01 -0.20289168351E+01  0.11772682319E+02  0.14782710033E+02  0.51100000000E-03 0. -1.
        -11    1    3    3    0    0  0.71499476685E+01 -0.33290562090E+01  0.99082724422E+01  0.12664052667E+02  0.51100000000E-03 0.  1.
         12    1    3    3    0    0  0.37673974632E+01 -0.68372763648E+01  0.16987705006E+02  0.18695554367E+02  0.00000000000E+00 0. -1.
</event>
<event>
 7    1  0.1445801E-008  0.4614232E+02  0.7816164E-02  0.1320468E+00
        -11   -1    0    0    0    0  0.00000000000E+00  0.00000000000E+00  0.45593999997E+02  0.45594000000E+02  0.51100000000E-03 0. -1.
         11   -1    0    0    0    0 -0.00000000000E+00 -0.00000000000E+00 -0.45593999997E+02  0.45594000000E+02  0.51100000000E-03 0.  1.
    9900012    2    1    2    0    0  0.39003500688E+02 -0.19083967427E+02 -0.11985091048E+02  0.46142320007E+02  0.10000020476E+02 0.  0.
         12    1    1    2    0    0 -0.39003500688E+02  0.19083967427E+02  0.11985091048E+02  0.45045679993E+02  0.00000000000E+00 0. -1.
         11    1    3    3    0    0  0.13042772630E+02 -0.98900756710E+01 -0.22588005796E+01  0.16523610229E+02  0.51100000000E-03 0. -1.
        -11    1    3    3    0    0  0.10655507311E+02 -0.46127755040E+01 -0.65457280096E+01  0.13329069335E+02  0.51100000000E-03 0.  1.
        -12    1    3    3    0    0  0.15305220746E+02 -0.45811162516E+01 -0.31805624587E+01  0.16289640443E+02  0.00000000000E+00 0.  1.
</event>
<event>
 7    1  0.1445801E-008  0.4614232E+02  0.7816164E-02  0.1320468E+00
        -11   -1    0    0    0    0  0.00000000000E+00  0.00000000000E+00  0.45593999997E+02  0.45594000000E+02  0.51100000000E-03 0. -1.
         11   -1    0    0    0    0 -0.00000000000E+00 -0.00000000000E+00 -0.45593999997E+02  0.45594000000E+02  0.51100000000E-03 0.  1.
    9900012    2    1    2    0    0  0.29419132783E+01 -0.41873828064E+02  0.16341394622E+02  0.46142317536E+02  0.99999979497E+01 0.  0.
         12    1    1    2    0    0 -0.29419132783E+01  0.41873828064E+02 -0.16341394622E+02  0.45045682464E+02  0.00000000000E+00 0. -1.
         11    1    3    3    0    0 -0.45524973043E+00 -0.12369269535E+02  0.71083743461E+01  0.14273579342E+02  0.51100000000E-03 0. -1.
        -11    1    3    3    0    0 -0.12566817854E+01 -0.15453353406E+02  0.65238853945E+01  0.16821012499E+02  0.51100000000E-03 0.  1.
         12    1    3    3    0    0  0.46538447941E+01 -0.14051205123E+02  0.27091348814E+01  0.15047725695E+02  0.00000000000E+00 0. -1.
</event>
<event>
 7    1  0.1445801E-008  0.4614232E+02  0.7816164E-02  0.1320468E+00
        -11   -1    0    0    0    0  0.00000000000E+00  0.00000000000E+00  0.45593999997E+02  0.45594000000E+02  0.51100000000E-03 0.  1.
         11   -1    0    0    0    0 -0.00000000000E+00 -0.00000000000E+00 -0.45593999997E+02  0.45594000000E+02  0.51100000000E-03 0. -1.
    9900012    2    1    2    0    0  0.12570191560E+02 -0.15865232518E+02  0.40241746618E+02  0.46142317748E+02  0.99999998786E+01 0.  0.
         12    1    1    2    0    0 -0.12570191560E+02  0.15865232518E+02 -0.40241746618E+02  0.45045682252E+02  0.00000000000E+00 0. -1.
         11    1    3    3    0    0 -0.40905702363E-01 -0.40933914680E+01  0.58011984196E+01  0.71001007283E+01  0.51100000000E-03 0. -1.
        -11    1    3    3    0    0  0.87254546296E-01 -0.44588930375E+00  0.56279846774E+01  0.56462945741E+01  0.51100000000E-03 0.  1.
        -12    1    3    3    0    0  0.12523842716E+02 -0.11325951746E+02  0.28812563521E+02  0.33395922445E+02  0.00000000000E+00 0.  1.
</event>
<event>
 7    1  0.1445801E-008  0.4614231E+02  0.7816164E-02  0.1320468E+00
        -11   -1    0    0    0    0  0.00000000000E+00  0.00000000000E+00  0.45593999997E+02  0.45594000000E+02  0.51100000000E-03 0.  1.
         11   -1    0    0    0    0 -0.00000000000E+00 -0.00000000000E+00 -0.45593999997E+02  0.45594000000E+02  0.51100000000E-03 0. -1.
    9900012    2    1    2    0    0  0.31422138729E+02 -0.28945657440E+02 -0.14279774089E+02  0.46142313914E+02  0.99999649191E+01 0.  0.
         12    1    1    2    0    0 -0.31422138729E+02  0.28945657440E+02  0.14279774089E+02  0.45045686086E+02  0.00000000000E+00 0. -1.
         11    1    3    3    0    0  0.48319628681E+00 -0.11349411391E+01  0.69803666008E+00  0.14173304063E+01  0.51100000000E-03 0. -1.
        -11    1    3    3    0    0  0.19102801134E+02 -0.20207873109E+02 -0.75389174947E+01  0.28811636955E+02  0.51100000000E-03 0.  1.
        -12    1    3    3    0    0  0.11836141308E+02 -0.76028431916E+01 -0.74388932547E+01  0.15913346553E+02  0.00000000000E+00 0.  1.
</event>
<event>
 7    1  0.1445801E-008  0.4614232E+02  0.7816164E-02  0.1320468E+00
        -11   -1    0    0    0    0  0.00000000000E+00  0.00000000000E+00  0.45593999997E+02  0.45594000000E+02  0.51100000000E-03 0.  1.
         11   -1    0    0    0    0 -0.00000000000E+00 -0.00000000000E+00 -0.45593999997E+02  0.45594000000E+02  0.51100000000E-03 0. -1.
    9900012    2    1    2    0    0  0.99809111850E+01  0.69824893961E+01  0.43367495718E+02  0.46142318397E+02  0.10000005797E+02 0.  0.
         12    1    1    2    0    0 -0.99809111850E+01 -0.69824893961E+01 -0.43367495718E+02  0.45045681603E+02  0.00000000000E+00 0. -1.
         11    1    3    3    0    0  0.11293175508E+00 -0.26701312553E+00  0.43117208732E+00  0.51957600071E+00  0.51100000000E-03 0. -1.
        -11    1    3    3    0    0  0.26734607855E+01  0.54614770152E+01  0.30853229442E+02  0.31446731007E+02  0.51100000000E-03 0.  1.
        -12    1    3    3    0    0  0.71945186444E+01  0.17880255064E+01  0.12083094189E+02  0.14176011390E+02  0.00000000000E+00 0.  1.
</event>
<event>
 7    1  0.1445801E-008  0.4614232E+02  0.7816164E-02  0.1320468E+00
        -11   -1    0    0    0    0  0.00000000000E+00  0.00000000000E+00  0.45593999997E+02  0.45594000000E+02  0.51100000000E-03 0.  1.
         11   -1    0    0    0    0 -0.00000000000E+00 -0.00000000000E+00 -0.45593999997E+02  0.45594000000E+02  0.51100000000E-03 0. -1.
    9900012    2    1    2    0    0  0.39634555501E+02 -0.95680105703E+01  0.19148594205E+02  0.46142317898E+02  0.10000001247E+02 0.  0.
         12    1    1    2    0    0 -0.39634555501E+02  0.95680105703E+01 -0.19148594205E+02  0.45045682102E+02  0.00000000000E+00 0. -1.
         11    1    3    3    0    0  0.48146366359E+01 -0.25233111498E-01  0.60335096293E+01  0.77191062535E+01  0.51100000000E-03 0. -1.
        -11    1    3    3    0    0  0.13745402803E+02 -0.38084173862E+01  0.47055183728E+01  0.15019388956E+02  0.51100000000E-03 0.  1.
         12    1    3    3    0    0  0.21074516062E+02 -0.57343600725E+01  0.84095662028E+01  0.23403822688E+02  0.00000000000E+00 0. -1.
</event>
<event>
 7    1  0.1445801E-008  0.4614232E+02  0.7816164E-02  0.1320468E+00
        -11   -1    0    0    0    0  0.00000000000E+00  0.00000000000E+00  0.45593999997E+02  0.45594000000E+02  0.51100000000E-03 0. -1.
         11   -1    0    0    0    0 -0.00000000000E+00 -0.00000000000E+00 -0.45593999997E+02  0.45594000000E+02  0.51100000000E-03 0.  1.
    9900012    2    1    2    0    0 -0.22686575341E+02  0.25103456246E+02 -0.29736328475E+02  0.46142318216E+02  0.10000004150E+02 0.  0.
         12    1    1    2    0    0  0.22686575341E+02 -0.25103456246E+02  0.29736328475E+02  0.45045681784E+02  0.00000000000E+00 0. -1.
         11    1    3    3    0    0 -0.52657263115E+01  0.92850995652E+01 -0.85749271991E+01  0.13691980290E+02  0.51100000000E-03 0. -1.
        -11    1    3    3    0    0 -0.36239785775E+01  0.77897417988E+01 -0.83718091101E+01  0.11995852869E+02  0.51100000000E-03 0.  1.
         12    1    3    3    0    0 -0.13796870452E+02  0.80286148815E+01 -0.12789592166E+02  0.20454485057E+02  0.00000000000E+00 0. -1.
</event>
<event>
 7    1  0.1445801E-008  0.4614232E+02  0.7816164E-02  0.1320468E+00
        -11   -1    0    0    0    0  0.00000000000E+00  0.00000000000E+00  0.45593999997E+02  0.45594000000E+02  0.51100000000E-03 0. -1.
         11   -1    0    0    0    0 -0.00000000000E+00 -0.00000000000E+00 -0.45593999997E+02  0.45594000000E+02  0.51100000000E-03 0.  1.
    9900012    2    1    2    0    0 -0.30765165705E+02 -0.19172420549E+02 -0.26740163197E+02  0.46142318094E+02  0.10000003034E+02 0.  0.
         12    1    1    2    0    0  0.30765165705E+02  0.19172420549E+02  0.26740163197E+02  0.45045681906E+02  0.00000000000E+00 0. -1.
         11    1    3    3    0    0 -0.61898487126E+01 -0.79999002267E+01 -0.76664154581E+01  0.12691987904E+02  0.51100000000E-03 0. -1.
        -11    1    3    3    0    0 -0.19437121300E+02 -0.11002924580E+02 -0.15308113912E+02  0.27077747054E+02  0.51100000000E-03 0.  1.
        -12    1    3    3    0    0 -0.51381956932E+01 -0.16959574160E+00 -0.37656338274E+01  0.63725831355E+01  0.00000000000E+00 0.  1.
</event>
<event>
 7    1  0.1445801E-008  0.4614232E+02  0.7816164E-02  0.1320468E+00
        -11   -1    0    0    0    0  0.00000000000E+00  0.00000000000E+00  0.45593999997E+02  0.45594000000E+02  0.51100000000E-03 0.  1.
         11   -1    0    0    0    0 -0.00000000000E+00 -0.00000000000E+00 -0.45593999997E+02  0.45594000000E+02  0.51100000000E-03 0. -1.
    9900012    2    1    2    0    0 -0.20504959260E+01  0.26624009882E+01  0.44920157665E+02  0.46142317885E+02  0.10000001127E+02 0.  0.
         12    1    1    2    0    0  0.20504959260E+01 -0.26624009882E+01 -0.44920157665E+02  0.45045682115E+02  0.00000000000E+00 0. -1.
         11    1    3    3    0    0  0.13876807670E+01  0.35677080482E+01  0.16224040384E+02  0.16669543643E+02  0.51100000000E-03 0. -1.
        -11    1    3    3    0    0 -0.11613938759E+01  0.13420479505E+01  0.21784592341E+02  0.21856769939E+02  0.51100000000E-03 0.  1.
         12    1    3    3    0    0 -0.22767828171E+01 -0.22473550106E+01  0.69115249405E+01  0.76160043030E+01  0.00000000000E+00 0. -1.
</event>
<event>
 7    1  0.1445801E-008  0.4614232E+02  0.7816164E-02  0.1320468E+00
        -11   -1    0    0    0    0  0.00000000000E+00  0.00000000000E+00  0.45593999997E+02  0.45594000000E+02  0.51100000000E-03 0. -1.
         11   -1    0    0    0    0 -0.00000000000E+00 -0.00000000000E+00 -0.45593999997E+02  0.45594000000E+02  0.51100000000E-03 0.  1.
    9900012    2    1    2    0    0 -0.77774199064E+01 -0.34861966280E+01 -0.44232023360E+02  0.46142315214E+02  0.99999767762E+01 0.  0.
         12    1    1    2    0    0  0.77774199064E+01  0.34861966280E+01  0.44232023360E+02  0.45045684786E+02  0.00000000000E+00 0. -1.
         11    1    3    3    0    0 -0.17720507595E+01 -0.14671504138E+01 -0.23737724922E+01  0.33056754736E+01  0.51100000000E-03 0. -1.
        -11    1    3    3    0    0 -0.17680535829E+01  0.78141201876E+00 -0.28173367180E+02  0.28239604047E+02  0.51100000000E-03 0.  1.
        -12    1    3    3    0    0 -0.42373155639E+01 -0.28004582330E+01 -0.13684883687E+02  0.14597035693E+02  0.00000000000E+00 0.  1.
</event>
<event>
 7    1  0.1445801E-008  0.4614232E+02  0.7816164E-02  0.1320468E+00
        -11   -1    0    0    0    0  0.00000000000E+00  0.00000000000E+00  0.45593999997E+02  0.45594000000E+02  0.51100000000E-03 0.  1.
         11   -1    0    0    0    0 -0.00000000000E+00 -0.00000000000E+00 -0.45593999997E+02  0.45594000000E+02  0.51100000000E-03 0. -1.
    9900012    2    1    2    0    0 -0.16001993771E+02 -0.12742297163E+02  0.40133321695E+02  0.46142318166E+02  0.10000003693E+02 0.  0.
         12    1    1    2    0    0  0.16001993771E+02  0.12742297163E+02 -0.40133321695E+02  0.45045681834E+02  0.00000000000E+00 0. -1.
         11    1    3    3    0    0 -0.44286325977E+01 -0.57371315490E+01  0.76614878183E+01  0.10546367192E+02  0.51100000000E-03 0. -1.
        -11    1    3    3    0    0  0.70565790022E-01 -0.16408049004E+01  0.24294487657E+01  0.29324804890E+01  0.51100000000E-03 0.  1.
        -12    1    3    3    0    0 -0.11643926963E+02 -0.53643607133E+01  0.30042385111E+02  0.32663470485E+02  0.00000000000E+00 0.  1.
</event>
<event>
 7    1  0.1445801E-008  0.4614231E+02  0.7816164E-02  0.1320468E+00
        -11   -1    0    0    0    0  0.00000000000E+00  0.00000000000E+00  0.45593999997E+02  0.45594000000E+02  0.51100000000E-03 0.  1.
         11   -1    0    0    0    0 -0.00000000000E+00 -0.00000000000E+00 -0.45593999997E+02  0.45594000000E+02  0.51100000000E-03 0. -1.
    9900012    2    1    2    0    0 -0.74647381777E+01 -0.20631218539E+02  0.39341388291E+02  0.46142308452E+02  0.99999151078E+01 0.  0.
         12    1    1    2    0    0  0.74647381777E+01  0.20631218539E+02 -0.39341388291E+02  0.45045691548E+02  0.00000000000E+00 0. -1.
         11    1    3    3    0    0 -0.42773772919E+01 -0.14425500125E+02  0.20775002761E+02  0.25651349873E+02  0.51100000000E-03 0. -1.
        -11    1    3    3    0    0 -0.27467956001E+01 -0.69826134560E+01  0.17789599564E+02  0.19307294727E+02  0.51100000000E-03 0.  1.
        -12    1    3    3    0    0 -0.44056528575E+00  0.77689504214E+00  0.77678596530E+00  0.11836638515E+01  0.00000000000E+00 0.  1.
</event>
<event>
 7    1  0.1445801E-008  0.4614232E+02  0.7816164E-02  0.1320468E+00
        -11   -1    0    0    0    0  0.00000000000E+00  0.00000000000E+00  0.45593999997E+02  0.45594000000E+02  0.51100000000E-03 0.  1.
         11   -1    0    0    0    0 -0.00000000000E+00 -0.00000000000E+00 -0.45593999997E+02  0.45594000000E+02  0.51100000000E-03 0. -1.
    9900012    2    1    2    0    0  0.10929841674E+02  0.43125616907E+02  0.70592694807E+01  0.46142316985E+02  0.99999929267E+01 0.  0.
         12    1    1    2    0    0 -0.10929841674E+02 -0.43125616907E+02 -0.70592694807E+01  0.45045683015E+02  0.00000000000E+00 0. -1.
         11    1    3    3    0    0 -0.47446487301E+00  0.47684964253E+01  0.22307457610E+01  0.52858208431E+01  0.51100000000E-03 0. -1.
        -11    1    3    3    0    0 -0.10341863953E+00  0.90211860496E+01  0.17941061358E+01  0.91984406420E+01  0.51100000000E-03 0.  1.
         12    1    3    3    0    0  0.11507725187E+02  0.29335934432E+02  0.30344175839E+01  0.31658055500E+02  0.00000000000E+00 0. -1.
</event>
<event>
 7    1  0.1445801E-008  0.4614232E+02  0.7816164E-02  0.1320468E+00
        -11   -1    0    0    0    0  0.00000000000E+00  0.00000000000E+00  0.45593999997E+02  0.45594000000E+02  0.51100000000E-03 0.  1.
         11   -1    0    0    0    0 -0.00000000000E+00 -0.00000000000E+00 -0.45593999997E+02  0.45594000000E+02  0.51100000000E-03 0. -1.
    9900012    2    1    2    0    0 -0.23202314415E+02  0.26742774214E+02  0.27849418469E+02  0.46142317899E+02  0.10000001261E+02 0.  0.
         12    1    1    2    0    0  0.23202314415E+02 -0.26742774214E+02 -0.27849418469E+02  0.45045682101E+02  0.00000000000E+00 0. -1.
         11    1    3    3    0    0 -0.30084113884E+01  0.23245245810E+01  0.46448764432E+01  0.60024021061E+01  0.51100000000E-03 0. -1.
        -11    1    3    3    0    0 -0.11539059835E+02  0.13437473683E+02  0.17911419983E+02  0.25189969569E+02  0.51100000000E-03 0.  1.
        -12    1    3    3    0    0 -0.86548431916E+01  0.10980775950E+02  0.52931220426E+01  0.14949946224E+02  0.00000000000E+00 0.  1.
</event>
<event>
 7    1  0.1445801E-008  0.4614232E+02  0.7816164E-02  0.1320468E+00
        -11   -1    0    0    0    0  0.00000000000E+00  0.00000000000E+00  0.45593999997E+02  0.45594000000E+02  0.51100000000E-03 0. -1.
         11   -1    0    0    0    0 -0.00000000000E+00 -0.00000000000E+00 -0.45593999997E+02  0.45594000000E+02  0.51100000000E-03 0.  1.
    9900012    2    1    2    0    0 -0.26814643638E+02 -0.18306572380E+02 -0.31224314330E+02  0.46142317509E+02  0.99999977020E+01 0.  0.
         12    1    1    2    0    0  0.26814643638E+02  0.18306572380E+02  0.31224314330E+02  0.45045682491E+02  0.00000000000E+00 0. -1.
         11    1    3    3    0    0 -0.88317893587E+01 -0.77663637359E+01 -0.73509415641E+01  0.13869147454E+02  0.51100000000E-03 0. -1.
        -11    1    3    3    0    0 -0.17936149636E+02 -0.88485093508E+01 -0.22399735942E+02  0.30029148373E+02  0.51100000000E-03 0.  1.
         12    1    3    3    0    0 -0.46704643063E-01 -0.16916992929E+01 -0.14736368238E+01  0.22440216821E+01  0.00000000000E+00 0. -1.
</event>
<event>
 7    1  0.1445801E-008  0.4614232E+02  0.7816164E-02  0.1320468E+00
        -11   -1    0    0    0    0  0.00000000000E+00  0.00000000000E+00  0.45593999997E+02  0.45594000000E+02  0.51100000000E-03 0. -1.
         11   -1    0    0    0    0 -0.00000000000E+00 -0.00000000000E+00 -0.45593999997E+02  0.45594000000E+02  0.51100000000E-03 0.  1.
    9900012    2    1    2    0    0 -0.38895933236E+02  0.19162813259E+02 -0.12206821067E+02  0.46142317467E+02  0.99999973204E+01 0.  0.
         12    1    1    2    0    0  0.38895933236E+02 -0.19162813259E+02  0.12206821067E+02  0.45045682533E+02  0.00000000000E+00 0. -1.
         11    1    3    3    0    0 -0.75024114917E+01  0.77662853433E+01 -0.51216645610E+01  0.11951268316E+02  0.51100000000E-03 0. -1.
        -11    1    3    3    0    0 -0.23646139708E+02  0.86615803658E+01 -0.45287446783E+01  0.25586567299E+02  0.51100000000E-03 0.  1.
         12    1    3    3    0    0 -0.77473820364E+01  0.27349475499E+01 -0.25564118272E+01  0.86044818524E+01  0.00000000000E+00 0. -1.
</event>
<event>
 7    1  0.1445801E-008  0.4614232E+02  0.7816164E-02  0.1320468E+00
        -11   -1    0    0    0    0  0.00000000000E+00  0.00000000000E+00  0.45593999997E+02  0.45594000000E+02  0.51100000000E-03 0.  1.
         11   -1    0    0    0    0 -0.00000000000E+00 -0.00000000000E+00 -0.45593999997E+02  0.45594000000E+02  0.51100000000E-03 0. -1.
    9900012    2    1    2    0    0 -0.41117673308E+02  0.18258818232E+02  0.22507993024E+01  0.46142316533E+02  0.99999888028E+01 0.  0.
         12    1    1    2    0    0  0.41117673308E+02 -0.18258818232E+02 -0.22507993024E+01  0.45045683467E+02  0.00000000000E+00 0. -1.
         11    1    3    3    0    0 -0.24254931249E+01  0.57052040767E+00 -0.11103380233E+01  0.27278858520E+01  0.51100000000E-03 0. -1.
        -11    1    3    3    0    0  0.40293922393E-01 -0.62508464079E-01 -0.61825433124E+00  0.62271148013E+00  0.51100000000E-03 0.  1.
        -12    1    3    3    0    0 -0.38732474106E+02  0.17750806288E+02  0.39793916570E+01  0.42791719201E+02  0.00000000000E+00 0.  1.
</event>
<event>
 7    1  0.1445801E-008  0.4614232E+02  0.7816164E-02  0.1320468E+00
        -11   -1    0    0    0    0  0.00000000000E+00  0.00000000000E+00  0.45593999997E+02  0.45594000000E+02  0.51100000000E-03 0. -1.
         11   -1    0    0    0    0 -0.00000000000E+00 -0.00000000000E+00 -0.45593999997E+02  0.45594000000E+02  0.51100000000E-03 0.  1.
    9900012    2    1    2    0    0 -0.42286079933E+02  0.40974932904E+00 -0.15518793591E+02  0.46142318685E+02  0.10000008420E+02 0.  0.
         12    1    1    2    0    0  0.42286079933E+02 -0.40974932904E+00  0.15518793591E+02  0.45045681315E+02  0.00000000000E+00 0. -1.
         11    1    3    3    0    0 -0.17795943959E+02  0.13482673603E+01 -0.80626816290E+01  0.19583673853E+02  0.51100000000E-03 0. -1.
        -11    1    3    3    0    0 -0.12087861922E+02  0.27498180458E+01 -0.51099532956E+01  0.13408561745E+02  0.51100000000E-03 0.  1.
         12    1    3    3    0    0 -0.12402274053E+02 -0.36883360770E+01 -0.23461586664E+01  0.13150083086E+02  0.00000000000E+00 0. -1.
</event>
<event>
 7    1  0.1445801E-008  0.4614232E+02  0.7816164E-02  0.1320468E+00
        -11   -1    0    0    0    0  0.00000000000E+00  0.00000000000E+00  0.45593999997E+02  0.45594000000E+02  0.51100000000E-03 0.  1.
         11   -1    0    0    0    0 -0.00000000000E+00 -0.00000000000E+00 -0.45593999997E+02  0.45594000000E+02  0.51100000000E-03 0. -1.
    9900012    2    1    2    0    0 -0.19609236213E+02  0.36772334395E+02  0.17099321246E+02  0.46142317535E+02  0.99999979350E+01 0.  0.
         12    1    1    2    0    0  0.19609236213E+02 -0.36772334395E+02 -0.17099321246E+02  0.45045682465E+02  0.00000000000E+00 0. -1.
         11    1    3    3    0    0 -0.57724742028E+01  0.75382491355E+01  0.27711497313E+01  0.98906991434E+01  0.51100000000E-03 0. -1.
        -11    1    3    3    0    0 -0.10984779209E+02  0.22600298593E+02  0.72814448008E+01  0.26162154143E+02  0.51100000000E-03 0.  1.
        -12    1    3    3    0    0 -0.28519828009E+01  0.66337866663E+01  0.70467267141E+01  0.10089464248E+02  0.00000000000E+00 0.  1.
</event>
<event>
 7    1  0.1445801E-008  0.4614232E+02  0.7816164E-02  0.1320468E+00
        -11   -1    0    0    0    0  0.00000000000E+00  0.00000000000E+00  0.45593999997E+02  0.45594000000E+02  0.51100000000E-03 0.  1.
         11   -1    0    0    0    0 -0.00000000000E+00 -0.00000000000E+00 -0.45593999997E+02  0.45594000000E+02  0.51100000000E-03 0. -1.
    9900012    2    1    2    0    0  0.38546942485E-02  0.16174272709E+02  0.42041721079E+02  0.46142318478E+02  0.10000006538E+02 0.  0.
         12    1    1    2    0    0 -0.38546942485E-02 -0.16174272709E+02 -0.42041721079E+02  0.45045681522E+02  0.00000000000E+00 0. -1.
         11    1    3    3    0    0  0.22732473000E+01  0.52506072666E+01  0.99999991460E+01  0.11521133327E+02  0.51100000000E-03 0. -1.
        -11    1    3    3    0    0 -0.45371407372E+01  0.81502656872E+01  0.25656539627E+02  0.27299642905E+02  0.51100000000E-03 0.  1.
        -12    1    3    3    0    0  0.22677481314E+01  0.27733997553E+01  0.63851823056E+01  0.73215422464E+01  0.00000000000E+00 0.  1.
</event>
<event>
 7    1  0.1445801E-008  0.4614232E+02  0.7816164E-02  0.1320468E+00
        -11   -1    0    0    0    0  0.00000000000E+00  0.00000000000E+00  0.45593999997E+02  0.45594000000E+02  0.51100000000E-03 0.  1.
         11   -1    0    0    0    0 -0.00000000000E+00 -0.00000000000E+00 -0.45593999997E+02  0.45594000000E+02  0.51100000000E-03 0. -1.
    9900012    2    1    2    0    0  0.20433028074E+02 -0.36445769660E+02  0.16831835368E+02  0.46142318251E+02  0.10000004468E+02 0.  0.
         12    1    1    2    0    0 -0.20433028074E+02  0.36445769660E+02 -0.16831835368E+02  0.45045681749E+02  0.00000000000E+00 0. -1.
         11    1    3    3    0    0  0.97646206544E+00 -0.67299019673E+00  0.38094805945E+00  0.12455985129E+01  0.51100000000E-03 0. -1.
        -11    1    3    3    0    0  0.19028299188E+02 -0.32317810737E+02  0.17317981736E+02  0.41308952450E+02  0.51100000000E-03 0.  1.
        -12    1    3    3    0    0  0.42826681980E+00 -0.34549687258E+01 -0.86709442759E+00  0.35877672878E+01  0.00000000000E+00 0.  1.
</event>
<event>
 7    1  0.1445801E-008  0.4614232E+02  0.7816164E-02  0.1320468E+00
        -11   -1    0    0    0    0  0.00000000000E+00  0.00000000000E+00  0.45593999997E+02  0.45594000000E+02  0.51100000000E-03 0. -1.
         11   -1    0    0    0    0 -0.00000000000E+00 -0.00000000000E+00 -0.45593999997E+02  0.45594000000E+02  0.51100000000E-03 0.  1.
    9900012    2    1    2    0    0  0.11357471484E+02  0.32679873871E+02 -0.28846959140E+02  0.46142319116E+02  0.10000012354E+02 0.  0.
         12    1    1    2    0    0 -0.11357471484E+02 -0.32679873871E+02  0.28846959140E+02  0.45045680884E+02  0.00000000000E+00 0. -1.
         11    1    3    3    0    0  0.12137868263E+00  0.25340579456E+01 -0.34877610126E+01  0.43128482003E+01  0.51100000000E-03 0. -1.
        -11    1    3    3    0    0  0.54971093323E+01  0.24586998488E+02 -0.17964561283E+02  0.30942917898E+02  0.51100000000E-03 0.  1.
        -12    1    3    3    0    0  0.57389834693E+01  0.55588174365E+01 -0.73946368438E+01  0.10886553018E+02  0.00000000000E+00 0.  1.
</event>
<event>
 7    1  0.1445801E-008  0.4614231E+02  0.7816164E-02  0.1320468E+00
        -11   -1    0    0    0    0  0.00000000000E+00  0.00000000000E+00  0.45593999997E+02  0.45594000000E+02  0.51100000000E-03 0.  1.
         11   -1    0    0    0    0 -0.00000000000E+00 -0.00000000000E+00 -0.45593999997E+02  0.45594000000E+02  0.51100000000E-03 0. -1.
    9900012    2    1    2    0    0 -0.35099985503E+02  0.12810776984E+02  0.25159268483E+02  0.46142314526E+02  0.99999705008E+01 0.  0.
         12    1    1    2    0    0  0.35099985503E+02 -0.12810776984E+02 -0.25159268483E+02  0.45045685474E+02  0.00000000000E+00 0. -1.
         11    1    3    3    0    0 -0.13312556559E+02  0.73839665748E+01  0.13211059963E+02  0.20156369467E+02  0.51100000000E-03 0. -1.
        -11    1    3    3    0    0 -0.21999587992E+02  0.51677069160E+01  0.12081896508E+02  0.25625364194E+02  0.51100000000E-03 0.  1.
         12    1    3    3    0    0  0.21215904821E+00  0.25910349286E+00 -0.13368798775E+00  0.36058086446E+00  0.00000000000E+00 0. -1.
</event>
<event>
 7    1  0.1445801E-008  0.4614232E+02  0.7816164E-02  0.1320468E+00
        -11   -1    0    0    0    0  0.00000000000E+00  0.00000000000E+00  0.45593999997E+02  0.45594000000E+02  0.51100000000E-03 0. -1.
         11   -1    0    0    0    0 -0.00000000000E+00 -0.00000000000E+00 -0.45593999997E+02  0.45594000000E+02  0.51100000000E-03 0.  1.
    9900012    2    1    2    0    0  0.13532174076E+01  0.41732136604E+02 -0.16902988052E+02  0.46142318431E+02  0.10000006109E+02 0.  0.
         12    1    1    2    0    0 -0.13532174076E+01 -0.41732136604E+02  0.16902988052E+02  0.45045681569E+02  0.00000000000E+00 0. -1.
         11    1    3    3    0    0 -0.29230921418E+01  0.24104777293E+02 -0.10422658739E+02  0.26423787985E+02  0.51100000000E-03 0. -1.
        -11    1    3    3    0    0  0.43056616964E+01  0.14731833624E+02 -0.68348873068E+01  0.16801229994E+02  0.51100000000E-03 0.  1.
         12    1    3    3    0    0 -0.29352146986E-01  0.28955256872E+01  0.35455799367E+00  0.29173004516E+01  0.00000000000E+00 0. -1.
</event>
<event>
 7    1  0.1445801E-008  0.4614232E+02  0.7816164E-02  0.1320468E+00
        -11   -1    0    0    0    0  0.00000000000E+00  0.00000000000E+00  0.45593999997E+02  0.45594000000E+02  0.51100000000E-03 0. -1.
         11   -1    0    0    0    0 -0.00000000000E+00 -0.00000000000E+00 -0.45593999997E+02  0.45594000000E+02  0.51100000000E-03 0.  1.
    9900012    2    1    2    0    0  0.18964438195E+02  0.31554686705E+02 -0.25956988348E+02  0.46142318595E+02  0.10000007606E+02 0.  0.
         12    1    1    2    0    0 -0.18964438195E+02 -0.31554686705E+02  0.25956988348E+02  0.45045681405E+02  0.00000000000E+00 0. -1.
         11    1    3    3    0    0  0.74889373561E+01  0.12704367332E+02 -0.51521356396E+01  0.15621447882E+02  0.51100000000E-03 0. -1.
        -11    1    3    3    0    0  0.67511088947E+01  0.85554014208E+01 -0.11686455352E+02  0.15979537031E+02  0.51100000000E-03 0.  1.
        -12    1    3    3    0    0  0.47243919446E+01  0.10294917952E+02 -0.91183973564E+01  0.14541333682E+02  0.00000000000E+00 0.  1.
</event>
<event>
 7    1  0.1445801E-008  0.4614232E+02  0.7816164E-02  0.1320468E+00
        -11   -1    0    0    0    0  0.00000000000E+00  0.00000000000E+00  0.45593999997E+02  0.45594000000E+02  0.51100000000E-03 0.  1.
         11   -1    0    0    0    0 -0.00000000000E+00 -0.00000000000E+00 -0.45593999997E+02  0.45594000000E+02  0.51100000000E-03 0. -1.
    9900012    2    1    2    0    0 -0.34167907600E+02  0.29333070905E+02  0.11129281414E+01  0.46142316882E+02  0.99999919863E+01 0.  0.
         12    1    1    2    0    0  0.34167907600E+02 -0.29333070905E+02 -0.11129281414E+01  0.45045683118E+02  0.00000000000E+00 0. -1.
         11    1    3    3    0    0 -0.24165267952E+02  0.16854120967E+02 -0.11979659969E+01  0.29486551028E+02  0.51100000000E-03 0. -1.
        -11    1    3    3    0    0 -0.53232286945E+01  0.47259945636E+01  0.26449985330E+01  0.75939321731E+01  0.51100000000E-03 0.  1.
         12    1    3    3    0    0 -0.46794109538E+01  0.77529553744E+01 -0.33410439471E+00  0.90618336808E+01  0.00000000000E+00 0. -1.
</event>
<event>
 7    1  0.1445801E-008  0.4614232E+02  0.7816164E-02  0.1320468E+00
        -11   -1    0    0    0    0  0.00000000000E+00  0.00000000000E+00  0.45593999997E+02  0.45594000000E+02  0.51100000000E-03 0. -1.
         11   -1    0    0    0    0 -0.00000000000E+00 -0.00000000000E+00 -0.45593999997E+02  0.45594000000E+02  0.51100000000E-03 0.  1.
    9900012    2    1    2    0    0  0.40041796758E+02  0.10994281270E+02 -0.17461208449E+02  0.46142317535E+02  0.99999979359E+01 0.  0.
         12    1    1    2    0    0 -0.40041796758E+02 -0.10994281270E+02  0.17461208449E+02  0.45045682465E+02  0.00000000000E+00 0. -1.
         11    1    3    3    0    0  0.23703159173E+02  0.60116996248E+01 -0.57783610312E+01  0.25127071927E+02  0.51100000000E-03 0. -1.
        -11    1    3    3    0    0  0.12987044295E+02  0.47886119075E+01 -0.78223159340E+01  0.15899143070E+02  0.51100000000E-03 0.  1.
        -12    1    3    3    0    0  0.33515932900E+01  0.19396973804E+00 -0.38605314839E+01  0.51161025380E+01  0.00000000000E+00 0.  1.
</event>
<event>
 7    1  0.1445801E-008  0.4614232E+02  0.7816164E-02  0.1320468E+00
        -11   -1    0    0    0    0  0.00000000000E+00  0.00000000000E+00  0.45593999997E+02  0.45594000000E+02  0.51100000000E-03 0.  1.
         11   -1    0    0    0    0 -0.00000000000E+00 -0.00000000000E+00 -0.45593999997E+02  0.45594000000E+02  0.51100000000E-03 0. -1.
    9900012    2    1    2    0    0 -0.12905595435E+02 -0.20693800505E+01  0.43107730422E+02  0.46142321522E+02  0.10000034299E+02 0.  0.
         12    1    1    2    0    0  0.12905595435E+02  0.20693800505E+01 -0.43107730422E+02  0.45045678478E+02  0.00000000000E+00 0. -1.
         11    1    3    3    0    0 -0.16649122629E+00 -0.21829024771E+01  0.24318923619E+01  0.32721374167E+01  0.51100000000E-03 0. -1.
        -11    1    3    3    0    0 -0.86365399747E+01 -0.14673451141E+01  0.31499112217E+02  0.32694601927E+02  0.51100000000E-03 0.  1.
         12    1    3    3    0    0 -0.41025642345E+01  0.15808675406E+01  0.91767258432E+01  0.10175582179E+02  0.00000000000E+00 0. -1.
</event>
<event>
 7    1  0.1445801E-008  0.4614232E+02  0.7816164E-02  0.1320468E+00
        -11   -1    0    0    0    0  0.00000000000E+00  0.00000000000E+00  0.45593999997E+02  0.45594000000E+02  0.51100000000E-03 0.  1.
         11   -1    0    0    0    0 -0.00000000000E+00 -0.00000000000E+00 -0.45593999997E+02  0.45594000000E+02  0.51100000000E-03 0. -1.
    9900012    2    1    2    0    0 -0.24734056026E+02 -0.10424636766E+02  0.36175500631E+02  0.46142318463E+02  0.10000006401E+02 0.  0.
         12    1    1    2    0    0  0.24734056026E+02  0.10424636766E+02 -0.36175500631E+02  0.45045681537E+02  0.00000000000E+00 0. -1.
         11    1    3    3    0    0 -0.44873647337E+01  0.14732068469E+01  0.54285007343E+01  0.71955125704E+01  0.51100000000E-03 0. -1.
        -11    1    3    3    0    0 -0.16103011834E+02 -0.11244260595E+02  0.24137431048E+02  0.31118418410E+02  0.51100000000E-03 0.  1.
        -12    1    3    3    0    0 -0.41436794583E+01 -0.65358301750E+00  0.66095688490E+01  0.78283874830E+01  0.00000000000E+00 0.  1.
</event>
<event>
 7    1  0.1445801E-008  0.4614232E+02  0.7816164E-02  0.1320468E+00
        -11   -1    0    0    0    0  0.00000000000E+00  0.00000000000E+00  0.45593999997E+02  0.45594000000E+02  0.51100000000E-03 0.  1.
         11   -1    0    0    0    0 -0.00000000000E+00 -0.00000000000E+00 -0.45593999997E+02  0.45594000000E+02  0.51100000000E-03 0. -1.
    9900012    2    1    2    0    0 -0.24490970998E+02  0.87463739543E+01  0.36780522472E+02  0.46142317065E+02  0.99999936534E+01 0.  0.
         12    1    1    2    0    0  0.24490970998E+02 -0.87463739543E+01 -0.36780522472E+02  0.45045682935E+02  0.00000000000E+00 0. -1.
         11    1    3    3    0    0 -0.13507882909E+02  0.55579893756E+01  0.25573508549E+02  0.29450950517E+02  0.51100000000E-03 0. -1.
        -11    1    3    3    0    0 -0.94814485892E+01  0.28700841928E+01  0.11446324815E+02  0.15137820274E+02  0.51100000000E-03 0.  1.
         12    1    3    3    0    0 -0.15016394992E+01  0.31830038598E+00 -0.23931089228E+00  0.15535462737E+01  0.00000000000E+00 0. -1.
</event>
<event>
 7    1  0.1445801E-008  0.4614232E+02  0.7816164E-02  0.1320468E+00
        -11   -1    0    0    0    0  0.00000000000E+00  0.00000000000E+00  0.45593999997E+02  0.45594000000E+02  0.51100000000E-03 0.  1.
         11   -1    0    0    0    0 -0.00000000000E+00 -0.00000000000E+00 -0.45593999997E+02  0.45594000000E+02  0.51100000000E-03 0. -1.
    9900012    2    1    2    0    0 -0.12304445288E+02  0.34995069272E+02  0.25555023129E+02  0.46142318139E+02  0.10000003446E+02 0.  0.
         12    1    1    2    0    0  0.12304445288E+02 -0.34995069272E+02 -0.25555023129E+02  0.45045681861E+02  0.00000000000E+00 0. -1.
         11    1    3    3    0    0 -0.15585306355E+01  0.34468950422E+01 -0.37616420164E+00  0.38015263962E+01  0.51100000000E-03 0. -1.
        -11    1    3    3    0    0 -0.53924725452E+01  0.12855675547E+02  0.93408751922E+01  0.16780914860E+02  0.51100000000E-03 0.  1.
         12    1    3    3    0    0 -0.53534421072E+01  0.18692498683E+02  0.16590312139E+02  0.25559876883E+02  0.00000000000E+00 0. -1.
</event>
<event>
 7    1  0.1445801E-008  0.4614232E+02  0.7816164E-02  0.1320468E+00
        -11   -1    0    0    0    0  0.00000000000E+00  0.00000000000E+00  0.45593999997E+02  0.45594000000E+02  0.51100000000E-03 0. -1.
         11   -1    0    0    0    0 -0.00000000000E+00 -0.00000000000E+00 -0.45593999997E+02  0.45594000000E+02  0.51100000000E-03 0.  1.
    9900012    2    1    2    0    0  0.40664560759E+02  0.17787639586E+02  0.76880939111E+01  0.46142318611E+02  0.10000007751E+02 0.  0.
         12    1    1    2    0    0 -0.40664560759E+02 -0.17787639586E+02 -0.76880939111E+01  0.45045681389E+02  0.00000000000E+00 0. -1.
         11    1    3    3    0    0  0.17965030231E+01  0.80361239984E+00  0.10575839391E+01  0.22342112816E+01  0.51100000000E-03 0. -1.
        -11    1    3    3    0    0  0.11770680997E+02  0.56592993739E+01 -0.21914464432E+01  0.13243075108E+02  0.51100000000E-03 0.  1.
        -12    1    3    3    0    0  0.27097376739E+02  0.11324727813E+02  0.88219564151E+01  0.30665032222E+02  0.00000000000E+00 0.  1.
</event>
<event>
 7    1  0.1445801E-008  0.4614232E+02  0.7816164E-02  0.1320468E+00
        -11   -1    0    0    0    0  0.00000000000E+00  0.00000000000E+00  0.45593999997E+02  0.45594000000E+02  0.51100000000E-03 0. -1.
         11   -1    0    0    0    0 -0.00000000000E+00 -0.00000000000E+00 -0.45593999997E+02  0.45594000000E+02  0.51100000000E-03 0.  1.
    9900012    2    1    2    0    0  0.31995150342E+00  0.36928834246E+02 -0.25792873740E+02  0.46142317593E+02  0.99999984674E+01 0.  0.
         12    1    1    2    0    0 -0.31995150342E+00 -0.36928834246E+02  0.25792873740E+02  0.45045682407E+02  0.00000000000E+00 0. -1.
         11    1    3    3    0    0  0.11696056691E+01  0.54384332955E+00 -0.69352506840E+00  0.14644863502E+01  0.51100000000E-03 0. -1.
        -11    1    3    3    0    0  0.16699695296E+01  0.28295962962E+02 -0.17611986379E+02  0.33371130976E+02  0.51100000000E-03 0.  1.
        -12    1    3    3    0    0 -0.25196236953E+01  0.80890279553E+01 -0.74873622921E+01  0.11306700267E+02  0.00000000000E+00 0.  1.
</event>
<event>
 7    1  0.1445801E-008  0.4614232E+02  0.7816164E-02  0.1320468E+00
        -11   -1    0    0    0    0  0.00000000000E+00  0.00000000000E+00  0.45593999997E+02  0.45594000000E+02  0.51100000000E-03 0.  1.
         11   -1    0    0    0    0 -0.00000000000E+00 -0.00000000000E+00 -0.45593999997E+02  0.45594000000E+02  0.51100000000E-03 0. -1.
    9900012    2    1    2    0    0  0.19117707153E+01  0.39662752898E+02  0.21267925254E+02  0.46142317862E+02  0.10000000917E+02 0.  0.
         12    1    1    2    0    0 -0.19117707153E+01 -0.39662752898E+02 -0.21267925254E+02  0.45045682138E+02  0.00000000000E+00 0. -1.
         11    1    3    3    0    0  0.12206356177E+01  0.14526558345E+02  0.47957438287E+01  0.15346335321E+02  0.51100000000E-03 0.  1.
        -11    1    3    3    0    0 -0.87481284920E+00  0.71527811501E+01  0.15396209876E+01  0.73687182568E+01  0.51100000000E-03 0. -1.
        -12    1    3    3    0    0  0.15659479469E+01  0.17983413403E+02  0.14932560438E+02  0.23427264283E+02  0.00000000000E+00 0.  1.
</event>
<event>
 7    1  0.1445801E-008  0.4614232E+02  0.7816164E-02  0.1320468E+00
        -11   -1    0    0    0    0  0.00000000000E+00  0.00000000000E+00  0.45593999997E+02  0.45594000000E+02  0.51100000000E-03 0.  1.
         11   -1    0    0    0    0 -0.00000000000E+00 -0.00000000000E+00 -0.45593999997E+02  0.45594000000E+02  0.51100000000E-03 0. -1.
    9900012    2    1    2    0    0  0.20419254397E+02  0.29137816312E+02  0.27625264752E+02  0.46142317164E+02  0.99999945541E+01 0.  0.
         12    1    1    2    0    0 -0.20419254397E+02 -0.29137816312E+02 -0.27625264752E+02  0.45045682836E+02  0.00000000000E+00 0. -1.
         11    1    3    3    0    0  0.45814227126E+01  0.12770070547E+02  0.10583841102E+02  0.17207028465E+02  0.51100000000E-03 0. -1.
        -11    1    3    3    0    0  0.11351541000E+02  0.14728704644E+02  0.13939616633E+02  0.23240162127E+02  0.51100000000E-03 0.  1.
         12    1    3    3    0    0  0.44862906841E+01  0.16390411204E+01  0.31018070177E+01  0.56951265720E+01  0.00000000000E+00 0. -1.
</event>
<event>
 7    1  0.1445801E-008  0.4614232E+02  0.7816164E-02  0.1320468E+00
        -11   -1    0    0    0    0  0.00000000000E+00  0.00000000000E+00  0.45593999997E+02  0.45594000000E+02  0.51100000000E-03 0. -1.
         11   -1    0    0    0    0 -0.00000000000E+00 -0.00000000000E+00 -0.45593999997E+02  0.45594000000E+02  0.51100000000E-03 0.  1.
    9900012    2    1    2    0    0  0.39461377946E+02 -0.13318212244E+02 -0.17162118339E+02  0.46142318379E+02  0.10000005635E+02 0.  0.
         12    1    1    2    0    0 -0.39461377946E+02  0.13318212244E+02  0.17162118339E+02  0.45045681621E+02  0.00000000000E+00 0. -1.
         11    1    3    3    0    0  0.31509213578E+02 -0.66871284630E+01 -0.14283964965E+02  0.35236059410E+02  0.51100000000E-03 0. -1.
        -11    1    3    3    0    0  0.63560373500E+01 -0.57038273100E+01 -0.30115801237E+01  0.90555216239E+01  0.51100000000E-03 0.  1.
         12    1    3    3    0    0  0.15961270184E+01 -0.92725647098E+00  0.13342674973E+00  0.18507373448E+01  0.00000000000E+00 0. -1.
</event>
<event>
 7    1  0.1445801E-008  0.4614232E+02  0.7816164E-02  0.1320468E+00
        -11   -1    0    0    0    0  0.00000000000E+00  0.00000000000E+00  0.45593999997E+02  0.45594000000E+02  0.51100000000E-03 0.  1.
         11   -1    0    0    0    0 -0.00000000000E+00 -0.00000000000E+00 -0.45593999997E+02  0.45594000000E+02  0.51100000000E-03 0. -1.
    9900012    2    1    2    0    0 -0.23945353030E+02 -0.30460271406E+02  0.22976195945E+02  0.46142316012E+02  0.99999840501E+01 0.  0.
         12    1    1    2    0    0  0.23945353030E+02  0.30460271406E+02 -0.22976195945E+02  0.45045683988E+02  0.00000000000E+00 0. -1.
         11    1    3    3    0    0 -0.68484260723E+01 -0.14788782165E+02  0.95090445867E+01  0.18868782335E+02  0.51100000000E-03 0. -1.
        -11    1    3    3    0    0 -0.36240951193E+01 -0.15458786577E+01  0.85077156920E+00  0.40308335096E+01  0.51100000000E-03 0.  1.
         12    1    3    3    0    0 -0.13472831838E+02 -0.14125610583E+02  0.12616379789E+02  0.23242700167E+02  0.00000000000E+00 0. -1.
</event>
<event>
 7    1  0.1445801E-008  0.4614232E+02  0.7816164E-02  0.1320468E+00
        -11   -1    0    0    0    0  0.00000000000E+00  0.00000000000E+00  0.45593999997E+02  0.45594000000E+02  0.51100000000E-03 0.  1.
         11   -1    0    0    0    0 -0.00000000000E+00 -0.00000000000E+00 -0.45593999997E+02  0.45594000000E+02  0.51100000000E-03 0. -1.
    9900012    2    1    2    0    0 -0.22645115622E+02 -0.27951611501E+02  0.27111244137E+02  0.46142318679E+02  0.10000008371E+02 0.  0.
         12    1    1    2    0    0  0.22645115622E+02  0.27951611501E+02 -0.27111244137E+02  0.45045681321E+02  0.00000000000E+00 0. -1.
         11    1    3    3    0    0 -0.13236948189E+02 -0.15456227572E+02  0.12991336715E+02  0.24143044506E+02  0.51100000000E-03 0. -1.
        -11    1    3    3    0    0 -0.57722326901E+01 -0.11804080731E+02  0.10468055331E+02  0.16799856392E+02  0.51100000000E-03 0.  1.
         12    1    3    3    0    0 -0.36359347425E+01 -0.69130319788E+00  0.36518520913E+01  0.51994177809E+01  0.00000000000E+00 0. -1.
</event>
<event>
 7    1  0.1445801E-008  0.4614232E+02  0.7816164E-02  0.1320468E+00
        -11   -1    0    0    0    0  0.00000000000E+00  0.00000000000E+00  0.45593999997E+02  0.45594000000E+02  0.51100000000E-03 0.  1.
         11   -1    0    0    0    0 -0.00000000000E+00 -0.00000000000E+00 -0.45593999997E+02  0.45594000000E+02  0.51100000000E-03 0. -1.
    9900012    2    1    2    0    0 -0.33373616975E+02  0.29430455223E+02  0.70116663247E+01  0.46142317973E+02  0.10000001935E+02 0.  0.
         12    1    1    2    0    0  0.33373616975E+02 -0.29430455223E+02 -0.70116663247E+01  0.45045682027E+02  0.00000000000E+00 0. -1.
         11    1    3    3    0    0 -0.22077125187E+02  0.18982025224E+02  0.83638573076E+01  0.30293082502E+02  0.51100000000E-03 0. -1.
        -11    1    3    3    0    0 -0.74822766619E+01  0.67362082093E+01  0.81870517609E+00  0.10101051604E+02  0.51100000000E-03 0.  1.
         12    1    3    3    0    0 -0.38142151255E+01  0.37122217897E+01 -0.21708961590E+01  0.57481838673E+01  0.00000000000E+00 0. -1.
</event>
<event>
 7    1  0.1445801E-008  0.4614232E+02  0.7816164E-02  0.1320468E+00
        -11   -1    0    0    0    0  0.00000000000E+00  0.00000000000E+00  0.45593999997E+02  0.45594000000E+02  0.51100000000E-03 0.  1.
         11   -1    0    0    0    0 -0.00000000000E+00 -0.00000000000E+00 -0.45593999997E+02  0.45594000000E+02  0.51100000000E-03 0. -1.
    9900012    2    1    2    0    0 -0.80871327226E+01  0.12569726382E+02  0.42493690354E+02  0.46142318110E+02  0.10000003183E+02 0.  0.
         12    1    1    2    0    0  0.80871327226E+01 -0.12569726382E+02 -0.42493690354E+02  0.45045681890E+02  0.00000000000E+00 0. -1.
         11    1    3    3    0    0 -0.72577523088E+01  0.99635345850E+01  0.20233807932E+02  0.23692909776E+02  0.51100000000E-03 0. -1.
        -11    1    3    3    0    0 -0.23218787496E+00  0.20764193736E+01  0.17296301275E+02  0.17422039682E+02  0.51100000000E-03 0.  1.
         12    1    3    3    0    0 -0.59719253884E+00  0.52977242312E+00  0.49635811481E+01  0.50273686519E+01  0.00000000000E+00 0. -1.
</event>
<event>
 7    1  0.1445801E-008  0.4614232E+02  0.7816164E-02  0.1320468E+00
        -11   -1    0    0    0    0  0.00000000000E+00  0.00000000000E+00  0.45593999997E+02  0.45594000000E+02  0.51100000000E-03 0.  1.
         11   -1    0    0    0    0 -0.00000000000E+00 -0.00000000000E+00 -0.45593999997E+02  0.45594000000E+02  0.51100000000E-03 0. -1.
    9900012    2    1    2    0    0 -0.27005406897E+02  0.32054079965E+02  0.16503254876E+02  0.46142318014E+02  0.10000002305E+02 0.  0.
         12    1    1    2    0    0  0.27005406897E+02 -0.32054079965E+02 -0.16503254876E+02  0.45045681986E+02  0.00000000000E+00 0. -1.
         11    1    3    3    0    0 -0.13540814585E+02  0.12308444440E+02  0.95651248112E+01  0.20648076837E+02  0.51100000000E-03 0. -1.
        -11    1    3    3    0    0 -0.13537000601E+02  0.17663972289E+02  0.53872311193E+01  0.22897348355E+02  0.51100000000E-03 0.  1.
         12    1    3    3    0    0  0.72408288857E-01  0.20816632364E+01  0.15508989453E+01  0.25968928219E+01  0.00000000000E+00 0. -1.
</event>
<event>
 7    1  0.1445801E-008  0.4614232E+02  0.7816164E-02  0.1320468E+00
        -11   -1    0    0    0    0  0.00000000000E+00  0.00000000000E+00  0.45593999997E+02  0.45594000000E+02  0.51100000000E-03 0.  1.
         11   -1    0    0    0    0 -0.00000000000E+00 -0.00000000000E+00 -0.45593999997E+02  0.45594000000E+02  0.51100000000E-03 0. -1.
    9900012    2    1    2    0    0 -0.14020367581E+02  0.34022889962E+01  0.42672792326E+02  0.46142317828E+02  0.10000000606E+02 0.  0.
         12    1    1    2    0    0  0.14020367581E+02 -0.34022889962E+01 -0.42672792326E+02  0.45045682172E+02  0.00000000000E+00 0. -1.
         11    1    3    3    0    0 -0.56540911646E+01  0.19752118247E+01  0.67356963334E+01  0.90133131538E+01  0.51100000000E-03 0. -1.
        -11    1    3    3    0    0 -0.67156784073E+01 -0.45694165685E+00  0.23653302941E+02  0.24592435268E+02  0.51100000000E-03 0.  1.
        -12    1    3    3    0    0 -0.16505980086E+01  0.18840188283E+01  0.12283793052E+02  0.12536569406E+02  0.00000000000E+00 0.  1.
</event>
<event>
 7    1  0.1445801E-008  0.4614232E+02  0.7816164E-02  0.1320468E+00
        -11   -1    0    0    0    0  0.00000000000E+00  0.00000000000E+00  0.45593999997E+02  0.45594000000E+02  0.51100000000E-03 0.  1.
         11   -1    0    0    0    0 -0.00000000000E+00 -0.00000000000E+00 -0.45593999997E+02  0.45594000000E+02  0.51100000000E-03 0. -1.
    9900012    2    1    2    0    0  0.22671112676E+01  0.39800808909E+02  0.20973060866E+02  0.46142318016E+02  0.10000002322E+02 0.  0.
         12    1    1    2    0    0 -0.22671112676E+01 -0.39800808909E+02 -0.20973060866E+02  0.45045681984E+02  0.00000000000E+00 0. -1.
         11    1    3    3    0    0  0.55013619313E+01  0.24433763537E+02  0.14226919827E+02  0.28804149557E+02  0.51100000000E-03 0. -1.
        -11    1    3    3    0    0 -0.12485317575E+01  0.11608393428E+02  0.55162063565E+01  0.12912868092E+02  0.51100000000E-03 0.  1.
         12    1    3    3    0    0 -0.19857189063E+01  0.37586519449E+01  0.12299346826E+01  0.44253003673E+01  0.00000000000E+00 0. -1.
</event>
<event>
 7    1  0.1445801E-008  0.4614232E+02  0.7816164E-02  0.1320468E+00
        -11   -1    0    0    0    0  0.00000000000E+00  0.00000000000E+00  0.45593999997E+02  0.45594000000E+02  0.51100000000E-03 0.  1.
         11   -1    0    0    0    0 -0.00000000000E+00 -0.00000000000E+00 -0.45593999997E+02  0.45594000000E+02  0.51100000000E-03 0. -1.
    9900012    2    1    2    0    0 -0.39201387906E+02 -0.69384438094E+01 -0.21076588083E+02  0.46142318948E+02  0.10000010825E+02 0.  0.
         12    1    1    2    0    0  0.39201387906E+02  0.69384438094E+01  0.21076588083E+02  0.45045681052E+02  0.00000000000E+00 0. -1.
         11    1    3    3    0    0 -0.17420882991E+01 -0.17106970244E+01 -0.20869286137E+01  0.32119506925E+01  0.51100000000E-03 0. -1.
        -11    1    3    3    0    0 -0.33618725753E+02 -0.62518246492E+01 -0.18626467431E+02  0.38939046238E+02  0.51100000000E-03 0.  1.
         12    1    3    3    0    0 -0.38405738534E+01  0.10240778642E+01 -0.36319203835E+00  0.39913220181E+01  0.00000000000E+00 0. -1.
</event>
<event>
 7    1  0.1445801E-008  0.4614232E+02  0.7816164E-02  0.1320468E+00
        -11   -1    0    0    0    0  0.00000000000E+00  0.00000000000E+00  0.45593999997E+02  0.45594000000E+02  0.51100000000E-03 0.  1.
         11   -1    0    0    0    0 -0.00000000000E+00 -0.00000000000E+00 -0.45593999997E+02  0.45594000000E+02  0.51100000000E-03 0. -1.
    9900012    2    1    2    0    0 -0.29769936603E+02 -0.33665502768E+02  0.30819243391E+01  0.46142318080E+02  0.10000002909E+02 0.  0.
         12    1    1    2    0    0  0.29769936603E+02  0.33665502768E+02 -0.30819243391E+01  0.45045681920E+02  0.00000000000E+00 0. -1.
         11    1    3    3    0    0 -0.19167477007E+01 -0.45286044045E+01  0.18607639757E+00  0.49210572326E+01  0.51100000000E-03 0.  1.
        -11    1    3    3    0    0 -0.18676358663E+02 -0.19178941925E+02 -0.19443765013E+01  0.26840618221E+02  0.51100000000E-03 0. -1.
        -12    1    3    3    0    0 -0.91768302397E+01 -0.99579564393E+01  0.48402244428E+01  0.14380642627E+02  0.00000000000E+00 0.  1.
</event>
<event>
 7    1  0.1445801E-008  0.4614233E+02  0.7816164E-02  0.1320468E+00
        -11   -1    0    0    0    0  0.00000000000E+00  0.00000000000E+00  0.45593999997E+02  0.45594000000E+02  0.51100000000E-03 0.  1.
         11   -1    0    0    0    0 -0.00000000000E+00 -0.00000000000E+00 -0.45593999997E+02  0.45594000000E+02  0.51100000000E-03 0. -1.
    9900012    2    1    2    0    0 -0.38869507876E+02 -0.78641781848E+01  0.21364193319E+02  0.46142326543E+02  0.10000080078E+02 0.  0.
         12    1    1    2    0    0  0.38869507876E+02  0.78641781848E+01 -0.21364193319E+02  0.45045673457E+02  0.00000000000E+00 0. -1.
         11    1    3    3    0    0 -0.65033197495E+01  0.22540374124E+01  0.25603799097E+01  0.73436637970E+01  0.51100000000E-03 0. -1.
        -11    1    3    3    0    0 -0.99333827028E+01 -0.36854832390E+01  0.61975705985E+01  0.12274557434E+02  0.51100000000E-03 0.  1.
         12    1    3    3    0    0 -0.22432805424E+02 -0.64327323582E+01  0.12606242810E+02  0.26524105311E+02  0.00000000000E+00 0. -1.
</event>
<event>
 7    1  0.1445801E-008  0.4614232E+02  0.7816164E-02  0.1320468E+00
        -11   -1    0    0    0    0  0.00000000000E+00  0.00000000000E+00  0.45593999997E+02  0.45594000000E+02  0.51100000000E-03 0.  1.
         11   -1    0    0    0    0 -0.00000000000E+00 -0.00000000000E+00 -0.45593999997E+02  0.45594000000E+02  0.51100000000E-03 0. -1.
    9900012    2    1    2    0    0  0.78956264465E+01  0.15648390477E+02  0.41495786151E+02  0.46142319743E+02  0.10000018073E+02 0.  0.
         12    1    1    2    0    0 -0.78956264465E+01 -0.15648390477E+02 -0.41495786151E+02  0.45045680257E+02  0.00000000000E+00 0. -1.
         11    1    3    3    0    0  0.58177841370E+00  0.43517227894E+01  0.39437048851E+01  0.59015901112E+01  0.51100000000E-03 0. -1.
        -11    1    3    3    0    0  0.32956838095E+01  0.76067198217E+01  0.28408580827E+02  0.29593431418E+02  0.51100000000E-03 0.  1.
        -12    1    3    3    0    0  0.40181642233E+01  0.36899478661E+01  0.91435004393E+01  0.10647298214E+02  0.00000000000E+00 0.  1.
</event>
<event>
 7    1  0.1445801E-008  0.4614232E+02  0.7816164E-02  0.1320468E+00
        -11   -1    0    0    0    0  0.00000000000E+00  0.00000000000E+00  0.45593999997E+02  0.45594000000E+02  0.51100000000E-03 0.  1.
         11   -1    0    0    0    0 -0.00000000000E+00 -0.00000000000E+00 -0.45593999997E+02  0.45594000000E+02  0.51100000000E-03 0. -1.
    9900012    2    1    2    0    0 -0.37581068615E+02  0.11900932133E+02  0.21797812784E+02  0.46142317121E+02  0.99999941647E+01 0.  0.
         12    1    1    2    0    0  0.37581068615E+02 -0.11900932133E+02 -0.21797812784E+02  0.45045682879E+02  0.00000000000E+00 0. -1.
         11    1    3    3    0    0 -0.40472390833E+01  0.45482605191E+01  0.19460996569E+01  0.63917229354E+01  0.51100000000E-03 0. -1.
        -11    1    3    3    0    0 -0.23385261236E+02  0.38674267669E+01  0.13989703648E+02  0.27523430769E+02  0.51100000000E-03 0.  1.
         12    1    3    3    0    0 -0.10148568295E+02  0.34852448465E+01  0.58620094789E+01  0.12227163417E+02  0.00000000000E+00 0. -1.
</event>
<event>
 7    1  0.1445801E-008  0.4614232E+02  0.7816164E-02  0.1320468E+00
        -11   -1    0    0    0    0  0.00000000000E+00  0.00000000000E+00  0.45593999997E+02  0.45594000000E+02  0.51100000000E-03 0. -1.
         11   -1    0    0    0    0 -0.00000000000E+00 -0.00000000000E+00 -0.45593999997E+02  0.45594000000E+02  0.51100000000E-03 0.  1.
    9900012    2    1    2    0    0  0.30680532878E+02 -0.32536605245E+02 -0.54025676561E+01  0.46142317456E+02  0.99999972191E+01 0.  0.
         12    1    1    2    0    0 -0.30680532878E+02  0.32536605245E+02  0.54025676561E+01  0.45045682544E+02  0.00000000000E+00 0. -1.
         11    1    3    3    0    0  0.24038648092E+01 -0.60432709753E+01  0.11615463233E+01  0.66067299191E+01  0.51100000000E-03 0. -1.
        -11    1    3    3    0    0  0.24013859970E+02 -0.21554127801E+02 -0.39587831235E+01  0.32510273145E+02  0.51100000000E-03 0.  1.
        -12    1    3    3    0    0  0.42628080989E+01 -0.49392064691E+01 -0.26053308560E+01  0.70253143916E+01  0.00000000000E+00 0.  1.
</event>
<event>
 7    1  0.1445801E-008  0.4614232E+02  0.7816164E-02  0.1320468E+00
        -11   -1    0    0    0    0  0.00000000000E+00  0.00000000000E+00  0.45593999997E+02  0.45594000000E+02  0.51100000000E-03 0. -1.
         11   -1    0    0    0    0 -0.00000000000E+00 -0.00000000000E+00 -0.45593999997E+02  0.45594000000E+02  0.51100000000E-03 0.  1.
    9900012    2    1    2    0    0 -0.85603753862E+01  0.16874593429E+02 -0.40878864502E+02  0.46142317708E+02  0.99999995187E+01 0.  0.
         12    1    1    2    0    0  0.85603753862E+01 -0.16874593429E+02  0.40878864502E+02  0.45045682292E+02  0.00000000000E+00 0. -1.
         11    1    3    3    0    0 -0.80533448547E+01  0.13980914450E+02 -0.39391482790E+02  0.42567725436E+02  0.51100000000E-03 0. -1.
        -11    1    3    3    0    0 -0.68891818936E+00  0.21510921090E+01 -0.16446537265E+01  0.27940457538E+01  0.51100000000E-03 0.  1.
         12    1    3    3    0    0  0.18188765786E+00  0.74258687066E+00  0.15727201424E+00  0.78054651817E+00  0.00000000000E+00 0. -1.
</event>
<event>
 7    1  0.1445801E-008  0.4614232E+02  0.7816164E-02  0.1320468E+00
        -11   -1    0    0    0    0  0.00000000000E+00  0.00000000000E+00  0.45593999997E+02  0.45594000000E+02  0.51100000000E-03 0. -1.
         11   -1    0    0    0    0 -0.00000000000E+00 -0.00000000000E+00 -0.45593999997E+02  0.45594000000E+02  0.51100000000E-03 0.  1.
    9900012    2    1    2    0    0  0.16647526965E+02 -0.68237168639E+01 -0.41296606078E+02  0.46142323854E+02  0.10000055560E+02 0.  0.
         12    1    1    2    0    0 -0.16647526965E+02  0.68237168639E+01  0.41296606078E+02  0.45045676146E+02  0.00000000000E+00 0. -1.
         11    1    3    3    0    0  0.89443422213E+01 -0.50003090573E+01 -0.26795822348E+02  0.28688332890E+02  0.51100000000E-03 0.  1.
        -11    1    3    3    0    0  0.72604930150E+01 -0.17968042228E+01 -0.80517263083E+01  0.10989702500E+02  0.51100000000E-03 0. -1.
         12    1    3    3    0    0  0.44269172873E+00 -0.26603583785E-01 -0.64490574212E+01  0.64642884635E+01  0.00000000000E+00 0. -1.
</event>
<event>
 7    1  0.1445801E-008  0.4614232E+02  0.7816164E-02  0.1320468E+00
        -11   -1    0    0    0    0  0.00000000000E+00  0.00000000000E+00  0.45593999997E+02  0.45594000000E+02  0.51100000000E-03 0.  1.
         11   -1    0    0    0    0 -0.00000000000E+00 -0.00000000000E+00 -0.45593999997E+02  0.45594000000E+02  0.51100000000E-03 0. -1.
    9900012    2    1    2    0    0  0.30654524583E+02  0.21149256347E+02  0.25340135850E+02  0.46142318672E+02  0.10000008303E+02 0.  0.
         12    1    1    2    0    0 -0.30654524583E+02 -0.21149256347E+02 -0.25340135850E+02  0.45045681328E+02  0.00000000000E+00 0. -1.
         11    1    3    3    0    0  0.88771182455E+01  0.31737828598E+01  0.35042815475E+01  0.10057639654E+02  0.51100000000E-03 0. -1.
        -11    1    3    3    0    0  0.11926918087E+02  0.12976333807E+02  0.14516145915E+02  0.22833201847E+02  0.51100000000E-03 0.  1.
         12    1    3    3    0    0  0.98504882500E+01  0.49991396811E+01  0.73197083880E+01  0.13251477170E+02  0.00000000000E+00 0. -1.
</event>
<event>
 7    1  0.1445801E-008  0.4614232E+02  0.7816164E-02  0.1320468E+00
        -11   -1    0    0    0    0  0.00000000000E+00  0.00000000000E+00  0.45593999997E+02  0.45594000000E+02  0.51100000000E-03 0.  1.
         11   -1    0    0    0    0 -0.00000000000E+00 -0.00000000000E+00 -0.45593999997E+02  0.45594000000E+02  0.51100000000E-03 0. -1.
    9900012    2    1    2    0    0  0.43465683747E+02 -0.53106528247E+01 -0.10566209700E+02  0.46142317804E+02  0.10000000394E+02 0.  0.
         12    1    1    2    0    0 -0.43465683747E+02  0.53106528247E+01  0.10566209700E+02  0.45045682196E+02  0.00000000000E+00 0. -1.
         11    1    3    3    0    0  0.27596000108E+02 -0.30561319788E+01 -0.28122816003E+01  0.27906775033E+02  0.51100000000E-03 0. -1.
        -11    1    3    3    0    0  0.90805711315E+01 -0.19188728275E+01 -0.24096518964E+01  0.95888094946E+01  0.51100000000E-03 0.  1.
         12    1    3    3    0    0  0.67891125076E+01 -0.33564801837E+00 -0.53442762029E+01  0.86467332771E+01  0.00000000000E+00 0. -1.
</event>
<event>
 7    1  0.1445801E-008  0.4614232E+02  0.7816164E-02  0.1320468E+00
        -11   -1    0    0    0    0  0.00000000000E+00  0.00000000000E+00  0.45593999997E+02  0.45594000000E+02  0.51100000000E-03 0. -1.
         11   -1    0    0    0    0 -0.00000000000E+00 -0.00000000000E+00 -0.45593999997E+02  0.45594000000E+02  0.51100000000E-03 0.  1.
    9900012    2    1    2    0    0 -0.11034840142E+02 -0.36582062111E+02 -0.23855787202E+02  0.46142317096E+02  0.99999939331E+01 0.  0.
         12    1    1    2    0    0  0.11034840142E+02  0.36582062111E+02  0.23855787202E+02  0.45045682904E+02  0.00000000000E+00 0. -1.
         11    1    3    3    0    0 -0.28707631346E+01 -0.16239712927E+02 -0.73936569914E+01  0.18073066173E+02  0.51100000000E-03 0. -1.
        -11    1    3    3    0    0 -0.58535065594E+01 -0.87898235984E+01 -0.52016484040E+01  0.11772072218E+02  0.51100000000E-03 0.  1.
        -12    1    3    3    0    0 -0.23105704482E+01 -0.11552525586E+02 -0.11260481806E+02  0.16297178704E+02  0.00000000000E+00 0.  1.
</event>
<event>
 7    1  0.1445801E-008  0.4614232E+02  0.7816164E-02  0.1320468E+00
        -11   -1    0    0    0    0  0.00000000000E+00  0.00000000000E+00  0.45593999997E+02  0.45594000000E+02  0.51100000000E-03 0.  1.
         11   -1    0    0    0    0 -0.00000000000E+00 -0.00000000000E+00 -0.45593999997E+02  0.45594000000E+02  0.51100000000E-03 0. -1.
    9900012    2    1    2    0    0  0.17551212726E+02  0.39254151860E+02  0.13423112932E+02  0.46142317996E+02  0.10000002141E+02 0.  0.
         12    1    1    2    0    0 -0.17551212726E+02 -0.39254151860E+02 -0.13423112932E+02  0.45045682004E+02  0.00000000000E+00 0. -1.
         11    1    3    3    0    0  0.29963710450E+01  0.40531388910E+01  0.42808311941E+01  0.66129940483E+01  0.51100000000E-03 0. -1.
        -11    1    3    3    0    0  0.13974257323E+02  0.29608655336E+02  0.87683554535E+01  0.33894489171E+02  0.51100000000E-03 0.  1.
         12    1    3    3    0    0  0.58058435837E+00  0.55923576332E+01  0.37392628475E+00  0.56348347767E+01  0.00000000000E+00 0. -1.
</event>
<event>
 7    1  0.1445801E-008  0.4614232E+02  0.7816164E-02  0.1320468E+00
        -11   -1    0    0    0    0  0.00000000000E+00  0.00000000000E+00  0.45593999997E+02  0.45594000000E+02  0.51100000000E-03 0.  1.
         11   -1    0    0    0    0 -0.00000000000E+00 -0.00000000000E+00 -0.45593999997E+02  0.45594000000E+02  0.51100000000E-03 0. -1.
    9900012    2    1    2    0    0 -0.33008953541E+02  0.27964539174E+01  0.30523799696E+02  0.46142317452E+02  0.99999971771E+01 0.  0.
         12    1    1    2    0    0  0.33008953541E+02 -0.27964539174E+01 -0.30523799696E+02  0.45045682548E+02  0.00000000000E+00 0. -1.
         11    1    3    3    0    0 -0.21001292705E+02  0.40319980930E+01  0.23354469158E+02  0.31666110178E+02  0.51100000000E-03 0. -1.
        -11    1    3    3    0    0 -0.77785320863E+01  0.90811883509E+00  0.46297807654E+01  0.90975332609E+01  0.51100000000E-03 0.  1.
        -12    1    3    3    0    0 -0.42291287503E+01 -0.21436630107E+01  0.25395497724E+01  0.53786740128E+01  0.00000000000E+00 0.  1.
</event>
<event>
 7    1  0.1445801E-008  0.4614232E+02  0.7816164E-02  0.1320468E+00
        -11   -1    0    0    0    0  0.00000000000E+00  0.00000000000E+00  0.45593999997E+02  0.45594000000E+02  0.51100000000E-03 0.  1.
         11   -1    0    0    0    0 -0.00000000000E+00 -0.00000000000E+00 -0.45593999997E+02  0.45594000000E+02  0.51100000000E-03 0. -1.
    9900012    2    1    2    0    0 -0.43800348482E+02  0.94517001945E+01  0.46161167947E+01  0.46142315435E+02  0.99999787860E+01 0.  0.
         12    1    1    2    0    0  0.43800348482E+02 -0.94517001945E+01 -0.46161167947E+01  0.45045684565E+02  0.00000000000E+00 0. -1.
         11    1    3    3    0    0 -0.48416610261E+01 -0.21632762616E+00  0.25990972976E+01  0.54994350761E+01  0.51100000000E-03 0.  1.
        -11    1    3    3    0    0 -0.75582836958E+00  0.11855446888E+01 -0.31273468846E+00  0.14403457849E+01  0.51100000000E-03 0. -1.
        -12    1    3    3    0    0 -0.38202859086E+02  0.84824831319E+01  0.23297541856E+01  0.39202534574E+02  0.00000000000E+00 0.  1.
</event>
<event>
 7    1  0.1445801E-008  0.4614232E+02  0.7816164E-02  0.1320468E+00
        -11   -1    0    0    0    0  0.00000000000E+00  0.00000000000E+00  0.45593999997E+02  0.45594000000E+02  0.51100000000E-03 0.  1.
         11   -1    0    0    0    0 -0.00000000000E+00 -0.00000000000E+00 -0.45593999997E+02  0.45594000000E+02  0.51100000000E-03 0. -1.
    9900012    2    1    2    0    0  0.25500699107E+02 -0.37132449904E+02 -0.94314314111E-01  0.46142318897E+02  0.10000010358E+02 0.  0.
         12    1    1    2    0    0 -0.25500699107E+02  0.37132449904E+02  0.94314314111E-01  0.45045681103E+02  0.00000000000E+00 0. -1.
         11    1    3    3    0    0  0.15076457994E+02 -0.13609570011E+02  0.13431914470E+01  0.20354953821E+02  0.51100000000E-03 0. -1.
        -11    1    3    3    0    0  0.65267105937E+01 -0.13618226207E+02 -0.99725082527E+00  0.15134349859E+02  0.51100000000E-03 0.  1.
         12    1    3    3    0    0  0.38975305193E+01 -0.99046536867E+01 -0.44025493588E+00  0.10653015217E+02  0.00000000000E+00 0. -1.
</event>
<event>
 7    1  0.1445801E-008  0.4614232E+02  0.7816164E-02  0.1320468E+00
        -11   -1    0    0    0    0  0.00000000000E+00  0.00000000000E+00  0.45593999997E+02  0.45594000000E+02  0.51100000000E-03 0.  1.
         11   -1    0    0    0    0 -0.00000000000E+00 -0.00000000000E+00 -0.45593999997E+02  0.45594000000E+02  0.51100000000E-03 0. -1.
    9900012    2    1    2    0    0 -0.24138954390E+02  0.38031453940E+02  0.18143448588E+00  0.46142317340E+02  0.99999961572E+01 0.  0.
         12    1    1    2    0    0  0.24138954390E+02 -0.38031453940E+02 -0.18143448588E+00  0.45045682660E+02  0.00000000000E+00 0. -1.
         11    1    3    3    0    0 -0.26842336784E+01  0.26446806214E+01  0.13307562084E+01  0.39962930794E+01  0.51100000000E-03 0. -1.
        -11    1    3    3    0    0 -0.17325809022E+02  0.22028738265E+02  0.75072068786E+00  0.28035915352E+02  0.51100000000E-03 0.  1.
        -12    1    3    3    0    0 -0.41289116899E+01  0.13358035054E+02 -0.19000424104E+01  0.14110108908E+02  0.00000000000E+00 0.  1.
</event>
<event>
 7    1  0.1445801E-008  0.4614231E+02  0.7816164E-02  0.1320468E+00
        -11   -1    0    0    0    0  0.00000000000E+00  0.00000000000E+00  0.45593999997E+02  0.45594000000E+02  0.51100000000E-03 0. -1.
         11   -1    0    0    0    0 -0.00000000000E+00 -0.00000000000E+00 -0.45593999997E+02  0.45594000000E+02  0.51100000000E-03 0.  1.
    9900012    2    1    2    0    0  0.74527435883E+00 -0.78972338801E+01 -0.44341765992E+02  0.46142312658E+02  0.99999534682E+01 0.  0.
         12    1    1    2    0    0 -0.74527435883E+00  0.78972338801E+01  0.44341765992E+02  0.45045687342E+02  0.00000000000E+00 0. -1.
         11    1    3    3    0    0  0.11707734383E+01 -0.52772987324E+01 -0.15264295120E+02  0.16193186781E+02  0.51100000000E-03 0.  1.
        -11    1    3    3    0    0 -0.35192918353E+01 -0.15531829640E+01 -0.13872729312E+02  0.14396194329E+02  0.51100000000E-03 0. -1.
         12    1    3    3    0    0  0.30937927558E+01 -0.10667521837E+01 -0.15204741560E+02  0.15552931548E+02  0.00000000000E+00 0. -1.
</event>
<event>
 7    1  0.1445801E-008  0.4614232E+02  0.7816164E-02  0.1320468E+00
        -11   -1    0    0    0    0  0.00000000000E+00  0.00000000000E+00  0.45593999997E+02  0.45594000000E+02  0.51100000000E-03 0. -1.
         11   -1    0    0    0    0 -0.00000000000E+00 -0.00000000000E+00 -0.45593999997E+02  0.45594000000E+02  0.51100000000E-03 0.  1.
    9900012    2    1    2    0    0  0.17156423286E+02 -0.41428614566E+02 -0.42942349624E+01  0.46142318534E+02  0.10000007044E+02 0.  0.
         12    1    1    2    0    0 -0.17156423286E+02  0.41428614566E+02  0.42942349624E+01  0.45045681466E+02  0.00000000000E+00 0. -1.
         11    1    3    3    0    0  0.14448937194E+02 -0.23309690627E+02 -0.16058456907E+01  0.27471661832E+02  0.51100000000E-03 0. -1.
        -11    1    3    3    0    0  0.14840097772E+01 -0.87779756999E+01 -0.10906210242E+00  0.89032037610E+01  0.51100000000E-03 0.  1.
         12    1    3    3    0    0  0.12234763156E+01 -0.93409482393E+01 -0.25793271694E+01  0.97674529408E+01  0.00000000000E+00 0. -1.
</event>
<event>
 7    1  0.1445801E-008  0.4614232E+02  0.7816164E-02  0.1320468E+00
        -11   -1    0    0    0    0  0.00000000000E+00  0.00000000000E+00  0.45593999997E+02  0.45594000000E+02  0.51100000000E-03 0.  1.
         11   -1    0    0    0    0 -0.00000000000E+00 -0.00000000000E+00 -0.45593999997E+02  0.45594000000E+02  0.51100000000E-03 0. -1.
    9900012    2    1    2    0    0 -0.15533547443E+02 -0.88400427898E+01  0.41348227196E+02  0.46142319353E+02  0.10000014519E+02 0.  0.
         12    1    1    2    0    0  0.15533547443E+02  0.88400427898E+01 -0.41348227196E+02  0.45045680647E+02  0.00000000000E+00 0. -1.
         11    1    3    3    0    0 -0.19434922683E+01 -0.13497639499E+01  0.14182650059E+02  0.14378685193E+02  0.51100000000E-03 0. -1.
        -11    1    3    3    0    0 -0.10069236451E+02 -0.67981010419E+01  0.24313696735E+02  0.27180131524E+02  0.51100000000E-03 0.  1.
        -12    1    3    3    0    0 -0.35208187243E+01 -0.69217779795E+00  0.28518804017E+01  0.45835026366E+01  0.00000000000E+00 0.  1.
</event>
<event>
 7    1  0.1445801E-008  0.4614232E+02  0.7816164E-02  0.1320468E+00
        -11   -1    0    0    0    0  0.00000000000E+00  0.00000000000E+00  0.45593999997E+02  0.45594000000E+02  0.51100000000E-03 0.  1.
         11   -1    0    0    0    0 -0.00000000000E+00 -0.00000000000E+00 -0.45593999997E+02  0.45594000000E+02  0.51100000000E-03 0. -1.
    9900012    2    1    2    0    0 -0.54250166000E+01 -0.40164399916E+02  0.19659696092E+02  0.46142317897E+02  0.10000001239E+02 0.  0.
         12    1    1    2    0    0  0.54250166000E+01  0.40164399916E+02 -0.19659696092E+02  0.45045682103E+02  0.00000000000E+00 0. -1.
         11    1    3    3    0    0 -0.66491257696E+01 -0.27620269779E+02  0.12410445149E+02  0.31001763260E+02  0.51100000000E-03 0. -1.
        -11    1    3    3    0    0  0.54304703352E+00 -0.31036030519E+01 -0.10763986086E+00  0.31525923595E+01  0.51100000000E-03 0.  1.
         12    1    3    3    0    0  0.68106213604E+00 -0.94405270847E+01  0.73568908034E+01  0.11987962277E+02  0.00000000000E+00 0. -1.
</event>
<event>
 7    1  0.1445801E-008  0.4614232E+02  0.7816164E-02  0.1320468E+00
        -11   -1    0    0    0    0  0.00000000000E+00  0.00000000000E+00  0.45593999997E+02  0.45594000000E+02  0.51100000000E-03 0. -1.
         11   -1    0    0    0    0 -0.00000000000E+00 -0.00000000000E+00 -0.45593999997E+02  0.45594000000E+02  0.51100000000E-03 0.  1.
    9900012    2    1    2    0    0 -0.36111732122E+02 -0.56761632613E+01 -0.26321806475E+02  0.46142317384E+02  0.99999965622E+01 0.  0.
         12    1    1    2    0    0  0.36111732122E+02  0.56761632613E+01  0.26321806475E+02  0.45045682616E+02  0.00000000000E+00 0. -1.
         11    1    3    3    0    0 -0.96794624596E+01 -0.55137770013E+01 -0.56119983166E+01  0.12473502142E+02  0.51100000000E-03 0. -1.
        -11    1    3    3    0    0 -0.69022965722E+01  0.10271263697E+01 -0.52828877489E+01  0.87524619267E+01  0.51100000000E-03 0.  1.
        -12    1    3    3    0    0 -0.19529973090E+02 -0.11895126297E+01 -0.15426920409E+02  0.24916353315E+02  0.00000000000E+00 0.  1.
</event>
<event>
 7    1  0.1445801E-008  0.4614232E+02  0.7816164E-02  0.1320468E+00
        -11   -1    0    0    0    0  0.00000000000E+00  0.00000000000E+00  0.45593999997E+02  0.45594000000E+02  0.51100000000E-03 0.  1.
         11   -1    0    0    0    0 -0.00000000000E+00 -0.00000000000E+00 -0.45593999997E+02  0.45594000000E+02  0.51100000000E-03 0. -1.
    9900012    2    1    2    0    0 -0.20312110350E+02 -0.11888364409E+02  0.38408310903E+02  0.46142318946E+02  0.10000010805E+02 0.  0.
         12    1    1    2    0    0  0.20312110350E+02  0.11888364409E+02 -0.38408310903E+02  0.45045681054E+02  0.00000000000E+00 0. -1.
         11    1    3    3    0    0 -0.13889085634E+02 -0.60097430504E+01  0.22310378314E+02  0.26958796191E+02  0.51100000000E-03 0. -1.
        -11    1    3    3    0    0 -0.52264052879E+01 -0.34446870479E+01  0.57969070366E+01  0.85314308614E+01  0.51100000000E-03 0.  1.
         12    1    3    3    0    0 -0.11966194281E+01 -0.24339343108E+01  0.10301025552E+02  0.10652091894E+02  0.00000000000E+00 0. -1.
</event>
<event>
 7    1  0.1445801E-008  0.4614232E+02  0.7816164E-02  0.1320468E+00
        -11   -1    0    0    0    0  0.00000000000E+00  0.00000000000E+00  0.45593999997E+02  0.45594000000E+02  0.51100000000E-03 0.  1.
         11   -1    0    0    0    0 -0.00000000000E+00 -0.00000000000E+00 -0.45593999997E+02  0.45594000000E+02  0.51100000000E-03 0. -1.
    9900012    2    1    2    0    0  0.36830460753E+02 -0.17392048237E+02  0.19239210288E+02  0.46142318813E+02  0.10000009591E+02 0.  0.
         12    1    1    2    0    0 -0.36830460753E+02  0.17392048237E+02 -0.19239210288E+02  0.45045681187E+02  0.00000000000E+00 0. -1.
         11    1    3    3    0    0  0.30446188313E+02 -0.17419979584E+02  0.17310384430E+02  0.39116179272E+02  0.51100000000E-03 0.  1.
        -11    1    3    3    0    0  0.64595202812E+01  0.21367846370E+00  0.16284623807E+01  0.66650544435E+01  0.51100000000E-03 0. -1.
        -12    1    3    3    0    0 -0.75247841495E-01 -0.18574711679E+00  0.30036347714E+00  0.36108509724E+00  0.00000000000E+00 0.  1.
</event>
<event>
 7    1  0.1445801E-008  0.4614232E+02  0.7816164E-02  0.1320468E+00
        -11   -1    0    0    0    0  0.00000000000E+00  0.00000000000E+00  0.45593999997E+02  0.45594000000E+02  0.51100000000E-03 0.  1.
         11   -1    0    0    0    0 -0.00000000000E+00 -0.00000000000E+00 -0.45593999997E+02  0.45594000000E+02  0.51100000000E-03 0. -1.
    9900012    2    1    2    0    0  0.18828846179E+02 -0.32296906935E+01  0.40794081169E+02  0.46142318644E+02  0.10000008046E+02 0.  0.
         12    1    1    2    0    0 -0.18828846179E+02  0.32296906935E+01 -0.40794081169E+02  0.45045681356E+02  0.00000000000E+00 0. -1.
         11    1    3    3    0    0  0.11721866286E+02 -0.17464222195E+01  0.19224034920E+02  0.22583526268E+02  0.51100000000E-03 0. -1.
        -11    1    3    3    0    0  0.48053606679E+01 -0.17416052250E+01  0.20266477407E+02  0.20901071424E+02  0.51100000000E-03 0.  1.
         12    1    3    3    0    0  0.23016192248E+01  0.25833675104E+00  0.13035688420E+01  0.26577209520E+01  0.00000000000E+00 0. -1.
</event>
<event>
 7    1  0.1445801E-008  0.4614232E+02  0.7816164E-02  0.1320468E+00
        -11   -1    0    0    0    0  0.00000000000E+00  0.00000000000E+00  0.45593999997E+02  0.45594000000E+02  0.51100000000E-03 0.  1.
         11   -1    0    0    0    0 -0.00000000000E+00 -0.00000000000E+00 -0.45593999997E+02  0.45594000000E+02  0.51100000000E-03 0. -1.
    9900012    2    1    2    0    0 -0.19081741310E+02  0.40734186052E+02  0.23930609138E+01  0.46142317574E+02  0.99999982920E+01 0.  0.
         12    1    1    2    0    0  0.19081741310E+02 -0.40734186052E+02 -0.23930609138E+01  0.45045682426E+02  0.00000000000E+00 0. -1.
         11    1    3    3    0    0 -0.40934627618E+01  0.29600477309E+01  0.13010608761E+01  0.52164240257E+01  0.51100000000E-03 0. -1.
        -11    1    3    3    0    0 -0.46177401924E+01  0.15034682755E+02  0.23459179328E+01  0.15901840812E+02  0.51100000000E-03 0.  1.
        -12    1    3    3    0    0 -0.10370538356E+02  0.22739455566E+02 -0.12539178951E+01  0.25024052736E+02  0.00000000000E+00 0.  1.
</event>
<event>
 7    1  0.1445801E-008  0.4614232E+02  0.7816164E-02  0.1320468E+00
        -11   -1    0    0    0    0  0.00000000000E+00  0.00000000000E+00  0.45593999997E+02  0.45594000000E+02  0.51100000000E-03 0.  1.
         11   -1    0    0    0    0 -0.00000000000E+00 -0.00000000000E+00 -0.45593999997E+02  0.45594000000E+02  0.51100000000E-03 0. -1.
    9900012    2    1    2    0    0 -0.95622517830E+01 -0.22106040991E+02  0.38065729948E+02  0.46142317588E+02  0.99999984260E+01 0.  0.
         12    1    1    2    0    0  0.95622517830E+01  0.22106040991E+02 -0.38065729948E+02  0.45045682412E+02  0.00000000000E+00 0. -1.
         11    1    3    3    0    0  0.32120736947E+00  0.69901890601E+00  0.20689078134E+01  0.22073018386E+01  0.51100000000E-03 0. -1.
        -11    1    3    3    0    0 -0.87632201908E+01 -0.21296864690E+02  0.31163304018E+02  0.38749219235E+02  0.51100000000E-03 0.  1.
        -12    1    3    3    0    0 -0.11202389616E+01 -0.15081952074E+01  0.48335181165E+01  0.51857965153E+01  0.00000000000E+00 0.  1.
</event>
<event>
 7    1  0.1445801E-008  0.4614232E+02  0.7816164E-02  0.1320468E+00
        -11   -1    0    0    0    0  0.00000000000E+00  0.00000000000E+00  0.45593999997E+02  0.45594000000E+02  0.51100000000E-03 0.  1.
         11   -1    0    0    0    0 -0.00000000000E+00 -0.00000000000E+00 -0.45593999997E+02  0.45594000000E+02  0.51100000000E-03 0. -1.
    9900012    2    1    2    0    0 -0.50403596506E+01  0.26984135168E+02  0.35715049237E+02  0.46142317431E+02  0.99999969867E+01 0.  0.
         12    1    1    2    0    0  0.50403596506E+01 -0.26984135168E+02 -0.35715049237E+02  0.45045682569E+02  0.00000000000E+00 0. -1.
         11    1    3    3    0    0 -0.17863677605E+01  0.24450363236E+02  0.32758457287E+02  0.40916108029E+02  0.51100000000E-03 0.  1.
        -11    1    3    3    0    0 -0.27144733584E+01  0.26064899195E+01  0.25311815115E+01  0.45353098482E+01  0.51100000000E-03 0. -1.
        -12    1    3    3    0    0 -0.53951853178E+00 -0.72717988125E-01  0.42541043841E+00  0.69089955350E+00  0.00000000000E+00 0.  1.
</event>
<event>
 7    1  0.1445801E-008  0.4614232E+02  0.7816164E-02  0.1320468E+00
        -11   -1    0    0    0    0  0.00000000000E+00  0.00000000000E+00  0.45593999997E+02  0.45594000000E+02  0.51100000000E-03 0.  1.
         11   -1    0    0    0    0 -0.00000000000E+00 -0.00000000000E+00 -0.45593999997E+02  0.45594000000E+02  0.51100000000E-03 0. -1.
    9900012    2    1    2    0    0 -0.31535669185E+02 -0.38964344353E+00  0.32163072819E+02  0.46142317564E+02  0.99999982026E+01 0.  0.
         12    1    1    2    0    0  0.31535669185E+02  0.38964344353E+00 -0.32163072819E+02  0.45045682436E+02  0.00000000000E+00 0. -1.
         11    1    3    3    0    0 -0.11210232397E+02  0.22148506871E+01  0.79447851124E+01  0.13917416596E+02  0.51100000000E-03 0. -1.
        -11    1    3    3    0    0 -0.17764355633E+02 -0.31043945286E+01  0.23289265802E+02  0.29455041984E+02  0.51100000000E-03 0.  1.
        -12    1    3    3    0    0 -0.25610811555E+01  0.49990039796E+00  0.92902190494E+00  0.27698589843E+01  0.00000000000E+00 0.  1.
</event>
<event>
 7    1  0.1445801E-008  0.4614232E+02  0.7816164E-02  0.1320468E+00
        -11   -1    0    0    0    0  0.00000000000E+00  0.00000000000E+00  0.45593999997E+02  0.45594000000E+02  0.51100000000E-03 0. -1.
         11   -1    0    0    0    0 -0.00000000000E+00 -0.00000000000E+00 -0.45593999997E+02  0.45594000000E+02  0.51100000000E-03 0.  1.
    9900012    2    1    2    0    0 -0.30963098976E+02  0.29124301382E+02  0.14905536783E+02  0.46142318121E+02  0.10000003279E+02 0.  0.
         12    1    1    2    0    0  0.30963098976E+02 -0.29124301382E+02 -0.14905536783E+02  0.45045681879E+02  0.00000000000E+00 0. -1.
         11    1    3    3    0    0 -0.90982372189E+01  0.12358453647E+02  0.36917345948E+01  0.15784112317E+02  0.51100000000E-03 0. -1.
        -11    1    3    3    0    0 -0.16130666634E+02  0.89367581060E+01  0.83255026730E+01  0.20233092856E+02  0.51100000000E-03 0.  1.
        -12    1    3    3    0    0 -0.57341951233E+01  0.78290896284E+01  0.28882995152E+01  0.10125112948E+02  0.00000000000E+00 0.  1.
</event>
<event>
 7    1  0.1445801E-008  0.4614232E+02  0.7816164E-02  0.1320468E+00
        -11   -1    0    0    0    0  0.00000000000E+00  0.00000000000E+00  0.45593999997E+02  0.45594000000E+02  0.51100000000E-03 0.  1.
         11   -1    0    0    0    0 -0.00000000000E+00 -0.00000000000E+00 -0.45593999997E+02  0.45594000000E+02  0.51100000000E-03 0. -1.
    9900012    2    1    2    0    0  0.22466382289E+01 -0.36427985024E+02 -0.26402043744E+02  0.46142318852E+02  0.10000009946E+02 0.  0.
         12    1    1    2    0    0 -0.22466382289E+01  0.36427985024E+02  0.26402043744E+02  0.45045681148E+02  0.00000000000E+00 0. -1.
         11    1    3    3    0    0 -0.11404848080E+01 -0.16064601179E+02 -0.65800104789E+01  0.17397374940E+02  0.51100000000E-03 0. -1.
        -11    1    3    3    0    0  0.26192803575E+01 -0.10825516852E+02 -0.91783338205E+01  0.14432403011E+02  0.51100000000E-03 0.  1.
        -12    1    3    3    0    0  0.76784267940E+00 -0.95378669932E+01 -0.10643699445E+02  0.14312540901E+02  0.00000000000E+00 0.  1.
</event>
<event>
 7    1  0.1445801E-008  0.4614232E+02  0.7816164E-02  0.1320468E+00
        -11   -1    0    0    0    0  0.00000000000E+00  0.00000000000E+00  0.45593999997E+02  0.45594000000E+02  0.51100000000E-03 0.  1.
         11   -1    0    0    0    0 -0.00000000000E+00 -0.00000000000E+00 -0.45593999997E+02  0.45594000000E+02  0.51100000000E-03 0. -1.
    9900012    2    1    2    0    0 -0.45865706834E+01  0.10883156732E+02  0.43469917712E+02  0.46142317888E+02  0.10000001155E+02 0.  0.
         12    1    1    2    0    0  0.45865706834E+01 -0.10883156732E+02 -0.43469917712E+02  0.45045682112E+02  0.00000000000E+00 0. -1.
         11    1    3    3    0    0 -0.55623142330E+00  0.14156919869E+01  0.70514206967E+00  0.16765448988E+01  0.51100000000E-03 0. -1.
        -11    1    3    3    0    0 -0.50132460284E+01  0.35773955008E+01  0.23737952307E+02  0.24523881714E+02  0.51100000000E-03 0.  1.
        -12    1    3    3    0    0  0.98290676830E+00  0.58900692439E+01  0.19026823335E+02  0.19941891275E+02  0.00000000000E+00 0.  1.
</event>
<event>
 7    1  0.1445801E-008  0.4614232E+02  0.7816164E-02  0.1320468E+00
        -11   -1    0    0    0    0  0.00000000000E+00  0.00000000000E+00  0.45593999997E+02  0.45594000000E+02  0.51100000000E-03 0.  1.
         11   -1    0    0    0    0 -0.00000000000E+00 -0.00000000000E+00 -0.45593999997E+02  0.45594000000E+02  0.51100000000E-03 0. -1.
    9900012    2    1    2    0    0 -0.44092547276E+02 -0.60005531944E+01  0.69967182555E+01  0.46142318406E+02  0.10000005885E+02 0.  0.
         12    1    1    2    0    0  0.44092547276E+02  0.60005531944E+01 -0.69967182555E+01  0.45045681594E+02  0.00000000000E+00 0. -1.
         11    1    3    3    0    0 -0.15203142111E+02 -0.49064237043E+01  0.39745835286E+01  0.16462254952E+02  0.51100000000E-03 0. -1.
        -11    1    3    3    0    0 -0.86295659393E+01 -0.24700157864E+01 -0.81926626752E+00  0.90134113278E+01  0.51100000000E-03 0.  1.
         12    1    3    3    0    0 -0.20259839225E+02  0.13758862963E+01  0.38414009944E+01  0.20666652126E+02  0.00000000000E+00 0. -1.
</event>
<event>
 7    1  0.1445801E-008  0.4614232E+02  0.7816164E-02  0.1320468E+00
        -11   -1    0    0    0    0  0.00000000000E+00  0.00000000000E+00  0.45593999997E+02  0.45594000000E+02  0.51100000000E-03 0.  1.
         11   -1    0    0    0    0 -0.00000000000E+00 -0.00000000000E+00 -0.45593999997E+02  0.45594000000E+02  0.51100000000E-03 0. -1.
    9900012    2    1    2    0    0 -0.15025874041E+02  0.42230269783E+02  0.44655226451E+01  0.46142317975E+02  0.10000001949E+02 0.  0.
         12    1    1    2    0    0  0.15025874041E+02 -0.42230269783E+02 -0.44655226451E+01  0.45045682025E+02  0.00000000000E+00 0. -1.
         11    1    3    3    0    0 -0.99661259624E+01  0.19504992160E+02  0.14293298064E+01  0.21950202045E+02  0.51100000000E-03 0. -1.
        -11    1    3    3    0    0 -0.40976597785E+01  0.18700542150E+02  0.47313963311E+01  0.19720223220E+02  0.51100000000E-03 0.  1.
         12    1    3    3    0    0 -0.96208830019E+00  0.40247354727E+01 -0.16952034924E+01  0.44718927092E+01  0.00000000000E+00 0. -1.
</event>
<event>
 7    1  0.1445801E-008  0.4614231E+02  0.7816164E-02  0.1320468E+00
        -11   -1    0    0    0    0  0.00000000000E+00  0.00000000000E+00  0.45593999997E+02  0.45594000000E+02  0.51100000000E-03 0.  1.
         11   -1    0    0    0    0 -0.00000000000E+00 -0.00000000000E+00 -0.45593999997E+02  0.45594000000E+02  0.51100000000E-03 0. -1.
    9900012    2    1    2    0    0 -0.67457333528E+01  0.44372570838E+02  0.38319513710E+01  0.46142314163E+02  0.99999671897E+01 0.  0.
         12    1    1    2    0    0  0.67457333528E+01 -0.44372570838E+02 -0.38319513710E+01  0.45045685837E+02  0.00000000000E+00 0. -1.
         11    1    3    3    0    0 -0.15976784439E+01  0.36614706499E+01 -0.18269202595E+01  0.43927874551E+01  0.51100000000E-03 0. -1.
        -11    1    3    3    0    0 -0.86611007748E+00  0.23255195113E+02  0.16182138031E+01  0.23327512996E+02  0.51100000000E-03 0.  1.
        -12    1    3    3    0    0 -0.42819448314E+01  0.17455905075E+02  0.40406578274E+01  0.18422013712E+02  0.00000000000E+00 0.  1.
</event>
<event>
 7    1  0.1445801E-008  0.4614232E+02  0.7816164E-02  0.1320468E+00
        -11   -1    0    0    0    0  0.00000000000E+00  0.00000000000E+00  0.45593999997E+02  0.45594000000E+02  0.51100000000E-03 0. -1.
         11   -1    0    0    0    0 -0.00000000000E+00 -0.00000000000E+00 -0.45593999997E+02  0.45594000000E+02  0.51100000000E-03 0.  1.
    9900012    2    1    2    0    0  0.40135758199E+02  0.20238435293E+02  0.29393949551E+01  0.46142318830E+02  0.10000009747E+02 0.  0.
         12    1    1    2    0    0 -0.40135758199E+02 -0.20238435293E+02 -0.29393949551E+01  0.45045681170E+02  0.00000000000E+00 0. -1.
         11    1    3    3    0    0  0.10355555495E+02  0.54532202161E+01 -0.16788079140E+01  0.11823431677E+02  0.51100000000E-03 0. -1.
        -11    1    3    3    0    0  0.23704882342E+02  0.11213707846E+02  0.65077783545E+00  0.26231511633E+02  0.51100000000E-03 0.  1.
        -12    1    3    3    0    0  0.60753203623E+01  0.35715072311E+01  0.39674250337E+01  0.80873755201E+01  0.00000000000E+00 0.  1.
</event>
<event>
 7    1  0.1445801E-008  0.4614232E+02  0.7816164E-02  0.1320468E+00
        -11   -1    0    0    0    0  0.00000000000E+00  0.00000000000E+00  0.45593999997E+02  0.45594000000E+02  0.51100000000E-03 0. -1.
         11   -1    0    0    0    0 -0.00000000000E+00 -0.00000000000E+00 -0.45593999997E+02  0.45594000000E+02  0.51100000000E-03 0.  1.
    9900012    2    1    2    0    0 -0.20298110863E+02 -0.79033345957E+01 -0.39428890798E+02  0.46142318388E+02  0.10000005716E+02 0.  0.
         12    1    1    2    0    0  0.20298110863E+02  0.79033345957E+01  0.39428890798E+02  0.45045681612E+02  0.00000000000E+00 0. -1.
         11    1    3    3    0    0 -0.26779349752E+01  0.47889769771E+00 -0.19058149032E+01  0.33215673172E+01  0.51100000000E-03 0. -1.
        -11    1    3    3    0    0 -0.12569376635E+02 -0.59782451102E+01 -0.19558818419E+02  0.24005749765E+02  0.51100000000E-03 0.  1.
         12    1    3    3    0    0 -0.50507992532E+01 -0.24039871832E+01 -0.17964257476E+02  0.18815001305E+02  0.00000000000E+00 0. -1.
</event>
<event>
 7    1  0.1445801E-008  0.4614232E+02  0.7816164E-02  0.1320468E+00
        -11   -1    0    0    0    0  0.00000000000E+00  0.00000000000E+00  0.45593999997E+02  0.45594000000E+02  0.51100000000E-03 0. -1.
         11   -1    0    0    0    0 -0.00000000000E+00 -0.00000000000E+00 -0.45593999997E+02  0.45594000000E+02  0.51100000000E-03 0.  1.
    9900012    2    1    2    0    0 -0.43207636657E+01  0.20731003827E+01 -0.44790028935E+02  0.46142318344E+02  0.10000005315E+02 0.  0.
         12    1    1    2    0    0  0.43207636657E+01 -0.20731003827E+01  0.44790028935E+02  0.45045681656E+02  0.00000000000E+00 0. -1.
         11    1    3    3    0    0 -0.30511007234E+01  0.54469124451E+01 -0.18395920223E+02  0.19426475540E+02  0.51100000000E-03 0. -1.
        -11    1    3    3    0    0 -0.37922594784E+00 -0.14228335512E+01 -0.49393753679E+01  0.51541921695E+01  0.51100000000E-03 0.  1.
        -12    1    3    3    0    0 -0.89043699452E+00 -0.19509785112E+01 -0.21454733344E+02  0.21561650634E+02  0.00000000000E+00 0.  1.
</event>
<event>
 7    1  0.1445801E-008  0.4614232E+02  0.7816164E-02  0.1320468E+00
        -11   -1    0    0    0    0  0.00000000000E+00  0.00000000000E+00  0.45593999997E+02  0.45594000000E+02  0.51100000000E-03 0.  1.
         11   -1    0    0    0    0 -0.00000000000E+00 -0.00000000000E+00 -0.45593999997E+02  0.45594000000E+02  0.51100000000E-03 0. -1.
    9900012    2    1    2    0    0  0.14030077795E+02  0.42705990333E+02 -0.29101179897E+01  0.46142317854E+02  0.10000000849E+02 0.  0.
         12    1    1    2    0    0 -0.14030077795E+02 -0.42705990333E+02  0.29101179897E+01  0.45045682146E+02  0.00000000000E+00 0. -1.
         11    1    3    3    0    0  0.72610556146E+01  0.21331631048E+02 -0.44169973171E+01  0.22962388321E+02  0.51100000000E-03 0. -1.
        -11    1    3    3    0    0  0.41169665392E+01  0.14553580430E+02  0.36412186266E+01  0.15556818125E+02  0.51100000000E-03 0.  1.
        -12    1    3    3    0    0  0.26520556408E+01  0.68207788544E+01 -0.21343392992E+01  0.76231114085E+01  0.00000000000E+00 0.  1.
</event>
<event>
 7    1  0.1445801E-008  0.4614232E+02  0.7816164E-02  0.1320468E+00
        -11   -1    0    0    0    0  0.00000000000E+00  0.00000000000E+00  0.45593999997E+02  0.45594000000E+02  0.51100000000E-03 0.  1.
         11   -1    0    0    0    0 -0.00000000000E+00 -0.00000000000E+00 -0.45593999997E+02  0.45594000000E+02  0.51100000000E-03 0. -1.
    9900012    2    1    2    0    0 -0.22727114838E+02  0.20601749129E+02  0.32987268533E+02  0.46142315398E+02  0.99999784497E+01 0.  0.
         12    1    1    2    0    0  0.22727114838E+02 -0.20601749129E+02 -0.32987268533E+02  0.45045684602E+02  0.00000000000E+00 0. -1.
         11    1    3    3    0    0 -0.26686883246E+01 -0.29249588070E+00  0.50386601396E+01  0.57092510435E+01  0.51100000000E-03 0. -1.
        -11    1    3    3    0    0 -0.15804682121E+02  0.18348043218E+02  0.22335285902E+02  0.32943947296E+02  0.51100000000E-03 0.  1.
        -12    1    3    3    0    0 -0.42537443924E+01  0.25462017916E+01  0.56133224914E+01  0.74891170582E+01  0.00000000000E+00 0.  1.
</event>
<event>
 7    1  0.1445801E-008  0.4614232E+02  0.7816164E-02  0.1320468E+00
        -11   -1    0    0    0    0  0.00000000000E+00  0.00000000000E+00  0.45593999997E+02  0.45594000000E+02  0.51100000000E-03 0. -1.
         11   -1    0    0    0    0 -0.00000000000E+00 -0.00000000000E+00 -0.45593999997E+02  0.45594000000E+02  0.51100000000E-03 0.  1.
    9900012    2    1    2    0    0 -0.20404380266E+01 -0.44955145733E+02  0.19962482316E+01  0.46142317386E+02  0.99999965774E+01 0.  0.
         12    1    1    2    0    0  0.20404380266E+01  0.44955145733E+02 -0.19962482316E+01  0.45045682614E+02  0.00000000000E+00 0. -1.
         11    1    3    3    0    0  0.24356383560E+01 -0.55686777486E+01 -0.13716814997E+01  0.62308921085E+01  0.51100000000E-03 0. -1.
        -11    1    3    3    0    0 -0.48561888625E+01 -0.37199411602E+02  0.27960408611E+01  0.37619099385E+02  0.51100000000E-03 0.  1.
        -12    1    3    3    0    0  0.38011247986E+00 -0.21870563820E+01  0.57188887026E+00  0.22923258920E+01  0.00000000000E+00 0.  1.
</event>
<event>
 7    1  0.1445801E-008  0.4614232E+02  0.7816164E-02  0.1320468E+00
        -11   -1    0    0    0    0  0.00000000000E+00  0.00000000000E+00  0.45593999997E+02  0.45594000000E+02  0.51100000000E-03 0.  1.
         11   -1    0    0    0    0 -0.00000000000E+00 -0.00000000000E+00 -0.45593999997E+02  0.45594000000E+02  0.51100000000E-03 0. -1.
    9900012    2    1    2    0    0 -0.40602544303E+02 -0.85346013836E+01  0.17541591186E+02  0.46142318232E+02  0.10000004290E+02 0.  0.
         12    1    1    2    0    0  0.40602544303E+02  0.85346013836E+01 -0.17541591186E+02  0.45045681768E+02  0.00000000000E+00 0. -1.
         11    1    3    3    0    0 -0.17528793244E+02 -0.17964616465E+00  0.44073244148E+01  0.18075269682E+02  0.51100000000E-03 0. -1.
        -11    1    3    3    0    0 -0.17004751813E+02 -0.46207108147E+01  0.10201431552E+02  0.20361280869E+02  0.51100000000E-03 0.  1.
         12    1    3    3    0    0 -0.60689992467E+01 -0.37342444043E+01  0.29328352195E+01  0.77057676809E+01  0.00000000000E+00 0. -1.
</event>
<event>
 7    1  0.1445801E-008  0.4614232E+02  0.7816164E-02  0.1320468E+00
        -11   -1    0    0    0    0  0.00000000000E+00  0.00000000000E+00  0.45593999997E+02  0.45594000000E+02  0.51100000000E-03 0.  1.
         11   -1    0    0    0    0 -0.00000000000E+00 -0.00000000000E+00 -0.45593999997E+02  0.45594000000E+02  0.51100000000E-03 0. -1.
    9900012    2    1    2    0    0  0.91157265510E+01  0.39903976643E+02  0.18806637590E+02  0.46142318298E+02  0.10000004900E+02 0.  0.
         12    1    1    2    0    0 -0.91157265510E+01 -0.39903976643E+02 -0.18806637590E+02  0.45045681702E+02  0.00000000000E+00 0. -1.
         11    1    3    3    0    0  0.92697189845E+01  0.22529152575E+02  0.84659964370E+01  0.25790763884E+02  0.51100000000E-03 0. -1.
        -11    1    3    3    0    0 -0.12246749958E+01  0.80776516075E+01  0.48634137971E+01  0.95079481677E+01  0.51100000000E-03 0.  1.
         12    1    3    3    0    0  0.10706825622E+01  0.92971724609E+01  0.54772273563E+01  0.10843606246E+02  0.00000000000E+00 0. -1.
</event>
<event>
 7    1  0.1445801E-008  0.4614232E+02  0.7816164E-02  0.1320468E+00
        -11   -1    0    0    0    0  0.00000000000E+00  0.00000000000E+00  0.45593999997E+02  0.45594000000E+02  0.51100000000E-03 0.  1.
         11   -1    0    0    0    0 -0.00000000000E+00 -0.00000000000E+00 -0.45593999997E+02  0.45594000000E+02  0.51100000000E-03 0. -1.
    9900012    2    1    2    0    0 -0.64145325539E+01  0.41308775633E+02  0.16779515938E+02  0.46142319548E+02  0.10000016298E+02 0.  0.
         12    1    1    2    0    0  0.64145325539E+01 -0.41308775633E+02 -0.16779515938E+02  0.45045680452E+02  0.00000000000E+00 0. -1.
         11    1    3    3    0    0 -0.57877869721E+01  0.11340613974E+02  0.70481709483E+01  0.14552825063E+02  0.51100000000E-03 0. -1.
        -11    1    3    3    0    0 -0.20904565628E+00  0.23280520285E+01  0.18683328299E+00  0.23448738283E+01  0.51100000000E-03 0.  1.
         12    1    3    3    0    0 -0.41769992551E+00  0.27640109631E+02  0.95445117071E+01  0.29244620657E+02  0.00000000000E+00 0. -1.
</event>
<event>
 7    1  0.1445801E-008  0.4614232E+02  0.7816164E-02  0.1320468E+00
        -11   -1    0    0    0    0  0.00000000000E+00  0.00000000000E+00  0.45593999997E+02  0.45594000000E+02  0.51100000000E-03 0.  1.
         11   -1    0    0    0    0 -0.00000000000E+00 -0.00000000000E+00 -0.45593999997E+02  0.45594000000E+02  0.51100000000E-03 0. -1.
    9900012    2    1    2    0    0  0.33930200787E+02  0.29190932056E+02 -0.50739012119E+01  0.46142317485E+02  0.99999974804E+01 0.  0.
         12    1    1    2    0    0 -0.33930200787E+02 -0.29190932056E+02  0.50739012119E+01  0.45045682515E+02  0.00000000000E+00 0. -1.
         11    1    3    3    0    0  0.35610415035E+01  0.73319534325E+01 -0.13269254964E+01  0.82582860970E+01  0.51100000000E-03 0. -1.
        -11    1    3    3    0    0  0.26959818469E+02  0.17622998901E+02 -0.25019651832E+01  0.32305753855E+02  0.51100000000E-03 0.  1.
        -12    1    3    3    0    0  0.34093408148E+01  0.42359797228E+01 -0.12450105323E+01  0.55782775325E+01  0.00000000000E+00 0.  1.
</event>
<event>
 7    1  0.1445801E-008  0.4614232E+02  0.7816164E-02  0.1320468E+00
        -11   -1    0    0    0    0  0.00000000000E+00  0.00000000000E+00  0.45593999997E+02  0.45594000000E+02  0.51100000000E-03 0. -1.
         11   -1    0    0    0    0 -0.00000000000E+00 -0.00000000000E+00 -0.45593999997E+02  0.45594000000E+02  0.51100000000E-03 0.  1.
    9900012    2    1    2    0    0  0.91630546258E+00 -0.35334877052E+02 -0.27923475985E+02  0.46142315822E+02  0.99999823170E+01 0.  0.
         12    1    1    2    0    0 -0.91630546258E+00  0.35334877052E+02  0.27923475985E+02  0.45045684178E+02  0.00000000000E+00 0. -1.
         11    1    3    3    0    0  0.27822715005E+01 -0.14551066593E+02 -0.13376736276E+02  0.19960251686E+02  0.51100000000E-03 0. -1.
        -11    1    3    3    0    0 -0.30423346583E+01 -0.19643787484E+02 -0.14382950097E+02  0.24535758407E+02  0.51100000000E-03 0.  1.
        -12    1    3    3    0    0  0.11763686204E+01 -0.11400229757E+01 -0.16378961187E+00  0.16463057289E+01  0.00000000000E+00 0.  1.
</event>
<event>
 7    1  0.1445801E-008  0.4614232E+02  0.7816164E-02  0.1320468E+00
        -11   -1    0    0    0    0  0.00000000000E+00  0.00000000000E+00  0.45593999997E+02  0.45594000000E+02  0.51100000000E-03 0.  1.
         11   -1    0    0    0    0 -0.00000000000E+00 -0.00000000000E+00 -0.45593999997E+02  0.45594000000E+02  0.51100000000E-03 0. -1.
    9900012    2    1    2    0    0  0.26430055015E+02 -0.22769025118E+02  0.28498016426E+02  0.46142320372E+02  0.10000023807E+02 0.  0.
         12    1    1    2    0    0 -0.26430055015E+02  0.22769025118E+02 -0.28498016426E+02  0.45045679628E+02  0.00000000000E+00 0. -1.
         11    1    3    3    0    0  0.72883565865E+01 -0.32227595072E+01  0.42877580339E+01  0.90493751051E+01  0.51100000000E-03 0. -1.
        -11    1    3    3    0    0  0.11104350291E+02 -0.15417267147E+02  0.15193610237E+02  0.24327854693E+02  0.51100000000E-03 0.  1.
        -12    1    3    3    0    0  0.80373481378E+01 -0.41289984633E+01  0.90166481555E+01  0.12765090574E+02  0.00000000000E+00 0.  1.
</event>
<event>
 7    1  0.1445801E-008  0.4614232E+02  0.7816164E-02  0.1320468E+00
        -11   -1    0    0    0    0  0.00000000000E+00  0.00000000000E+00  0.45593999997E+02  0.45594000000E+02  0.51100000000E-03 0.  1.
         11   -1    0    0    0    0 -0.00000000000E+00 -0.00000000000E+00 -0.45593999997E+02  0.45594000000E+02  0.51100000000E-03 0. -1.
    9900012    2    1    2    0    0  0.15355088357E+02  0.41609349787E+02  0.78737987168E+01  0.46142318360E+02  0.10000005465E+02 0.  0.
         12    1    1    2    0    0 -0.15355088357E+02 -0.41609349787E+02 -0.78737987168E+01  0.45045681640E+02  0.00000000000E+00 0. -1.
         11    1    3    3    0    0  0.52101029561E+01  0.12237274784E+02 -0.80482398957E+00  0.13324556611E+02  0.51100000000E-03 0. -1.
        -11    1    3    3    0    0  0.75057454814E+01  0.17774684910E+02  0.80525253673E+01  0.20907386349E+02  0.51100000000E-03 0.  1.
        -12    1    3    3    0    0  0.26392399191E+01  0.11597390093E+02  0.62609733903E+00  0.11910375401E+02  0.00000000000E+00 0.  1.
</event>
<event>
 7    1  0.1445801E-008  0.4614232E+02  0.7816164E-02  0.1320468E+00
        -11   -1    0    0    0    0  0.00000000000E+00  0.00000000000E+00  0.45593999997E+02  0.45594000000E+02  0.51100000000E-03 0.  1.
         11   -1    0    0    0    0 -0.00000000000E+00 -0.00000000000E+00 -0.45593999997E+02  0.45594000000E+02  0.51100000000E-03 0. -1.
    9900012    2    1    2    0    0  0.25131373144E+02  0.62321766477E+01  0.36860381891E+02  0.46142315467E+02  0.99999790802E+01 0.  0.
         12    1    1    2    0    0 -0.25131373144E+02 -0.62321766477E+01 -0.36860381891E+02  0.45045684533E+02  0.00000000000E+00 0. -1.
         11    1    3    3    0    0  0.50947985333E+01  0.24996177537E+01  0.49810624017E+01  0.75508968951E+01  0.51100000000E-03 0. -1.
        -11    1    3    3    0    0  0.60200575546E+01  0.33754885498E+01  0.15896674378E+02  0.17330299261E+02  0.51100000000E-03 0.  1.
        -12    1    3    3    0    0  0.14016517056E+02  0.35707034425E+00  0.15982645111E+02  0.21261119311E+02  0.00000000000E+00 0.  1.
</event>
<event>
 7    1  0.1445801E-008  0.4614232E+02  0.7816164E-02  0.1320468E+00
        -11   -1    0    0    0    0  0.00000000000E+00  0.00000000000E+00  0.45593999997E+02  0.45594000000E+02  0.51100000000E-03 0. -1.
         11   -1    0    0    0    0 -0.00000000000E+00 -0.00000000000E+00 -0.45593999997E+02  0.45594000000E+02  0.51100000000E-03 0.  1.
    9900012    2    1    2    0    0 -0.68018341860E+01 -0.83316625625E+01 -0.43742793264E+02  0.46142317500E+02  0.99999976157E+01 0.  0.
         12    1    1    2    0    0  0.68018341860E+01  0.83316625625E+01  0.43742793264E+02  0.45045682500E+02  0.00000000000E+00 0. -1.
         11    1    3    3    0    0 -0.33124012684E+01 -0.24804779287E+01 -0.99017409240E+01  0.10731693553E+02  0.51100000000E-03 0. -1.
        -11    1    3    3    0    0 -0.29448621752E+01 -0.10209888004E+01 -0.25992944691E+02  0.26179148292E+02  0.51100000000E-03 0.  1.
        -12    1    3    3    0    0 -0.54457074236E+00 -0.48301958334E+01 -0.78481076499E+01  0.92314756549E+01  0.00000000000E+00 0.  1.
</event>
<event>
 7    1  0.1445801E-008  0.4614232E+02  0.7816164E-02  0.1320468E+00
        -11   -1    0    0    0    0  0.00000000000E+00  0.00000000000E+00  0.45593999997E+02  0.45594000000E+02  0.51100000000E-03 0. -1.
         11   -1    0    0    0    0 -0.00000000000E+00 -0.00000000000E+00 -0.45593999997E+02  0.45594000000E+02  0.51100000000E-03 0.  1.
    9900012    2    1    2    0    0  0.21695864677E+02  0.30716449434E+02 -0.24797230450E+02  0.46142318210E+02  0.10000004095E+02 0.  0.
         12    1    1    2    0    0 -0.21695864677E+02 -0.30716449434E+02  0.24797230450E+02  0.45045681790E+02  0.00000000000E+00 0. -1.
         11    1    3    3    0    0 -0.17036606123E+00 -0.42761721478E+00  0.19690702500E+00  0.50065328803E+00  0.51100000000E-03 0. -1.
        -11    1    3    3    0    0  0.72805753724E+01  0.91875006003E+01 -0.93015500201E+01  0.14964483889E+02  0.51100000000E-03 0.  1.
         12    1    3    3    0    0  0.14585655366E+02  0.21956566048E+02 -0.15692587455E+02  0.30677181033E+02  0.00000000000E+00 0. -1.
</event>
<event>
 7    1  0.1445801E-008  0.4614232E+02  0.7816164E-02  0.1320468E+00
        -11   -1    0    0    0    0  0.00000000000E+00  0.00000000000E+00  0.45593999997E+02  0.45594000000E+02  0.51100000000E-03 0. -1.
         11   -1    0    0    0    0 -0.00000000000E+00 -0.00000000000E+00 -0.45593999997E+02  0.45594000000E+02  0.51100000000E-03 0.  1.
    9900012    2    1    2    0    0 -0.10627695658E+02 -0.19815024350E+02 -0.39032426930E+02  0.46142318109E+02  0.10000003172E+02 0.  0.
         12    1    1    2    0    0  0.10627695658E+02  0.19815024350E+02  0.39032426930E+02  0.45045681891E+02  0.00000000000E+00 0. -1.
         11    1    3    3    0    0 -0.18619212931E+01  0.15305230877E+00 -0.14159111839E+01  0.23441375072E+01  0.51100000000E-03 0. -1.
        -11    1    3    3    0    0 -0.76882544057E+01 -0.13056891442E+02 -0.28812153384E+02  0.32553522895E+02  0.51100000000E-03 0.  1.
         12    1    3    3    0    0 -0.10775199588E+01 -0.69111852161E+01 -0.88043623619E+01  0.11244657707E+02  0.00000000000E+00 0. -1.
</event>
<event>
 7    1  0.1445801E-008  0.4614232E+02  0.7816164E-02  0.1320468E+00
        -11   -1    0    0    0    0  0.00000000000E+00  0.00000000000E+00  0.45593999997E+02  0.45594000000E+02  0.51100000000E-03 0.  1.
         11   -1    0    0    0    0 -0.00000000000E+00 -0.00000000000E+00 -0.45593999997E+02  0.45594000000E+02  0.51100000000E-03 0. -1.
    9900012    2    1    2    0    0 -0.22316346501E+02 -0.39123684500E+02 -0.65683047922E+00  0.46142318340E+02  0.10000005276E+02 0.  0.
         12    1    1    2    0    0  0.22316346501E+02  0.39123684500E+02  0.65683047922E+00  0.45045681660E+02  0.00000000000E+00 0. -1.
         11    1    3    3    0    0 -0.43728597035E+01 -0.79070802232E+01  0.14824247746E+01  0.91564951328E+01  0.51100000000E-03 0.  1.
        -11    1    3    3    0    0  0.32947383458E-01 -0.28006213215E+01 -0.18559580726E+01  0.33599324316E+01  0.51100000000E-03 0. -1.
        -12    1    3    3    0    0 -0.17976434181E+02 -0.28415982955E+02 -0.28329718125E+00  0.33625890775E+02  0.00000000000E+00 0.  1.
</event>
<event>
 7    1  0.1445801E-008  0.4614232E+02  0.7816164E-02  0.1320468E+00
        -11   -1    0    0    0    0  0.00000000000E+00  0.00000000000E+00  0.45593999997E+02  0.45594000000E+02  0.51100000000E-03 0.  1.
         11   -1    0    0    0    0 -0.00000000000E+00 -0.00000000000E+00 -0.45593999997E+02  0.45594000000E+02  0.51100000000E-03 0. -1.
    9900012    2    1    2    0    0  0.80359054677E+01  0.20047115089E+02  0.39530379534E+02  0.46142317563E+02  0.99999981924E+01 0.  0.
         12    1    1    2    0    0 -0.80359054677E+01 -0.20047115089E+02 -0.39530379534E+02  0.45045682437E+02  0.00000000000E+00 0. -1.
         11    1    3    3    0    0  0.59335756871E+01  0.65435645423E+01  0.14128743227E+02  0.16662741155E+02  0.51100000000E-03 0. -1.
        -11    1    3    3    0    0  0.54603153297E+00  0.13197041252E+02  0.21082004854E+02  0.24877921480E+02  0.51100000000E-03 0.  1.
        -12    1    3    3    0    0  0.15562982477E+01  0.30650929501E+00  0.43196314538E+01  0.46016549284E+01  0.00000000000E+00 0.  1.
</event>
<event>
 7    1  0.1445801E-008  0.4614231E+02  0.7816164E-02  0.1320468E+00
        -11   -1    0    0    0    0  0.00000000000E+00  0.00000000000E+00  0.45593999997E+02  0.45594000000E+02  0.51100000000E-03 0.  1.
         11   -1    0    0    0    0 -0.00000000000E+00 -0.00000000000E+00 -0.45593999997E+02  0.45594000000E+02  0.51100000000E-03 0. -1.
    9900012    2    1    2    0    0 -0.14152019147E+02  0.34518938166E+01  0.42625327260E+02  0.46142314958E+02  0.99999744374E+01 0.  0.
         12    1    1    2    0    0  0.14152019147E+02 -0.34518938166E+01 -0.42625327260E+02  0.45045685042E+02  0.00000000000E+00 0. -1.
         11    1    3    3    0    0 -0.37340756873E+01  0.42383933322E+01  0.76871932745E+01  0.95394045924E+01  0.51100000000E-03 0. -1.
        -11    1    3    3    0    0 -0.99131095553E+01 -0.14835874734E+01  0.32822368137E+02  0.34318779454E+02  0.51100000000E-03 0.  1.
         12    1    3    3    0    0 -0.50483390435E+00  0.69708795772E+00  0.21157658495E+01  0.22841309116E+01  0.00000000000E+00 0. -1.
</event>
<event>
 7    1  0.1445801E-008  0.4614232E+02  0.7816164E-02  0.1320468E+00
        -11   -1    0    0    0    0  0.00000000000E+00  0.00000000000E+00  0.45593999997E+02  0.45594000000E+02  0.51100000000E-03 0. -1.
         11   -1    0    0    0    0 -0.00000000000E+00 -0.00000000000E+00 -0.45593999997E+02  0.45594000000E+02  0.51100000000E-03 0.  1.
    9900012    2    1    2    0    0  0.43322593127E+02  0.24621930811E+01 -0.12091483554E+02  0.46142318247E+02  0.10000004432E+02 0.  0.
         12    1    1    2    0    0 -0.43322593127E+02 -0.24621930811E+01  0.12091483554E+02  0.45045681753E+02  0.00000000000E+00 0. -1.
         11    1    3    3    0    0  0.45663292003E+01  0.24349950203E+01 -0.19508026894E+01  0.55304786871E+01  0.51100000000E-03 0. -1.
        -11    1    3    3    0    0  0.18836598466E+02 -0.33108793243E+01 -0.51669821505E+01  0.19811034008E+02  0.51100000000E-03 0.  1.
        -12    1    3    3    0    0  0.19919665461E+02  0.33380773851E+01 -0.49736987136E+01  0.20800805552E+02  0.00000000000E+00 0.  1.
</event>
<event>
 7    1  0.1445801E-008  0.4614232E+02  0.7816164E-02  0.1320468E+00
        -11   -1    0    0    0    0  0.00000000000E+00  0.00000000000E+00  0.45593999997E+02  0.45594000000E+02  0.51100000000E-03 0.  1.
         11   -1    0    0    0    0 -0.00000000000E+00 -0.00000000000E+00 -0.45593999997E+02  0.45594000000E+02  0.51100000000E-03 0. -1.
    9900012    2    1    2    0    0  0.23880255688E+02 -0.73361540424E+01  0.37483698826E+02  0.46142318236E+02  0.10000004332E+02 0.  0.
         12    1    1    2    0    0 -0.23880255688E+02  0.73361540424E+01 -0.37483698826E+02  0.45045681764E+02  0.00000000000E+00 0. -1.
         11    1    3    3    0    0  0.65693022365E+01 -0.15710211924E-01  0.14093092241E+02  0.15548994432E+02  0.51100000000E-03 0. -1.
        -11    1    3    3    0    0  0.24636569342E+01 -0.29607737834E+01  0.73939610206E+01  0.83370526400E+01  0.51100000000E-03 0.  1.
        -12    1    3    3    0    0  0.14847296518E+02 -0.43596700470E+01  0.15996645565E+02  0.22256271164E+02  0.00000000000E+00 0.  1.
</event>
<event>
 7    1  0.1445801E-008  0.4614232E+02  0.7816164E-02  0.1320468E+00
        -11   -1    0    0    0    0  0.00000000000E+00  0.00000000000E+00  0.45593999997E+02  0.45594000000E+02  0.51100000000E-03 0. -1.
         11   -1    0    0    0    0 -0.00000000000E+00 -0.00000000000E+00 -0.45593999997E+02  0.45594000000E+02  0.51100000000E-03 0.  1.
    9900012    2    1    2    0    0 -0.40188698397E+02 -0.97072700249E+01 -0.17881581356E+02  0.46142317388E+02  0.99999965949E+01 0.  0.
         12    1    1    2    0    0  0.40188698397E+02  0.97072700249E+01  0.17881581356E+02  0.45045682612E+02  0.00000000000E+00 0. -1.
         11    1    3    3    0    0 -0.43991461472E+01 -0.39887443307E+01 -0.11082957434E+01  0.60407688150E+01  0.51100000000E-03 0. -1.
        -11    1    3    3    0    0 -0.30657329858E+02 -0.51796091669E+01 -0.15699179735E+02  0.34830510615E+02  0.51100000000E-03 0.  1.
        -12    1    3    3    0    0 -0.51322223927E+01 -0.53891652729E+00 -0.10741058777E+01  0.52710379573E+01  0.00000000000E+00 0.  1.
</event>
<event>
 7    1  0.1445801E-008  0.4614232E+02  0.7816164E-02  0.1320468E+00
        -11   -1    0    0    0    0  0.00000000000E+00  0.00000000000E+00  0.45593999997E+02  0.45594000000E+02  0.51100000000E-03 0. -1.
         11   -1    0    0    0    0 -0.00000000000E+00 -0.00000000000E+00 -0.45593999997E+02  0.45594000000E+02  0.51100000000E-03 0.  1.
    9900012    2    1    2    0    0 -0.49665611010E+01  0.34107893432E+02 -0.29001695936E+02  0.46142317735E+02  0.99999997589E+01 0.  0.
         12    1    1    2    0    0  0.49665611010E+01 -0.34107893432E+02  0.29001695936E+02  0.45045682265E+02  0.00000000000E+00 0. -1.
         11    1    3    3    0    0 -0.47266913565E+01  0.24561229596E+02 -0.18928897151E+02  0.31367160504E+02  0.51100000000E-03 0. -1.
        -11    1    3    3    0    0 -0.23090484185E+01  0.27906194493E+01 -0.44972381430E+01  0.57744621123E+01  0.51100000000E-03 0.  1.
         12    1    3    3    0    0  0.20691786740E+01  0.67560443869E+01 -0.55755606420E+01  0.90006951185E+01  0.00000000000E+00 0. -1.
</event>
<event>
 7    1  0.1445801E-008  0.4614232E+02  0.7816164E-02  0.1320468E+00
        -11   -1    0    0    0    0  0.00000000000E+00  0.00000000000E+00  0.45593999997E+02  0.45594000000E+02  0.51100000000E-03 0.  1.
         11   -1    0    0    0    0 -0.00000000000E+00 -0.00000000000E+00 -0.45593999997E+02  0.45594000000E+02  0.51100000000E-03 0. -1.
    9900012    2    1    2    0    0 -0.55052913992E+01  0.25735176321E+02  0.36558254387E+02  0.46142317660E+02  0.99999990742E+01 0.  0.
         12    1    1    2    0    0  0.55052913992E+01 -0.25735176321E+02 -0.36558254387E+02  0.45045682340E+02  0.00000000000E+00 0. -1.
         11    1    3    3    0    0 -0.84921892677E-01  0.10740397561E+02  0.87950676326E+01  0.13882239244E+02  0.51100000000E-03 0. -1.
        -11    1    3    3    0    0 -0.48660062992E+01  0.14723288650E+02  0.24919815829E+02  0.29350476439E+02  0.51100000000E-03 0.  1.
         12    1    3    3    0    0 -0.55436320725E+00  0.27149011071E+00  0.28433709252E+01  0.29096019769E+01  0.00000000000E+00 0. -1.
</event>
<event>
 7    1  0.1445801E-008  0.4614232E+02  0.7816164E-02  0.1320468E+00
        -11   -1    0    0    0    0  0.00000000000E+00  0.00000000000E+00  0.45593999997E+02  0.45594000000E+02  0.51100000000E-03 0.  1.
         11   -1    0    0    0    0 -0.00000000000E+00 -0.00000000000E+00 -0.45593999997E+02  0.45594000000E+02  0.51100000000E-03 0. -1.
    9900012    2    1    2    0    0  0.38539423102E+02  0.17420396481E+02  0.15503423763E+02  0.46142317688E+02  0.99999993294E+01 0.  0.
         12    1    1    2    0    0 -0.38539423102E+02 -0.17420396481E+02 -0.15503423763E+02  0.45045682312E+02  0.00000000000E+00 0. -1.
         11    1    3    3    0    0  0.89624599695E+01  0.69553684674E+01  0.55010601165E+01  0.12608112543E+02  0.51100000000E-03 0. -1.
        -11    1    3    3    0    0  0.23881599438E+02  0.10515966952E+02  0.66620986815E+01  0.26931392681E+02  0.51100000000E-03 0.  1.
        -12    1    3    3    0    0  0.56953636950E+01 -0.50938938568E-01  0.33402649648E+01  0.66028124636E+01  0.00000000000E+00 0.  1.
</event>
<event>
 7    1  0.1445801E-008  0.4614231E+02  0.7816164E-02  0.1320468E+00
        -11   -1    0    0    0    0  0.00000000000E+00  0.00000000000E+00  0.45593999997E+02  0.45594000000E+02  0.51100000000E-03 0.  1.
         11   -1    0    0    0    0 -0.00000000000E+00 -0.00000000000E+00 -0.45593999997E+02  0.45594000000E+02  0.51100000000E-03 0. -1.
    9900012    2    1    2    0    0 -0.10791582909E+02 -0.60115867776E+01  0.43318775485E+02  0.46142314893E+02  0.99999738463E+01 0.  0.
         12    1    1    2    0    0  0.10791582909E+02  0.60115867776E+01 -0.43318775485E+02  0.45045685107E+02  0.00000000000E+00 0. -1.
         11    1    3    3    0    0 -0.17371971768E+01 -0.16160693391E+01  0.20128597458E+01  0.31114528371E+01  0.51100000000E-03 0. -1.
        -11    1    3    3    0    0 -0.91053186186E+01 -0.47307198566E+01  0.29747012337E+02  0.31466987157E+02  0.51100000000E-03 0.  1.
        -12    1    3    3    0    0  0.50932886744E-01  0.33520241805E+00  0.11558903402E+02  0.11563874899E+02  0.00000000000E+00 0.  1.
</event>
<event>
 7    1  0.1445801E-008  0.4614232E+02  0.7816164E-02  0.1320468E+00
        -11   -1    0    0    0    0  0.00000000000E+00  0.00000000000E+00  0.45593999997E+02  0.45594000000E+02  0.51100000000E-03 0.  1.
         11   -1    0    0    0    0 -0.00000000000E+00 -0.00000000000E+00 -0.45593999997E+02  0.45594000000E+02  0.51100000000E-03 0. -1.
    9900012    2    1    2    0    0 -0.35067140652E+02  0.27461923389E+02  0.67269551946E+01  0.46142317455E+02  0.99999972123E+01 0.  0.
         12    1    1    2    0    0  0.35067140652E+02 -0.27461923389E+02 -0.67269551946E+01  0.45045682545E+02  0.00000000000E+00 0. -1.
         11    1    3    3    0    0 -0.21519291006E+02  0.14569980776E+02  0.60564012430E+01  0.26684156750E+02  0.51100000000E-03 0. -1.
        -11    1    3    3    0    0 -0.60484965753E+01  0.54373639417E+01 -0.23413117065E+01  0.84635086237E+01  0.51100000000E-03 0.  1.
        -12    1    3    3    0    0 -0.74993530710E+01  0.74545786710E+01  0.30118656580E+01  0.10994652081E+02  0.00000000000E+00 0.  1.
</event>
<event>
 7    1  0.1445801E-008  0.4614232E+02  0.7816164E-02  0.1320468E+00
        -11   -1    0    0    0    0  0.00000000000E+00  0.00000000000E+00  0.45593999997E+02  0.45594000000E+02  0.51100000000E-03 0.  1.
         11   -1    0    0    0    0 -0.00000000000E+00 -0.00000000000E+00 -0.45593999997E+02  0.45594000000E+02  0.51100000000E-03 0. -1.
    9900012    2    1    2    0    0  0.48030846121E+01 -0.16100075912E+02  0.41795111655E+02  0.46142318471E+02  0.10000006478E+02 0.  0.
         12    1    1    2    0    0 -0.48030846121E+01  0.16100075912E+02 -0.41795111655E+02  0.45045681529E+02  0.00000000000E+00 0. -1.
         11    1    3    3    0    0 -0.50490504051E+00 -0.11483555732E+00  0.13988071371E+00  0.53636105409E+00  0.51100000000E-03 0. -1.
        -11    1    3    3    0    0  0.35289858095E+01 -0.39716622144E+01  0.20842901537E+02  0.21509402277E+02  0.51100000000E-03 0.  1.
        -12    1    3    3    0    0  0.17790038431E+01 -0.12013578140E+02  0.20812329404E+02  0.24096555140E+02  0.00000000000E+00 0.  1.
</event>
<event>
 7    1  0.1445801E-008  0.4614232E+02  0.7816164E-02  0.1320468E+00
        -11   -1    0    0    0    0  0.00000000000E+00  0.00000000000E+00  0.45593999997E+02  0.45594000000E+02  0.51100000000E-03 0. -1.
         11   -1    0    0    0    0 -0.00000000000E+00 -0.00000000000E+00 -0.45593999997E+02  0.45594000000E+02  0.51100000000E-03 0.  1.
    9900012    2    1    2    0    0  0.11198525604E+02 -0.23429557844E+02 -0.36807096381E+02  0.46142317627E+02  0.99999987805E+01 0.  0.
         12    1    1    2    0    0 -0.11198525604E+02  0.23429557844E+02  0.36807096381E+02  0.45045682373E+02  0.00000000000E+00 0. -1.
         11    1    3    3    0    0  0.73755776380E-01 -0.53200691308E+01 -0.61724417056E+01  0.81490865955E+01  0.51100000000E-03 0. -1.
        -11    1    3    3    0    0  0.52368149322E+01 -0.10914959028E+02 -0.22885961312E+02  0.25890689188E+02  0.51100000000E-03 0.  1.
        -12    1    3    3    0    0  0.58879548956E+01 -0.71945296851E+01 -0.77486933627E+01  0.12102541843E+02  0.00000000000E+00 0.  1.
</event>
<event>
 7    1  0.1445801E-008  0.4614232E+02  0.7816164E-02  0.1320468E+00
        -11   -1    0    0    0    0  0.00000000000E+00  0.00000000000E+00  0.45593999997E+02  0.45594000000E+02  0.51100000000E-03 0. -1.
         11   -1    0    0    0    0 -0.00000000000E+00 -0.00000000000E+00 -0.45593999997E+02  0.45594000000E+02  0.51100000000E-03 0.  1.
    9900012    2    1    2    0    0  0.11537852036E+02 -0.25988324892E+02 -0.34937063894E+02  0.46142317700E+02  0.99999994470E+01 0.  0.
         12    1    1    2    0    0 -0.11537852036E+02  0.25988324892E+02  0.34937063894E+02  0.45045682300E+02  0.00000000000E+00 0. -1.
         11    1    3    3    0    0 -0.12303353711E+01 -0.54334109488E+00 -0.20767585313E+01  0.24742414856E+01  0.51100000000E-03 0. -1.
        -11    1    3    3    0    0  0.11789167341E+02 -0.20956842830E+02 -0.26025910439E+02  0.35433342242E+02  0.51100000000E-03 0.  1.
        -12    1    3    3    0    0  0.97902006607E+00 -0.44881409676E+01 -0.68343949237E+01  0.82347339731E+01  0.00000000000E+00 0.  1.
</event>
<event>
 7    1  0.1445801E-008  0.4614232E+02  0.7816164E-02  0.1320468E+00
        -11   -1    0    0    0    0  0.00000000000E+00  0.00000000000E+00  0.45593999997E+02  0.45594000000E+02  0.51100000000E-03 0. -1.
         11   -1    0    0    0    0 -0.00000000000E+00 -0.00000000000E+00 -0.45593999997E+02  0.45594000000E+02  0.51100000000E-03 0.  1.
    9900012    2    1    2    0    0 -0.33513872311E+02  0.30098650406E+02 -0.71290419137E-01  0.46142317900E+02  0.10000001266E+02 0.  0.
         12    1    1    2    0    0  0.33513872311E+02 -0.30098650406E+02  0.71290419137E-01  0.45045682100E+02  0.00000000000E+00 0. -1.
         11    1    3    3    0    0 -0.13002478301E+02  0.18261066479E+02  0.56364405778E+00  0.22424287855E+02  0.51100000000E-03 0. -1.
        -11    1    3    3    0    0 -0.16703605448E+02  0.93670451240E+01 -0.13204710929E+00  0.19151224661E+02  0.51100000000E-03 0.  1.
         12    1    3    3    0    0 -0.38077885619E+01  0.24705388030E+01 -0.50288736763E+00  0.45668053839E+01  0.00000000000E+00 0. -1.
</event>
<event>
 7    1  0.1445801E-008  0.4614232E+02  0.7816164E-02  0.1320468E+00
        -11   -1    0    0    0    0  0.00000000000E+00  0.00000000000E+00  0.45593999997E+02  0.45594000000E+02  0.51100000000E-03 0.  1.
         11   -1    0    0    0    0 -0.00000000000E+00 -0.00000000000E+00 -0.45593999997E+02  0.45594000000E+02  0.51100000000E-03 0. -1.
    9900012    2    1    2    0    0 -0.16036649876E+02  0.28219599282E+02 -0.31234490898E+02  0.46142319357E+02  0.10000014556E+02 0.  0.
         12    1    1    2    0    0  0.16036649876E+02 -0.28219599282E+02  0.31234490898E+02  0.45045680643E+02  0.00000000000E+00 0. -1.
         11    1    3    3    0    0 -0.61040925711E+01  0.13965939026E+02 -0.83891426338E+01  0.17397847953E+02  0.51100000000E-03 0. -1.
        -11    1    3    3    0    0 -0.92943065371E+01  0.13882896768E+02 -0.21849945254E+02  0.27505255216E+02  0.51100000000E-03 0.  1.
         12    1    3    3    0    0 -0.63825076830E+00  0.37076348826E+00 -0.99540301038E+00  0.12392161880E+01  0.00000000000E+00 0. -1.
</event>
<event>
 7    1  0.1445801E-008  0.4614232E+02  0.7816164E-02  0.1320468E+00
        -11   -1    0    0    0    0  0.00000000000E+00  0.00000000000E+00  0.45593999997E+02  0.45594000000E+02  0.51100000000E-03 0. -1.
         11   -1    0    0    0    0 -0.00000000000E+00 -0.00000000000E+00 -0.45593999997E+02  0.45594000000E+02  0.51100000000E-03 0.  1.
    9900012    2    1    2    0    0  0.24962079363E+02 -0.30336268157E+02 -0.22039030743E+02  0.46142318210E+02  0.10000004094E+02 0.  0.
         12    1    1    2    0    0 -0.24962079363E+02  0.30336268157E+02  0.22039030743E+02  0.45045681790E+02  0.00000000000E+00 0. -1.
         11    1    3    3    0    0  0.31411248557E+01 -0.51329414456E+01 -0.70135154537E+01  0.92413826088E+01  0.51100000000E-03 0. -1.
        -11    1    3    3    0    0  0.19900656151E+02 -0.20261172627E+02 -0.12541152091E+02  0.31045639428E+02  0.51100000000E-03 0.  1.
         12    1    3    3    0    0  0.19202983556E+01 -0.49421540843E+01 -0.24843631989E+01  0.58552961728E+01  0.00000000000E+00 0. -1.
</event>
<event>
 7    1  0.1445801E-008  0.4614232E+02  0.7816164E-02  0.1320468E+00
        -11   -1    0    0    0    0  0.00000000000E+00  0.00000000000E+00  0.45593999997E+02  0.45594000000E+02  0.51100000000E-03 0.  1.
         11   -1    0    0    0    0 -0.00000000000E+00 -0.00000000000E+00 -0.45593999997E+02  0.45594000000E+02  0.51100000000E-03 0. -1.
    9900012    2    1    2    0    0 -0.13862023463E+02  0.33950365513E+01  0.42725068913E+02  0.46142317840E+02  0.10000000715E+02 0.  0.
         12    1    1    2    0    0  0.13862023463E+02 -0.33950365513E+01 -0.42725068913E+02  0.45045682160E+02  0.00000000000E+00 0. -1.
         11    1    3    3    0    0  0.76038011516E+00  0.59555571102E-01  0.13994943052E+01  0.15938347960E+01  0.51100000000E-03 0. -1.
        -11    1    3    3    0    0 -0.88896568784E+01 -0.51040568882E+00  0.29916199044E+02  0.31213226025E+02  0.51100000000E-03 0.  1.
        -12    1    3    3    0    0 -0.57327466995E+01  0.38458866690E+01  0.11409375564E+02  0.13335257019E+02  0.00000000000E+00 0.  1.
</event>
<event>
 7    1  0.1445801E-008  0.4614232E+02  0.7816164E-02  0.1320468E+00
        -11   -1    0    0    0    0  0.00000000000E+00  0.00000000000E+00  0.45593999997E+02  0.45594000000E+02  0.51100000000E-03 0. -1.
         11   -1    0    0    0    0 -0.00000000000E+00 -0.00000000000E+00 -0.45593999997E+02  0.45594000000E+02  0.51100000000E-03 0.  1.
    9900012    2    1    2    0    0  0.13955816226E+02  0.33518706867E+02 -0.26661676291E+02  0.46142317641E+02  0.99999989021E+01 0.  0.
         12    1    1    2    0    0 -0.13955816226E+02 -0.33518706867E+02  0.26661676291E+02  0.45045682359E+02  0.00000000000E+00 0. -1.
         11    1    3    3    0    0  0.94227929117E+01  0.24037987026E+02 -0.15432211523E+02  0.30079345060E+02  0.51100000000E-03 0.  1.
        -11    1    3    3    0    0 -0.28098881300E+00  0.15470316271E+01 -0.10475229648E+00  0.15758283133E+01  0.51100000000E-03 0. -1.
        -12    1    3    3    0    0  0.48140121269E+01  0.79336882142E+01 -0.11124712472E+02  0.14487144267E+02  0.00000000000E+00 0.  1.
</event>
<event>
 7    1  0.1445801E-008  0.4614232E+02  0.7816164E-02  0.1320468E+00
        -11   -1    0    0    0    0  0.00000000000E+00  0.00000000000E+00  0.45593999997E+02  0.45594000000E+02  0.51100000000E-03 0.  1.
         11   -1    0    0    0    0 -0.00000000000E+00 -0.00000000000E+00 -0.45593999997E+02  0.45594000000E+02  0.51100000000E-03 0. -1.
    9900012    2    1    2    0    0 -0.23362462105E+02 -0.15279473251E+02  0.35353168674E+02  0.46142317923E+02  0.10000001480E+02 0.  0.
         12    1    1    2    0    0  0.23362462105E+02  0.15279473251E+02 -0.35353168674E+02  0.45045682077E+02  0.00000000000E+00 0. -1.
         11    1    3    3    0    0 -0.33221638351E+01 -0.58562984439E+01  0.65002343501E+01  0.93587419496E+01  0.51100000000E-03 0. -1.
        -11    1    3    3    0    0 -0.21823192136E+01  0.27908873641E+00  0.48946120738E+01  0.53663428224E+01  0.51100000000E-03 0.  1.
         12    1    3    3    0    0 -0.17857979057E+02 -0.97022635438E+01  0.23958322250E+02  0.31417233151E+02  0.00000000000E+00 0. -1.
</event>
<event>
 7    1  0.1445801E-008  0.4614231E+02  0.7816164E-02  0.1320468E+00
        -11   -1    0    0    0    0  0.00000000000E+00  0.00000000000E+00  0.45593999997E+02  0.45594000000E+02  0.51100000000E-03 0.  1.
         11   -1    0    0    0    0 -0.00000000000E+00 -0.00000000000E+00 -0.45593999997E+02  0.45594000000E+02  0.51100000000E-03 0. -1.
    9900012    2    1    2    0    0 -0.66642800912E+01  0.41595238144E+02  0.15954235420E+02  0.46142311047E+02  0.99999387783E+01 0.  0.
         12    1    1    2    0    0  0.66642800912E+01 -0.41595238144E+02 -0.15954235420E+02  0.45045688953E+02  0.00000000000E+00 0. -1.
         11    1    3    3    0    0 -0.24635296508E+00  0.17948633812E+02  0.63349987157E+01  0.19035397408E+02  0.51100000000E-03 0. -1.
        -11    1    3    3    0    0 -0.51508469283E+01  0.14757312112E+02  0.29122662539E+01  0.15899395581E+02  0.51100000000E-03 0.  1.
        -12    1    3    3    0    0 -0.12670801978E+01  0.88892922204E+01  0.67069704505E+01  0.11207518058E+02  0.00000000000E+00 0.  1.
</event>
<event>
 7    1  0.1445801E-008  0.4614232E+02  0.7816164E-02  0.1320468E+00
        -11   -1    0    0    0    0  0.00000000000E+00  0.00000000000E+00  0.45593999997E+02  0.45594000000E+02  0.51100000000E-03 0. -1.
         11   -1    0    0    0    0 -0.00000000000E+00 -0.00000000000E+00 -0.45593999997E+02  0.45594000000E+02  0.51100000000E-03 0.  1.
    9900012    2    1    2    0    0 -0.28946329272E+02  0.71642816133E+01 -0.33762354214E+02  0.46142317949E+02  0.10000001711E+02 0.  0.
         12    1    1    2    0    0  0.28946329272E+02 -0.71642816133E+01  0.33762354214E+02  0.45045682051E+02  0.00000000000E+00 0. -1.
         11    1    3    3    0    0 -0.16936307054E+02  0.13829578971E+00 -0.21471614834E+02  0.27347538577E+02  0.51100000000E-03 0. -1.
        -11    1    3    3    0    0 -0.92341802155E+01  0.60326310973E+01 -0.10995894568E+02  0.15574736589E+02  0.51100000000E-03 0.  1.
         12    1    3    3    0    0 -0.27758420029E+01  0.99335472626E+00 -0.12948448119E+01  0.32200427830E+01  0.00000000000E+00 0. -1.
</event>
<event>
 7    1  0.1445801E-008  0.4614232E+02  0.7816164E-02  0.1320468E+00
        -11   -1    0    0    0    0  0.00000000000E+00  0.00000000000E+00  0.45593999997E+02  0.45594000000E+02  0.51100000000E-03 0.  1.
         11   -1    0    0    0    0 -0.00000000000E+00 -0.00000000000E+00 -0.45593999997E+02  0.45594000000E+02  0.51100000000E-03 0. -1.
    9900012    2    1    2    0    0 -0.22303383972E+02 -0.39064805265E+02 -0.23692691766E+01  0.46142318926E+02  0.10000010624E+02 0.  0.
         12    1    1    2    0    0  0.22303383972E+02  0.39064805265E+02  0.23692691766E+01  0.45045681074E+02  0.00000000000E+00 0. -1.
         11    1    3    3    0    0 -0.12923172203E+02 -0.14550024668E+02 -0.57686039659E+00  0.19469061760E+02  0.51100000000E-03 0. -1.
        -11    1    3    3    0    0 -0.76875581315E+01 -0.17080714587E+02  0.41579894327E+00  0.18735587790E+02  0.51100000000E-03 0.  1.
         12    1    3    3    0    0 -0.16926536369E+01 -0.74340660096E+01 -0.22082077233E+01  0.79376693758E+01  0.00000000000E+00 0. -1.
</event>
<event>
 7    1  0.1445801E-008  0.4614232E+02  0.7816164E-02  0.1320468E+00
        -11   -1    0    0    0    0  0.00000000000E+00  0.00000000000E+00  0.45593999997E+02  0.45594000000E+02  0.51100000000E-03 0. -1.
         11   -1    0    0    0    0 -0.00000000000E+00 -0.00000000000E+00 -0.45593999997E+02  0.45594000000E+02  0.51100000000E-03 0.  1.
    9900012    2    1    2    0    0  0.86638958492E+01  0.29475089312E+02 -0.32943428240E+02  0.46142318237E+02  0.10000004343E+02 0.  0.
         12    1    1    2    0    0 -0.86638958492E+01 -0.29475089312E+02  0.32943428240E+02  0.45045681763E+02  0.00000000000E+00 0. -1.
         11    1    3    3    0    0  0.12807314401E+01  0.41518612586E+01 -0.32597999393E+01  0.54318064065E+01  0.51100000000E-03 0.  1.
        -11    1    3    3    0    0  0.45517390024E+00 -0.51008409446E+00 -0.24335100449E+01  0.25277144741E+01  0.51100000000E-03 0. -1.
        -12    1    3    3    0    0  0.69279905089E+01  0.25833312148E+02 -0.27250118256E+02  0.38182797357E+02  0.00000000000E+00 0.  1.
</event>
<event>
 7    1  0.1445801E-008  0.4614233E+02  0.7816164E-02  0.1320468E+00
        -11   -1    0    0    0    0  0.00000000000E+00  0.00000000000E+00  0.45593999997E+02  0.45594000000E+02  0.51100000000E-03 0.  1.
         11   -1    0    0    0    0 -0.00000000000E+00 -0.00000000000E+00 -0.45593999997E+02  0.45594000000E+02  0.51100000000E-03 0. -1.
    9900012    2    1    2    0    0  0.11521785349E+02  0.29596256475E+02  0.31944058388E+02  0.46142325388E+02  0.10000069550E+02 0.  0.
         12    1    1    2    0    0 -0.11521785349E+02 -0.29596256475E+02 -0.31944058388E+02  0.45045674612E+02  0.00000000000E+00 0. -1.
         11    1    3    3    0    0  0.26885781342E+00  0.72292466730E+01  0.89669493978E+01  0.11521305210E+02  0.51100000000E-03 0. -1.
        -11    1    3    3    0    0  0.26405478922E+01  0.19746128500E+01  0.10433724120E+01  0.34583544251E+01  0.51100000000E-03 0.  1.
        -12    1    3    3    0    0  0.86123796431E+01  0.20392396952E+02  0.21933736578E+02  0.31162665753E+02  0.00000000000E+00 0.  1.
</event>
<event>
 7    1  0.1445801E-008  0.4614232E+02  0.7816164E-02  0.1320468E+00
        -11   -1    0    0    0    0  0.00000000000E+00  0.00000000000E+00  0.45593999997E+02  0.45594000000E+02  0.51100000000E-03 0.  1.
         11   -1    0    0    0    0 -0.00000000000E+00 -0.00000000000E+00 -0.45593999997E+02  0.45594000000E+02  0.51100000000E-03 0. -1.
    9900012    2    1    2    0    0  0.61409040377E+01 -0.36877074328E+02  0.25129346616E+02  0.46142319022E+02  0.10000011500E+02 0.  0.
         12    1    1    2    0    0 -0.61409040377E+01  0.36877074328E+02 -0.25129346616E+02  0.45045680978E+02  0.00000000000E+00 0. -1.
         11    1    3    3    0    0  0.50197483360E+01 -0.26225426451E+02  0.12714864975E+02  0.29574290481E+02  0.51100000000E-03 0. -1.
        -11    1    3    3    0    0  0.93314016854E+00 -0.10714361899E+02  0.12301114438E+02  0.16339697615E+02  0.51100000000E-03 0.  1.
         12    1    3    3    0    0  0.18801553320E+00  0.62714020933E-01  0.11336720276E+00  0.22833092609E+00  0.00000000000E+00 0. -1.
</event>
<event>
 7    1  0.1445801E-008  0.4614232E+02  0.7816164E-02  0.1320468E+00
        -11   -1    0    0    0    0  0.00000000000E+00  0.00000000000E+00  0.45593999997E+02  0.45594000000E+02  0.51100000000E-03 0.  1.
         11   -1    0    0    0    0 -0.00000000000E+00 -0.00000000000E+00 -0.45593999997E+02  0.45594000000E+02  0.51100000000E-03 0. -1.
    9900012    2    1    2    0    0 -0.31896844903E+02  0.12181380041E+02  0.29382282639E+02  0.46142320212E+02  0.10000022347E+02 0.  0.
         12    1    1    2    0    0  0.31896844903E+02 -0.12181380041E+02 -0.29382282639E+02  0.45045679788E+02  0.00000000000E+00 0. -1.
         11    1    3    3    0    0  0.15841847931E+00 -0.68029875494E+00  0.21293999660E+00  0.73023729967E+00  0.51100000000E-03 0. -1.
        -11    1    3    3    0    0 -0.31226375746E+02  0.13194506730E+02  0.28217679828E+02  0.44106904281E+02  0.51100000000E-03 0.  1.
        -12    1    3    3    0    0 -0.82888763582E+00 -0.33282793361E+00  0.95166281461E+00  0.13051786310E+01  0.00000000000E+00 0.  1.
</event>
<event>
 7    1  0.1445801E-008  0.4614232E+02  0.7816164E-02  0.1320468E+00
        -11   -1    0    0    0    0  0.00000000000E+00  0.00000000000E+00  0.45593999997E+02  0.45594000000E+02  0.51100000000E-03 0.  1.
         11   -1    0    0    0    0 -0.00000000000E+00 -0.00000000000E+00 -0.45593999997E+02  0.45594000000E+02  0.51100000000E-03 0. -1.
    9900012    2    1    2    0    0  0.21834680414E+02  0.30619836663E+02  0.24794874185E+02  0.46142318166E+02  0.10000003691E+02 0.  0.
         12    1    1    2    0    0 -0.21834680414E+02 -0.30619836663E+02 -0.24794874185E+02  0.45045681834E+02  0.00000000000E+00 0. -1.
         11    1    3    3    0    0  0.62506901591E+01  0.25231585274E+01  0.49470367007E+01  0.83612576087E+01  0.51100000000E-03 0. -1.
        -11    1    3    3    0    0  0.14064737684E+02  0.25814689479E+02  0.17905246986E+02  0.34421111383E+02  0.51100000000E-03 0.  1.
         12    1    3    3    0    0  0.15192525715E+01  0.22819886570E+01  0.19425904986E+01  0.33599491740E+01  0.00000000000E+00 0. -1.
</event>
<event>
 7    1  0.1445801E-008  0.4614232E+02  0.7816164E-02  0.1320468E+00
        -11   -1    0    0    0    0  0.00000000000E+00  0.00000000000E+00  0.45593999997E+02  0.45594000000E+02  0.51100000000E-03 0. -1.
         11   -1    0    0    0    0 -0.00000000000E+00 -0.00000000000E+00 -0.45593999997E+02  0.45594000000E+02  0.51100000000E-03 0.  1.
    9900012    2    1    2    0    0 -0.34326995363E+02  0.16419033816E+02 -0.24107802911E+02  0.46142318262E+02  0.10000004567E+02 0.  0.
         12    1    1    2    0    0  0.34326995363E+02 -0.16419033816E+02  0.24107802911E+02  0.45045681738E+02  0.00000000000E+00 0. -1.
         11    1    3    3    0    0 -0.62959344039E+00  0.91534247419E+00  0.13563929137E+00  0.11192131270E+01  0.51100000000E-03 0. -1.
        -11    1    3    3    0    0 -0.11982550753E+02  0.76260187560E+01 -0.53381821769E+01  0.15173459521E+02  0.51100000000E-03 0.  1.
        -12    1    3    3    0    0 -0.21714851169E+02  0.78776725853E+01 -0.18905260025E+02  0.29849645614E+02  0.00000000000E+00 0.  1.
</event>
<event>
 7    1  0.1445801E-008  0.4614233E+02  0.7816164E-02  0.1320468E+00
        -11   -1    0    0    0    0  0.00000000000E+00  0.00000000000E+00  0.45593999997E+02  0.45594000000E+02  0.51100000000E-03 0.  1.
         11   -1    0    0    0    0 -0.00000000000E+00 -0.00000000000E+00 -0.45593999997E+02  0.45594000000E+02  0.51100000000E-03 0. -1.
    9900012    2    1    2    0    0  0.40246616977E+02  0.50257295453E+01  0.19597555586E+02  0.46142330725E+02  0.10000118213E+02 0.  0.
         12    1    1    2    0    0 -0.40246616977E+02 -0.50257295453E+01 -0.19597555586E+02  0.45045669275E+02  0.00000000000E+00 0. -1.
         11    1    3    3    0    0  0.86637737013E+01  0.34589921334E+01  0.53754644995E+01  0.10766671732E+02  0.51100000000E-03 0.  1.
        -11    1    3    3    0    0  0.94166952164E+01  0.35751932558E+01  0.34326735167E+01  0.10641400441E+02  0.51100000000E-03 0. -1.
        -12    1    3    3    0    0  0.22166148059E+02 -0.20084558440E+01  0.10789417569E+02  0.24734258552E+02  0.00000000000E+00 0.  1.
</event>
<event>
 7    1  0.1445801E-008  0.4614232E+02  0.7816164E-02  0.1320468E+00
        -11   -1    0    0    0    0  0.00000000000E+00  0.00000000000E+00  0.45593999997E+02  0.45594000000E+02  0.51100000000E-03 0. -1.
         11   -1    0    0    0    0 -0.00000000000E+00 -0.00000000000E+00 -0.45593999997E+02  0.45594000000E+02  0.51100000000E-03 0.  1.
    9900012    2    1    2    0    0 -0.12816435707E+02 -0.32531129794E+02 -0.28400319184E+02  0.46142316970E+02  0.99999927853E+01 0.  0.
         12    1    1    2    0    0  0.12816435707E+02  0.32531129794E+02  0.28400319184E+02  0.45045683030E+02  0.00000000000E+00 0. -1.
         11    1    3    3    0    0  0.69825743960E+00 -0.84255137604E+00 -0.14936628043E+00  0.11044305411E+01  0.51100000000E-03 0. -1.
        -11    1    3    3    0    0 -0.11085778020E+02 -0.20593648895E+02 -0.21819406353E+02  0.31985611499E+02  0.51100000000E-03 0.  1.
        -12    1    3    3    0    0 -0.24289151266E+01 -0.11094929523E+02 -0.64315465508E+01  0.13052274930E+02  0.00000000000E+00 0.  1.
</event>
<event>
 7    1  0.1445801E-008  0.4614232E+02  0.7816164E-02  0.1320468E+00
        -11   -1    0    0    0    0  0.00000000000E+00  0.00000000000E+00  0.45593999997E+02  0.45594000000E+02  0.51100000000E-03 0. -1.
         11   -1    0    0    0    0 -0.00000000000E+00 -0.00000000000E+00 -0.45593999997E+02  0.45594000000E+02  0.51100000000E-03 0.  1.
    9900012    2    1    2    0    0  0.36055231192E+02  0.17549264266E+02 -0.20522114860E+02  0.46142316845E+02  0.99999916460E+01 0.  0.
         12    1    1    2    0    0 -0.36055231192E+02 -0.17549264266E+02  0.20522114860E+02  0.45045683155E+02  0.00000000000E+00 0. -1.
         11    1    3    3    0    0  0.32077701487E+02  0.17398188203E+02 -0.15743377846E+02  0.39743299205E+02  0.51100000000E-03 0.  1.
        -11    1    3    3    0    0  0.11116346536E+01 -0.51846156393E+00 -0.20309258591E+01  0.23725922748E+01  0.51100000000E-03 0. -1.
        -12    1    3    3    0    0  0.28658950507E+01  0.66953762760E+00 -0.27478111551E+01  0.40264253651E+01  0.00000000000E+00 0.  1.
</event>
<event>
 7    1  0.1445801E-008  0.4614232E+02  0.7816164E-02  0.1320468E+00
        -11   -1    0    0    0    0  0.00000000000E+00  0.00000000000E+00  0.45593999997E+02  0.45594000000E+02  0.51100000000E-03 0.  1.
         11   -1    0    0    0    0 -0.00000000000E+00 -0.00000000000E+00 -0.45593999997E+02  0.45594000000E+02  0.51100000000E-03 0. -1.
    9900012    2    1    2    0    0  0.92255575013E+01 -0.27991241263E+02  0.34066009510E+02  0.46142317603E+02  0.99999985589E+01 0.  0.
         12    1    1    2    0    0 -0.92255575013E+01  0.27991241263E+02 -0.34066009510E+02  0.45045682397E+02  0.00000000000E+00 0. -1.
         11    1    3    3    0    0  0.88231366202E+01 -0.15565994656E+02  0.17053834036E+02  0.24718033600E+02  0.51100000000E-03 0. -1.
        -11    1    3    3    0    0  0.16299012651E+01 -0.10618697022E+02  0.15030898179E+02  0.18475421644E+02  0.51100000000E-03 0.  1.
        -12    1    3    3    0    0 -0.12274803841E+01 -0.18065495848E+01  0.19812772956E+01  0.29488623599E+01  0.00000000000E+00 0.  1.
</event>
<event>
 7    1  0.1445801E-008  0.4614232E+02  0.7816164E-02  0.1320468E+00
        -11   -1    0    0    0    0  0.00000000000E+00  0.00000000000E+00  0.45593999997E+02  0.45594000000E+02  0.51100000000E-03 0. -1.
         11   -1    0    0    0    0 -0.00000000000E+00 -0.00000000000E+00 -0.45593999997E+02  0.45594000000E+02  0.51100000000E-03 0.  1.
    9900012    2    1    2    0    0 -0.90226912520E+00  0.23312464895E+01 -0.44976270108E+02  0.46142315716E+02  0.99999813499E+01 0.  0.
         12    1    1    2    0    0  0.90226912520E+00 -0.23312464895E+01  0.44976270108E+02  0.45045684284E+02  0.00000000000E+00 0. -1.
         11    1    3    3    0    0 -0.62214110836E+00  0.28803504604E+01 -0.99502201539E+01  0.10377396576E+02  0.51100000000E-03 0. -1.
        -11    1    3    3    0    0 -0.21296442369E+01 -0.14846311776E+01 -0.47097407338E+01  0.53778408632E+01  0.51100000000E-03 0.  1.
        -12    1    3    3    0    0  0.18495162200E+01  0.93552720669E+00 -0.30316309221E+02  0.30387078276E+02  0.00000000000E+00 0.  1.
</event>
<event>
 7    1  0.1445801E-008  0.4614232E+02  0.7816164E-02  0.1320468E+00
        -11   -1    0    0    0    0  0.00000000000E+00  0.00000000000E+00  0.45593999997E+02  0.45594000000E+02  0.51100000000E-03 0. -1.
         11   -1    0    0    0    0 -0.00000000000E+00 -0.00000000000E+00 -0.45593999997E+02  0.45594000000E+02  0.51100000000E-03 0.  1.
    9900012    2    1    2    0    0 -0.36912929597E+02  0.48941533719E+01 -0.25349487904E+02  0.46142316016E+02  0.99999840829E+01 0.  0.
         12    1    1    2    0    0  0.36912929597E+02 -0.48941533719E+01  0.25349487904E+02  0.45045683984E+02  0.00000000000E+00 0. -1.
         11    1    3    3    0    0 -0.13038304334E+01  0.19256601901E+01 -0.17702621683E+00  0.23322691760E+01  0.51100000000E-03 0. -1.
        -11    1    3    3    0    0 -0.16860872285E+02  0.13964700709E+01 -0.10108627351E+02  0.19708462397E+02  0.51100000000E-03 0.  1.
         12    1    3    3    0    0 -0.18748226878E+02  0.15720231109E+01 -0.15063834336E+02  0.24101584442E+02  0.00000000000E+00 0. -1.
</event>
<event>
 7    1  0.1445801E-008  0.4614232E+02  0.7816164E-02  0.1320468E+00
        -11   -1    0    0    0    0  0.00000000000E+00  0.00000000000E+00  0.45593999997E+02  0.45594000000E+02  0.51100000000E-03 0.  1.
         11   -1    0    0    0    0 -0.00000000000E+00 -0.00000000000E+00 -0.45593999997E+02  0.45594000000E+02  0.51100000000E-03 0. -1.
    9900012    2    1    2    0    0 -0.32756014060E+02  0.26439562152E+02  0.16034539649E+02  0.46142319124E+02  0.10000012425E+02 0.  0.
         12    1    1    2    0    0  0.32756014060E+02 -0.26439562152E+02 -0.16034539649E+02  0.45045680876E+02  0.00000000000E+00 0. -1.
         11    1    3    3    0    0 -0.13034123627E+02  0.15317953474E+02  0.88720643023E+01  0.21982756938E+02  0.51100000000E-03 0.  1.
        -11    1    3    3    0    0 -0.11321823995E+02  0.80797404398E+01  0.26831194121E+01  0.14165628620E+02  0.51100000000E-03 0. -1.
        -12    1    3    3    0    0 -0.84000664371E+01  0.30418682382E+01  0.44793559345E+01  0.99939335657E+01  0.00000000000E+00 0.  1.
</event>
<event>
 7    1  0.1445801E-008  0.4614232E+02  0.7816164E-02  0.1320468E+00
        -11   -1    0    0    0    0  0.00000000000E+00  0.00000000000E+00  0.45593999997E+02  0.45594000000E+02  0.51100000000E-03 0.  1.
         11   -1    0    0    0    0 -0.00000000000E+00 -0.00000000000E+00 -0.45593999997E+02  0.45594000000E+02  0.51100000000E-03 0. -1.
    9900012    2    1    2    0    0  0.86727255854E+01 -0.24718403948E+02  0.36645570651E+02  0.46142317508E+02  0.99999976956E+01 0.  0.
         12    1    1    2    0    0 -0.86727255854E+01  0.24718403948E+02 -0.36645570651E+02  0.45045682492E+02  0.00000000000E+00 0. -1.
         11    1    3    3    0    0  0.25838976084E+01 -0.59822449498E+01  0.17196355620E+02  0.18389628282E+02  0.51100000000E-03 0. -1.
        -11    1    3    3    0    0  0.42679564612E+01 -0.11872548331E+02  0.11225489397E+02  0.16887405623E+02  0.51100000000E-03 0.  1.
         12    1    3    3    0    0  0.18208715157E+01 -0.68636106672E+01  0.82237256344E+01  0.10865283603E+02  0.00000000000E+00 0. -1.
</event>
<event>
 7    1  0.1445801E-008  0.4614232E+02  0.7816164E-02  0.1320468E+00
        -11   -1    0    0    0    0  0.00000000000E+00  0.00000000000E+00  0.45593999997E+02  0.45594000000E+02  0.51100000000E-03 0.  1.
         11   -1    0    0    0    0 -0.00000000000E+00 -0.00000000000E+00 -0.45593999997E+02  0.45594000000E+02  0.51100000000E-03 0. -1.
    9900012    2    1    2    0    0  0.17393059627E+02  0.39999331841E+02 -0.11253815730E+02  0.46142318305E+02  0.10000004961E+02 0.  0.
         12    1    1    2    0    0 -0.17393059627E+02 -0.39999331841E+02  0.11253815730E+02  0.45045681695E+02  0.00000000000E+00 0. -1.
         11    1    3    3    0    0  0.11886210083E+01  0.10775135922E+02 -0.40613534786E+01  0.11576310569E+02  0.51100000000E-03 0. -1.
        -11    1    3    3    0    0  0.11620582382E+02  0.17157359992E+02 -0.26950009722E+01  0.20896793230E+02  0.51100000000E-03 0.  1.
        -12    1    3    3    0    0  0.45838562361E+01  0.12066835926E+02 -0.44974612790E+01  0.13669214507E+02  0.00000000000E+00 0.  1.
</event>
<event>
 7    1  0.1445801E-008  0.4614232E+02  0.7816164E-02  0.1320468E+00
        -11   -1    0    0    0    0  0.00000000000E+00  0.00000000000E+00  0.45593999997E+02  0.45594000000E+02  0.51100000000E-03 0.  1.
         11   -1    0    0    0    0 -0.00000000000E+00 -0.00000000000E+00 -0.45593999997E+02  0.45594000000E+02  0.51100000000E-03 0. -1.
    9900012    2    1    2    0    0  0.34553670986E+02 -0.14307782209E+02  0.25108658000E+02  0.46142317444E+02  0.99999971101E+01 0.  0.
         12    1    1    2    0    0 -0.34553670986E+02  0.14307782209E+02 -0.25108658000E+02  0.45045682556E+02  0.00000000000E+00 0. -1.
         11    1    3    3    0    0  0.14852359654E+01 -0.28500740096E+01  0.19296119473E+01  0.37486331191E+01  0.51100000000E-03 0. -1.
        -11    1    3    3    0    0  0.10839520324E+02 -0.13210148275E+01  0.89663904723E+01  0.14129275969E+02  0.51100000000E-03 0.  1.
        -12    1    3    3    0    0  0.22228914696E+02 -0.10136693372E+02  0.14212655581E+02  0.28264408356E+02  0.00000000000E+00 0.  1.
</event>
<event>
 7    1  0.1445801E-008  0.4614232E+02  0.7816164E-02  0.1320468E+00
        -11   -1    0    0    0    0  0.00000000000E+00  0.00000000000E+00  0.45593999997E+02  0.45594000000E+02  0.51100000000E-03 0.  1.
         11   -1    0    0    0    0 -0.00000000000E+00 -0.00000000000E+00 -0.45593999997E+02  0.45594000000E+02  0.51100000000E-03 0. -1.
    9900012    2    1    2    0    0  0.39891148037E+02  0.12619790033E+02  0.16689837022E+02  0.46142318165E+02  0.10000003679E+02 0.  0.
         12    1    1    2    0    0 -0.39891148037E+02 -0.12619790033E+02 -0.16689837022E+02  0.45045681835E+02  0.00000000000E+00 0. -1.
         11    1    3    3    0    0  0.91938317935E+01  0.71675738068E+01  0.39075242806E+01  0.12295096730E+02  0.51100000000E-03 0. -1.
        -11    1    3    3    0    0  0.75019883413E+01  0.25784420252E+01  0.39460836130E+01  0.88600095085E+01  0.51100000000E-03 0.  1.
         12    1    3    3    0    0  0.23195327902E+02  0.28737742014E+01  0.88362291280E+01  0.24987211926E+02  0.00000000000E+00 0. -1.
</event>
<event>
 7    1  0.1445801E-008  0.4614232E+02  0.7816164E-02  0.1320468E+00
        -11   -1    0    0    0    0  0.00000000000E+00  0.00000000000E+00  0.45593999997E+02  0.45594000000E+02  0.51100000000E-03 0.  1.
         11   -1    0    0    0    0 -0.00000000000E+00 -0.00000000000E+00 -0.45593999997E+02  0.45594000000E+02  0.51100000000E-03 0. -1.
    9900012    2    1    2    0    0 -0.38324317461E+02 -0.21639996603E+02  0.95953509164E+01  0.46142317398E+02  0.99999966921E+01 0.  0.
         12    1    1    2    0    0  0.38324317461E+02  0.21639996603E+02 -0.95953509164E+01  0.45045682602E+02  0.00000000000E+00 0. -1.
         11    1    3    3    0    0 -0.81937013534E+01 -0.24237358116E+01  0.45715479476E+01  0.96907320700E+01  0.51100000000E-03 0. -1.
        -11    1    3    3    0    0 -0.24367411689E+02 -0.13477595530E+02  0.26124424720E+01  0.27968575038E+02  0.51100000000E-03 0.  1.
        -12    1    3    3    0    0 -0.57632044187E+01 -0.57386652606E+01  0.24113604968E+01  0.84830102906E+01  0.00000000000E+00 0.  1.
</event>
<event>
 7    1  0.1445801E-008  0.4614232E+02  0.7816164E-02  0.1320468E+00
        -11   -1    0    0    0    0  0.00000000000E+00  0.00000000000E+00  0.45593999997E+02  0.45594000000E+02  0.51100000000E-03 0. -1.
         11   -1    0    0    0    0 -0.00000000000E+00 -0.00000000000E+00 -0.45593999997E+02  0.45594000000E+02  0.51100000000E-03 0.  1.
    9900012    2    1    2    0    0  0.20924395484E+02 -0.37900424387E+02 -0.12443514062E+02  0.46142317219E+02  0.99999950523E+01 0.  0.
         12    1    1    2    0    0 -0.20924395484E+02  0.37900424387E+02  0.12443514062E+02  0.45045682781E+02  0.00000000000E+00 0. -1.
         11    1    3    3    0    0  0.23705659443E+01 -0.11278822614E+02 -0.56149144921E+01  0.12820245219E+02  0.51100000000E-03 0. -1.
        -11    1    3    3    0    0  0.16734503922E+02 -0.22932170273E+02 -0.50238421387E+01  0.28829967829E+02  0.51100000000E-03 0.  1.
        -12    1    3    3    0    0  0.18193256172E+01 -0.36894314994E+01 -0.18047574314E+01  0.44921041702E+01  0.00000000000E+00 0.  1.
</event>
<event>
 7    1  0.1445801E-008  0.4614232E+02  0.7816164E-02  0.1320468E+00
        -11   -1    0    0    0    0  0.00000000000E+00  0.00000000000E+00  0.45593999997E+02  0.45594000000E+02  0.51100000000E-03 0. -1.
         11   -1    0    0    0    0 -0.00000000000E+00 -0.00000000000E+00 -0.45593999997E+02  0.45594000000E+02  0.51100000000E-03 0.  1.
    9900012    2    1    2    0    0 -0.36875753324E+02 -0.11913713244E+02  0.22964226384E+02  0.46142318299E+02  0.10000004909E+02 0.  0.
         12    1    1    2    0    0  0.36875753324E+02  0.11913713244E+02 -0.22964226384E+02  0.45045681701E+02  0.00000000000E+00 0. -1.
         11    1    3    3    0    0 -0.10807735060E+02 -0.59894468689E+01  0.11181932653E+02  0.16664820102E+02  0.51100000000E-03 0.  1.
        -11    1    3    3    0    0 -0.17571487174E+02 -0.43033717327E+01  0.59458646415E+01  0.19042832677E+02  0.51100000000E-03 0. -1.
         12    1    3    3    0    0 -0.84965310896E+01 -0.16208946425E+01  0.58364290893E+01  0.10434665520E+02  0.00000000000E+00 0. -1.
</event>
<event>
 7    1  0.1445801E-008  0.4614232E+02  0.7816164E-02  0.1320468E+00
        -11   -1    0    0    0    0  0.00000000000E+00  0.00000000000E+00  0.45593999997E+02  0.45594000000E+02  0.51100000000E-03 0. -1.
         11   -1    0    0    0    0 -0.00000000000E+00 -0.00000000000E+00 -0.45593999997E+02  0.45594000000E+02  0.51100000000E-03 0.  1.
    9900012    2    1    2    0    0 -0.12083727602E+02  0.26470173529E+02 -0.34386435140E+02  0.46142317842E+02  0.10000000737E+02 0.  0.
         12    1    1    2    0    0  0.12083727602E+02 -0.26470173529E+02  0.34386435140E+02  0.45045682158E+02  0.00000000000E+00 0. -1.
         11    1    3    3    0    0  0.72075896505E+00  0.18594495650E+01 -0.30495735341E+01  0.36437542689E+01  0.51100000000E-03 0. -1.
        -11    1    3    3    0    0 -0.47615549170E+01  0.63220656481E+01 -0.13829364536E+02  0.15933996455E+02  0.51100000000E-03 0.  1.
         12    1    3    3    0    0 -0.80429316502E+01  0.18288658316E+02 -0.17507497070E+02  0.26564567119E+02  0.00000000000E+00 0. -1.
</event>
<event>
 7    1  0.1445801E-008  0.4614232E+02  0.7816164E-02  0.1320468E+00
        -11   -1    0    0    0    0  0.00000000000E+00  0.00000000000E+00  0.45593999997E+02  0.45594000000E+02  0.51100000000E-03 0.  1.
         11   -1    0    0    0    0 -0.00000000000E+00 -0.00000000000E+00 -0.45593999997E+02  0.45594000000E+02  0.51100000000E-03 0. -1.
    9900012    2    1    2    0    0 -0.32840437389E+01 -0.44751610871E+02  0.39524379736E+01  0.46142318911E+02  0.10000010485E+02 0.  0.
         12    1    1    2    0    0  0.32840437389E+01  0.44751610871E+02 -0.39524379736E+01  0.45045681089E+02  0.00000000000E+00 0. -1.
         11    1    3    3    0    0 -0.27401136698E+01 -0.25345792949E+02  0.49212678555E+01  0.25964135278E+02  0.51100000000E-03 0. -1.
        -11    1    3    3    0    0 -0.21733145667E+01 -0.12705741424E+02 -0.24613112582E+01  0.13123155669E+02  0.51100000000E-03 0.  1.
         12    1    3    3    0    0  0.16293844975E+01 -0.67000764983E+01  0.14924813763E+01  0.70550279647E+01  0.00000000000E+00 0. -1.
</event>
<event>
 7    1  0.1445801E-008  0.4614232E+02  0.7816164E-02  0.1320468E+00
        -11   -1    0    0    0    0  0.00000000000E+00  0.00000000000E+00  0.45593999997E+02  0.45594000000E+02  0.51100000000E-03 0.  1.
         11   -1    0    0    0    0 -0.00000000000E+00 -0.00000000000E+00 -0.45593999997E+02  0.45594000000E+02  0.51100000000E-03 0. -1.
    9900012    2    1    2    0    0 -0.30347115578E+02  0.19666173107E+02  0.26859033896E+02  0.46142317738E+02  0.99999997936E+01 0.  0.
         12    1    1    2    0    0  0.30347115578E+02 -0.19666173107E+02 -0.26859033896E+02  0.45045682262E+02  0.00000000000E+00 0. -1.
         11    1    3    3    0    0  0.57466830356E+00  0.71311562228E+00  0.82010314112E+00  0.12293685261E+01  0.51100000000E-03 0. -1.
        -11    1    3    3    0    0 -0.94986558759E+01  0.66418704828E+01  0.11047751099E+02  0.16012236307E+02  0.51100000000E-03 0.  1.
         12    1    3    3    0    0 -0.21423128005E+02  0.12311187002E+02  0.14991179657E+02  0.28900712905E+02  0.00000000000E+00 0. -1.
</event>
<event>
 7    1  0.1445801E-008  0.4614232E+02  0.7816164E-02  0.1320468E+00
        -11   -1    0    0    0    0  0.00000000000E+00  0.00000000000E+00  0.45593999997E+02  0.45594000000E+02  0.51100000000E-03 0.  1.
         11   -1    0    0    0    0 -0.00000000000E+00 -0.00000000000E+00 -0.45593999997E+02  0.45594000000E+02  0.51100000000E-03 0. -1.
    9900012    2    1    2    0    0 -0.27557709878E+01 -0.42224639413E+02 -0.15446649925E+02  0.46142318284E+02  0.10000004772E+02 0.  0.
         12    1    1    2    0    0  0.27557709878E+01  0.42224639413E+02  0.15446649925E+02  0.45045681716E+02  0.00000000000E+00 0. -1.
         11    1    3    3    0    0 -0.45581228854E+01 -0.32197168084E+02 -0.14119059467E+02  0.35451120679E+02  0.51100000000E-03 0. -1.
        -11    1    3    3    0    0  0.16863435148E+01 -0.99154273185E+01 -0.17771308889E+01  0.10213601119E+02  0.51100000000E-03 0.  1.
        -12    1    3    3    0    0  0.11600838285E+00 -0.11204401080E+00  0.44954043115E+00  0.47759648710E+00  0.00000000000E+00 0.  1.
</event>
<event>
 7    1  0.1445801E-008  0.4614232E+02  0.7816164E-02  0.1320468E+00
        -11   -1    0    0    0    0  0.00000000000E+00  0.00000000000E+00  0.45593999997E+02  0.45594000000E+02  0.51100000000E-03 0. -1.
         11   -1    0    0    0    0 -0.00000000000E+00 -0.00000000000E+00 -0.45593999997E+02  0.45594000000E+02  0.51100000000E-03 0.  1.
    9900012    2    1    2    0    0  0.38240910824E+01 -0.13820237194E+02 -0.42702352967E+02  0.46142316771E+02  0.99999909687E+01 0.  0.
         12    1    1    2    0    0 -0.38240910824E+01  0.13820237194E+02  0.42702352967E+02  0.45045683229E+02  0.00000000000E+00 0. -1.
         11    1    3    3    0    0  0.22021130422E+01 -0.63136841044E+01 -0.83374630233E+01  0.10687618947E+02  0.51100000000E-03 0. -1.
        -11    1    3    3    0    0 -0.48747158319E+00 -0.61857190207E+01 -0.25789129640E+02  0.26525081644E+02  0.51100000000E-03 0.  1.
         12    1    3    3    0    0  0.21094496235E+01 -0.13208340687E+01 -0.85757603031E+01  0.89296161803E+01  0.00000000000E+00 0. -1.
</event>
<event>
 7    1  0.1445801E-008  0.4614232E+02  0.7816164E-02  0.1320468E+00
        -11   -1    0    0    0    0  0.00000000000E+00  0.00000000000E+00  0.45593999997E+02  0.45594000000E+02  0.51100000000E-03 0.  1.
         11   -1    0    0    0    0 -0.00000000000E+00 -0.00000000000E+00 -0.45593999997E+02  0.45594000000E+02  0.51100000000E-03 0. -1.
    9900012    2    1    2    0    0  0.17188137211E+02 -0.39291651864E+02 -0.13778515289E+02  0.46142318181E+02  0.10000003829E+02 0.  0.
         12    1    1    2    0    0 -0.17188137211E+02  0.39291651864E+02  0.13778515289E+02  0.45045681819E+02  0.00000000000E+00 0. -1.
         11    1    3    3    0    0  0.11333951004E+02 -0.27768524622E+02 -0.11581075247E+02  0.32150749746E+02  0.51100000000E-03 0. -1.
        -11    1    3    3    0    0  0.20458587228E+01 -0.90256636072E+01 -0.12333821771E+01  0.93364540014E+01  0.51100000000E-03 0.  1.
         12    1    3    3    0    0  0.38083274833E+01 -0.24974636344E+01 -0.96405786463E+00  0.46551144338E+01  0.00000000000E+00 0. -1.
</event>
<event>
 7    1  0.1445801E-008  0.4614232E+02  0.7816164E-02  0.1320468E+00
        -11   -1    0    0    0    0  0.00000000000E+00  0.00000000000E+00  0.45593999997E+02  0.45594000000E+02  0.51100000000E-03 0.  1.
         11   -1    0    0    0    0 -0.00000000000E+00 -0.00000000000E+00 -0.45593999997E+02  0.45594000000E+02  0.51100000000E-03 0. -1.
    9900012    2    1    2    0    0 -0.82028458893E+01 -0.35194926956E+02  0.26891339386E+02  0.46142315433E+02  0.99999787695E+01 0.  0.
         12    1    1    2    0    0  0.82028458893E+01  0.35194926956E+02 -0.26891339386E+02  0.45045684567E+02  0.00000000000E+00 0. -1.
         11    1    3    3    0    0 -0.27908980729E+01 -0.13158452017E+02  0.51524925081E+01  0.14404240725E+02  0.51100000000E-03 0. -1.
        -11    1    3    3    0    0 -0.50172558804E+01 -0.12999474363E+02  0.14883931813E+02  0.20388492263E+02  0.51100000000E-03 0.  1.
        -12    1    3    3    0    0 -0.39469193600E+00 -0.90370005762E+01  0.68549150651E+01  0.11349582446E+02  0.00000000000E+00 0.  1.
</event>
<event>
 7    1  0.1445801E-008  0.4614232E+02  0.7816164E-02  0.1320468E+00
        -11   -1    0    0    0    0  0.00000000000E+00  0.00000000000E+00  0.45593999997E+02  0.45594000000E+02  0.51100000000E-03 0. -1.
         11   -1    0    0    0    0 -0.00000000000E+00 -0.00000000000E+00 -0.45593999997E+02  0.45594000000E+02  0.51100000000E-03 0.  1.
    9900012    2    1    2    0    0  0.24100023780E+02 -0.37948018804E+02 -0.28723292154E+01  0.46142317050E+02  0.99999935131E+01 0.  0.
         12    1    1    2    0    0 -0.24100023780E+02  0.37948018804E+02  0.28723292154E+01  0.45045682950E+02  0.00000000000E+00 0. -1.
         11    1    3    3    0    0  0.63852234063E+01 -0.63347283458E+01 -0.23596647710E+01  0.92988106366E+01  0.51100000000E-03 0. -1.
        -11    1    3    3    0    0  0.12198946175E+02 -0.25732407841E+02 -0.23487447803E+01  0.28574248956E+02  0.51100000000E-03 0.  1.
        -12    1    3    3    0    0  0.55158541985E+01 -0.58808826171E+01  0.18360803359E+01  0.82692574573E+01  0.00000000000E+00 0.  1.
</event>
<event>
 7    1  0.1445801E-008  0.4614233E+02  0.7816164E-02  0.1320468E+00
        -11   -1    0    0    0    0  0.00000000000E+00  0.00000000000E+00  0.45593999997E+02  0.45594000000E+02  0.51100000000E-03 0.  1.
         11   -1    0    0    0    0 -0.00000000000E+00 -0.00000000000E+00 -0.45593999997E+02  0.45594000000E+02  0.51100000000E-03 0. -1.
    9900012    2    1    2    0    0 -0.36808670574E+02  0.16266026453E+02  0.20239830970E+02  0.46142327581E+02  0.10000089547E+02 0.  0.
         12    1    1    2    0    0  0.36808670574E+02 -0.16266026453E+02 -0.20239830970E+02  0.45045672419E+02  0.00000000000E+00 0. -1.
         11    1    3    3    0    0 -0.63144331657E+00  0.33975887184E+00 -0.27705614173E+00  0.76871133713E+00  0.51100000000E-03 0. -1.
        -11    1    3    3    0    0 -0.26556680439E+02  0.14683361544E+02  0.12620100655E+02  0.32865260124E+02  0.51100000000E-03 0.  1.
        -12    1    3    3    0    0 -0.96205468181E+01  0.12429060368E+01  0.78967864566E+01  0.12508356120E+02  0.00000000000E+00 0.  1.
</event>
<event>
 7    1  0.1445801E-008  0.4614232E+02  0.7816164E-02  0.1320468E+00
        -11   -1    0    0    0    0  0.00000000000E+00  0.00000000000E+00  0.45593999997E+02  0.45594000000E+02  0.51100000000E-03 0.  1.
         11   -1    0    0    0    0 -0.00000000000E+00 -0.00000000000E+00 -0.45593999997E+02  0.45594000000E+02  0.51100000000E-03 0. -1.
    9900012    2    1    2    0    0  0.31104882603E+02 -0.39709458754E+01  0.32339316652E+02  0.46142317250E+02  0.99999953416E+01 0.  0.
         12    1    1    2    0    0 -0.31104882603E+02  0.39709458754E+01 -0.32339316652E+02  0.45045682750E+02  0.00000000000E+00 0. -1.
         11    1    3    3    0    0  0.33598002809E+01  0.10583163530E+01  0.17209764373E+01  0.39204657363E+01  0.51100000000E-03 0. -1.
        -11    1    3    3    0    0  0.13206544557E+02  0.93299440745E+00  0.12108153859E+02  0.17941312322E+02  0.51100000000E-03 0.  1.
        -12    1    3    3    0    0  0.14538537765E+02 -0.59622566359E+01  0.18510186356E+02  0.24280539192E+02  0.00000000000E+00 0.  1.
</event>
<event>
 7    1  0.1445801E-008  0.4614232E+02  0.7816164E-02  0.1320468E+00
        -11   -1    0    0    0    0  0.00000000000E+00  0.00000000000E+00  0.45593999997E+02  0.45594000000E+02  0.51100000000E-03 0.  1.
         11   -1    0    0    0    0 -0.00000000000E+00 -0.00000000000E+00 -0.45593999997E+02  0.45594000000E+02  0.51100000000E-03 0. -1.
    9900012    2    1    2    0    0 -0.37494199107E+02 -0.14249469713E+02 -0.20500029499E+02  0.46142316930E+02  0.99999924194E+01 0.  0.
         12    1    1    2    0    0  0.37494199107E+02  0.14249469713E+02  0.20500029499E+02  0.45045683070E+02  0.00000000000E+00 0. -1.
         11    1    3    3    0    0 -0.11626414162E+02 -0.88811282428E+01 -0.52318643227E+01  0.15537707350E+02  0.51100000000E-03 0. -1.
        -11    1    3    3    0    0 -0.75429056980E+01 -0.59316966727E+00 -0.38136055020E+01  0.84729489441E+01  0.51100000000E-03 0.  1.
         12    1    3    3    0    0 -0.18324879247E+02 -0.47751718029E+01 -0.11454559674E+02  0.22131660636E+02  0.00000000000E+00 0. -1.
</event>
<event>
 7    1  0.1445801E-008  0.4614232E+02  0.7816164E-02  0.1320468E+00
        -11   -1    0    0    0    0  0.00000000000E+00  0.00000000000E+00  0.45593999997E+02  0.45594000000E+02  0.51100000000E-03 0. -1.
         11   -1    0    0    0    0 -0.00000000000E+00 -0.00000000000E+00 -0.45593999997E+02  0.45594000000E+02  0.51100000000E-03 0.  1.
    9900012    2    1    2    0    0  0.22332144725E+02  0.38835507084E+02 -0.47108650401E+01  0.46142317100E+02  0.99999939682E+01 0.  0.
         12    1    1    2    0    0 -0.22332144725E+02 -0.38835507084E+02  0.47108650401E+01  0.45045682900E+02  0.00000000000E+00 0. -1.
         11    1    3    3    0    0  0.62736366315E+01  0.59245405789E+01 -0.13401253783E+01  0.87323899332E+01  0.51100000000E-03 0. -1.
        -11    1    3    3    0    0  0.12968588737E+02  0.29628341145E+02 -0.10970490562E+01  0.32360877765E+02  0.51100000000E-03 0.  1.
         12    1    3    3    0    0  0.30899193563E+01  0.32826253608E+01 -0.22736906056E+01  0.50490494014E+01  0.00000000000E+00 0. -1.
</event>
<event>
 7    1  0.1445801E-008  0.4614232E+02  0.7816164E-02  0.1320468E+00
        -11   -1    0    0    0    0  0.00000000000E+00  0.00000000000E+00  0.45593999997E+02  0.45594000000E+02  0.51100000000E-03 0. -1.
         11   -1    0    0    0    0 -0.00000000000E+00 -0.00000000000E+00 -0.45593999997E+02  0.45594000000E+02  0.51100000000E-03 0.  1.
    9900012    2    1    2    0    0  0.14474408653E+02 -0.25503001925E+02 -0.34193593390E+02  0.46142318276E+02  0.10000004696E+02 0.  0.
         12    1    1    2    0    0 -0.14474408653E+02  0.25503001925E+02  0.34193593390E+02  0.45045681724E+02  0.00000000000E+00 0. -1.
         11    1    3    3    0    0 -0.10589155173E+01 -0.42487876399E+01 -0.39585834806E+01  0.59028706505E+01  0.51100000000E-03 0. -1.
        -11    1    3    3    0    0  0.75800119380E+01 -0.10318498289E+02 -0.12085015484E+02  0.17606123577E+02  0.51100000000E-03 0.  1.
         12    1    3    3    0    0  0.79533122324E+01 -0.10935715996E+02 -0.18149994426E+02  0.22633324048E+02  0.00000000000E+00 0. -1.
</event>
<event>
 7    1  0.1445801E-008  0.4614232E+02  0.7816164E-02  0.1320468E+00
        -11   -1    0    0    0    0  0.00000000000E+00  0.00000000000E+00  0.45593999997E+02  0.45594000000E+02  0.51100000000E-03 0. -1.
         11   -1    0    0    0    0 -0.00000000000E+00 -0.00000000000E+00 -0.45593999997E+02  0.45594000000E+02  0.51100000000E-03 0.  1.
    9900012    2    1    2    0    0 -0.28592370646E+02  0.34660757833E+02 -0.31971768643E+01  0.46142315050E+02  0.99999752770E+01 0.  0.
         12    1    1    2    0    0  0.28592370646E+02 -0.34660757833E+02  0.31971768643E+01  0.45045684950E+02  0.00000000000E+00 0. -1.
         11    1    3    3    0    0 -0.83982618232E+01  0.53203095887E+01 -0.32039373555E+01  0.10445176428E+02  0.51100000000E-03 0. -1.
        -11    1    3    3    0    0 -0.15262783547E+02  0.20456382011E+02  0.44538424721E+00  0.25526740763E+02  0.51100000000E-03 0.  1.
         12    1    3    3    0    0 -0.49313252757E+01  0.88840662334E+01 -0.43862375601E+00  0.10170397859E+02  0.00000000000E+00 0. -1.
</event>
<event>
 7    1  0.1445801E-008  0.4614232E+02  0.7816164E-02  0.1320468E+00
        -11   -1    0    0    0    0  0.00000000000E+00  0.00000000000E+00  0.45593999997E+02  0.45594000000E+02  0.51100000000E-03 0.  1.
         11   -1    0    0    0    0 -0.00000000000E+00 -0.00000000000E+00 -0.45593999997E+02  0.45594000000E+02  0.51100000000E-03 0. -1.
    9900012    2    1    2    0    0  0.37735371717E+02  0.18403535074E+02  0.16323756503E+02  0.46142318650E+02  0.10000008109E+02 0.  0.
         12    1    1    2    0    0 -0.37735371717E+02 -0.18403535074E+02 -0.16323756503E+02  0.45045681350E+02  0.00000000000E+00 0. -1.
         11    1    3    3    0    0  0.19637400336E+01  0.15961257097E+01  0.17109284658E+01  0.30546961676E+01  0.51100000000E-03 0. -1.
        -11    1    3    3    0    0  0.14293864175E+02  0.92679980016E+01  0.10338253440E+02  0.19927112798E+02  0.51100000000E-03 0.  1.
        -12    1    3    3    0    0  0.21477767509E+02  0.75394113629E+01  0.42745745970E+01  0.23160509685E+02  0.00000000000E+00 0.  1.
</event>
<event>
 7    1  0.1445801E-008  0.4614232E+02  0.7816164E-02  0.1320468E+00
        -11   -1    0    0    0    0  0.00000000000E+00  0.00000000000E+00  0.45593999997E+02  0.45594000000E+02  0.51100000000E-03 0.  1.
         11   -1    0    0    0    0 -0.00000000000E+00 -0.00000000000E+00 -0.45593999997E+02  0.45594000000E+02  0.51100000000E-03 0. -1.
    9900012    2    1    2    0    0 -0.13776759385E+02 -0.18172593134E+01  0.42848710043E+02  0.46142317821E+02  0.10000000548E+02 0.  0.
         12    1    1    2    0    0  0.13776759385E+02  0.18172593134E+01 -0.42848710043E+02  0.45045682179E+02  0.00000000000E+00 0. -1.
         11    1    3    3    0    0 -0.85262830592E+01  0.20197867499E+01  0.26184932201E+02  0.27612093654E+02  0.51100000000E-03 0. -1.
        -11    1    3    3    0    0 -0.55454697788E+01 -0.14939395436E+01  0.11792021857E+02  0.13116244514E+02  0.51100000000E-03 0.  1.
         12    1    3    3    0    0  0.29499345259E+00 -0.23431065197E+01  0.48717559854E+01  0.54139796528E+01  0.00000000000E+00 0. -1.
</event>
<event>
 7    1  0.1445801E-008  0.4614232E+02  0.7816164E-02  0.1320468E+00
        -11   -1    0    0    0    0  0.00000000000E+00  0.00000000000E+00  0.45593999997E+02  0.45594000000E+02  0.51100000000E-03 0. -1.
         11   -1    0    0    0    0 -0.00000000000E+00 -0.00000000000E+00 -0.45593999997E+02  0.45594000000E+02  0.51100000000E-03 0.  1.
    9900012    2    1    2    0    0  0.30414202866E+02  0.94902751082E+01 -0.31843748025E+02  0.46142319343E+02  0.10000014423E+02 0.  0.
         12    1    1    2    0    0 -0.30414202866E+02 -0.94902751082E+01  0.31843748025E+02  0.45045680657E+02  0.00000000000E+00 0. -1.
         11    1    3    3    0    0  0.20804814717E+02  0.72803653193E+01 -0.23239602505E+02  0.32030035271E+02  0.51100000000E-03 0. -1.
        -11    1    3    3    0    0  0.37068144881E+01 -0.10604266775E+01 -0.54183149498E+01  0.66500462813E+01  0.51100000000E-03 0.  1.
         12    1    3    3    0    0  0.59025736603E+01  0.32703364663E+01 -0.31858305697E+01  0.74622377902E+01  0.00000000000E+00 0. -1.
</event>
<event>
 7    1  0.1445801E-008  0.4614232E+02  0.7816164E-02  0.1320468E+00
        -11   -1    0    0    0    0  0.00000000000E+00  0.00000000000E+00  0.45593999997E+02  0.45594000000E+02  0.51100000000E-03 0.  1.
         11   -1    0    0    0    0 -0.00000000000E+00 -0.00000000000E+00 -0.45593999997E+02  0.45594000000E+02  0.51100000000E-03 0. -1.
    9900012    2    1    2    0    0 -0.22597992163E+02 -0.23484800224E+02  0.31095148537E+02  0.46142319254E+02  0.10000013614E+02 0.  0.
         12    1    1    2    0    0  0.22597992163E+02  0.23484800224E+02 -0.31095148537E+02  0.45045680746E+02  0.00000000000E+00 0. -1.
         11    1    3    3    0    0 -0.15376099921E+02 -0.12675909790E+02  0.15685612852E+02  0.25360236367E+02  0.51100000000E-03 0. -1.
        -11    1    3    3    0    0 -0.59097387193E+01 -0.11037609477E+02  0.13134083878E+02  0.18145467596E+02  0.51100000000E-03 0.  1.
         12    1    3    3    0    0 -0.13121535225E+01  0.22871904377E+00  0.22754518069E+01  0.26366152911E+01  0.00000000000E+00 0. -1.
</event>
<event>
 7    1  0.1445801E-008  0.4614232E+02  0.7816164E-02  0.1320468E+00
        -11   -1    0    0    0    0  0.00000000000E+00  0.00000000000E+00  0.45593999997E+02  0.45594000000E+02  0.51100000000E-03 0.  1.
         11   -1    0    0    0    0 -0.00000000000E+00 -0.00000000000E+00 -0.45593999997E+02  0.45594000000E+02  0.51100000000E-03 0. -1.
    9900012    2    1    2    0    0 -0.22530651292E+02  0.26106015309E+01  0.38918736244E+02  0.46142317423E+02  0.99999969151E+01 0.  0.
         12    1    1    2    0    0  0.22530651292E+02 -0.26106015309E+01 -0.38918736244E+02  0.45045682577E+02  0.00000000000E+00 0. -1.
         11    1    3    3    0    0 -0.44327229529E+01  0.46788682801E+01  0.10278197144E+02  0.12131866219E+02  0.51100000000E-03 0. -1.
        -11    1    3    3    0    0 -0.15112584501E+02 -0.11740826634E+01  0.24786775913E+02  0.29054310194E+02  0.51100000000E-03 0.  1.
         12    1    3    3    0    0 -0.29853438387E+01 -0.89418408582E+00  0.38537631868E+01  0.49561410104E+01  0.00000000000E+00 0. -1.
</event>
<event>
 7    1  0.1445801E-008  0.4614232E+02  0.7816164E-02  0.1320468E+00
        -11   -1    0    0    0    0  0.00000000000E+00  0.00000000000E+00  0.45593999997E+02  0.45594000000E+02  0.51100000000E-03 0. -1.
         11   -1    0    0    0    0 -0.00000000000E+00 -0.00000000000E+00 -0.45593999997E+02  0.45594000000E+02  0.51100000000E-03 0.  1.
    9900012    2    1    2    0    0  0.24349807146E+02  0.11847695503E+02 -0.35997674519E+02  0.46142316882E+02  0.99999919871E+01 0.  0.
         12    1    1    2    0    0 -0.24349807146E+02 -0.11847695503E+02  0.35997674519E+02  0.45045683118E+02  0.00000000000E+00 0. -1.
         11    1    3    3    0    0  0.42442992560E+01  0.13690723228E+00 -0.20561158301E+01  0.47180962615E+01  0.51100000000E-03 0. -1.
        -11    1    3    3    0    0  0.11866117269E+02  0.53828953677E+01 -0.15420496521E+02  0.20188412884E+02  0.51100000000E-03 0.  1.
         12    1    3    3    0    0  0.82393906208E+01  0.63278929028E+01 -0.18521062168E+02  0.21235807737E+02  0.00000000000E+00 0. -1.
</event>
<event>
 7    1  0.1445801E-008  0.4614232E+02  0.7816164E-02  0.1320468E+00
        -11   -1    0    0    0    0  0.00000000000E+00  0.00000000000E+00  0.45593999997E+02  0.45594000000E+02  0.51100000000E-03 0. -1.
         11   -1    0    0    0    0 -0.00000000000E+00 -0.00000000000E+00 -0.45593999997E+02  0.45594000000E+02  0.51100000000E-03 0.  1.
    9900012    2    1    2    0    0 -0.78232160429E+01 -0.31462220130E+02 -0.31273613424E+02  0.46142324277E+02  0.10000059418E+02 0.  0.
         12    1    1    2    0    0  0.78232160429E+01  0.31462220130E+02  0.31273613424E+02  0.45045675723E+02  0.00000000000E+00 0. -1.
         11    1    3    3    0    0 -0.67025946184E+00 -0.18967297875E+01 -0.41005971814E+01  0.45674641912E+01  0.51100000000E-03 0. -1.
        -11    1    3    3    0    0 -0.32057030899E+00 -0.95077465804E+01 -0.12892631940E+02  0.16022483234E+02  0.51100000000E-03 0.  1.
         12    1    3    3    0    0 -0.68323862721E+01 -0.20057743762E+02 -0.14280384302E+02  0.25552376852E+02  0.00000000000E+00 0. -1.
</event>
<event>
 7    1  0.1445801E-008  0.4614232E+02  0.7816164E-02  0.1320468E+00
        -11   -1    0    0    0    0  0.00000000000E+00  0.00000000000E+00  0.45593999997E+02  0.45594000000E+02  0.51100000000E-03 0. -1.
         11   -1    0    0    0    0 -0.00000000000E+00 -0.00000000000E+00 -0.45593999997E+02  0.45594000000E+02  0.51100000000E-03 0.  1.
    9900012    2    1    2    0    0  0.11660322087E+02  0.35798630031E+01 -0.43362829831E+02  0.46142317174E+02  0.99999946487E+01 0.  0.
         12    1    1    2    0    0 -0.11660322087E+02 -0.35798630031E+01  0.43362829831E+02  0.45045682826E+02  0.00000000000E+00 0. -1.
         11    1    3    3    0    0  0.28960281150E+01 -0.29279194649E+01 -0.86579607603E+01  0.95874906010E+01  0.51100000000E-03 0. -1.
        -11    1    3    3    0    0  0.70594629638E+01  0.36251337017E+01 -0.27254180300E+02  0.28386052135E+02  0.51100000000E-03 0.  1.
         12    1    3    3    0    0  0.17048310083E+01  0.28826487664E+01 -0.74506887704E+01  0.81687744387E+01  0.00000000000E+00 0. -1.
</event>
<event>
 7    1  0.1445801E-008  0.4614232E+02  0.7816164E-02  0.1320468E+00
        -11   -1    0    0    0    0  0.00000000000E+00  0.00000000000E+00  0.45593999997E+02  0.45594000000E+02  0.51100000000E-03 0. -1.
         11   -1    0    0    0    0 -0.00000000000E+00 -0.00000000000E+00 -0.45593999997E+02  0.45594000000E+02  0.51100000000E-03 0.  1.
    9900012    2    1    2    0    0  0.55059752834E+01 -0.14489802638E+02 -0.42294719754E+02  0.46142318039E+02  0.10000002530E+02 0.  0.
         12    1    1    2    0    0 -0.55059752834E+01  0.14489802638E+02  0.42294719754E+02  0.45045681961E+02  0.00000000000E+00 0. -1.
         11    1    3    3    0    0  0.64472309686E+01 -0.57953542767E+01 -0.27224872393E+02  0.28571779704E+02  0.51100000000E-03 0. -1.
        -11    1    3    3    0    0  0.51149261651E+00 -0.11276011349E+01 -0.30662156901E+01  0.33067790878E+01  0.51100000000E-03 0.  1.
         12    1    3    3    0    0 -0.14527483017E+01 -0.75668472261E+01 -0.12003631671E+02  0.14263759247E+02  0.00000000000E+00 0. -1.
</event>
<event>
 7    1  0.1554383E-008  0.4614232E+02  0.7816164E-02  0.1320468E+00
        -11   -1    0    0    0    0  0.00000000000E+00  0.00000000000E+00  0.45593999997E+02  0.45594000000E+02  0.51100000000E-03 0. -1.
         11   -1    0    0    0    0 -0.00000000000E+00 -0.00000000000E+00 -0.45593999997E+02  0.45594000000E+02  0.51100000000E-03 0.  1.
    9900012    2    1    2    0    0 -0.33723039638E+02  0.29460427057E+02 -0.48942242742E+01  0.46142316566E+02  0.99999890997E+01 0.  0.
         12    1    1    2    0    0  0.33723039638E+02 -0.29460427057E+02  0.48942242742E+01  0.45045683434E+02  0.00000000000E+00 0. -1.
         11    1    3    3    0    0 -0.19740794511E+02  0.13319543539E+02 -0.68179241984E+00  0.23823812650E+02  0.51100000000E-03 0. -1.
        -11    1    3    3    0    0 -0.12628000341E+02  0.11552896602E+02 -0.36673894679E+01  0.17503872665E+02  0.51100000000E-03 0.  1.
         12    1    3    3    0    0 -0.13542447866E+01  0.45879869150E+01 -0.54504238656E+00  0.48146312504E+01  0.00000000000E+00 0. -1.
</event>
<event>
 7    1  0.1445801E-008  0.4614232E+02  0.7816164E-02  0.1320468E+00
        -11   -1    0    0    0    0  0.00000000000E+00  0.00000000000E+00  0.45593999997E+02  0.45594000000E+02  0.51100000000E-03 0. -1.
         11   -1    0    0    0    0 -0.00000000000E+00 -0.00000000000E+00 -0.45593999997E+02  0.45594000000E+02  0.51100000000E-03 0.  1.
    9900012    2    1    2    0    0 -0.28214461473E+02 -0.34947133744E+02 -0.34286225067E+01  0.46142318238E+02  0.10000004349E+02 0.  0.
         12    1    1    2    0    0  0.28214461473E+02  0.34947133744E+02  0.34286225067E+01  0.45045681762E+02  0.00000000000E+00 0. -1.
         11    1    3    3    0    0 -0.85713817083E+01 -0.55073201452E+01  0.54663203062E+00  0.10202841095E+02  0.51100000000E-03 0. -1.
        -11    1    3    3    0    0 -0.13475089286E+02 -0.18898272894E+02 -0.40134143742E+00  0.23213871389E+02  0.51100000000E-03 0.  1.
        -12    1    3    3    0    0 -0.61679904788E+01 -0.10541540705E+02 -0.35739130999E+01  0.12725605755E+02  0.00000000000E+00 0.  1.
</event>
<event>
 7    1  0.1445801E-008  0.4614232E+02  0.7816164E-02  0.1320468E+00
        -11   -1    0    0    0    0  0.00000000000E+00  0.00000000000E+00  0.45593999997E+02  0.45594000000E+02  0.51100000000E-03 0.  1.
         11   -1    0    0    0    0 -0.00000000000E+00 -0.00000000000E+00 -0.45593999997E+02  0.45594000000E+02  0.51100000000E-03 0. -1.
    9900012    2    1    2    0    0 -0.12831954954E+02 -0.14363716510E+02  0.40720241578E+02  0.46142317698E+02  0.99999994253E+01 0.  0.
         12    1    1    2    0    0  0.12831954954E+02  0.14363716510E+02 -0.40720241578E+02  0.45045682302E+02  0.00000000000E+00 0. -1.
         11    1    3    3    0    0  0.64009645031E+00 -0.34792635294E+01  0.46736423848E+01  0.58615639188E+01  0.51100000000E-03 0. -1.
        -11    1    3    3    0    0 -0.10972779975E+02 -0.70553629873E+01  0.29882026549E+02  0.32605452891E+02  0.51100000000E-03 0.  1.
         12    1    3    3    0    0 -0.24992714291E+01 -0.38290899930E+01  0.61645726437E+01  0.76753008886E+01  0.00000000000E+00 0. -1.
</event>
<event>
 7    1  0.1445801E-008  0.4614232E+02  0.7816164E-02  0.1320468E+00
        -11   -1    0    0    0    0  0.00000000000E+00  0.00000000000E+00  0.45593999997E+02  0.45594000000E+02  0.51100000000E-03 0.  1.
         11   -1    0    0    0    0 -0.00000000000E+00 -0.00000000000E+00 -0.45593999997E+02  0.45594000000E+02  0.51100000000E-03 0. -1.
    9900012    2    1    2    0    0 -0.68567634026E+01 -0.71118037128E+01  0.43949067598E+02  0.46142317642E+02  0.99999989113E+01 0.  0.
         12    1    1    2    0    0  0.68567634026E+01  0.71118037128E+01 -0.43949067598E+02  0.45045682358E+02  0.00000000000E+00 0. -1.
         11    1    3    3    0    0 -0.52263116612E+01 -0.50088099122E+01  0.27466784596E+02  0.28404696207E+02  0.51100000000E-03 0.  1.
        -11    1    3    3    0    0 -0.35726128990E+01 -0.27352428030E+01  0.10821986283E+02  0.11720089739E+02  0.51100000000E-03 0. -1.
         12    1    3    3    0    0  0.19421611577E+01  0.63224900236E+00  0.56602967187E+01  0.60175316956E+01  0.00000000000E+00 0. -1.
</event>
<event>
 7    1  0.1445801E-008  0.4614232E+02  0.7816164E-02  0.1320468E+00
        -11   -1    0    0    0    0  0.00000000000E+00  0.00000000000E+00  0.45593999997E+02  0.45594000000E+02  0.51100000000E-03 0.  1.
         11   -1    0    0    0    0 -0.00000000000E+00 -0.00000000000E+00 -0.45593999997E+02  0.45594000000E+02  0.51100000000E-03 0. -1.
    9900012    2    1    2    0    0  0.42893434537E+02 -0.70937904851E+01  0.11787492136E+02  0.46142316959E+02  0.99999926845E+01 0.  0.
         12    1    1    2    0    0 -0.42893434537E+02  0.70937904851E+01 -0.11787492136E+02  0.45045683041E+02  0.00000000000E+00 0. -1.
         11    1    3    3    0    0  0.27153365739E+01  0.83759487887E+00  0.78927831734E+00  0.29491657149E+01  0.51100000000E-03 0.  1.
        -11    1    3    3    0    0  0.22760513167E+01 -0.17193059363E+01  0.26396316312E+01  0.38863965197E+01  0.51100000000E-03 0. -1.
        -12    1    3    3    0    0  0.37902046646E+02 -0.62120794277E+01  0.83585821875E+01  0.39306754724E+02  0.00000000000E+00 0.  1.
</event>
<event>
 7    1  0.1445801E-008  0.4614232E+02  0.7816164E-02  0.1320468E+00
        -11   -1    0    0    0    0  0.00000000000E+00  0.00000000000E+00  0.45593999997E+02  0.45594000000E+02  0.51100000000E-03 0.  1.
         11   -1    0    0    0    0 -0.00000000000E+00 -0.00000000000E+00 -0.45593999997E+02  0.45594000000E+02  0.51100000000E-03 0. -1.
    9900012    2    1    2    0    0 -0.16822045080E+02 -0.96601987744E+01  0.40654803742E+02  0.46142315320E+02  0.99999777365E+01 0.  0.
         12    1    1    2    0    0  0.16822045080E+02  0.96601987744E+01 -0.40654803742E+02  0.45045684680E+02  0.00000000000E+00 0. -1.
         11    1    3    3    0    0 -0.76350491676E+01 -0.49110004407E+01  0.19581092525E+02  0.21583120392E+02  0.51100000000E-03 0.  1.
        -11    1    3    3    0    0 -0.98701609586E+01 -0.27781458784E+01  0.15281546049E+02  0.18402821028E+02  0.51100000000E-03 0. -1.
        -12    1    3    3    0    0  0.68316504652E+00 -0.19710524553E+01  0.57921651673E+01  0.61563738993E+01  0.00000000000E+00 0.  1.
</event>
<event>
 7    1  0.1445801E-008  0.4614232E+02  0.7816164E-02  0.1320468E+00
        -11   -1    0    0    0    0  0.00000000000E+00  0.00000000000E+00  0.45593999997E+02  0.45594000000E+02  0.51100000000E-03 0.  1.
         11   -1    0    0    0    0 -0.00000000000E+00 -0.00000000000E+00 -0.45593999997E+02  0.45594000000E+02  0.51100000000E-03 0. -1.
    9900012    2    1    2    0    0  0.61909437058E+01 -0.24085445452E+02  0.37558981581E+02  0.46142316922E+02  0.99999923483E+01 0.  0.
         12    1    1    2    0    0 -0.61909437058E+01  0.24085445452E+02 -0.37558981581E+02  0.45045683078E+02  0.00000000000E+00 0. -1.
         11    1    3    3    0    0  0.32808134453E+01 -0.11952911528E+01  0.67547493625E+01  0.76038869675E+01  0.51100000000E-03 0.  1.
        -11    1    3    3    0    0  0.26304909065E+01 -0.13998392263E+02  0.19710975336E+02  0.24318655746E+02  0.51100000000E-03 0. -1.
        -12    1    3    3    0    0  0.27963935398E+00 -0.88917620358E+01  0.11093256882E+02  0.14219774208E+02  0.00000000000E+00 0.  1.
</event>
<event>
 7    1  0.1445801E-008  0.4614232E+02  0.7816164E-02  0.1320468E+00
        -11   -1    0    0    0    0  0.00000000000E+00  0.00000000000E+00  0.45593999997E+02  0.45594000000E+02  0.51100000000E-03 0.  1.
         11   -1    0    0    0    0 -0.00000000000E+00 -0.00000000000E+00 -0.45593999997E+02  0.45594000000E+02  0.51100000000E-03 0. -1.
    9900012    2    1    2    0    0 -0.25005244436E+02 -0.18782672694E+02  0.32420092001E+02  0.46142318651E+02  0.10000008112E+02 0.  0.
         12    1    1    2    0    0  0.25005244436E+02  0.18782672694E+02 -0.32420092001E+02  0.45045681349E+02  0.00000000000E+00 0. -1.
         11    1    3    3    0    0 -0.38366635158E+01 -0.19280052096E+01  0.12632408860E+01  0.44758204632E+01  0.51100000000E-03 0. -1.
        -11    1    3    3    0    0 -0.75341413520E+01 -0.26856151118E+01  0.92770299262E+01  0.12249044818E+02  0.51100000000E-03 0.  1.
         12    1    3    3    0    0 -0.13634439568E+02 -0.14169052373E+02  0.21879821189E+02  0.29417453370E+02  0.00000000000E+00 0. -1.
</event>
<event>
 7    1  0.1445801E-008  0.4614232E+02  0.7816164E-02  0.1320468E+00
        -11   -1    0    0    0    0  0.00000000000E+00  0.00000000000E+00  0.45593999997E+02  0.45594000000E+02  0.51100000000E-03 0.  1.
         11   -1    0    0    0    0 -0.00000000000E+00 -0.00000000000E+00 -0.45593999997E+02  0.45594000000E+02  0.51100000000E-03 0. -1.
    9900012    2    1    2    0    0  0.44934444842E+02 -0.13988842579E+01 -0.28376377491E+01  0.46142318760E+02  0.10000009108E+02 0.  0.
         12    1    1    2    0    0 -0.44934444842E+02  0.13988842579E+01  0.28376377491E+01  0.45045681240E+02  0.00000000000E+00 0. -1.
         11    1    3    3    0    0  0.11409897065E+02 -0.26370220318E+01 -0.24114199070E+01  0.11956361589E+02  0.51100000000E-03 0. -1.
        -11    1    3    3    0    0  0.74697560340E+01  0.19093755985E+01 -0.23266156718E+01  0.80533291954E+01  0.51100000000E-03 0.  1.
        -12    1    3    3    0    0  0.26054791743E+02 -0.67123782455E+00  0.19003978297E+01  0.26132627975E+02  0.00000000000E+00 0.  1.
</event>
<event>
 7    1  0.1445801E-008  0.4614232E+02  0.7816164E-02  0.1320468E+00
        -11   -1    0    0    0    0  0.00000000000E+00  0.00000000000E+00  0.45593999997E+02  0.45594000000E+02  0.51100000000E-03 0.  1.
         11   -1    0    0    0    0 -0.00000000000E+00 -0.00000000000E+00 -0.45593999997E+02  0.45594000000E+02  0.51100000000E-03 0. -1.
    9900012    2    1    2    0    0 -0.26223430634E+00  0.20733791976E+02  0.39989430871E+02  0.46142317877E+02  0.10000001058E+02 0.  0.
         12    1    1    2    0    0  0.26223430634E+00 -0.20733791976E+02 -0.39989430871E+02  0.45045682123E+02  0.00000000000E+00 0. -1.
         11    1    3    3    0    0  0.34799758527E+01  0.93487010345E+01  0.18233876449E+02  0.20784193359E+02  0.51100000000E-03 0. -1.
        -11    1    3    3    0    0 -0.45809245325E+01  0.65128665267E+01  0.11693327598E+02  0.14146950574E+02  0.51100000000E-03 0.  1.
        -12    1    3    3    0    0  0.83871437351E+00  0.48722244143E+01  0.10062226824E+02  0.11211173944E+02  0.00000000000E+00 0.  1.
</event>
<event>
 7    1  0.1445801E-008  0.4614232E+02  0.7816164E-02  0.1320468E+00
        -11   -1    0    0    0    0  0.00000000000E+00  0.00000000000E+00  0.45593999997E+02  0.45594000000E+02  0.51100000000E-03 0. -1.
         11   -1    0    0    0    0 -0.00000000000E+00 -0.00000000000E+00 -0.45593999997E+02  0.45594000000E+02  0.51100000000E-03 0.  1.
    9900012    2    1    2    0    0 -0.29086337145E+02  0.26261299602E+02 -0.22213564151E+02  0.46142319879E+02  0.10000019309E+02 0.  0.
         12    1    1    2    0    0  0.29086337145E+02 -0.26261299602E+02  0.22213564151E+02  0.45045680121E+02  0.00000000000E+00 0. -1.
         11    1    3    3    0    0 -0.71672365368E+01  0.33002687437E+01 -0.10323146335E+01  0.79578091909E+01  0.51100000000E-03 0. -1.
        -11    1    3    3    0    0 -0.12687830423E+02  0.14226220585E+02 -0.12630063070E+02  0.22866676330E+02  0.51100000000E-03 0.  1.
         12    1    3    3    0    0 -0.92312701854E+01  0.87348102734E+01 -0.85511864478E+01  0.15317834358E+02  0.00000000000E+00 0. -1.
</event>
<event>
 7    1  0.1445801E-008  0.4614232E+02  0.7816164E-02  0.1320468E+00
        -11   -1    0    0    0    0  0.00000000000E+00  0.00000000000E+00  0.45593999997E+02  0.45594000000E+02  0.51100000000E-03 0.  1.
         11   -1    0    0    0    0 -0.00000000000E+00 -0.00000000000E+00 -0.45593999997E+02  0.45594000000E+02  0.51100000000E-03 0. -1.
    9900012    2    1    2    0    0 -0.20228173405E+02 -0.31445412847E+02  0.25122111486E+02  0.46142317921E+02  0.10000001460E+02 0.  0.
         12    1    1    2    0    0  0.20228173405E+02  0.31445412847E+02 -0.25122111486E+02  0.45045682079E+02  0.00000000000E+00 0. -1.
         11    1    3    3    0    0 -0.13325157677E+01 -0.45431414894E+01  0.28759055902E+01  0.55395456572E+01  0.51100000000E-03 0. -1.
        -11    1    3    3    0    0 -0.11743534022E+02 -0.11580586725E+02  0.73045945308E+01  0.18038228343E+02  0.51100000000E-03 0.  1.
        -12    1    3    3    0    0 -0.71521236153E+01 -0.15321684633E+02  0.14941611365E+02  0.22564543921E+02  0.00000000000E+00 0.  1.
</event>
<event>
 7    1  0.1445801E-008  0.4614233E+02  0.7816164E-02  0.1320468E+00
        -11   -1    0    0    0    0  0.00000000000E+00  0.00000000000E+00  0.45593999997E+02  0.45594000000E+02  0.51100000000E-03 0. -1.
         11   -1    0    0    0    0 -0.00000000000E+00 -0.00000000000E+00 -0.45593999997E+02  0.45594000000E+02  0.51100000000E-03 0.  1.
    9900012    2    1    2    0    0  0.33440558894E+02  0.91628314110E+01 -0.28755597038E+02  0.46142325184E+02  0.10000067684E+02 0.  0.
         12    1    1    2    0    0 -0.33440558894E+02 -0.91628314110E+01  0.28755597038E+02  0.45045674816E+02  0.00000000000E+00 0. -1.
         11    1    3    3    0    0  0.42180720406E+01  0.47486990185E+01 -0.50384105051E+01  0.81072717228E+01  0.51100000000E-03 0. -1.
        -11    1    3    3    0    0  0.18806007705E+02  0.19980536941E+01 -0.13415058467E+02  0.23186675879E+02  0.51100000000E-03 0.  1.
         12    1    3    3    0    0  0.10416479149E+02  0.24160786985E+01 -0.10302128066E+02  0.14848377582E+02  0.00000000000E+00 0. -1.
</event>
<event>
 7    1  0.1445801E-008  0.4614232E+02  0.7816164E-02  0.1320468E+00
        -11   -1    0    0    0    0  0.00000000000E+00  0.00000000000E+00  0.45593999997E+02  0.45594000000E+02  0.51100000000E-03 0.  1.
         11   -1    0    0    0    0 -0.00000000000E+00 -0.00000000000E+00 -0.45593999997E+02  0.45594000000E+02  0.51100000000E-03 0. -1.
    9900012    2    1    2    0    0  0.35674813417E+02 -0.78987426088E+00  0.27491766469E+02  0.46142318328E+02  0.10000005173E+02 0.  0.
         12    1    1    2    0    0 -0.35674813417E+02  0.78987426088E+00 -0.27491766469E+02  0.45045681672E+02  0.00000000000E+00 0. -1.
         11    1    3    3    0    0  0.11563512545E+02 -0.28550909487E+01  0.65703441491E+01  0.13602786083E+02  0.51100000000E-03 0. -1.
        -11    1    3    3    0    0  0.10192938748E+02  0.23110247442E+01  0.12402955696E+02  0.16219437288E+02  0.51100000000E-03 0.  1.
         12    1    3    3    0    0  0.13918362123E+02 -0.24580805636E+00  0.85184666239E+01  0.16320094957E+02  0.00000000000E+00 0. -1.
</event>
<event>
 7    1  0.1445801E-008  0.4614232E+02  0.7816164E-02  0.1320468E+00
        -11   -1    0    0    0    0  0.00000000000E+00  0.00000000000E+00  0.45593999997E+02  0.45594000000E+02  0.51100000000E-03 0.  1.
         11   -1    0    0    0    0 -0.00000000000E+00 -0.00000000000E+00 -0.45593999997E+02  0.45594000000E+02  0.51100000000E-03 0. -1.
    9900012    2    1    2    0    0  0.80213440475E+01  0.99723118887E+01  0.43189401552E+02  0.46142319062E+02  0.10000011862E+02 0.  0.
         12    1    1    2    0    0 -0.80213440475E+01 -0.99723118887E+01 -0.43189401552E+02  0.45045680938E+02  0.00000000000E+00 0. -1.
         11    1    3    3    0    0  0.45191336630E+01  0.15108913618E+00  0.98380705672E+01  0.10827420272E+02  0.51100000000E-03 0. -1.
        -11    1    3    3    0    0  0.43425475682E+01  0.49881959336E+01  0.21309459589E+02  0.22312169018E+02  0.51100000000E-03 0.  1.
        -12    1    3    3    0    0 -0.84033718370E+00  0.48330268189E+01  0.12041871396E+02  0.13002729772E+02  0.00000000000E+00 0.  1.
</event>
<event>
 7    1  0.1445801E-008  0.4614232E+02  0.7816164E-02  0.1320468E+00
        -11   -1    0    0    0    0  0.00000000000E+00  0.00000000000E+00  0.45593999997E+02  0.45594000000E+02  0.51100000000E-03 0.  1.
         11   -1    0    0    0    0 -0.00000000000E+00 -0.00000000000E+00 -0.45593999997E+02  0.45594000000E+02  0.51100000000E-03 0. -1.
    9900012    2    1    2    0    0  0.35904903346E+02 -0.21825170333E+02  0.16236175707E+02  0.46142317123E+02  0.99999941772E+01 0.  0.
         12    1    1    2    0    0 -0.35904903346E+02  0.21825170333E+02 -0.16236175707E+02  0.45045682877E+02  0.00000000000E+00 0. -1.
         11    1    3    3    0    0  0.27194206594E+01  0.38687332402E+00 -0.31221205768E+00  0.27644884377E+01  0.51100000000E-03 0. -1.
        -11    1    3    3    0    0  0.86360079485E+01 -0.70232852660E+01  0.32665383166E+01  0.11600751788E+02  0.51100000000E-03 0.  1.
         12    1    3    3    0    0  0.24549474738E+02 -0.15188758391E+02  0.13281849448E+02  0.31777076897E+02  0.00000000000E+00 0. -1.
</event>
<event>
 7    1  0.1445801E-008  0.4614232E+02  0.7816164E-02  0.1320468E+00
        -11   -1    0    0    0    0  0.00000000000E+00  0.00000000000E+00  0.45593999997E+02  0.45594000000E+02  0.51100000000E-03 0.  1.
         11   -1    0    0    0    0 -0.00000000000E+00 -0.00000000000E+00 -0.45593999997E+02  0.45594000000E+02  0.51100000000E-03 0. -1.
    9900012    2    1    2    0    0  0.10172052983E+02 -0.27676550454E+02  0.34053654601E+02  0.46142317647E+02  0.99999989638E+01 0.  0.
         12    1    1    2    0    0 -0.10172052983E+02  0.27676550454E+02 -0.34053654601E+02  0.45045682353E+02  0.00000000000E+00 0. -1.
         11    1    3    3    0    0  0.47081330872E+01 -0.51699338833E+01  0.83761680490E+01  0.10911229306E+02  0.51100000000E-03 0.  1.
        -11    1    3    3    0    0  0.55389528811E+01 -0.11669213335E+02  0.10875610731E+02  0.16885776497E+02  0.51100000000E-03 0. -1.
        -12    1    3    3    0    0 -0.75032985344E-01 -0.10837403236E+02  0.14801875821E+02  0.18345311845E+02  0.00000000000E+00 0.  1.
</event>
<event>
 7    1  0.1445801E-008  0.4614232E+02  0.7816164E-02  0.1320468E+00
        -11   -1    0    0    0    0  0.00000000000E+00  0.00000000000E+00  0.45593999997E+02  0.45594000000E+02  0.51100000000E-03 0.  1.
         11   -1    0    0    0    0 -0.00000000000E+00 -0.00000000000E+00 -0.45593999997E+02  0.45594000000E+02  0.51100000000E-03 0. -1.
    9900012    2    1    2    0    0  0.37882095265E+02 -0.23909495113E+02 -0.47324927223E+01  0.46142316682E+02  0.99999901616E+01 0.  0.
         12    1    1    2    0    0 -0.37882095265E+02  0.23909495113E+02  0.47324927223E+01  0.45045683318E+02  0.00000000000E+00 0. -1.
         11    1    3    3    0    0  0.17249741276E+02 -0.11759902269E+02  0.60961042153E+00  0.20885892382E+02  0.51100000000E-03 0. -1.
        -11    1    3    3    0    0  0.10808036440E+02 -0.77169890259E+01 -0.57478917852E+01  0.14470792360E+02  0.51100000000E-03 0.  1.
         12    1    3    3    0    0  0.98243175496E+01 -0.44326038173E+01  0.40578864136E+00  0.10785631940E+02  0.00000000000E+00 0. -1.
</event>
<event>
 7    1  0.1445801E-008  0.4614232E+02  0.7816164E-02  0.1320468E+00
        -11   -1    0    0    0    0  0.00000000000E+00  0.00000000000E+00  0.45593999997E+02  0.45594000000E+02  0.51100000000E-03 0.  1.
         11   -1    0    0    0    0 -0.00000000000E+00 -0.00000000000E+00 -0.45593999997E+02  0.45594000000E+02  0.51100000000E-03 0. -1.
    9900012    2    1    2    0    0 -0.25513467652E+02  0.16249107269E+02  0.33378779942E+02  0.46142317975E+02  0.10000001950E+02 0.  0.
         12    1    1    2    0    0  0.25513467652E+02 -0.16249107269E+02 -0.33378779942E+02  0.45045682025E+02  0.00000000000E+00 0. -1.
         11    1    3    3    0    0 -0.15389217103E+02  0.98254313466E+01  0.25792140075E+02  0.31600658128E+02  0.51100000000E-03 0. -1.
        -11    1    3    3    0    0 -0.45499082978E+01  0.23803784127E+01  0.14963231384E+01  0.53485371927E+01  0.51100000000E-03 0.  1.
        -12    1    3    3    0    0 -0.55743422507E+01  0.40432975097E+01  0.60903167287E+01  0.91931226542E+01  0.00000000000E+00 0.  1.
</event>
<event>
 7    1  0.1445801E-008  0.4614232E+02  0.7816164E-02  0.1320468E+00
        -11   -1    0    0    0    0  0.00000000000E+00  0.00000000000E+00  0.45593999997E+02  0.45594000000E+02  0.51100000000E-03 0.  1.
         11   -1    0    0    0    0 -0.00000000000E+00 -0.00000000000E+00 -0.45593999997E+02  0.45594000000E+02  0.51100000000E-03 0. -1.
    9900012    2    1    2    0    0  0.28842826880E+02  0.18314614746E+02  0.29356082796E+02  0.46142319043E+02  0.10000011693E+02 0.  0.
         12    1    1    2    0    0 -0.28842826880E+02 -0.18314614746E+02 -0.29356082796E+02  0.45045680957E+02  0.00000000000E+00 0. -1.
         11    1    3    3    0    0  0.35506085112E+01  0.11714318508E+01 -0.42511712444E-01  0.37391016151E+01  0.51100000000E-03 0. -1.
        -11    1    3    3    0    0  0.23482956840E+02  0.15844437082E+02  0.27130647487E+02  0.39224577521E+02  0.51100000000E-03 0.  1.
         12    1    3    3    0    0  0.18092615290E+01  0.12987458134E+01  0.22679470214E+01  0.31786399072E+01  0.00000000000E+00 0. -1.
</event>
<event>
 7    1  0.1445801E-008  0.4614232E+02  0.7816164E-02  0.1320468E+00
        -11   -1    0    0    0    0  0.00000000000E+00  0.00000000000E+00  0.45593999997E+02  0.45594000000E+02  0.51100000000E-03 0. -1.
         11   -1    0    0    0    0 -0.00000000000E+00 -0.00000000000E+00 -0.45593999997E+02  0.45594000000E+02  0.51100000000E-03 0.  1.
    9900012    2    1    2    0    0  0.43077270624E+01 -0.25228317165E+02 -0.37068706089E+02  0.46142317959E+02  0.10000001807E+02 0.  0.
         12    1    1    2    0    0 -0.43077270624E+01  0.25228317165E+02  0.37068706089E+02  0.45045682041E+02  0.00000000000E+00 0. -1.
         11    1    3    3    0    0  0.19838846341E+01 -0.41148760026E+01 -0.31655427844E+01  0.55577571141E+01  0.51100000000E-03 0. -1.
        -11    1    3    3    0    0  0.40571592307E+01 -0.11778844371E+02 -0.15585830718E+02  0.19952940515E+02  0.51100000000E-03 0.  1.
        -12    1    3    3    0    0 -0.17333168024E+01 -0.93345967914E+01 -0.18317332586E+02  0.20631620331E+02  0.00000000000E+00 0.  1.
</event>
<event>
 7    1  0.1445801E-008  0.4614232E+02  0.7816164E-02  0.1320468E+00
        -11   -1    0    0    0    0  0.00000000000E+00  0.00000000000E+00  0.45593999997E+02  0.45594000000E+02  0.51100000000E-03 0. -1.
         11   -1    0    0    0    0 -0.00000000000E+00 -0.00000000000E+00 -0.45593999997E+02  0.45594000000E+02  0.51100000000E-03 0.  1.
    9900012    2    1    2    0    0 -0.33274756568E+02 -0.24949272881E+02 -0.17304272091E+02  0.46142317915E+02  0.10000001400E+02 0.  0.
         12    1    1    2    0    0  0.33274756568E+02  0.24949272881E+02  0.17304272091E+02  0.45045682085E+02  0.00000000000E+00 0. -1.
         11    1    3    3    0    0 -0.99451442271E+01 -0.90414429395E+01 -0.28869383394E+01  0.13747290546E+02  0.51100000000E-03 0. -1.
        -11    1    3    3    0    0 -0.16579125105E+02 -0.13031725853E+02 -0.77078057859E+01  0.22452250182E+02  0.51100000000E-03 0.  1.
        -12    1    3    3    0    0 -0.67504872362E+01 -0.28761040880E+01 -0.67095279658E+01  0.99427771862E+01  0.00000000000E+00 0.  1.
</event>
<event>
 7    1  0.1445801E-008  0.4614232E+02  0.7816164E-02  0.1320468E+00
        -11   -1    0    0    0    0  0.00000000000E+00  0.00000000000E+00  0.45593999997E+02  0.45594000000E+02  0.51100000000E-03 0.  1.
         11   -1    0    0    0    0 -0.00000000000E+00 -0.00000000000E+00 -0.45593999997E+02  0.45594000000E+02  0.51100000000E-03 0. -1.
    9900012    2    1    2    0    0 -0.32907142281E+01  0.72031936878E+01  0.44344091198E+02  0.46142320700E+02  0.10000026797E+02 0.  0.
         12    1    1    2    0    0  0.32907142281E+01 -0.72031936878E+01 -0.44344091198E+02  0.45045679300E+02  0.00000000000E+00 0. -1.
         11    1    3    3    0    0  0.24260161044E+00 -0.20730629803E+01  0.54936078354E+01  0.58767485034E+01  0.51100000000E-03 0. -1.
        -11    1    3    3    0    0 -0.11282579113E+01  0.53218588150E+01  0.27014741516E+02  0.27557057292E+02  0.51100000000E-03 0.  1.
        -12    1    3    3    0    0 -0.24050579271E+01  0.39543978532E+01  0.11835741847E+02  0.12708514905E+02  0.00000000000E+00 0.  1.
</event>
<event>
 7    1  0.1445801E-008  0.4614232E+02  0.7816164E-02  0.1320468E+00
        -11   -1    0    0    0    0  0.00000000000E+00  0.00000000000E+00  0.45593999997E+02  0.45594000000E+02  0.51100000000E-03 0.  1.
         11   -1    0    0    0    0 -0.00000000000E+00 -0.00000000000E+00 -0.45593999997E+02  0.45594000000E+02  0.51100000000E-03 0. -1.
    9900012    2    1    2    0    0  0.27691405504E+01 -0.40614425094E+02  0.19285066279E+02  0.46142318226E+02  0.10000004237E+02 0.  0.
         12    1    1    2    0    0 -0.27691405504E+01  0.40614425094E+02 -0.19285066279E+02  0.45045681774E+02  0.00000000000E+00 0. -1.
         11    1    3    3    0    0  0.28559242070E+01 -0.11960408679E+02  0.92561502939E+01  0.15391036267E+02  0.51100000000E-03 0. -1.
        -11    1    3    3    0    0 -0.10716914192E+01 -0.25434400119E+02  0.10090427318E+02  0.27383826534E+02  0.51100000000E-03 0.  1.
         12    1    3    3    0    0  0.98490776257E+00 -0.32196162960E+01 -0.61511333026E-01  0.33674554248E+01  0.00000000000E+00 0. -1.
</event>
<event>
 7    1  0.1445801E-008  0.4614232E+02  0.7816164E-02  0.1320468E+00
        -11   -1    0    0    0    0  0.00000000000E+00  0.00000000000E+00  0.45593999997E+02  0.45594000000E+02  0.51100000000E-03 0.  1.
         11   -1    0    0    0    0 -0.00000000000E+00 -0.00000000000E+00 -0.45593999997E+02  0.45594000000E+02  0.51100000000E-03 0. -1.
    9900012    2    1    2    0    0 -0.27261732844E+02 -0.34973875368E+02 -0.79208202533E+01  0.46142318415E+02  0.10000005966E+02 0.  0.
         12    1    1    2    0    0  0.27261732844E+02  0.34973875368E+02  0.79208202533E+01  0.45045681585E+02  0.00000000000E+00 0. -1.
         11    1    3    3    0    0 -0.31611439283E+01 -0.34501881303E+01 -0.28062581853E+01  0.54563462439E+01  0.51100000000E-03 0. -1.
        -11    1    3    3    0    0 -0.23320528781E+02 -0.27074872621E+02 -0.54932278125E+01  0.36153441636E+02  0.51100000000E-03 0.  1.
        -12    1    3    3    0    0 -0.78006013514E+00 -0.44488146173E+01  0.37866574450E+00  0.45325305359E+01  0.00000000000E+00 0.  1.
</event>
<event>
 7    1  0.1445801E-008  0.4614232E+02  0.7816164E-02  0.1320468E+00
        -11   -1    0    0    0    0  0.00000000000E+00  0.00000000000E+00  0.45593999997E+02  0.45594000000E+02  0.51100000000E-03 0.  1.
         11   -1    0    0    0    0 -0.00000000000E+00 -0.00000000000E+00 -0.45593999997E+02  0.45594000000E+02  0.51100000000E-03 0. -1.
    9900012    2    1    2    0    0 -0.16751451279E+02 -0.26420362757E+02  0.32410905493E+02  0.46142317820E+02  0.10000000540E+02 0.  0.
         12    1    1    2    0    0  0.16751451279E+02  0.26420362757E+02 -0.32410905493E+02  0.45045682180E+02  0.00000000000E+00 0. -1.
         11    1    3    3    0    0  0.20278485975E+00 -0.30512001309E+01  0.25669622569E+01  0.39925229402E+01  0.51100000000E-03 0. -1.
        -11    1    3    3    0    0 -0.36515239032E+01 -0.26861218961E+01  0.18705983938E+01  0.49038776768E+01  0.51100000000E-03 0.  1.
        -12    1    3    3    0    0 -0.13302712235E+02 -0.20683040730E+02  0.27973344842E+02  0.37245917203E+02  0.00000000000E+00 0.  1.
</event>
<event>
 7    1  0.1445801E-008  0.4614232E+02  0.7816164E-02  0.1320468E+00
        -11   -1    0    0    0    0  0.00000000000E+00  0.00000000000E+00  0.45593999997E+02  0.45594000000E+02  0.51100000000E-03 0.  1.
         11   -1    0    0    0    0 -0.00000000000E+00 -0.00000000000E+00 -0.45593999997E+02  0.45594000000E+02  0.51100000000E-03 0. -1.
    9900012    2    1    2    0    0 -0.29058477514E+01 -0.19634223315E+02  0.40437195797E+02  0.46142317851E+02  0.10000000823E+02 0.  0.
         12    1    1    2    0    0  0.29058477514E+01  0.19634223315E+02 -0.40437195797E+02  0.45045682149E+02  0.00000000000E+00 0. -1.
         11    1    3    3    0    0 -0.61197453675E+01 -0.12586883324E+02  0.23120513146E+02  0.27026635817E+02  0.51100000000E-03 0. -1.
        -11    1    3    3    0    0  0.12655509482E+01 -0.51892377988E+01  0.12586525819E+02  0.13672982139E+02  0.51100000000E-03 0.  1.
         12    1    3    3    0    0  0.19483466678E+01 -0.18581021923E+01  0.47301568322E+01  0.54426998955E+01  0.00000000000E+00 0. -1.
</event>
<event>
 7    1  0.1445801E-008  0.4614232E+02  0.7816164E-02  0.1320468E+00
        -11   -1    0    0    0    0  0.00000000000E+00  0.00000000000E+00  0.45593999997E+02  0.45594000000E+02  0.51100000000E-03 0.  1.
         11   -1    0    0    0    0 -0.00000000000E+00 -0.00000000000E+00 -0.45593999997E+02  0.45594000000E+02  0.51100000000E-03 0. -1.
    9900012    2    1    2    0    0 -0.24606246632E+02  0.14374688194E+02  0.34885734781E+02  0.46142317353E+02  0.99999962770E+01 0.  0.
         12    1    1    2    0    0  0.24606246632E+02 -0.14374688194E+02 -0.34885734781E+02  0.45045682647E+02  0.00000000000E+00 0. -1.
         11    1    3    3    0    0 -0.45310411707E+01  0.71348006914E+01  0.73532482250E+01  0.11202944913E+02  0.51100000000E-03 0. -1.
        -11    1    3    3    0    0 -0.39103987499E+01  0.69284667807E+00  0.64939925358E+01  0.76120427100E+01  0.51100000000E-03 0.  1.
         12    1    3    3    0    0 -0.16164806711E+02  0.65470408244E+01  0.21038494020E+02  0.27327329730E+02  0.00000000000E+00 0. -1.
</event>
<event>
 7    1  0.1445801E-008  0.4614232E+02  0.7816164E-02  0.1320468E+00
        -11   -1    0    0    0    0  0.00000000000E+00  0.00000000000E+00  0.45593999997E+02  0.45594000000E+02  0.51100000000E-03 0.  1.
         11   -1    0    0    0    0 -0.00000000000E+00 -0.00000000000E+00 -0.45593999997E+02  0.45594000000E+02  0.51100000000E-03 0. -1.
    9900012    2    1    2    0    0 -0.83301509083E+01  0.44152084328E+02 -0.32117827680E+01  0.46142317486E+02  0.99999974889E+01 0.  0.
         12    1    1    2    0    0  0.83301509083E+01 -0.44152084328E+02  0.32117827680E+01  0.45045682514E+02  0.00000000000E+00 0. -1.
         11    1    3    3    0    0 -0.33486169466E+01  0.95060753855E+01  0.78446415721E+00  0.10109109207E+02  0.51100000000E-03 0.  1.
        -11    1    3    3    0    0 -0.67460051871E+01  0.26248740630E+02 -0.43330666933E+01  0.27445954855E+02  0.51100000000E-03 0. -1.
        -12    1    3    3    0    0  0.17644712254E+01  0.83972683119E+01  0.33681976811E+00  0.85872534237E+01  0.00000000000E+00 0.  1.
</event>
<event>
 7    1  0.1445801E-008  0.4614231E+02  0.7816164E-02  0.1320468E+00
        -11   -1    0    0    0    0  0.00000000000E+00  0.00000000000E+00  0.45593999997E+02  0.45594000000E+02  0.51100000000E-03 0.  1.
         11   -1    0    0    0    0 -0.00000000000E+00 -0.00000000000E+00 -0.45593999997E+02  0.45594000000E+02  0.51100000000E-03 0. -1.
    9900012    2    1    2    0    0 -0.45004708102E+02  0.19063289491E+01  0.23766275171E+00  0.46142308475E+02  0.99999153179E+01 0.  0.
         12    1    1    2    0    0  0.45004708102E+02 -0.19063289491E+01 -0.23766275171E+00  0.45045691525E+02  0.00000000000E+00 0. -1.
         11    1    3    3    0    0 -0.27262838074E+02  0.76772987447E+00 -0.22841225627E+01  0.27369124303E+02  0.51100000000E-03 0. -1.
        -11    1    3    3    0    0 -0.15803863611E+02 -0.84934600281E+00  0.21262200706E+01  0.15968854239E+02  0.51100000000E-03 0.  1.
         12    1    3    3    0    0 -0.19380064175E+01  0.19879450774E+01  0.39556524379E+00  0.28043299320E+01  0.00000000000E+00 0. -1.
</event>
<event>
 7    1  0.1445801E-008  0.4614232E+02  0.7816164E-02  0.1320468E+00
        -11   -1    0    0    0    0  0.00000000000E+00  0.00000000000E+00  0.45593999997E+02  0.45594000000E+02  0.51100000000E-03 0.  1.
         11   -1    0    0    0    0 -0.00000000000E+00 -0.00000000000E+00 -0.45593999997E+02  0.45594000000E+02  0.51100000000E-03 0. -1.
    9900012    2    1    2    0    0  0.79568347377E+01  0.94029165537E+01  0.43328829696E+02  0.46142317170E+02  0.99999946108E+01 0.  0.
         12    1    1    2    0    0 -0.79568347377E+01 -0.94029165537E+01 -0.43328829696E+02  0.45045682830E+02  0.00000000000E+00 0. -1.
         11    1    3    3    0    0  0.28482104955E+01  0.33515737360E+01  0.11133638474E+02  0.11970933776E+02  0.51100000000E-03 0. -1.
        -11    1    3    3    0    0 -0.14084357111E+01 -0.52452837842E+00  0.10155495142E+02  0.10266104569E+02  0.51100000000E-03 0.  1.
        -12    1    3    3    0    0  0.65170599533E+01  0.65758711961E+01  0.22039696080E+02  0.23905278825E+02  0.00000000000E+00 0.  1.
</event>
<event>
 7    1  0.1445801E-008  0.4614232E+02  0.7816164E-02  0.1320468E+00
        -11   -1    0    0    0    0  0.00000000000E+00  0.00000000000E+00  0.45593999997E+02  0.45594000000E+02  0.51100000000E-03 0.  1.
         11   -1    0    0    0    0 -0.00000000000E+00 -0.00000000000E+00 -0.45593999997E+02  0.45594000000E+02  0.51100000000E-03 0. -1.
    9900012    2    1    2    0    0  0.23928949995E+02 -0.38163659153E+02 -0.23242815658E+00  0.46142317069E+02  0.99999936933E+01 0.  0.
         12    1    1    2    0    0 -0.23928949995E+02  0.38163659153E+02  0.23242815658E+00  0.45045682931E+02  0.00000000000E+00 0. -1.
         11    1    3    3    0    0  0.54920289428E+01 -0.13586977905E+02 -0.11797680884E+01  0.14702387681E+02  0.51100000000E-03 0. -1.
        -11    1    3    3    0    0  0.13138597959E+02 -0.17358911713E+02  0.36782404786E+01  0.22079040411E+02  0.51100000000E-03 0.  1.
        -12    1    3    3    0    0  0.52983230931E+01 -0.72177695343E+01 -0.27309005468E+01  0.93608889773E+01  0.00000000000E+00 0.  1.
</event>
<event>
 7    1  0.1445801E-008  0.4614232E+02  0.7816164E-02  0.1320468E+00
        -11   -1    0    0    0    0  0.00000000000E+00  0.00000000000E+00  0.45593999997E+02  0.45594000000E+02  0.51100000000E-03 0. -1.
         11   -1    0    0    0    0 -0.00000000000E+00 -0.00000000000E+00 -0.45593999997E+02  0.45594000000E+02  0.51100000000E-03 0.  1.
    9900012    2    1    2    0    0  0.31813821209E+02 -0.28924400848E+02  0.13430317325E+02  0.46142316436E+02  0.99999879124E+01 0.  0.
         12    1    1    2    0    0 -0.31813821209E+02  0.28924400848E+02 -0.13430317325E+02  0.45045683564E+02  0.00000000000E+00 0. -1.
         11    1    3    3    0    0  0.32066468185E+01 -0.46267697158E+01 -0.95344503668E+00  0.57095218294E+01  0.51100000000E-03 0. -1.
        -11    1    3    3    0    0  0.27669896776E+02 -0.23282157320E+02  0.14665348919E+02  0.39022487059E+02  0.51100000000E-03 0.  1.
        -12    1    3    3    0    0  0.93727761465E+00 -0.10154738121E+01 -0.28158655666E+00  0.14103075476E+01  0.00000000000E+00 0.  1.
</event>
<event>
 7    1  0.1445801E-008  0.4614232E+02  0.7816164E-02  0.1320468E+00
        -11   -1    0    0    0    0  0.00000000000E+00  0.00000000000E+00  0.45593999997E+02  0.45594000000E+02  0.51100000000E-03 0.  1.
         11   -1    0    0    0    0 -0.00000000000E+00 -0.00000000000E+00 -0.45593999997E+02  0.45594000000E+02  0.51100000000E-03 0. -1.
    9900012    2    1    2    0    0 -0.13330695424E+02  0.18627609610E+02  0.38786833203E+02  0.46142315299E+02  0.99999775523E+01 0.  0.
         12    1    1    2    0    0  0.13330695424E+02 -0.18627609610E+02 -0.38786833203E+02  0.45045684701E+02  0.00000000000E+00 0. -1.
         11    1    3    3    0    0 -0.10299770948E+01  0.30306658561E+01  0.10725417961E+02  0.11192871796E+02  0.51100000000E-03 0. -1.
        -11    1    3    3    0    0 -0.93414076736E+01  0.15204592286E+02  0.24245643872E+02  0.30104696825E+02  0.51100000000E-03 0.  1.
        -12    1    3    3    0    0 -0.29593106553E+01  0.39235146789E+00  0.38157713693E+01  0.48447466778E+01  0.00000000000E+00 0.  1.
</event>
<event>
 7    1  0.1445801E-008  0.4614232E+02  0.7816164E-02  0.1320468E+00
        -11   -1    0    0    0    0  0.00000000000E+00  0.00000000000E+00  0.45593999997E+02  0.45594000000E+02  0.51100000000E-03 0.  1.
         11   -1    0    0    0    0 -0.00000000000E+00 -0.00000000000E+00 -0.45593999997E+02  0.45594000000E+02  0.51100000000E-03 0. -1.
    9900012    2    1    2    0    0 -0.19013098663E+02  0.12198634788E+02  0.38971896513E+02  0.46142319528E+02  0.10000016108E+02 0.  0.
         12    1    1    2    0    0  0.19013098663E+02 -0.12198634788E+02 -0.38971896513E+02  0.45045680472E+02  0.00000000000E+00 0. -1.
         11    1    3    3    0    0 -0.10830103454E+01  0.51223990012E+00  0.77366729264E+01  0.78288830209E+01  0.51100000000E-03 0. -1.
        -11    1    3    3    0    0 -0.11069190564E+02  0.42102194543E+01  0.19342636125E+02  0.22680178574E+02  0.51100000000E-03 0.  1.
         12    1    3    3    0    0 -0.68608977531E+01  0.74761754333E+01  0.11892587461E+02  0.15633257933E+02  0.00000000000E+00 0. -1.
</event>
<event>
 7    1  0.1445801E-008  0.4614232E+02  0.7816164E-02  0.1320468E+00
        -11   -1    0    0    0    0  0.00000000000E+00  0.00000000000E+00  0.45593999997E+02  0.45594000000E+02  0.51100000000E-03 0.  1.
         11   -1    0    0    0    0 -0.00000000000E+00 -0.00000000000E+00 -0.45593999997E+02  0.45594000000E+02  0.51100000000E-03 0. -1.
    9900012    2    1    2    0    0  0.34693731809E+02 -0.75395252274E+01  0.27723892590E+02  0.46142315547E+02  0.99999798098E+01 0.  0.
         12    1    1    2    0    0 -0.34693731809E+02  0.75395252274E+01 -0.27723892590E+02  0.45045684453E+02  0.00000000000E+00 0. -1.
         11    1    3    3    0    0  0.14690801374E+02 -0.53295315993E+01  0.16902400331E+02  0.23019875962E+02  0.51100000000E-03 0. -1.
        -11    1    3    3    0    0  0.14048247551E+02 -0.93905117652E+00  0.57896060854E+01  0.15223488932E+02  0.51100000000E-03 0.  1.
        -12    1    3    3    0    0  0.59546828839E+01 -0.12709424516E+01  0.50318861739E+01  0.78989506537E+01  0.00000000000E+00 0.  1.
</event>
<event>
 7    1  0.1445801E-008  0.4614232E+02  0.7816164E-02  0.1320468E+00
        -11   -1    0    0    0    0  0.00000000000E+00  0.00000000000E+00  0.45593999997E+02  0.45594000000E+02  0.51100000000E-03 0. -1.
         11   -1    0    0    0    0 -0.00000000000E+00 -0.00000000000E+00 -0.45593999997E+02  0.45594000000E+02  0.51100000000E-03 0.  1.
    9900012    2    1    2    0    0  0.38033941715E+02  0.70703910493E+01 -0.23076877638E+02  0.46142318371E+02  0.10000005558E+02 0.  0.
         12    1    1    2    0    0 -0.38033941715E+02 -0.70703910493E+01  0.23076877638E+02  0.45045681629E+02  0.00000000000E+00 0. -1.
         11    1    3    3    0    0  0.19191522064E+02  0.62670214702E+01 -0.14613529483E+02  0.24922787192E+02  0.51100000000E-03 0. -1.
        -11    1    3    3    0    0  0.15784631377E+02  0.21368143200E-02 -0.87463571754E+01  0.18045868125E+02  0.51100000000E-03 0.  1.
         12    1    3    3    0    0  0.30577882738E+01  0.80123276482E+00  0.28300902032E+00  0.31736630533E+01  0.00000000000E+00 0. -1.
</event>
<event>
 7    1  0.1445801E-008  0.4614232E+02  0.7816164E-02  0.1320468E+00
        -11   -1    0    0    0    0  0.00000000000E+00  0.00000000000E+00  0.45593999997E+02  0.45594000000E+02  0.51100000000E-03 0. -1.
         11   -1    0    0    0    0 -0.00000000000E+00 -0.00000000000E+00 -0.45593999997E+02  0.45594000000E+02  0.51100000000E-03 0.  1.
    9900012    2    1    2    0    0  0.33497504824E+02  0.15051838844E+02 -0.26085874869E+02  0.46142317081E+02  0.99999937952E+01 0.  0.
         12    1    1    2    0    0 -0.33497504824E+02 -0.15051838844E+02  0.26085874869E+02  0.45045682919E+02  0.00000000000E+00 0. -1.
         11    1    3    3    0    0  0.20204398385E+02  0.50707444493E+01 -0.17601232614E+02  0.27271478749E+02  0.51100000000E-03 0.  1.
        -11    1    3    3    0    0  0.13267280794E+02  0.97623146784E+01 -0.79448338434E+01  0.18287807759E+02  0.51100000000E-03 0. -1.
        -12    1    3    3    0    0  0.25825644400E-01  0.21877971660E+00 -0.53980841090E+00  0.58303057277E+00  0.00000000000E+00 0.  1.
</event>
<event>
 7    1  0.1445801E-008  0.4614232E+02  0.7816164E-02  0.1320468E+00
        -11   -1    0    0    0    0  0.00000000000E+00  0.00000000000E+00  0.45593999997E+02  0.45594000000E+02  0.51100000000E-03 0.  1.
         11   -1    0    0    0    0 -0.00000000000E+00 -0.00000000000E+00 -0.45593999997E+02  0.45594000000E+02  0.51100000000E-03 0. -1.
    9900012    2    1    2    0    0 -0.59449769585E+01 -0.12966714691E+02  0.42727451545E+02  0.46142317005E+02  0.99999931061E+01 0.  0.
         12    1    1    2    0    0  0.59449769585E+01  0.12966714691E+02 -0.42727451545E+02  0.45045682995E+02  0.00000000000E+00 0. -1.
         11    1    3    3    0    0 -0.42971042215E+01 -0.56798557606E+01  0.12187640765E+02  0.14116106185E+02  0.51100000000E-03 0. -1.
        -11    1    3    3    0    0 -0.32643122019E+01 -0.16971735954E+01  0.14637055040E+02  0.15092366046E+02  0.51100000000E-03 0.  1.
        -12    1    3    3    0    0  0.16164394649E+01 -0.55896853351E+01  0.15902755740E+02  0.16933844774E+02  0.00000000000E+00 0.  1.
</event>
<event>
 7    1  0.1445801E-008  0.4614232E+02  0.7816164E-02  0.1320468E+00
        -11   -1    0    0    0    0  0.00000000000E+00  0.00000000000E+00  0.45593999997E+02  0.45594000000E+02  0.51100000000E-03 0. -1.
         11   -1    0    0    0    0 -0.00000000000E+00 -0.00000000000E+00 -0.45593999997E+02  0.45594000000E+02  0.51100000000E-03 0.  1.
    9900012    2    1    2    0    0 -0.37152636491E+02 -0.88358770721E+01 -0.23889799154E+02  0.46142316239E+02  0.99999861172E+01 0.  0.
         12    1    1    2    0    0  0.37152636491E+02  0.88358770721E+01  0.23889799154E+02  0.45045683761E+02  0.00000000000E+00 0. -1.
         11    1    3    3    0    0 -0.22462315844E+02 -0.25716363555E+01 -0.11615413390E+02  0.25418237058E+02  0.51100000000E-03 0. -1.
        -11    1    3    3    0    0 -0.11895604336E+02 -0.30947977125E+01 -0.77377063149E+01  0.14524299456E+02  0.51100000000E-03 0.  1.
         12    1    3    3    0    0 -0.27947163105E+01 -0.31694430042E+01 -0.45366794492E+01  0.61997797249E+01  0.00000000000E+00 0. -1.
</event>
<event>
 7    1  0.1445801E-008  0.4614232E+02  0.7816164E-02  0.1320468E+00
        -11   -1    0    0    0    0  0.00000000000E+00  0.00000000000E+00  0.45593999997E+02  0.45594000000E+02  0.51100000000E-03 0.  1.
         11   -1    0    0    0    0 -0.00000000000E+00 -0.00000000000E+00 -0.45593999997E+02  0.45594000000E+02  0.51100000000E-03 0. -1.
    9900012    2    1    2    0    0  0.27230000619E+02  0.31891173853E+02  0.16449729134E+02  0.46142317721E+02  0.99999996327E+01 0.  0.
         12    1    1    2    0    0 -0.27230000619E+02 -0.31891173853E+02 -0.16449729134E+02  0.45045682279E+02  0.00000000000E+00 0. -1.
         11    1    3    3    0    0  0.46616458754E+01  0.44397570250E+01  0.21925508825E+01  0.68007105763E+01  0.51100000000E-03 0. -1.
        -11    1    3    3    0    0  0.15297176942E+02  0.22872377575E+02  0.13680087204E+02  0.30729368111E+02  0.51100000000E-03 0.  1.
        -12    1    3    3    0    0  0.72711778012E+01  0.45790392523E+01  0.57709104823E+00  0.86122390334E+01  0.00000000000E+00 0.  1.
</event>
<event>
 7    1  0.1445801E-008  0.4614232E+02  0.7816164E-02  0.1320468E+00
        -11   -1    0    0    0    0  0.00000000000E+00  0.00000000000E+00  0.45593999997E+02  0.45594000000E+02  0.51100000000E-03 0.  1.
         11   -1    0    0    0    0 -0.00000000000E+00 -0.00000000000E+00 -0.45593999997E+02  0.45594000000E+02  0.51100000000E-03 0. -1.
    9900012    2    1    2    0    0  0.20724370678E+02 -0.28770676946E+02  0.27782403698E+02  0.46142319328E+02  0.10000014291E+02 0.  0.
         12    1    1    2    0    0 -0.20724370678E+02  0.28770676946E+02 -0.27782403698E+02  0.45045680672E+02  0.00000000000E+00 0. -1.
         11    1    3    3    0    0  0.14597751614E+02 -0.13202758898E+02  0.16063754106E+02  0.25405735394E+02  0.51100000000E-03 0. -1.
        -11    1    3    3    0    0  0.54442749477E+01 -0.11196890432E+02  0.10078660607E+02  0.16018423298E+02  0.51100000000E-03 0.  1.
         12    1    3    3    0    0  0.68234411593E+00 -0.43710276163E+01  0.16399889850E+01  0.47181606359E+01  0.00000000000E+00 0. -1.
</event>
<event>
 7    1  0.1445801E-008  0.4614232E+02  0.7816164E-02  0.1320468E+00
        -11   -1    0    0    0    0  0.00000000000E+00  0.00000000000E+00  0.45593999997E+02  0.45594000000E+02  0.51100000000E-03 0.  1.
         11   -1    0    0    0    0 -0.00000000000E+00 -0.00000000000E+00 -0.45593999997E+02  0.45594000000E+02  0.51100000000E-03 0. -1.
    9900012    2    1    2    0    0 -0.27734230396E+02 -0.31407212601E+02  0.16538226908E+02  0.46142317762E+02  0.10000000011E+02 0.  0.
         12    1    1    2    0    0  0.27734230396E+02  0.31407212601E+02 -0.16538226908E+02  0.45045682238E+02  0.00000000000E+00 0. -1.
         11    1    3    3    0    0 -0.57857231466E+01 -0.12504430308E+02  0.74659138901E+01  0.15670840441E+02  0.51100000000E-03 0. -1.
        -11    1    3    3    0    0 -0.19079785041E+02 -0.15215221853E+02  0.72659952662E+01  0.25462440195E+02  0.51100000000E-03 0.  1.
        -12    1    3    3    0    0 -0.28687222084E+01 -0.36875604399E+01  0.18063177517E+01  0.50090371257E+01  0.00000000000E+00 0.  1.
</event>
<event>
 7    1  0.1445801E-008  0.4614232E+02  0.7816164E-02  0.1320468E+00
        -11   -1    0    0    0    0  0.00000000000E+00  0.00000000000E+00  0.45593999997E+02  0.45594000000E+02  0.51100000000E-03 0.  1.
         11   -1    0    0    0    0 -0.00000000000E+00 -0.00000000000E+00 -0.45593999997E+02  0.45594000000E+02  0.51100000000E-03 0. -1.
    9900012    2    1    2    0    0  0.40254580876E+02 -0.45737266977E-01  0.20215835532E+02  0.46142318968E+02  0.10000011003E+02 0.  0.
         12    1    1    2    0    0 -0.40254580876E+02  0.45737266977E-01 -0.20215835532E+02  0.45045681032E+02  0.00000000000E+00 0. -1.
         11    1    3    3    0    0  0.35238231682E+01 -0.13064291077E+01  0.39866595104E+01  0.54788266122E+01  0.51100000000E-03 0. -1.
        -11    1    3    3    0    0  0.35032071648E+02  0.14365434528E+01  0.13768007414E+02  0.37667860696E+02  0.51100000000E-03 0.  1.
        -12    1    3    3    0    0  0.16986860598E+01 -0.17585161212E+00  0.24611686083E+01  0.29956316592E+01  0.00000000000E+00 0.  1.
</event>
<event>
 7    1  0.1445801E-008  0.4614232E+02  0.7816164E-02  0.1320468E+00
        -11   -1    0    0    0    0  0.00000000000E+00  0.00000000000E+00  0.45593999997E+02  0.45594000000E+02  0.51100000000E-03 0.  1.
         11   -1    0    0    0    0 -0.00000000000E+00 -0.00000000000E+00 -0.45593999997E+02  0.45594000000E+02  0.51100000000E-03 0. -1.
    9900012    2    1    2    0    0 -0.28663502709E+02 -0.21952911757E+02  0.26936719604E+02  0.46142316686E+02  0.99999901964E+01 0.  0.
         12    1    1    2    0    0  0.28663502709E+02  0.21952911757E+02 -0.26936719604E+02  0.45045683314E+02  0.00000000000E+00 0. -1.
         11    1    3    3    0    0 -0.15961891854E+01 -0.11429004893E+00 -0.55073487307E-01  0.16012231203E+01  0.51100000000E-03 0. -1.
        -11    1    3    3    0    0 -0.11718702912E+02 -0.66643610163E+01  0.73313363142E+01  0.15345689887E+02  0.51100000000E-03 0.  1.
        -12    1    3    3    0    0 -0.15348610612E+02 -0.15174260692E+02  0.19660456778E+02  0.29195403679E+02  0.00000000000E+00 0.  1.
</event>
<event>
 7    1  0.1445801E-008  0.4614232E+02  0.7816164E-02  0.1320468E+00
        -11   -1    0    0    0    0  0.00000000000E+00  0.00000000000E+00  0.45593999997E+02  0.45594000000E+02  0.51100000000E-03 0.  1.
         11   -1    0    0    0    0 -0.00000000000E+00 -0.00000000000E+00 -0.45593999997E+02  0.45594000000E+02  0.51100000000E-03 0. -1.
    9900012    2    1    2    0    0  0.18941777502E+02 -0.28037193982E+02  0.29736145575E+02  0.46142317244E+02  0.99999952878E+01 0.  0.
         12    1    1    2    0    0 -0.18941777502E+02  0.28037193982E+02 -0.29736145575E+02  0.45045682756E+02  0.00000000000E+00 0. -1.
         11    1    3    3    0    0  0.67236234760E+01 -0.53140726153E+01  0.97114968784E+01  0.12952206464E+02  0.51100000000E-03 0. -1.
        -11    1    3    3    0    0  0.77341111222E+01 -0.14527780798E+02  0.16206439092E+02  0.23098085593E+02  0.51100000000E-03 0.  1.
        -12    1    3    3    0    0  0.44840429037E+01 -0.81953405688E+01  0.38182096039E+01  0.10092025187E+02  0.00000000000E+00 0.  1.
</event>
<event>
 7    1  0.1445801E-008  0.4614232E+02  0.7816164E-02  0.1320468E+00
        -11   -1    0    0    0    0  0.00000000000E+00  0.00000000000E+00  0.45593999997E+02  0.45594000000E+02  0.51100000000E-03 0.  1.
         11   -1    0    0    0    0 -0.00000000000E+00 -0.00000000000E+00 -0.45593999997E+02  0.45594000000E+02  0.51100000000E-03 0. -1.
    9900012    2    1    2    0    0  0.79069338747E+01 -0.32284451279E+02  0.30402437975E+02  0.46142316161E+02  0.99999854071E+01 0.  0.
         12    1    1    2    0    0 -0.79069338747E+01  0.32284451279E+02 -0.30402437975E+02  0.45045683839E+02  0.00000000000E+00 0. -1.
         11    1    3    3    0    0  0.22905004418E+01 -0.77592468918E+01  0.30975838900E+01  0.86629862529E+01  0.51100000000E-03 0. -1.
        -11    1    3    3    0    0  0.57161866283E+01 -0.23647619609E+02  0.27337610495E+02  0.36595486751E+02  0.51100000000E-03 0.  1.
        -12    1    3    3    0    0 -0.99753195403E-01 -0.87758477833E+00 -0.32756409274E-01  0.88384315662E+00  0.00000000000E+00 0.  1.
</event>
<event>
 7    1  0.1445801E-008  0.4614232E+02  0.7816164E-02  0.1320468E+00
        -11   -1    0    0    0    0  0.00000000000E+00  0.00000000000E+00  0.45593999997E+02  0.45594000000E+02  0.51100000000E-03 0.  1.
         11   -1    0    0    0    0 -0.00000000000E+00 -0.00000000000E+00 -0.45593999997E+02  0.45594000000E+02  0.51100000000E-03 0. -1.
    9900012    2    1    2    0    0 -0.13384711229E+02 -0.28395720369E+02  0.32305508532E+02  0.46142319724E+02  0.10000017900E+02 0.  0.
         12    1    1    2    0    0  0.13384711229E+02  0.28395720369E+02 -0.32305508532E+02  0.45045680276E+02  0.00000000000E+00 0. -1.
         11    1    3    3    0    0 -0.23562859591E+00 -0.87995510742E+01  0.10920326687E+02  0.14026444851E+02  0.51100000000E-03 0.  1.
        -11    1    3    3    0    0 -0.18067251032E+01 -0.48229687899E+01  0.30787907961E+01  0.60003530375E+01  0.51100000000E-03 0. -1.
         12    1    3    3    0    0 -0.11342357530E+02 -0.14773200505E+02  0.18306391050E+02  0.26115521836E+02  0.00000000000E+00 0. -1.
</event>
<event>
 7    1  0.1445801E-008  0.4614232E+02  0.7816164E-02  0.1320468E+00
        -11   -1    0    0    0    0  0.00000000000E+00  0.00000000000E+00  0.45593999997E+02  0.45594000000E+02  0.51100000000E-03 0. -1.
         11   -1    0    0    0    0 -0.00000000000E+00 -0.00000000000E+00 -0.45593999997E+02  0.45594000000E+02  0.51100000000E-03 0.  1.
    9900012    2    1    2    0    0  0.42685625000E+01 -0.36556630530E+02 -0.25971246069E+02  0.46142317811E+02  0.10000000451E+02 0.  0.
         12    1    1    2    0    0 -0.42685625000E+01  0.36556630530E+02  0.25971246069E+02  0.45045682189E+02  0.00000000000E+00 0. -1.
         11    1    3    3    0    0 -0.21264609625E+00 -0.44542391866E+00  0.20210871111E+00  0.53335637410E+00  0.51100000000E-03 0. -1.
        -11    1    3    3    0    0  0.43702562976E+01 -0.81932659733E+01 -0.83383390796E+01  0.12480250249E+02  0.51100000000E-03 0.  1.
        -12    1    3    3    0    0  0.11095229866E+00 -0.27917940638E+02 -0.17835015701E+02  0.33128711187E+02  0.00000000000E+00 0.  1.
</event>
<event>
 7    1  0.1445801E-008  0.4614232E+02  0.7816164E-02  0.1320468E+00
        -11   -1    0    0    0    0  0.00000000000E+00  0.00000000000E+00  0.45593999997E+02  0.45594000000E+02  0.51100000000E-03 0.  1.
         11   -1    0    0    0    0 -0.00000000000E+00 -0.00000000000E+00 -0.45593999997E+02  0.45594000000E+02  0.51100000000E-03 0. -1.
    9900012    2    1    2    0    0  0.26699783620E+02 -0.17084610084E+01  0.36239704828E+02  0.46142317738E+02  0.99999997920E+01 0.  0.
         12    1    1    2    0    0 -0.26699783620E+02  0.17084610084E+01 -0.36239704828E+02  0.45045682262E+02  0.00000000000E+00 0. -1.
         11    1    3    3    0    0  0.26374046778E-01 -0.11992448620E+01  0.18849272375E+01  0.22342414331E+01  0.51100000000E-03 0. -1.
        -11    1    3    3    0    0  0.26060188917E+02 -0.29286654739E-01  0.34365713613E+02  0.43129300672E+02  0.51100000000E-03 0.  1.
        -12    1    3    3    0    0  0.61322065603E+00 -0.47992949165E+00 -0.10936021816E-01  0.77877563297E+00  0.00000000000E+00 0.  1.
</event>
<event>
 7    1  0.1445801E-008  0.4614232E+02  0.7816164E-02  0.1320468E+00
        -11   -1    0    0    0    0  0.00000000000E+00  0.00000000000E+00  0.45593999997E+02  0.45594000000E+02  0.51100000000E-03 0.  1.
         11   -1    0    0    0    0 -0.00000000000E+00 -0.00000000000E+00 -0.45593999997E+02  0.45594000000E+02  0.51100000000E-03 0. -1.
    9900012    2    1    2    0    0  0.39562720913E+02 -0.69422920942E+01  0.20388935148E+02  0.46142323381E+02  0.10000051247E+02 0.  0.
         12    1    1    2    0    0 -0.39562720913E+02  0.69422920942E+01 -0.20388935148E+02  0.45045676619E+02  0.00000000000E+00 0. -1.
         11    1    3    3    0    0  0.29137799187E+02 -0.57420792607E+01  0.16643815618E+02  0.34044080459E+02  0.51100000000E-03 0. -1.
        -11    1    3    3    0    0  0.89417532467E+01 -0.18083867960E+01  0.13586985647E+01  0.92234091300E+01  0.51100000000E-03 0.  1.
         12    1    3    3    0    0  0.14831684793E+01  0.60817396249E+00  0.23864209655E+01  0.28748337919E+01  0.00000000000E+00 0. -1.
</event>
<event>
 7    1  0.1445801E-008  0.4614232E+02  0.7816164E-02  0.1320468E+00
        -11   -1    0    0    0    0  0.00000000000E+00  0.00000000000E+00  0.45593999997E+02  0.45594000000E+02  0.51100000000E-03 0. -1.
         11   -1    0    0    0    0 -0.00000000000E+00 -0.00000000000E+00 -0.45593999997E+02  0.45594000000E+02  0.51100000000E-03 0.  1.
    9900012    2    1    2    0    0 -0.44014387958E+02  0.77554758977E+01 -0.56302519877E+01  0.46142317730E+02  0.99999997190E+01 0.  0.
         12    1    1    2    0    0  0.44014387958E+02 -0.77554758977E+01  0.56302519877E+01  0.45045682270E+02  0.00000000000E+00 0. -1.
         11    1    3    3    0    0 -0.32180853040E+01 -0.93033653035E+00 -0.18915109904E+01  0.38470005421E+01  0.51100000000E-03 0. -1.
        -11    1    3    3    0    0 -0.13470762048E+02  0.43435213266E+01  0.11420583760E+01  0.14199714971E+02  0.51100000000E-03 0.  1.
        -12    1    3    3    0    0 -0.27325540606E+02  0.43422911014E+01 -0.48807993734E+01  0.28095602217E+02  0.00000000000E+00 0.  1.
</event>
<event>
 7    1  0.1445801E-008  0.4614232E+02  0.7816164E-02  0.1320468E+00
        -11   -1    0    0    0    0  0.00000000000E+00  0.00000000000E+00  0.45593999997E+02  0.45594000000E+02  0.51100000000E-03 0. -1.
         11   -1    0    0    0    0 -0.00000000000E+00 -0.00000000000E+00 -0.45593999997E+02  0.45594000000E+02  0.51100000000E-03 0.  1.
    9900012    2    1    2    0    0 -0.29230714164E+02  0.34048565998E+02 -0.39209711436E+01  0.46142317501E+02  0.99999976326E+01 0.  0.
         12    1    1    2    0    0  0.29230714164E+02 -0.34048565998E+02  0.39209711436E+01  0.45045682499E+02  0.00000000000E+00 0. -1.
         11    1    3    3    0    0 -0.13260984213E+00  0.10610251486E+01 -0.14023812739E+01  0.17635286317E+01  0.51100000000E-03 0. -1.
        -11    1    3    3    0    0 -0.18254146523E+02  0.16705655517E+02 -0.14756807694E+01  0.24788513984E+02  0.51100000000E-03 0.  1.
        -12    1    3    3    0    0 -0.10843957799E+02  0.16281885332E+02 -0.10429091003E+01  0.19590274886E+02  0.00000000000E+00 0.  1.
</event>
<event>
 7    1  0.1445801E-008  0.4614232E+02  0.7816164E-02  0.1320468E+00
        -11   -1    0    0    0    0  0.00000000000E+00  0.00000000000E+00  0.45593999997E+02  0.45594000000E+02  0.51100000000E-03 0.  1.
         11   -1    0    0    0    0 -0.00000000000E+00 -0.00000000000E+00 -0.45593999997E+02  0.45594000000E+02  0.51100000000E-03 0. -1.
    9900012    2    1    2    0    0  0.39903949134E+02  0.16294480140E+00  0.20898844955E+02  0.46142318432E+02  0.10000006118E+02 0.  0.
         12    1    1    2    0    0 -0.39903949134E+02 -0.16294480140E+00 -0.20898844955E+02  0.45045681568E+02  0.00000000000E+00 0. -1.
         11    1    3    3    0    0  0.33632329014E+02 -0.13490425903E+01  0.20163224308E+02  0.39236578413E+02  0.51100000000E-03 0.  1.
        -11    1    3    3    0    0  0.30421638126E+01  0.19331985519E+01  0.52052789182E+00  0.36418356431E+01  0.51100000000E-03 0. -1.
         12    1    3    3    0    0  0.32294563073E+01 -0.42121116013E+00  0.21509275478E+00  0.32639043760E+01  0.00000000000E+00 0. -1.
</event>
<event>
 7    1  0.1445801E-008  0.4614232E+02  0.7816164E-02  0.1320468E+00
        -11   -1    0    0    0    0  0.00000000000E+00  0.00000000000E+00  0.45593999997E+02  0.45594000000E+02  0.51100000000E-03 0.  1.
         11   -1    0    0    0    0 -0.00000000000E+00 -0.00000000000E+00 -0.45593999997E+02  0.45594000000E+02  0.51100000000E-03 0. -1.
    9900012    2    1    2    0    0  0.20839199889E+02 -0.38547631707E+02  0.10436537596E+02  0.46142317863E+02  0.10000000926E+02 0.  0.
         12    1    1    2    0    0 -0.20839199889E+02  0.38547631707E+02 -0.10436537596E+02  0.45045682137E+02  0.00000000000E+00 0. -1.
         11    1    3    3    0    0  0.70074148890E+00 -0.47663699927E+01 -0.19524386868E+00  0.48215601180E+01  0.51100000000E-03 0. -1.
        -11    1    3    3    0    0  0.19763869605E+02 -0.33018800228E+02  0.11441954966E+02  0.40146855966E+02  0.51100000000E-03 0.  1.
        -12    1    3    3    0    0  0.37458879492E+00 -0.76246148593E+00 -0.81017350141E+00  0.11739017783E+01  0.00000000000E+00 0.  1.
</event>
<event>
 7    1  0.1516896E-008  0.4614232E+02  0.7816164E-02  0.1320468E+00
        -11   -1    0    0    0    0  0.00000000000E+00  0.00000000000E+00  0.45593999997E+02  0.45594000000E+02  0.51100000000E-03 0.  1.
         11   -1    0    0    0    0 -0.00000000000E+00 -0.00000000000E+00 -0.45593999997E+02  0.45594000000E+02  0.51100000000E-03 0. -1.
    9900012    2    1    2    0    0 -0.77926564914E+01 -0.44360119161E+02  0.75358892653E+00  0.46142316928E+02  0.99999924034E+01 0.  0.
         12    1    1    2    0    0  0.77926564914E+01  0.44360119161E+02 -0.75358892653E+00  0.45045683072E+02  0.00000000000E+00 0. -1.
         11    1    3    3    0    0 -0.69530330484E+01 -0.28601866343E+02  0.32338357530E+01  0.29611975970E+02  0.51100000000E-03 0. -1.
        -11    1    3    3    0    0 -0.18191723643E+01 -0.13865137359E+02 -0.11803052243E+01  0.14033693127E+02  0.51100000000E-03 0.  1.
         12    1    3    3    0    0  0.97954892131E+00 -0.18931154578E+01 -0.12999416022E+01  0.24966478316E+01  0.00000000000E+00 0. -1.
</event>
<event>
 7    1  0.1445801E-008  0.4614232E+02  0.7816164E-02  0.1320468E+00
        -11   -1    0    0    0    0  0.00000000000E+00  0.00000000000E+00  0.45593999997E+02  0.45594000000E+02  0.51100000000E-03 0.  1.
         11   -1    0    0    0    0 -0.00000000000E+00 -0.00000000000E+00 -0.45593999997E+02  0.45594000000E+02  0.51100000000E-03 0. -1.
    9900012    2    1    2    0    0 -0.39430027457E+02 -0.20697868942E+02  0.67811971790E+01  0.46142317863E+02  0.10000000932E+02 0.  0.
         12    1    1    2    0    0  0.39430027457E+02  0.20697868942E+02 -0.67811971790E+01  0.45045682137E+02  0.00000000000E+00 0. -1.
         11    1    3    3    0    0 -0.24558295257E+02 -0.11894286636E+02  0.50261413287E+01  0.27746099139E+02  0.51100000000E-03 0. -1.
        -11    1    3    3    0    0 -0.14000657577E+02 -0.66725672357E+01  0.29729181078E+01  0.15791763943E+02  0.51100000000E-03 0.  1.
         12    1    3    3    0    0 -0.87107462280E+00 -0.21310150705E+01 -0.12178622575E+01  0.26044547812E+01  0.00000000000E+00 0. -1.
</event>
<event>
 7    1  0.1445801E-008  0.4614232E+02  0.7816164E-02  0.1320468E+00
        -11   -1    0    0    0    0  0.00000000000E+00  0.00000000000E+00  0.45593999997E+02  0.45594000000E+02  0.51100000000E-03 0.  1.
         11   -1    0    0    0    0 -0.00000000000E+00 -0.00000000000E+00 -0.45593999997E+02  0.45594000000E+02  0.51100000000E-03 0. -1.
    9900012    2    1    2    0    0  0.24119905311E+02 -0.24516817914E+01  0.37964886874E+02  0.46142320837E+02  0.10000028053E+02 0.  0.
         12    1    1    2    0    0 -0.24119905311E+02  0.24516817914E+01 -0.37964886874E+02  0.45045679163E+02  0.00000000000E+00 0. -1.
         11    1    3    3    0    0  0.33687825170E-04  0.11409443528E+01  0.14315815932E+01  0.18306228821E+01  0.51100000000E-03 0. -1.
        -11    1    3    3    0    0  0.14405290823E+02 -0.40544086965E+01  0.18236315304E+02  0.23590545346E+02  0.51100000000E-03 0.  1.
        -12    1    3    3    0    0  0.97145807999E+01  0.46178255236E+00  0.18296989977E+02  0.20721152610E+02  0.00000000000E+00 0.  1.
</event>
<event>
 7    1  0.1445801E-008  0.4614232E+02  0.7816164E-02  0.1320468E+00
        -11   -1    0    0    0    0  0.00000000000E+00  0.00000000000E+00  0.45593999997E+02  0.45594000000E+02  0.51100000000E-03 0. -1.
         11   -1    0    0    0    0 -0.00000000000E+00 -0.00000000000E+00 -0.45593999997E+02  0.45594000000E+02  0.51100000000E-03 0.  1.
    9900012    2    1    2    0    0  0.41688651509E+01  0.44299370451E+02 -0.70213918980E+01  0.46142316487E+02  0.99999883821E+01 0.  0.
         12    1    1    2    0    0 -0.41688651509E+01 -0.44299370451E+02  0.70213918980E+01  0.45045683513E+02  0.00000000000E+00 0. -1.
         11    1    3    3    0    0  0.42468093738E+01  0.14761962613E+02  0.13370463920E+01  0.15418775028E+02  0.51100000000E-03 0. -1.
        -11    1    3    3    0    0 -0.60475683218E+00  0.20879851881E+02 -0.57224027039E+01  0.21658251046E+02  0.51100000000E-03 0.  1.
         12    1    3    3    0    0  0.52681260928E+00  0.86575559562E+01 -0.26360355861E+01  0.90652904130E+01  0.00000000000E+00 0. -1.
</event>
<event>
 7    1  0.1445801E-008  0.4614232E+02  0.7816164E-02  0.1320468E+00
        -11   -1    0    0    0    0  0.00000000000E+00  0.00000000000E+00  0.45593999997E+02  0.45594000000E+02  0.51100000000E-03 0. -1.
         11   -1    0    0    0    0 -0.00000000000E+00 -0.00000000000E+00 -0.45593999997E+02  0.45594000000E+02  0.51100000000E-03 0.  1.
    9900012    2    1    2    0    0  0.36008043528E+02 -0.66506190117E+01 -0.26235539384E+02  0.46142318090E+02  0.10000003002E+02 0.  0.
         12    1    1    2    0    0 -0.36008043528E+02  0.66506190117E+01  0.26235539384E+02  0.45045681910E+02  0.00000000000E+00 0. -1.
         11    1    3    3    0    0  0.58612243917E+01  0.13403674501E+01 -0.27418910703E+01  0.66082148250E+01  0.51100000000E-03 0. -1.
        -11    1    3    3    0    0  0.12583524802E+02 -0.91248149992E+00 -0.11822965225E+02  0.17290466330E+02  0.51100000000E-03 0.  1.
         12    1    3    3    0    0  0.17563294334E+02 -0.70785049619E+01 -0.11670683088E+02  0.22243636935E+02  0.00000000000E+00 0. -1.
</event>
<event>
 7    1  0.1445801E-008  0.4614232E+02  0.7816164E-02  0.1320468E+00
        -11   -1    0    0    0    0  0.00000000000E+00  0.00000000000E+00  0.45593999997E+02  0.45594000000E+02  0.51100000000E-03 0.  1.
         11   -1    0    0    0    0 -0.00000000000E+00 -0.00000000000E+00 -0.45593999997E+02  0.45594000000E+02  0.51100000000E-03 0. -1.
    9900012    2    1    2    0    0 -0.65715499716E+01  0.41603061060E+02  0.15972274696E+02  0.46142317437E+02  0.99999970479E+01 0.  0.
         12    1    1    2    0    0  0.65715499716E+01 -0.41603061060E+02 -0.15972274696E+02  0.45045682563E+02  0.00000000000E+00 0. -1.
         11    1    3    3    0    0  0.36436164424E+00  0.73627936563E+00 -0.72251590922E+00  0.10940275190E+01  0.51100000000E-03 0. -1.
        -11    1    3    3    0    0 -0.14549136925E+01  0.25205277423E+02  0.99735550150E+01  0.27145802322E+02  0.51100000000E-03 0.  1.
        -12    1    3    3    0    0 -0.54809979234E+01  0.15661504271E+02  0.67212355906E+01  0.17902487596E+02  0.00000000000E+00 0.  1.
</event>
<event>
 7    1  0.1445801E-008  0.4614232E+02  0.7816164E-02  0.1320468E+00
        -11   -1    0    0    0    0  0.00000000000E+00  0.00000000000E+00  0.45593999997E+02  0.45594000000E+02  0.51100000000E-03 0.  1.
         11   -1    0    0    0    0 -0.00000000000E+00 -0.00000000000E+00 -0.45593999997E+02  0.45594000000E+02  0.51100000000E-03 0. -1.
    9900012    2    1    2    0    0  0.29535964091E+01  0.21381497359E+02  0.39537594035E+02  0.46142317597E+02  0.99999985031E+01 0.  0.
         12    1    1    2    0    0 -0.29535964091E+01 -0.21381497359E+02 -0.39537594035E+02  0.45045682403E+02  0.00000000000E+00 0. -1.
         11    1    3    3    0    0  0.17825246048E+01  0.26284462204E+01  0.13647564428E+01  0.34566868399E+01  0.51100000000E-03 0. -1.
        -11    1    3    3    0    0  0.18998646829E+01  0.14318526047E+02  0.31326764725E+02  0.34496316649E+02  0.51100000000E-03 0.  1.
         12    1    3    3    0    0 -0.72879287861E+00  0.44345250922E+01  0.68460728678E+01  0.81893141083E+01  0.00000000000E+00 0. -1.
</event>
<event>
 7    1  0.1445801E-008  0.4614232E+02  0.7816164E-02  0.1320468E+00
        -11   -1    0    0    0    0  0.00000000000E+00  0.00000000000E+00  0.45593999997E+02  0.45594000000E+02  0.51100000000E-03 0. -1.
         11   -1    0    0    0    0 -0.00000000000E+00 -0.00000000000E+00 -0.45593999997E+02  0.45594000000E+02  0.51100000000E-03 0.  1.
    9900012    2    1    2    0    0  0.36061139612E+02  0.20033325472E+02  0.18093467347E+02  0.46142317851E+02  0.10000000823E+02 0.  0.
         12    1    1    2    0    0 -0.36061139612E+02 -0.20033325472E+02 -0.18093467347E+02  0.45045682149E+02  0.00000000000E+00 0. -1.
         11    1    3    3    0    0  0.10861841298E+02  0.89214054938E+01  0.39080822838E+01  0.14589180230E+02  0.51100000000E-03 0. -1.
        -11    1    3    3    0    0  0.11238377528E+02  0.82286721481E+01  0.70832010791E+01  0.15626385141E+02  0.51100000000E-03 0.  1.
         12    1    3    3    0    0  0.13960920785E+02  0.28832478297E+01  0.71021839844E+01  0.15926752480E+02  0.00000000000E+00 0. -1.
</event>
<event>
 7    1  0.1445801E-008  0.4614232E+02  0.7816164E-02  0.1320468E+00
        -11   -1    0    0    0    0  0.00000000000E+00  0.00000000000E+00  0.45593999997E+02  0.45594000000E+02  0.51100000000E-03 0.  1.
         11   -1    0    0    0    0 -0.00000000000E+00 -0.00000000000E+00 -0.45593999997E+02  0.45594000000E+02  0.51100000000E-03 0. -1.
    9900012    2    1    2    0    0  0.36455086608E+02 -0.45888772519E+01  0.26059204043E+02  0.46142320414E+02  0.10000024189E+02 0.  0.
         12    1    1    2    0    0 -0.36455086608E+02  0.45888772519E+01 -0.26059204043E+02  0.45045679586E+02  0.00000000000E+00 0. -1.
         11    1    3    3    0    0  0.35400717840E-01  0.77222500040E+00  0.55506234665E+00  0.95167175636E+00  0.51100000000E-03 0. -1.
        -11    1    3    3    0    0  0.31446747280E+02 -0.27010030538E+01  0.22799264097E+02  0.38935841786E+02  0.51100000000E-03 0.  1.
         12    1    3    3    0    0  0.49729386098E+01 -0.26600991986E+01  0.27048775998E+01  0.62548068710E+01  0.00000000000E+00 0. -1.
</event>
<event>
 7    1  0.1445801E-008  0.4614232E+02  0.7816164E-02  0.1320468E+00
        -11   -1    0    0    0    0  0.00000000000E+00  0.00000000000E+00  0.45593999997E+02  0.45594000000E+02  0.51100000000E-03 0.  1.
         11   -1    0    0    0    0 -0.00000000000E+00 -0.00000000000E+00 -0.45593999997E+02  0.45594000000E+02  0.51100000000E-03 0. -1.
    9900012    2    1    2    0    0 -0.20209639342E+02 -0.22309299153E+02  0.33510879862E+02  0.46142318518E+02  0.10000006903E+02 0.  0.
         12    1    1    2    0    0  0.20209639342E+02  0.22309299153E+02 -0.33510879862E+02  0.45045681482E+02  0.00000000000E+00 0. -1.
         11    1    3    3    0    0 -0.79465936153E+01 -0.64661440185E+01  0.97436674802E+01  0.14138543941E+02  0.51100000000E-03 0. -1.
        -11    1    3    3    0    0 -0.12007939807E+02 -0.10126029938E+02  0.17628830797E+02  0.23611496696E+02  0.51100000000E-03 0.  1.
         12    1    3    3    0    0 -0.25510592024E+00 -0.57171251966E+01  0.61383815853E+01  0.83922778809E+01  0.00000000000E+00 0. -1.
</event>
<event>
 7    1  0.1445801E-008  0.4614232E+02  0.7816164E-02  0.1320468E+00
        -11   -1    0    0    0    0  0.00000000000E+00  0.00000000000E+00  0.45593999997E+02  0.45594000000E+02  0.51100000000E-03 0.  1.
         11   -1    0    0    0    0 -0.00000000000E+00 -0.00000000000E+00 -0.45593999997E+02  0.45594000000E+02  0.51100000000E-03 0. -1.
    9900012    2    1    2    0    0 -0.15180033900E+02  0.23562998024E+02  0.35262802294E+02  0.46142317291E+02  0.99999957173E+01 0.  0.
         12    1    1    2    0    0  0.15180033900E+02 -0.23562998024E+02 -0.35262802294E+02  0.45045682709E+02  0.00000000000E+00 0. -1.
         11    1    3    3    0    0 -0.47598656006E+01  0.10638779607E+02  0.15470908479E+02  0.19369795081E+02  0.51100000000E-03 0. -1.
        -11    1    3    3    0    0 -0.92881859972E+01  0.68740691797E+01  0.15198555606E+02  0.19092389033E+02  0.51100000000E-03 0.  1.
        -12    1    3    3    0    0 -0.11319823021E+01  0.60501492372E+01  0.45933382084E+01  0.76801331773E+01  0.00000000000E+00 0.  1.
</event>
<event>
 7    1  0.1445801E-008  0.4614232E+02  0.7816164E-02  0.1320468E+00
        -11   -1    0    0    0    0  0.00000000000E+00  0.00000000000E+00  0.45593999997E+02  0.45594000000E+02  0.51100000000E-03 0.  1.
         11   -1    0    0    0    0 -0.00000000000E+00 -0.00000000000E+00 -0.45593999997E+02  0.45594000000E+02  0.51100000000E-03 0. -1.
    9900012    2    1    2    0    0  0.26216087309E+02  0.75352069768E+01  0.35847608009E+02  0.46142316767E+02  0.99999909371E+01 0.  0.
         12    1    1    2    0    0 -0.26216087309E+02 -0.75352069768E+01 -0.35847608009E+02  0.45045683233E+02  0.00000000000E+00 0. -1.
         11    1    3    3    0    0  0.98655767547E+01 -0.88340068183E+00  0.13298608928E+02  0.16582008357E+02  0.51100000000E-03 0. -1.
        -11    1    3    3    0    0  0.48576664094E+00  0.36543071511E+00 -0.23578749878E+00  0.65200064624E+00  0.51100000000E-03 0.  1.
        -12    1    3    3    0    0  0.15864743913E+02  0.80531769435E+01  0.22784786579E+02  0.28908307764E+02  0.00000000000E+00 0.  1.
</event>
<event>
 7    1  0.1445801E-008  0.4614232E+02  0.7816164E-02  0.1320468E+00
        -11   -1    0    0    0    0  0.00000000000E+00  0.00000000000E+00  0.45593999997E+02  0.45594000000E+02  0.51100000000E-03 0. -1.
         11   -1    0    0    0    0 -0.00000000000E+00 -0.00000000000E+00 -0.45593999997E+02  0.45594000000E+02  0.51100000000E-03 0.  1.
    9900012    2    1    2    0    0  0.77771134759E+01  0.40378111396E+02 -0.18391249647E+02  0.46142318326E+02  0.10000005151E+02 0.  0.
         12    1    1    2    0    0 -0.77771134759E+01 -0.40378111396E+02  0.18391249647E+02  0.45045681674E+02  0.00000000000E+00 0. -1.
         11    1    3    3    0    0 -0.39724193286E+00  0.21017574014E+01  0.78215873016E+00  0.22774893782E+01  0.51100000000E-03 0. -1.
        -11    1    3    3    0    0  0.21792685577E+01  0.21370019111E+02 -0.11352016225E+02  0.24295991457E+02  0.51100000000E-03 0.  1.
         12    1    3    3    0    0  0.59950868511E+01  0.16906334883E+02 -0.78213921519E+01  0.19568837491E+02  0.00000000000E+00 0. -1.
</event>
<event>
 7    1  0.1445801E-008  0.4614232E+02  0.7816164E-02  0.1320468E+00
        -11   -1    0    0    0    0  0.00000000000E+00  0.00000000000E+00  0.45593999997E+02  0.45594000000E+02  0.51100000000E-03 0. -1.
         11   -1    0    0    0    0 -0.00000000000E+00 -0.00000000000E+00 -0.45593999997E+02  0.45594000000E+02  0.51100000000E-03 0.  1.
    9900012    2    1    2    0    0 -0.27328806709E+02  0.95072158673E+01 -0.34523364278E+02  0.46142317513E+02  0.99999977349E+01 0.  0.
         12    1    1    2    0    0  0.27328806709E+02 -0.95072158673E+01  0.34523364278E+02  0.45045682487E+02  0.00000000000E+00 0. -1.
         11    1    3    3    0    0 -0.75282723070E+01  0.44038758552E+00 -0.37871646180E+01  0.84386871763E+01  0.51100000000E-03 0. -1.
        -11    1    3    3    0    0 -0.18397561781E+02  0.83981079844E+01 -0.29189855277E+02  0.35511211590E+02  0.51100000000E-03 0.  1.
        -12    1    3    3    0    0 -0.14029726210E+01  0.66872029734E+00 -0.15463443824E+01  0.21924187465E+01  0.00000000000E+00 0.  1.
</event>
<event>
 7    1  0.1445801E-008  0.4614232E+02  0.7816164E-02  0.1320468E+00
        -11   -1    0    0    0    0  0.00000000000E+00  0.00000000000E+00  0.45593999997E+02  0.45594000000E+02  0.51100000000E-03 0.  1.
         11   -1    0    0    0    0 -0.00000000000E+00 -0.00000000000E+00 -0.45593999997E+02  0.45594000000E+02  0.51100000000E-03 0. -1.
    9900012    2    1    2    0    0  0.18930741882E+02 -0.39577703469E+02  0.10214982335E+02  0.46142318029E+02  0.10000002446E+02 0.  0.
         12    1    1    2    0    0 -0.18930741882E+02  0.39577703469E+02 -0.10214982335E+02  0.45045681971E+02  0.00000000000E+00 0. -1.
         11    1    3    3    0    0  0.50449502957E+01 -0.98464314577E+01  0.66637223313E+01  0.12915453206E+02  0.51100000000E-03 0. -1.
        -11    1    3    3    0    0  0.76506648951E+01 -0.17756643801E+02  0.28555734545E+00  0.19336820206E+02  0.51100000000E-03 0.  1.
         12    1    3    3    0    0  0.62351266914E+01 -0.11974628210E+02  0.32657026586E+01  0.13890044618E+02  0.00000000000E+00 0. -1.
</event>
<event>
 7    1  0.1445801E-008  0.4614231E+02  0.7816164E-02  0.1320468E+00
        -11   -1    0    0    0    0  0.00000000000E+00  0.00000000000E+00  0.45593999997E+02  0.45594000000E+02  0.51100000000E-03 0.  1.
         11   -1    0    0    0    0 -0.00000000000E+00 -0.00000000000E+00 -0.45593999997E+02  0.45594000000E+02  0.51100000000E-03 0. -1.
    9900012    2    1    2    0    0  0.32640681146E+02  0.27470526421E+02  0.14459268873E+02  0.46142308265E+02  0.99999134057E+01 0.  0.
         12    1    1    2    0    0 -0.32640681146E+02 -0.27470526421E+02 -0.14459268873E+02  0.45045691735E+02  0.00000000000E+00 0. -1.
         11    1    3    3    0    0  0.11679418964E+02  0.46808216073E+01  0.37413135877E+01  0.13126932081E+02  0.51100000000E-03 0. -1.
        -11    1    3    3    0    0  0.43326619036E+01  0.25612308272E+01  0.20091429736E+01  0.54192728544E+01  0.51100000000E-03 0.  1.
         12    1    3    3    0    0  0.16628600279E+02  0.20228473986E+02  0.87088123120E+01  0.27596103329E+02  0.00000000000E+00 0. -1.
</event>
<event>
 7    1  0.1445801E-008  0.4614232E+02  0.7816164E-02  0.1320468E+00
        -11   -1    0    0    0    0  0.00000000000E+00  0.00000000000E+00  0.45593999997E+02  0.45594000000E+02  0.51100000000E-03 0. -1.
         11   -1    0    0    0    0 -0.00000000000E+00 -0.00000000000E+00 -0.45593999997E+02  0.45594000000E+02  0.51100000000E-03 0.  1.
    9900012    2    1    2    0    0  0.30329218464E+02 -0.10164151140E+02 -0.31716589516E+02  0.46142317504E+02  0.99999976538E+01 0.  0.
         12    1    1    2    0    0 -0.30329218464E+02  0.10164151140E+02  0.31716589516E+02  0.45045682496E+02  0.00000000000E+00 0. -1.
         11    1    3    3    0    0  0.53816928816E+01 -0.34555829374E+00 -0.92879005028E+01  0.10739977878E+02  0.51100000000E-03 0. -1.
        -11    1    3    3    0    0  0.13383792937E+02 -0.46098945000E+01 -0.82710641227E+01  0.16394741311E+02  0.51100000000E-03 0.  1.
         12    1    3    3    0    0  0.11563732645E+02 -0.52086983463E+01 -0.14157624891E+02  0.19007598315E+02  0.00000000000E+00 0. -1.
</event>
<event>
 7    1  0.1445801E-008  0.4614232E+02  0.7816164E-02  0.1320468E+00
        -11   -1    0    0    0    0  0.00000000000E+00  0.00000000000E+00  0.45593999997E+02  0.45594000000E+02  0.51100000000E-03 0.  1.
         11   -1    0    0    0    0 -0.00000000000E+00 -0.00000000000E+00 -0.45593999997E+02  0.45594000000E+02  0.51100000000E-03 0. -1.
    9900012    2    1    2    0    0 -0.44218611874E+02  0.67235367453E+01  0.53499460115E+01  0.46142317579E+02  0.99999983421E+01 0.  0.
         12    1    1    2    0    0  0.44218611874E+02 -0.67235367453E+01 -0.53499460115E+01  0.45045682421E+02  0.00000000000E+00 0. -1.
         11    1    3    3    0    0 -0.22857540721E+02  0.21290628018E+01  0.17581757183E+01  0.23023710785E+02  0.51100000000E-03 0. -1.
        -11    1    3    3    0    0 -0.68137742346E+00 -0.85673585283E+00  0.11595760235E+01  0.15946436373E+01  0.51100000000E-03 0.  1.
        -12    1    3    3    0    0 -0.20679693730E+02  0.54512097964E+01  0.24321942697E+01  0.21523963157E+02  0.00000000000E+00 0.  1.
</event>
<event>
 7    1  0.1445801E-008  0.4614232E+02  0.7816164E-02  0.1320468E+00
        -11   -1    0    0    0    0  0.00000000000E+00  0.00000000000E+00  0.45593999997E+02  0.45594000000E+02  0.51100000000E-03 0.  1.
         11   -1    0    0    0    0 -0.00000000000E+00 -0.00000000000E+00 -0.45593999997E+02  0.45594000000E+02  0.51100000000E-03 0. -1.
    9900012    2    1    2    0    0  0.13315684298E+02 -0.33622098314E+02  0.26858154845E+02  0.46142318464E+02  0.10000006407E+02 0.  0.
         12    1    1    2    0    0 -0.13315684298E+02  0.33622098314E+02 -0.26858154845E+02  0.45045681536E+02  0.00000000000E+00 0. -1.
         11    1    3    3    0    0  0.12283732294E+01 -0.78172664654E+00  0.40971419075E+01  0.43481685124E+01  0.51100000000E-03 0. -1.
        -11    1    3    3    0    0  0.11219928114E+02 -0.28751889740E+02  0.20359064569E+02  0.36973631968E+02  0.51100000000E-03 0.  1.
        -12    1    3    3    0    0  0.86738295387E+00 -0.40884819279E+01  0.24019483684E+01  0.48205179834E+01  0.00000000000E+00 0.  1.
</event>
<event>
 7    1  0.1445801E-008  0.4614232E+02  0.7816164E-02  0.1320468E+00
        -11   -1    0    0    0    0  0.00000000000E+00  0.00000000000E+00  0.45593999997E+02  0.45594000000E+02  0.51100000000E-03 0.  1.
         11   -1    0    0    0    0 -0.00000000000E+00 -0.00000000000E+00 -0.45593999997E+02  0.45594000000E+02  0.51100000000E-03 0. -1.
    9900012    2    1    2    0    0  0.25871997388E+02 -0.36869134534E+02 -0.64825515903E+00  0.46142316912E+02  0.99999922580E+01 0.  0.
         12    1    1    2    0    0 -0.25871997388E+02  0.36869134534E+02  0.64825515903E+00  0.45045683088E+02  0.00000000000E+00 0. -1.
         11    1    3    3    0    0  0.27497844080E+01 -0.76042201112E+01 -0.25977801119E+00  0.80903005300E+01  0.51100000000E-03 0. -1.
        -11    1    3    3    0    0  0.11130727419E+02 -0.19328968332E+02  0.15514114676E+01  0.22358644580E+02  0.51100000000E-03 0.  1.
        -12    1    3    3    0    0  0.11991485562E+02 -0.99359460907E+01 -0.19398886155E+01  0.15693371803E+02  0.00000000000E+00 0.  1.
</event>
<event>
 7    1  0.1445801E-008  0.4614232E+02  0.7816164E-02  0.1320468E+00
        -11   -1    0    0    0    0  0.00000000000E+00  0.00000000000E+00  0.45593999997E+02  0.45594000000E+02  0.51100000000E-03 0.  1.
         11   -1    0    0    0    0 -0.00000000000E+00 -0.00000000000E+00 -0.45593999997E+02  0.45594000000E+02  0.51100000000E-03 0. -1.
    9900012    2    1    2    0    0 -0.34322332912E+02 -0.84488607232E+01  0.27923247301E+02  0.46142317367E+02  0.99999964026E+01 0.  0.
         12    1    1    2    0    0  0.34322332912E+02  0.84488607232E+01 -0.27923247301E+02  0.45045682633E+02  0.00000000000E+00 0. -1.
         11    1    3    3    0    0 -0.10682820476E+02 -0.50258815757E+01  0.93262501798E+01  0.15045300981E+02  0.51100000000E-03 0. -1.
        -11    1    3    3    0    0 -0.15880495839E+02  0.11410664527E+01  0.11930593427E+02  0.19895508049E+02  0.51100000000E-03 0.  1.
        -12    1    3    3    0    0 -0.77590165975E+01 -0.45640456002E+01  0.66664036944E+01  0.11201508337E+02  0.00000000000E+00 0.  1.
</event>
<event>
 7    1  0.1445801E-008  0.4614232E+02  0.7816164E-02  0.1320468E+00
        -11   -1    0    0    0    0  0.00000000000E+00  0.00000000000E+00  0.45593999997E+02  0.45594000000E+02  0.51100000000E-03 0.  1.
         11   -1    0    0    0    0 -0.00000000000E+00 -0.00000000000E+00 -0.45593999997E+02  0.45594000000E+02  0.51100000000E-03 0. -1.
    9900012    2    1    2    0    0 -0.31118737092E+02 -0.22124416369E+02  0.23900796855E+02  0.46142315543E+02  0.99999797734E+01 0.  0.
         12    1    1    2    0    0  0.31118737092E+02  0.22124416369E+02 -0.23900796855E+02  0.45045684457E+02  0.00000000000E+00 0. -1.
         11    1    3    3    0    0 -0.13165348796E+02 -0.98396128744E+01  0.10262577332E+02  0.19376916272E+02  0.51100000000E-03 0.  1.
        -11    1    3    3    0    0 -0.89086923037E+01 -0.63956021240E+01  0.11250913143E+02  0.15711510809E+02  0.51100000000E-03 0. -1.
        -12    1    3    3    0    0 -0.90446959925E+01 -0.58892013707E+01  0.23873063798E+01  0.11053888462E+02  0.00000000000E+00 0.  1.
</event>
<event>
 7    1  0.1445801E-008  0.4614232E+02  0.7816164E-02  0.1320468E+00
        -11   -1    0    0    0    0  0.00000000000E+00  0.00000000000E+00  0.45593999997E+02  0.45594000000E+02  0.51100000000E-03 0.  1.
         11   -1    0    0    0    0 -0.00000000000E+00 -0.00000000000E+00 -0.45593999997E+02  0.45594000000E+02  0.51100000000E-03 0. -1.
    9900012    2    1    2    0    0 -0.30092160349E+02  0.24968404196E+02  0.22364126175E+02  0.46142318052E+02  0.10000002656E+02 0.  0.
         12    1    1    2    0    0  0.30092160349E+02 -0.24968404196E+02 -0.22364126175E+02  0.45045681948E+02  0.00000000000E+00 0. -1.
         11    1    3    3    0    0 -0.30962213741E+01 -0.50057668962E+00  0.18646208871E+01  0.36488320232E+01  0.51100000000E-03 0. -1.
        -11    1    3    3    0    0 -0.62900472924E+01  0.43714389148E+01  0.40833989846E+01  0.86803410449E+01  0.51100000000E-03 0.  1.
         12    1    3    3    0    0 -0.20705891682E+02  0.21097541970E+02  0.16416106304E+02  0.33813144984E+02  0.00000000000E+00 0. -1.
</event>
<event>
 7    1  0.1445801E-008  0.4614232E+02  0.7816164E-02  0.1320468E+00
        -11   -1    0    0    0    0  0.00000000000E+00  0.00000000000E+00  0.45593999997E+02  0.45594000000E+02  0.51100000000E-03 0. -1.
         11   -1    0    0    0    0 -0.00000000000E+00 -0.00000000000E+00 -0.45593999997E+02  0.45594000000E+02  0.51100000000E-03 0.  1.
    9900012    2    1    2    0    0  0.22672719089E+02  0.36201985421E+02  0.14299567413E+02  0.46142316883E+02  0.99999919915E+01 0.  0.
         12    1    1    2    0    0 -0.22672719089E+02 -0.36201985421E+02 -0.14299567413E+02  0.45045683117E+02  0.00000000000E+00 0. -1.
         11    1    3    3    0    0  0.39796019216E+01  0.19256740948E+01  0.72540568716E+00  0.44801412752E+01  0.51100000000E-03 0. -1.
        -11    1    3    3    0    0  0.16007180316E+02  0.26629051505E+02  0.12483300470E+02  0.33483861734E+02  0.51100000000E-03 0.  1.
         12    1    3    3    0    0  0.26859368518E+01  0.76472598210E+01  0.10908612552E+01  0.81783138738E+01  0.00000000000E+00 0. -1.
</event>
<event>
 7    1  0.1445801E-008  0.4614232E+02  0.7816164E-02  0.1320468E+00
        -11   -1    0    0    0    0  0.00000000000E+00  0.00000000000E+00  0.45593999997E+02  0.45594000000E+02  0.51100000000E-03 0.  1.
         11   -1    0    0    0    0 -0.00000000000E+00 -0.00000000000E+00 -0.45593999997E+02  0.45594000000E+02  0.51100000000E-03 0. -1.
    9900012    2    1    2    0    0 -0.22034044914E+02  0.33702989850E+02  0.20192148666E+02  0.46142317323E+02  0.99999960035E+01 0.  0.
         12    1    1    2    0    0  0.22034044914E+02 -0.33702989850E+02 -0.20192148666E+02  0.45045682677E+02  0.00000000000E+00 0. -1.
         11    1    3    3    0    0 -0.70240053130E+01  0.56389872980E+01  0.20882537830E+01  0.92463848345E+01  0.51100000000E-03 0. -1.
        -11    1    3    3    0    0 -0.17043884411E+01  0.15940991652E+01  0.35602050405E+00  0.23606869693E+01  0.51100000000E-03 0.  1.
         12    1    3    3    0    0 -0.13305651160E+02  0.26469903387E+02  0.17747874379E+02  0.34535245519E+02  0.00000000000E+00 0. -1.
</event>
<event>
 7    1  0.1445801E-008  0.4614232E+02  0.7816164E-02  0.1320468E+00
        -11   -1    0    0    0    0  0.00000000000E+00  0.00000000000E+00  0.45593999997E+02  0.45594000000E+02  0.51100000000E-03 0. -1.
         11   -1    0    0    0    0 -0.00000000000E+00 -0.00000000000E+00 -0.45593999997E+02  0.45594000000E+02  0.51100000000E-03 0.  1.
    9900012    2    1    2    0    0  0.37129203808E+02  0.29076052723E+01 -0.25339328135E+02  0.46142317696E+02  0.99999994098E+01 0.  0.
         12    1    1    2    0    0 -0.37129203808E+02 -0.29076052723E+01  0.25339328135E+02  0.45045682304E+02  0.00000000000E+00 0. -1.
         11    1    3    3    0    0  0.42757140881E+01  0.11999167522E+01 -0.51360836722E+01  0.67897633924E+01  0.51100000000E-03 0. -1.
        -11    1    3    3    0    0  0.23625110804E+02  0.69036283471E+00 -0.10312599130E+02  0.25787054163E+02  0.51100000000E-03 0.  1.
        -12    1    3    3    0    0  0.92283789165E+01  0.10173256853E+01 -0.98906453325E+01  0.13565500141E+02  0.00000000000E+00 0.  1.
</event>
<event>
 7    1  0.1445801E-008  0.4614232E+02  0.7816164E-02  0.1320468E+00
        -11   -1    0    0    0    0  0.00000000000E+00  0.00000000000E+00  0.45593999997E+02  0.45594000000E+02  0.51100000000E-03 0.  1.
         11   -1    0    0    0    0 -0.00000000000E+00 -0.00000000000E+00 -0.45593999997E+02  0.45594000000E+02  0.51100000000E-03 0. -1.
    9900012    2    1    2    0    0  0.39241714764E+01 -0.19290360210E+01  0.44832948051E+02  0.46142317269E+02  0.99999955143E+01 0.  0.
         12    1    1    2    0    0 -0.39241714764E+01  0.19290360210E+01 -0.44832948051E+02  0.45045682731E+02  0.00000000000E+00 0. -1.
         11    1    3    3    0    0  0.26504603724E+01 -0.27839086873E+01  0.29557225593E+02  0.29806118043E+02  0.51100000000E-03 0.  1.
        -11    1    3    3    0    0  0.20217682009E+00  0.75005863621E+00 -0.21663927150E+00  0.80647148704E+00  0.51100000000E-03 0. -1.
         12    1    3    3    0    0  0.10715342839E+01  0.10481403007E+00  0.15492361730E+02  0.15529727740E+02  0.00000000000E+00 0. -1.
</event>
<event>
 7    1  0.1445801E-008  0.4614232E+02  0.7816164E-02  0.1320468E+00
        -11   -1    0    0    0    0  0.00000000000E+00  0.00000000000E+00  0.45593999997E+02  0.45594000000E+02  0.51100000000E-03 0.  1.
         11   -1    0    0    0    0 -0.00000000000E+00 -0.00000000000E+00 -0.45593999997E+02  0.45594000000E+02  0.51100000000E-03 0. -1.
    9900012    2    1    2    0    0  0.44259307344E+02 -0.43115742834E+01  0.71859214597E+01  0.46142318446E+02  0.10000006248E+02 0.  0.
         12    1    1    2    0    0 -0.44259307344E+02  0.43115742834E+01 -0.71859214597E+01  0.45045681554E+02  0.00000000000E+00 0. -1.
         11    1    3    3    0    0  0.24666574852E+02  0.78261591410E+00  0.64194581998E+01  0.25500232282E+02  0.51100000000E-03 0. -1.
        -11    1    3    3    0    0  0.11613798153E+02 -0.45388689287E+01  0.17196654253E+01  0.12587251016E+02  0.51100000000E-03 0.  1.
         12    1    3    3    0    0  0.79789343396E+01 -0.55532126874E+00 -0.95320216532E+00  0.80548351489E+01  0.00000000000E+00 0. -1.
</event>
<event>
 7    1  0.1445801E-008  0.4614232E+02  0.7816164E-02  0.1320468E+00
        -11   -1    0    0    0    0  0.00000000000E+00  0.00000000000E+00  0.45593999997E+02  0.45594000000E+02  0.51100000000E-03 0. -1.
         11   -1    0    0    0    0 -0.00000000000E+00 -0.00000000000E+00 -0.45593999997E+02  0.45594000000E+02  0.51100000000E-03 0.  1.
    9900012    2    1    2    0    0 -0.44797444683E+02  0.43338753350E+01 -0.18762037470E+01  0.46142315789E+02  0.99999820173E+01 0.  0.
         12    1    1    2    0    0  0.44797444683E+02 -0.43338753350E+01  0.18762037470E+01  0.45045684211E+02  0.00000000000E+00 0. -1.
         11    1    3    3    0    0 -0.41107442946E+01 -0.13394866375E+01  0.14947752309E+01  0.45745815502E+01  0.51100000000E-03 0. -1.
        -11    1    3    3    0    0 -0.15047797329E+02  0.45260529986E+01 -0.26553369539E+00  0.15715974949E+02  0.51100000000E-03 0.  1.
        -12    1    3    3    0    0 -0.25638903060E+02  0.11473089739E+01 -0.31054452825E+01  0.25851759290E+02  0.00000000000E+00 0.  1.
</event>
<event>
 7    1  0.1564518E-008  0.4614232E+02  0.7816164E-02  0.1320468E+00
        -11   -1    0    0    0    0  0.00000000000E+00  0.00000000000E+00  0.45593999997E+02  0.45594000000E+02  0.51100000000E-03 0.  1.
         11   -1    0    0    0    0 -0.00000000000E+00 -0.00000000000E+00 -0.45593999997E+02  0.45594000000E+02  0.51100000000E-03 0. -1.
    9900012    2    1    2    0    0  0.15386621728E+02 -0.36242334092E+02  0.21882836981E+02  0.46142318043E+02  0.10000002570E+02 0.  0.
         12    1    1    2    0    0 -0.15386621728E+02  0.36242334092E+02 -0.21882836981E+02  0.45045681957E+02  0.00000000000E+00 0. -1.
         11    1    3    3    0    0  0.35654534057E+01 -0.20699246769E+01  0.99600734593E+00  0.42413532099E+01  0.51100000000E-03 0. -1.
        -11    1    3    3    0    0  0.61392806801E+01 -0.12625872134E+02  0.78873016801E+01  0.16103196653E+02  0.51100000000E-03 0.  1.
         12    1    3    3    0    0  0.56818876422E+01 -0.21546537282E+02  0.12999527954E+02  0.25797768180E+02  0.00000000000E+00 0. -1.
</event>
<event>
 7    1  0.1445801E-008  0.4614231E+02  0.7816164E-02  0.1320468E+00
        -11   -1    0    0    0    0  0.00000000000E+00  0.00000000000E+00  0.45593999997E+02  0.45594000000E+02  0.51100000000E-03 0.  1.
         11   -1    0    0    0    0 -0.00000000000E+00 -0.00000000000E+00 -0.45593999997E+02  0.45594000000E+02  0.51100000000E-03 0. -1.
    9900012    2    1    2    0    0 -0.84143009199E+01 -0.36424820925E+02  0.25130580576E+02  0.46142310756E+02  0.99999361204E+01 0.  0.
         12    1    1    2    0    0  0.84143009199E+01  0.36424820925E+02 -0.25130580576E+02  0.45045689244E+02  0.00000000000E+00 0. -1.
         11    1    3    3    0    0 -0.35525767363E+01 -0.59884576502E+01  0.86844587518E+01  0.11131138781E+02  0.51100000000E-03 0. -1.
        -11    1    3    3    0    0 -0.35166673733E+01 -0.26819588618E+02  0.14421330138E+02  0.30653418182E+02  0.51100000000E-03 0.  1.
         12    1    3    3    0    0 -0.13450568103E+01 -0.36167746568E+01  0.20247916871E+01  0.43577537926E+01  0.00000000000E+00 0. -1.
</event>
<event>
 7    1  0.1445801E-008  0.4614231E+02  0.7816164E-02  0.1320468E+00
        -11   -1    0    0    0    0  0.00000000000E+00  0.00000000000E+00  0.45593999997E+02  0.45594000000E+02  0.51100000000E-03 0. -1.
         11   -1    0    0    0    0 -0.00000000000E+00 -0.00000000000E+00 -0.45593999997E+02  0.45594000000E+02  0.51100000000E-03 0.  1.
    9900012    2    1    2    0    0  0.12830372455E+02  0.40511116562E+02  0.14944729922E+02  0.46142312361E+02  0.99999507577E+01 0.  0.
         12    1    1    2    0    0 -0.12830372455E+02 -0.40511116562E+02 -0.14944729922E+02  0.45045687639E+02  0.00000000000E+00 0. -1.
         11    1    3    3    0    0  0.88316573468E+01  0.15387672925E+02  0.71737213626E+01  0.19137422188E+02  0.51100000000E-03 0. -1.
        -11    1    3    3    0    0  0.35931454819E+01  0.23280991290E+02  0.84102834680E+01  0.25012959005E+02  0.51100000000E-03 0.  1.
         12    1    3    3    0    0  0.40556962587E+00  0.18424523465E+01 -0.63927490843E+00  0.19919311683E+01  0.00000000000E+00 0. -1.
</event>
<event>
 7    1  0.1445801E-008  0.4614232E+02  0.7816164E-02  0.1320468E+00
        -11   -1    0    0    0    0  0.00000000000E+00  0.00000000000E+00  0.45593999997E+02  0.45594000000E+02  0.51100000000E-03 0.  1.
         11   -1    0    0    0    0 -0.00000000000E+00 -0.00000000000E+00 -0.45593999997E+02  0.45594000000E+02  0.51100000000E-03 0. -1.
    9900012    2    1    2    0    0 -0.19614799142E+02 -0.13166652388E+02  0.38353780574E+02  0.46142316913E+02  0.99999922645E+01 0.  0.
         12    1    1    2    0    0  0.19614799142E+02  0.13166652388E+02 -0.38353780574E+02  0.45045683087E+02  0.00000000000E+00 0. -1.
         11    1    3    3    0    0 -0.23738985426E+01 -0.18622426372E+00  0.17292768750E+01  0.29428680804E+01  0.51100000000E-03 0. -1.
        -11    1    3    3    0    0 -0.11997183923E+02 -0.10799833421E+02  0.20426803283E+02  0.26035036329E+02  0.51100000000E-03 0.  1.
        -12    1    3    3    0    0 -0.52437166763E+01 -0.21805947027E+01  0.16197700415E+02  0.17164412503E+02  0.00000000000E+00 0.  1.
</event>
<event>
 7    1  0.1445801E-008  0.4614232E+02  0.7816164E-02  0.1320468E+00
        -11   -1    0    0    0    0  0.00000000000E+00  0.00000000000E+00  0.45593999997E+02  0.45594000000E+02  0.51100000000E-03 0. -1.
         11   -1    0    0    0    0 -0.00000000000E+00 -0.00000000000E+00 -0.45593999997E+02  0.45594000000E+02  0.51100000000E-03 0.  1.
    9900012    2    1    2    0    0  0.33386011764E+02 -0.11677535913E+02 -0.27894852977E+02  0.46142318197E+02  0.10000003971E+02 0.  0.
         12    1    1    2    0    0 -0.33386011764E+02  0.11677535913E+02  0.27894852977E+02  0.45045681803E+02  0.00000000000E+00 0. -1.
         11    1    3    3    0    0  0.15407969524E+02 -0.62503962493E+01 -0.11214152904E+02  0.20055677594E+02  0.51100000000E-03 0. -1.
        -11    1    3    3    0    0  0.88570533006E+00 -0.57478263037E-01 -0.40994304562E+01  0.41944139052E+01  0.51100000000E-03 0.  1.
        -12    1    3    3    0    0  0.17092336910E+02 -0.53696614012E+01 -0.12581269617E+02  0.21892226698E+02  0.00000000000E+00 0.  1.
</event>
<event>
 7    1  0.1445801E-008  0.4614232E+02  0.7816164E-02  0.1320468E+00
        -11   -1    0    0    0    0  0.00000000000E+00  0.00000000000E+00  0.45593999997E+02  0.45594000000E+02  0.51100000000E-03 0.  1.
         11   -1    0    0    0    0 -0.00000000000E+00 -0.00000000000E+00 -0.45593999997E+02  0.45594000000E+02  0.51100000000E-03 0. -1.
    9900012    2    1    2    0    0  0.59632689912E+01 -0.10357255349E+01  0.44637205226E+02  0.46142318799E+02  0.10000009463E+02 0.  0.
         12    1    1    2    0    0 -0.59632689912E+01  0.10357255349E+01 -0.44637205226E+02  0.45045681201E+02  0.00000000000E+00 0. -1.
         11    1    3    3    0    0 -0.11713163791E+01  0.27329402422E+01  0.11274261774E+02  0.11659756568E+02  0.51100000000E-03 0. -1.
        -11    1    3    3    0    0  0.64648802337E+01 -0.43198339195E+01  0.31149481553E+02  0.32105230770E+02  0.51100000000E-03 0.  1.
        -12    1    3    3    0    0  0.66970513664E+00  0.55116814239E+00  0.22134618998E+01  0.23773314605E+01  0.00000000000E+00 0.  1.
</event>
<event>
 7    1  0.1445801E-008  0.4614232E+02  0.7816164E-02  0.1320468E+00
        -11   -1    0    0    0    0  0.00000000000E+00  0.00000000000E+00  0.45593999997E+02  0.45594000000E+02  0.51100000000E-03 0.  1.
         11   -1    0    0    0    0 -0.00000000000E+00 -0.00000000000E+00 -0.45593999997E+02  0.45594000000E+02  0.51100000000E-03 0. -1.
    9900012    2    1    2    0    0  0.37870882402E+02 -0.44591528014E+01  0.23979693967E+02  0.46142317628E+02  0.99999987854E+01 0.  0.
         12    1    1    2    0    0 -0.37870882402E+02  0.44591528014E+01 -0.23979693967E+02  0.45045682372E+02  0.00000000000E+00 0. -1.
         11    1    3    3    0    0  0.15940284483E+02 -0.17582510493E+01  0.63002918232E+01  0.17230142004E+02  0.51100000000E-03 0. -1.
        -11    1    3    3    0    0  0.17781020417E+02 -0.27433935654E+01  0.16911567710E+02  0.24691942370E+02  0.51100000000E-03 0.  1.
        -12    1    3    3    0    0  0.41495775027E+01  0.42491813317E-01  0.76783443322E+00  0.42202332545E+01  0.00000000000E+00 0.  1.
</event>
<event>
 7    1  0.1445801E-008  0.4614232E+02  0.7816164E-02  0.1320468E+00
        -11   -1    0    0    0    0  0.00000000000E+00  0.00000000000E+00  0.45593999997E+02  0.45594000000E+02  0.51100000000E-03 0.  1.
         11   -1    0    0    0    0 -0.00000000000E+00 -0.00000000000E+00 -0.45593999997E+02  0.45594000000E+02  0.51100000000E-03 0. -1.
    9900012    2    1    2    0    0 -0.20550119649E+02 -0.26962132193E+02  0.29662256350E+02  0.46142318278E+02  0.10000004713E+02 0.  0.
         12    1    1    2    0    0  0.20550119649E+02  0.26962132193E+02 -0.29662256350E+02  0.45045681722E+02  0.00000000000E+00 0. -1.
         11    1    3    3    0    0 -0.11400650703E+01 -0.34433493967E+01  0.13451401783E+01  0.38685663743E+01  0.51100000000E-03 0. -1.
        -11    1    3    3    0    0 -0.31005688186E+01 -0.34992762588E+01  0.85849459849E+01  0.97754672093E+01  0.51100000000E-03 0.  1.
        -12    1    3    3    0    0 -0.16309485760E+02 -0.20019506538E+02  0.19732170187E+02  0.32498284694E+02  0.00000000000E+00 0.  1.
</event>
<event>
 7    1  0.1445801E-008  0.4614232E+02  0.7816164E-02  0.1320468E+00
        -11   -1    0    0    0    0  0.00000000000E+00  0.00000000000E+00  0.45593999997E+02  0.45594000000E+02  0.51100000000E-03 0.  1.
         11   -1    0    0    0    0 -0.00000000000E+00 -0.00000000000E+00 -0.45593999997E+02  0.45594000000E+02  0.51100000000E-03 0. -1.
    9900012    2    1    2    0    0 -0.37266640187E+02 -0.11164868481E+02 -0.22708075972E+02  0.46142317927E+02  0.10000001516E+02 0.  0.
         12    1    1    2    0    0  0.37266640187E+02  0.11164868481E+02  0.22708075972E+02  0.45045682073E+02  0.00000000000E+00 0. -1.
         11    1    3    3    0    0 -0.73078759820E+01 -0.45560023371E+01 -0.72343685776E+01  0.11247146200E+02  0.51100000000E-03 0. -1.
        -11    1    3    3    0    0 -0.16424749530E+02 -0.60314538413E+01 -0.65968512639E+01  0.18699445966E+02  0.51100000000E-03 0.  1.
         12    1    3    3    0    0 -0.13534014675E+02 -0.57741230299E+00 -0.88768561302E+01  0.16195725762E+02  0.00000000000E+00 0. -1.
</event>
<event>
 7    1  0.1445801E-008  0.4614232E+02  0.7816164E-02  0.1320468E+00
        -11   -1    0    0    0    0  0.00000000000E+00  0.00000000000E+00  0.45593999997E+02  0.45594000000E+02  0.51100000000E-03 0.  1.
         11   -1    0    0    0    0 -0.00000000000E+00 -0.00000000000E+00 -0.45593999997E+02  0.45594000000E+02  0.51100000000E-03 0. -1.
    9900012    2    1    2    0    0  0.20045063419E+02 -0.55481972686E+00  0.40336101297E+02  0.46142318074E+02  0.10000002850E+02 0.  0.
         12    1    1    2    0    0 -0.20045063419E+02  0.55481972686E+00 -0.40336101297E+02  0.45045681926E+02  0.00000000000E+00 0. -1.
         11    1    3    3    0    0  0.55770191033E+01  0.27233618123E+01  0.15077666733E+02  0.16305087427E+02  0.51100000000E-03 0. -1.
        -11    1    3    3    0    0  0.36784243891E+01 -0.34125231300E+01  0.94099871666E+01  0.10664144543E+02  0.51100000000E-03 0.  1.
        -12    1    3    3    0    0  0.10789619927E+02  0.13434159093E+00  0.15848447397E+02  0.19173086103E+02  0.00000000000E+00 0.  1.
</event>
<event>
 7    1  0.2403477E-008  0.4614232E+02  0.7816164E-02  0.1320468E+00
        -11   -1    0    0    0    0  0.00000000000E+00  0.00000000000E+00  0.45593999997E+02  0.45594000000E+02  0.51100000000E-03 0.  1.
         11   -1    0    0    0    0 -0.00000000000E+00 -0.00000000000E+00 -0.45593999997E+02  0.45594000000E+02  0.51100000000E-03 0. -1.
    9900012    2    1    2    0    0 -0.38679463254E+02 -0.88829947423E+00  0.23069971083E+02  0.46142317417E+02  0.99999968615E+01 0.  0.
         12    1    1    2    0    0  0.38679463254E+02  0.88829947423E+00 -0.23069971083E+02  0.45045682583E+02  0.00000000000E+00 0. -1.
         11    1    3    3    0    0 -0.16642145362E+01 -0.16334369407E+01  0.35872822824E+01  0.42785886337E+01  0.51100000000E-03 0. -1.
        -11    1    3    3    0    0 -0.28403972263E+02  0.52424912528E+00  0.14216691859E+02  0.31767511787E+02  0.51100000000E-03 0.  1.
         12    1    3    3    0    0 -0.86112764551E+01  0.22088834116E+00  0.52659969411E+01  0.10096216996E+02  0.00000000000E+00 0. -1.
</event>
<event>
 7    1  0.1445801E-008  0.4614232E+02  0.7816164E-02  0.1320468E+00
        -11   -1    0    0    0    0  0.00000000000E+00  0.00000000000E+00  0.45593999997E+02  0.45594000000E+02  0.51100000000E-03 0. -1.
         11   -1    0    0    0    0 -0.00000000000E+00 -0.00000000000E+00 -0.45593999997E+02  0.45594000000E+02  0.51100000000E-03 0.  1.
    9900012    2    1    2    0    0 -0.19539844300E+02 -0.34242806622E+02 -0.21788485294E+02  0.46142318609E+02  0.10000007728E+02 0.  0.
         12    1    1    2    0    0  0.19539844300E+02  0.34242806622E+02  0.21788485294E+02  0.45045681391E+02  0.00000000000E+00 0. -1.
         11    1    3    3    0    0 -0.26778133241E-01  0.57558370056E+00 -0.63010121199E-01  0.57964144199E+00  0.51100000000E-03 0. -1.
        -11    1    3    3    0    0 -0.15662243812E+02 -0.26079208157E+02 -0.17730110526E+02  0.35210620541E+02  0.51100000000E-03 0.  1.
         12    1    3    3    0    0 -0.38508223546E+01 -0.87391821651E+01 -0.39953646469E+01  0.10352056626E+02  0.00000000000E+00 0. -1.
</event>
<event>
 7    1  0.1445801E-008  0.4614232E+02  0.7816164E-02  0.1320468E+00
        -11   -1    0    0    0    0  0.00000000000E+00  0.00000000000E+00  0.45593999997E+02  0.45594000000E+02  0.51100000000E-03 0. -1.
         11   -1    0    0    0    0 -0.00000000000E+00 -0.00000000000E+00 -0.45593999997E+02  0.45594000000E+02  0.51100000000E-03 0.  1.
    9900012    2    1    2    0    0 -0.35057464187E+02 -0.28089252771E+01 -0.28146005109E+02  0.46142318075E+02  0.10000002865E+02 0.  0.
         12    1    1    2    0    0  0.35057464187E+02  0.28089252771E+01  0.28146005109E+02  0.45045681925E+02  0.00000000000E+00 0. -1.
         11    1    3    3    0    0 -0.71452129136E+01  0.24069765724E+01 -0.80038158633E+01  0.10995847963E+02  0.51100000000E-03 0. -1.
        -11    1    3    3    0    0 -0.55398930286E+01  0.61541421745E+00 -0.27511108488E+01  0.62159279751E+01  0.51100000000E-03 0.  1.
         12    1    3    3    0    0 -0.22372358245E+02 -0.58313160669E+01 -0.17391078397E+02  0.28930542137E+02  0.00000000000E+00 0. -1.
</event>
<event>
 7    1  0.1445801E-008  0.4614231E+02  0.7816164E-02  0.1320468E+00
        -11   -1    0    0    0    0  0.00000000000E+00  0.00000000000E+00  0.45593999997E+02  0.45594000000E+02  0.51100000000E-03 0. -1.
         11   -1    0    0    0    0 -0.00000000000E+00 -0.00000000000E+00 -0.45593999997E+02  0.45594000000E+02  0.51100000000E-03 0.  1.
    9900012    2    1    2    0    0  0.41289107461E+02 -0.16271596537E+02 -0.77174271585E+01  0.46142312850E+02  0.99999552196E+01 0.  0.
         12    1    1    2    0    0 -0.41289107461E+02  0.16271596537E+02  0.77174271585E+01  0.45045687150E+02  0.00000000000E+00 0. -1.
         11    1    3    3    0    0  0.64642555879E+00 -0.47796648770E+00  0.12900903818E+01  0.15200827020E+01  0.51100000000E-03 0. -1.
        -11    1    3    3    0    0  0.33401550172E+02 -0.11871998239E+02 -0.67775390135E+01  0.36090759640E+02  0.51100000000E-03 0.  1.
         12    1    3    3    0    0  0.72411317311E+01 -0.39216318108E+01 -0.22299785268E+01  0.85314705084E+01  0.00000000000E+00 0. -1.
</event>
<event>
 7    1  0.1445801E-008  0.4614232E+02  0.7816164E-02  0.1320468E+00
        -11   -1    0    0    0    0  0.00000000000E+00  0.00000000000E+00  0.45593999997E+02  0.45594000000E+02  0.51100000000E-03 0.  1.
         11   -1    0    0    0    0 -0.00000000000E+00 -0.00000000000E+00 -0.45593999997E+02  0.45594000000E+02  0.51100000000E-03 0. -1.
    9900012    2    1    2    0    0 -0.19014507229E+02  0.14682115891E+02  0.38105083492E+02  0.46142318741E+02  0.10000008933E+02 0.  0.
         12    1    1    2    0    0  0.19014507229E+02 -0.14682115891E+02 -0.38105083492E+02  0.45045681259E+02  0.00000000000E+00 0. -1.
         11    1    3    3    0    0 -0.73629522190E+01  0.20859696645E+01  0.80333699240E+01  0.11095015431E+02  0.51100000000E-03 0. -1.
        -11    1    3    3    0    0 -0.76351877293E+01  0.57032160485E+01  0.20352494126E+02  0.22473245924E+02  0.51100000000E-03 0.  1.
         12    1    3    3    0    0 -0.40163672805E+01  0.68929301782E+01  0.97192194416E+01  0.12574057385E+02  0.00000000000E+00 0. -1.
</event>
<event>
 7    1  0.1445801E-008  0.4614232E+02  0.7816164E-02  0.1320468E+00
        -11   -1    0    0    0    0  0.00000000000E+00  0.00000000000E+00  0.45593999997E+02  0.45594000000E+02  0.51100000000E-03 0.  1.
         11   -1    0    0    0    0 -0.00000000000E+00 -0.00000000000E+00 -0.45593999997E+02  0.45594000000E+02  0.51100000000E-03 0. -1.
    9900012    2    1    2    0    0 -0.27455721792E+02 -0.35687622310E+02 -0.13001747621E+01  0.46142317636E+02  0.99999988562E+01 0.  0.
         12    1    1    2    0    0  0.27455721792E+02  0.35687622310E+02  0.13001747621E+01  0.45045682364E+02  0.00000000000E+00 0. -1.
         11    1    3    3    0    0 -0.14435091047E+02 -0.22627168754E+02 -0.12411467490E+01  0.26868216630E+02  0.51100000000E-03 0. -1.
        -11    1    3    3    0    0 -0.89630126794E+01 -0.11334126022E+02 -0.17415681349E+01  0.14554417501E+02  0.51100000000E-03 0.  1.
         12    1    3    3    0    0 -0.40576180657E+01 -0.17263275339E+01  0.16825401218E+01  0.47196835045E+01  0.00000000000E+00 0. -1.
</event>
<event>
 7    1  0.1445801E-008  0.4614233E+02  0.7816164E-02  0.1320468E+00
        -11   -1    0    0    0    0  0.00000000000E+00  0.00000000000E+00  0.45593999997E+02  0.45594000000E+02  0.51100000000E-03 0.  1.
         11   -1    0    0    0    0 -0.00000000000E+00 -0.00000000000E+00 -0.45593999997E+02  0.45594000000E+02  0.51100000000E-03 0. -1.
    9900012    2    1    2    0    0 -0.21009012341E+02  0.16584699836E+02  0.36230952045E+02  0.46142325909E+02  0.10000074300E+02 0.  0.
         12    1    1    2    0    0  0.21009012341E+02 -0.16584699836E+02 -0.36230952045E+02  0.45045674091E+02  0.00000000000E+00 0. -1.
         11    1    3    3    0    0 -0.12438522916E+02  0.14080509080E+02  0.28602159382E+02  0.34220770153E+02  0.51100000000E-03 0.  1.
        -11    1    3    3    0    0 -0.47878269858E+01  0.45127833826E+00  0.34140567358E+01  0.58976879403E+01  0.51100000000E-03 0. -1.
        -12    1    3    3    0    0 -0.37826624396E+01  0.20529124174E+01  0.42147359277E+01  0.60238678161E+01  0.00000000000E+00 0.  1.
</event>
<event>
 7    1  0.1445801E-008  0.4614232E+02  0.7816164E-02  0.1320468E+00
        -11   -1    0    0    0    0  0.00000000000E+00  0.00000000000E+00  0.45593999997E+02  0.45594000000E+02  0.51100000000E-03 0.  1.
         11   -1    0    0    0    0 -0.00000000000E+00 -0.00000000000E+00 -0.45593999997E+02  0.45594000000E+02  0.51100000000E-03 0. -1.
    9900012    2    1    2    0    0 -0.43498672423E+02  0.81429618535E+01  0.84066156930E+01  0.46142317436E+02  0.99999970325E+01 0.  0.
         12    1    1    2    0    0  0.43498672423E+02 -0.81429618535E+01 -0.84066156930E+01  0.45045682564E+02  0.00000000000E+00 0. -1.
         11    1    3    3    0    0 -0.34447244350E+02  0.48598606970E+01  0.73997242548E+01  0.35566653042E+02  0.51100000000E-03 0.  1.
        -11    1    3    3    0    0 -0.43665046716E+01  0.32899967483E+01  0.19352818683E+01  0.57996342834E+01  0.51100000000E-03 0. -1.
         12    1    3    3    0    0 -0.46849234013E+01 -0.68955919032E-02 -0.92839043013E+00  0.47760301104E+01  0.00000000000E+00 0. -1.
</event>
<event>
 7    1  0.1445801E-008  0.4614232E+02  0.7816164E-02  0.1320468E+00
        -11   -1    0    0    0    0  0.00000000000E+00  0.00000000000E+00  0.45593999997E+02  0.45594000000E+02  0.51100000000E-03 0.  1.
         11   -1    0    0    0    0 -0.00000000000E+00 -0.00000000000E+00 -0.45593999997E+02  0.45594000000E+02  0.51100000000E-03 0. -1.
    9900012    2    1    2    0    0 -0.12269242198E+02  0.24226531264E+01  0.43274819396E+02  0.46142317121E+02  0.99999941668E+01 0.  0.
         12    1    1    2    0    0  0.12269242198E+02 -0.24226531264E+01 -0.43274819396E+02  0.45045682879E+02  0.00000000000E+00 0. -1.
         11    1    3    3    0    0 -0.15037364798E+01  0.54694917371E+00  0.30832612467E+00  0.16295527177E+01  0.51100000000E-03 0. -1.
        -11    1    3    3    0    0 -0.10241021683E+02  0.24002544827E+01  0.35951028888E+02  0.37458193030E+02  0.51100000000E-03 0.  1.
         12    1    3    3    0    0 -0.52448403477E+00 -0.52455053003E+00  0.70154643828E+01  0.70545713737E+01  0.00000000000E+00 0. -1.
</event>
<event>
 7    1  0.1445801E-008  0.4614232E+02  0.7816164E-02  0.1320468E+00
        -11   -1    0    0    0    0  0.00000000000E+00  0.00000000000E+00  0.45593999997E+02  0.45594000000E+02  0.51100000000E-03 0. -1.
         11   -1    0    0    0    0 -0.00000000000E+00 -0.00000000000E+00 -0.45593999997E+02  0.45594000000E+02  0.51100000000E-03 0.  1.
    9900012    2    1    2    0    0 -0.37384725787E+02 -0.12732219053E+02  0.21665325973E+02  0.46142317924E+02  0.10000001487E+02 0.  0.
         12    1    1    2    0    0  0.37384725787E+02  0.12732219053E+02 -0.21665325973E+02  0.45045682076E+02  0.00000000000E+00 0. -1.
         11    1    3    3    0    0 -0.10946866001E+02 -0.48364115110E+01  0.93977781121E+01  0.15216536572E+02  0.51100000000E-03 0. -1.
        -11    1    3    3    0    0 -0.79695832174E+01  0.67936114852E+00  0.40842249552E+01  0.89809065230E+01  0.51100000000E-03 0.  1.
         12    1    3    3    0    0 -0.18468276568E+02 -0.85751686910E+01  0.81833229056E+01  0.21944874829E+02  0.00000000000E+00 0. -1.
</event>
<event>
 7    1  0.1445801E-008  0.4614232E+02  0.7816164E-02  0.1320468E+00
        -11   -1    0    0    0    0  0.00000000000E+00  0.00000000000E+00  0.45593999997E+02  0.45594000000E+02  0.51100000000E-03 0.  1.
         11   -1    0    0    0    0 -0.00000000000E+00 -0.00000000000E+00 -0.45593999997E+02  0.45594000000E+02  0.51100000000E-03 0. -1.
    9900012    2    1    2    0    0 -0.53801250280E+01 -0.71991755915E+01  0.44140000133E+02  0.46142317785E+02  0.10000000215E+02 0.  0.
         12    1    1    2    0    0  0.53801250280E+01  0.71991755915E+01 -0.44140000133E+02  0.45045682215E+02  0.00000000000E+00 0. -1.
         11    1    3    3    0    0  0.52012344773E+00  0.16446431371E+01  0.22160984271E+01  0.28082863011E+01  0.51100000000E-03 0. -1.
        -11    1    3    3    0    0 -0.46896715623E+01 -0.80566138324E+01  0.32895335377E+02  0.34190717097E+02  0.51100000000E-03 0.  1.
         12    1    3    3    0    0 -0.12105769134E+01 -0.78720489612E+00  0.90285663288E+01  0.91433143862E+01  0.00000000000E+00 0. -1.
</event>
<event>
 7    1  0.1445801E-008  0.4614232E+02  0.7816164E-02  0.1320468E+00
        -11   -1    0    0    0    0  0.00000000000E+00  0.00000000000E+00  0.45593999997E+02  0.45594000000E+02  0.51100000000E-03 0.  1.
         11   -1    0    0    0    0 -0.00000000000E+00 -0.00000000000E+00 -0.45593999997E+02  0.45594000000E+02  0.51100000000E-03 0. -1.
    9900012    2    1    2    0    0  0.90943176210E+01  0.42869188315E+02 -0.10423030533E+02  0.46142317795E+02  0.10000000314E+02 0.  0.
         12    1    1    2    0    0 -0.90943176210E+01 -0.42869188315E+02  0.10423030533E+02  0.45045682205E+02  0.00000000000E+00 0. -1.
         11    1    3    3    0    0  0.14378117051E+01  0.16737089768E+01  0.92205899638E-01  0.22084171769E+01  0.51100000000E-03 0. -1.
        -11    1    3    3    0    0  0.67975348053E+01  0.40935257356E+02 -0.94821566903E+01  0.42565397566E+02  0.51100000000E-03 0.  1.
        -12    1    3    3    0    0  0.85897111060E+00  0.26022198213E+00 -0.10330797427E+01  0.13685030521E+01  0.00000000000E+00 0.  1.
</event>
<event>
 7    1  0.1445801E-008  0.4614232E+02  0.7816164E-02  0.1320468E+00
        -11   -1    0    0    0    0  0.00000000000E+00  0.00000000000E+00  0.45593999997E+02  0.45594000000E+02  0.51100000000E-03 0. -1.
         11   -1    0    0    0    0 -0.00000000000E+00 -0.00000000000E+00 -0.45593999997E+02  0.45594000000E+02  0.51100000000E-03 0.  1.
    9900012    2    1    2    0    0 -0.35250381005E+02  0.26962154324E+02 -0.77179308434E+01  0.46142316707E+02  0.99999903901E+01 0.  0.
         12    1    1    2    0    0  0.35250381005E+02 -0.26962154324E+02  0.77179308434E+01  0.45045683293E+02  0.00000000000E+00 0. -1.
         11    1    3    3    0    0 -0.14222507603E+02  0.14331820000E+02 -0.28331287039E+01  0.20388903981E+02  0.51100000000E-03 0. -1.
        -11    1    3    3    0    0 -0.99788148829E+01  0.71375031795E+01 -0.53979280025E+01  0.13403668344E+02  0.51100000000E-03 0.  1.
         12    1    3    3    0    0 -0.11049058520E+02  0.54928311442E+01  0.51312586301E+00  0.12349744382E+02  0.00000000000E+00 0. -1.
</event>
<event>
 7    1  0.1445801E-008  0.4614232E+02  0.7816164E-02  0.1320468E+00
        -11   -1    0    0    0    0  0.00000000000E+00  0.00000000000E+00  0.45593999997E+02  0.45594000000E+02  0.51100000000E-03 0. -1.
         11   -1    0    0    0    0 -0.00000000000E+00 -0.00000000000E+00 -0.45593999997E+02  0.45594000000E+02  0.51100000000E-03 0.  1.
    9900012    2    1    2    0    0 -0.24588998230E+00 -0.39473085286E+02 -0.21700889360E+02  0.46142317377E+02  0.99999965019E+01 0.  0.
         12    1    1    2    0    0  0.24588998230E+00  0.39473085286E+02  0.21700889360E+02  0.45045682623E+02  0.00000000000E+00 0. -1.
         11    1    3    3    0    0  0.10183641157E+01 -0.12144578000E+02 -0.19874438228E+01  0.12348189077E+02  0.51100000000E-03 0. -1.
        -11    1    3    3    0    0 -0.87472610727E+00 -0.26010847877E+02 -0.18249531438E+02  0.31786392545E+02  0.51100000000E-03 0.  1.
         12    1    3    3    0    0 -0.38952799076E+00 -0.13176594091E+01 -0.14639140994E+01  0.20077357557E+01  0.00000000000E+00 0. -1.
</event>
<event>
 7    1  0.1445801E-008  0.4614232E+02  0.7816164E-02  0.1320468E+00
        -11   -1    0    0    0    0  0.00000000000E+00  0.00000000000E+00  0.45593999997E+02  0.45594000000E+02  0.51100000000E-03 0. -1.
         11   -1    0    0    0    0 -0.00000000000E+00 -0.00000000000E+00 -0.45593999997E+02  0.45594000000E+02  0.51100000000E-03 0.  1.
    9900012    2    1    2    0    0 -0.38507527831E+02 -0.22800204896E+02 -0.51414581034E+01  0.46142316141E+02  0.99999852251E+01 0.  0.
         12    1    1    2    0    0  0.38507527831E+02  0.22800204896E+02  0.51414581034E+01  0.45045683859E+02  0.00000000000E+00 0. -1.
         11    1    3    3    0    0 -0.95601711585E+01 -0.62862087343E+01  0.18645856071E+01  0.11592668915E+02  0.51100000000E-03 0. -1.
        -11    1    3    3    0    0 -0.11150191251E+02 -0.55337926043E+01 -0.54234006629E+01  0.13578030068E+02  0.51100000000E-03 0.  1.
        -12    1    3    3    0    0 -0.17797165421E+02 -0.10980203557E+02 -0.15826430475E+01  0.20971617157E+02  0.00000000000E+00 0.  1.
</event>
<event>
 7    1  0.1445801E-008  0.4614232E+02  0.7816164E-02  0.1320468E+00
        -11   -1    0    0    0    0  0.00000000000E+00  0.00000000000E+00  0.45593999997E+02  0.45594000000E+02  0.51100000000E-03 0.  1.
         11   -1    0    0    0    0 -0.00000000000E+00 -0.00000000000E+00 -0.45593999997E+02  0.45594000000E+02  0.51100000000E-03 0. -1.
    9900012    2    1    2    0    0  0.80976444546E+01  0.31157114139E+02  0.31508346238E+02  0.46142317745E+02  0.99999998564E+01 0.  0.
         12    1    1    2    0    0 -0.80976444546E+01 -0.31157114139E+02 -0.31508346238E+02  0.45045682255E+02  0.00000000000E+00 0. -1.
         11    1    3    3    0    0  0.29963756649E+01  0.48974791108E+01  0.24161069522E+01  0.62290562553E+01  0.51100000000E-03 0. -1.
        -11    1    3    3    0    0 -0.67503511283E+00  0.32979925161E+01  0.57612152213E+01  0.66726327733E+01  0.51100000000E-03 0.  1.
        -12    1    3    3    0    0  0.57763039025E+01  0.22961642512E+02  0.23331024064E+02  0.33240628717E+02  0.00000000000E+00 0.  1.
</event>
<event>
 7    1  0.1445801E-008  0.4614232E+02  0.7816164E-02  0.1320468E+00
        -11   -1    0    0    0    0  0.00000000000E+00  0.00000000000E+00  0.45593999997E+02  0.45594000000E+02  0.51100000000E-03 0.  1.
         11   -1    0    0    0    0 -0.00000000000E+00 -0.00000000000E+00 -0.45593999997E+02  0.45594000000E+02  0.51100000000E-03 0. -1.
    9900012    2    1    2    0    0 -0.31151449782E+02  0.61628786206E+01  0.31948701763E+02  0.46142318290E+02  0.10000004820E+02 0.  0.
         12    1    1    2    0    0  0.31151449782E+02 -0.61628786206E+01 -0.31948701763E+02  0.45045681710E+02  0.00000000000E+00 0. -1.
         11    1    3    3    0    0 -0.91456937322E+01 -0.23833108335E+01  0.78437211983E+01  0.12282013144E+02  0.51100000000E-03 0. -1.
        -11    1    3    3    0    0 -0.12088660318E+02  0.58724059917E+01  0.14929799564E+02  0.20087801664E+02  0.51100000000E-03 0.  1.
         12    1    3    3    0    0 -0.99170957318E+01  0.26737834625E+01  0.91751810005E+01  0.13772503482E+02  0.00000000000E+00 0. -1.
</event>
<event>
 7    1  0.1445801E-008  0.4614232E+02  0.7816164E-02  0.1320468E+00
        -11   -1    0    0    0    0  0.00000000000E+00  0.00000000000E+00  0.45593999997E+02  0.45594000000E+02  0.51100000000E-03 0.  1.
         11   -1    0    0    0    0 -0.00000000000E+00 -0.00000000000E+00 -0.45593999997E+02  0.45594000000E+02  0.51100000000E-03 0. -1.
    9900012    2    1    2    0    0 -0.25945802845E+02  0.21220460170E+02  0.30093535936E+02  0.46142317407E+02  0.99999967749E+01 0.  0.
         12    1    1    2    0    0  0.25945802845E+02 -0.21220460170E+02 -0.30093535936E+02  0.45045682593E+02  0.00000000000E+00 0. -1.
         11    1    3    3    0    0 -0.14027471509E+02  0.58118244975E+01  0.11856999806E+02  0.19264882704E+02  0.51100000000E-03 0. -1.
        -11    1    3    3    0    0 -0.96933945352E+01  0.11347042383E+02  0.12242278220E+02  0.19302607200E+02  0.51100000000E-03 0.  1.
         12    1    3    3    0    0 -0.22249368010E+01  0.40615932900E+01  0.59942579096E+01  0.75748275036E+01  0.00000000000E+00 0. -1.
</event>
<event>
 7    1  0.1445801E-008  0.4614232E+02  0.7816164E-02  0.1320468E+00
        -11   -1    0    0    0    0  0.00000000000E+00  0.00000000000E+00  0.45593999997E+02  0.45594000000E+02  0.51100000000E-03 0.  1.
         11   -1    0    0    0    0 -0.00000000000E+00 -0.00000000000E+00 -0.45593999997E+02  0.45594000000E+02  0.51100000000E-03 0. -1.
    9900012    2    1    2    0    0 -0.29347392620E+02  0.12712777585E+02  0.31721118796E+02  0.46142317131E+02  0.99999942525E+01 0.  0.
         12    1    1    2    0    0  0.29347392620E+02 -0.12712777585E+02 -0.31721118796E+02  0.45045682869E+02  0.00000000000E+00 0. -1.
         11    1    3    3    0    0 -0.15195513683E+02  0.45817073962E+01  0.13354429799E+02  0.20742142470E+02  0.51100000000E-03 0. -1.
        -11    1    3    3    0    0 -0.11468120971E+02  0.79749066682E+01  0.11732285701E+02  0.18241805365E+02  0.51100000000E-03 0.  1.
         12    1    3    3    0    0 -0.26837579661E+01  0.15616352033E+00  0.66344032962E+01  0.71583692949E+01  0.00000000000E+00 0. -1.
</event>
<event>
 7    1  0.1445801E-008  0.4614232E+02  0.7816164E-02  0.1320468E+00
        -11   -1    0    0    0    0  0.00000000000E+00  0.00000000000E+00  0.45593999997E+02  0.45594000000E+02  0.51100000000E-03 0. -1.
         11   -1    0    0    0    0 -0.00000000000E+00 -0.00000000000E+00 -0.45593999997E+02  0.45594000000E+02  0.51100000000E-03 0.  1.
    9900012    2    1    2    0    0  0.33339063244E+02 -0.26773502870E+02  0.14170386601E+02  0.46142318184E+02  0.10000003854E+02 0.  0.
         12    1    1    2    0    0 -0.33339063244E+02  0.26773502870E+02 -0.14170386601E+02  0.45045681816E+02  0.00000000000E+00 0. -1.
         11    1    3    3    0    0  0.15795228441E+02 -0.17856611814E+02  0.50376400736E+01  0.24366486098E+02  0.51100000000E-03 0. -1.
        -11    1    3    3    0    0  0.12799810049E+02 -0.74084526062E+01  0.67430163120E+01  0.16253878816E+02  0.51100000000E-03 0.  1.
         12    1    3    3    0    0  0.47440247539E+01 -0.15084384495E+01  0.23897302150E+01  0.55219532706E+01  0.00000000000E+00 0. -1.
</event>
<event>
 7    1  0.1445801E-008  0.4614232E+02  0.7816164E-02  0.1320468E+00
        -11   -1    0    0    0    0  0.00000000000E+00  0.00000000000E+00  0.45593999997E+02  0.45594000000E+02  0.51100000000E-03 0.  1.
         11   -1    0    0    0    0 -0.00000000000E+00 -0.00000000000E+00 -0.45593999997E+02  0.45594000000E+02  0.51100000000E-03 0. -1.
    9900012    2    1    2    0    0 -0.10129191140E+02  0.43795132007E+02 -0.29153608515E+01  0.46142318414E+02  0.10000005952E+02 0.  0.
         12    1    1    2    0    0  0.10129191140E+02 -0.43795132007E+02  0.29153608515E+01  0.45045681586E+02  0.00000000000E+00 0. -1.
         11    1    3    3    0    0 -0.39000455904E+01  0.69780882625E+01 -0.34237806298E+01  0.86963409241E+01  0.51100000000E-03 0. -1.
        -11    1    3    3    0    0 -0.21067433436E+01  0.11505970726E+02  0.14331921883E+01  0.11784726131E+02  0.51100000000E-03 0.  1.
         12    1    3    3    0    0 -0.41224022060E+01  0.25311073018E+02 -0.92477240997E+00  0.25661251359E+02  0.00000000000E+00 0. -1.
</event>
<event>
 7    1  0.1445801E-008  0.4614232E+02  0.7816164E-02  0.1320468E+00
        -11   -1    0    0    0    0  0.00000000000E+00  0.00000000000E+00  0.45593999997E+02  0.45594000000E+02  0.51100000000E-03 0.  1.
         11   -1    0    0    0    0 -0.00000000000E+00 -0.00000000000E+00 -0.45593999997E+02  0.45594000000E+02  0.51100000000E-03 0. -1.
    9900012    2    1    2    0    0  0.26392786415E+02 -0.10976437120E+02  0.34814539895E+02  0.46142317247E+02  0.99999953094E+01 0.  0.
         12    1    1    2    0    0 -0.26392786415E+02  0.10976437120E+02 -0.34814539895E+02  0.45045682753E+02  0.00000000000E+00 0. -1.
         11    1    3    3    0    0  0.76533772798E+00  0.74169328721E+00  0.45530896848E+01  0.46761604666E+01  0.51100000000E-03 0. -1.
        -11    1    3    3    0    0  0.66382608394E+01 -0.43222936837E+01  0.95920673159E+01  0.12440115969E+02  0.51100000000E-03 0.  1.
         12    1    3    3    0    0  0.18989187847E+02 -0.73958367233E+01  0.20669382895E+02  0.29026040811E+02  0.00000000000E+00 0. -1.
</event>
<event>
 7    1  0.1445801E-008  0.4614232E+02  0.7816164E-02  0.1320468E+00
        -11   -1    0    0    0    0  0.00000000000E+00  0.00000000000E+00  0.45593999997E+02  0.45594000000E+02  0.51100000000E-03 0.  1.
         11   -1    0    0    0    0 -0.00000000000E+00 -0.00000000000E+00 -0.45593999997E+02  0.45594000000E+02  0.51100000000E-03 0. -1.
    9900012    2    1    2    0    0 -0.28766386948E+02 -0.65800551483E+01  0.34033974223E+02  0.46142317130E+02  0.99999942480E+01 0.  0.
         12    1    1    2    0    0  0.28766386948E+02  0.65800551483E+01 -0.34033974223E+02  0.45045682870E+02  0.00000000000E+00 0. -1.
         11    1    3    3    0    0 -0.23002484227E+01 -0.29657574831E+01  0.36808838121E+01  0.52569730981E+01  0.51100000000E-03 0. -1.
        -11    1    3    3    0    0 -0.15172243447E+02 -0.38159625591E+01  0.21194654527E+02  0.26343346831E+02  0.51100000000E-03 0.  1.
         12    1    3    3    0    0 -0.11293895079E+02  0.20166489385E+00  0.91584358833E+01  0.14541997201E+02  0.00000000000E+00 0. -1.
</event>
<event>
 7    1  0.1445801E-008  0.4614232E+02  0.7816164E-02  0.1320468E+00
        -11   -1    0    0    0    0  0.00000000000E+00  0.00000000000E+00  0.45593999997E+02  0.45594000000E+02  0.51100000000E-03 0. -1.
         11   -1    0    0    0    0 -0.00000000000E+00 -0.00000000000E+00 -0.45593999997E+02  0.45594000000E+02  0.51100000000E-03 0.  1.
    9900012    2    1    2    0    0  0.44212778128E+01  0.17233872663E+02 -0.41383082803E+02  0.46142316447E+02  0.99999880169E+01 0.  0.
         12    1    1    2    0    0 -0.44212778128E+01 -0.17233872663E+02  0.41383082803E+02  0.45045683553E+02  0.00000000000E+00 0. -1.
         11    1    3    3    0    0  0.18945803575E+01 -0.75222592536E-01 -0.18332988125E+01  0.26374377654E+01  0.51100000000E-03 0. -1.
        -11    1    3    3    0    0 -0.59214261908E-01  0.13419179073E+02 -0.28136686932E+02  0.31172921344E+02  0.51100000000E-03 0.  1.
         12    1    3    3    0    0  0.25859117172E+01  0.38899161827E+01 -0.11413097058E+02  0.12331957338E+02  0.00000000000E+00 0. -1.
</event>
<event>
 7    1  0.1445801E-008  0.4614231E+02  0.7816164E-02  0.1320468E+00
        -11   -1    0    0    0    0  0.00000000000E+00  0.00000000000E+00  0.45593999997E+02  0.45594000000E+02  0.51100000000E-03 0.  1.
         11   -1    0    0    0    0 -0.00000000000E+00 -0.00000000000E+00 -0.45593999997E+02  0.45594000000E+02  0.51100000000E-03 0. -1.
    9900012    2    1    2    0    0 -0.29426751152E+02 -0.29515096288E+02  0.17089160684E+02  0.46142312025E+02  0.99999476944E+01 0.  0.
         12    1    1    2    0    0  0.29426751152E+02  0.29515096288E+02 -0.17089160684E+02  0.45045687975E+02  0.00000000000E+00 0. -1.
         11    1    3    3    0    0 -0.19518083622E+02 -0.20649520372E+02  0.14546070893E+02  0.31920940753E+02  0.51100000000E-03 0. -1.
        -11    1    3    3    0    0 -0.91762054878E+01 -0.82207384612E+01  0.95446149122E+00  0.12356952901E+02  0.51100000000E-03 0.  1.
         12    1    3    3    0    0 -0.73246204182E+00 -0.64483745472E+00  0.15886283002E+01  0.18644183709E+01  0.00000000000E+00 0. -1.
</event>
<event>
 7    1  0.1445801E-008  0.4614232E+02  0.7816164E-02  0.1320468E+00
        -11   -1    0    0    0    0  0.00000000000E+00  0.00000000000E+00  0.45593999997E+02  0.45594000000E+02  0.51100000000E-03 0.  1.
         11   -1    0    0    0    0 -0.00000000000E+00 -0.00000000000E+00 -0.45593999997E+02  0.45594000000E+02  0.51100000000E-03 0. -1.
    9900012    2    1    2    0    0  0.42415413224E+02  0.52597307578E+01  0.14226086325E+02  0.46142316758E+02  0.99999908536E+01 0.  0.
         12    1    1    2    0    0 -0.42415413224E+02 -0.52597307578E+01 -0.14226086325E+02  0.45045683242E+02  0.00000000000E+00 0. -1.
         11    1    3    3    0    0  0.10904532695E+02  0.27693444327E+01  0.12811831567E+01  0.11323406397E+02  0.51100000000E-03 0. -1.
        -11    1    3    3    0    0  0.25449092661E+02  0.15633221218E+01  0.73942416567E+01  0.26547600706E+02  0.51100000000E-03 0.  1.
         12    1    3    3    0    0  0.60617878679E+01  0.92706420331E+00  0.55506615115E+01  0.82713096549E+01  0.00000000000E+00 0. -1.
</event>
<event>
 7    1  0.1445801E-008  0.4614232E+02  0.7816164E-02  0.1320468E+00
        -11   -1    0    0    0    0  0.00000000000E+00  0.00000000000E+00  0.45593999997E+02  0.45594000000E+02  0.51100000000E-03 0.  1.
         11   -1    0    0    0    0 -0.00000000000E+00 -0.00000000000E+00 -0.45593999997E+02  0.45594000000E+02  0.51100000000E-03 0. -1.
    9900012    2    1    2    0    0  0.33956191463E+01  0.85519235351E+01  0.44095895091E+02  0.46142316640E+02  0.99999897731E+01 0.  0.
         12    1    1    2    0    0 -0.33956191463E+01 -0.85519235351E+01 -0.44095895091E+02  0.45045683360E+02  0.00000000000E+00 0. -1.
         11    1    3    3    0    0 -0.49518934750E+00  0.74201105621E+01  0.18716684889E+02  0.20139949025E+02  0.51100000000E-03 0. -1.
        -11    1    3    3    0    0  0.42459129284E+01  0.19326737077E+01  0.19053948627E+02  0.19616726608E+02  0.51100000000E-03 0.  1.
         12    1    3    3    0    0 -0.35510443461E+00 -0.80086073473E+00  0.63252615746E+01  0.63856410065E+01  0.00000000000E+00 0. -1.
</event>
<event>
 7    1  0.1445801E-008  0.4614232E+02  0.7816164E-02  0.1320468E+00
        -11   -1    0    0    0    0  0.00000000000E+00  0.00000000000E+00  0.45593999997E+02  0.45594000000E+02  0.51100000000E-03 0. -1.
         11   -1    0    0    0    0 -0.00000000000E+00 -0.00000000000E+00 -0.45593999997E+02  0.45594000000E+02  0.51100000000E-03 0.  1.
    9900012    2    1    2    0    0  0.32532647717E+02 -0.23184580840E+02 -0.20813835723E+02  0.46142315259E+02  0.99999771878E+01 0.  0.
         12    1    1    2    0    0 -0.32532647717E+02  0.23184580840E+02  0.20813835723E+02  0.45045684741E+02  0.00000000000E+00 0. -1.
         11    1    3    3    0    0  0.14534273323E+02 -0.10444876281E+02 -0.78449198141E+01  0.19541834834E+02  0.51100000000E-03 0. -1.
        -11    1    3    3    0    0  0.35232725746E+01 -0.65775991284E+01 -0.48193988492E+01  0.88828410690E+01  0.51100000000E-03 0.  1.
        -12    1    3    3    0    0  0.14475101820E+02 -0.61621054307E+01 -0.81495170602E+01  0.17717639356E+02  0.00000000000E+00 0.  1.
</event>
<event>
 7    1  0.1445801E-008  0.4614232E+02  0.7816164E-02  0.1320468E+00
        -11   -1    0    0    0    0  0.00000000000E+00  0.00000000000E+00  0.45593999997E+02  0.45594000000E+02  0.51100000000E-03 0. -1.
         11   -1    0    0    0    0 -0.00000000000E+00 -0.00000000000E+00 -0.45593999997E+02  0.45594000000E+02  0.51100000000E-03 0.  1.
    9900012    2    1    2    0    0  0.58147655456E+01  0.40741530805E+02 -0.18314738949E+02  0.46142317704E+02  0.99999994829E+01 0.  0.
         12    1    1    2    0    0 -0.58147655456E+01 -0.40741530805E+02  0.18314738949E+02  0.45045682296E+02  0.00000000000E+00 0. -1.
         11    1    3    3    0    0  0.13467214654E+01  0.36623147199E+01  0.18710330148E+00  0.39065605998E+01  0.51100000000E-03 0. -1.
        -11    1    3    3    0    0 -0.12981090893E+01  0.14485445023E+02 -0.86545242921E+01  0.16923770138E+02  0.51100000000E-03 0.  1.
        -12    1    3    3    0    0  0.57661531695E+01  0.22593771063E+02 -0.98473179581E+01  0.25311986966E+02  0.00000000000E+00 0.  1.
</event>
<event>
 7    1  0.1445801E-008  0.4614231E+02  0.7816164E-02  0.1320468E+00
        -11   -1    0    0    0    0  0.00000000000E+00  0.00000000000E+00  0.45593999997E+02  0.45594000000E+02  0.51100000000E-03 0.  1.
         11   -1    0    0    0    0 -0.00000000000E+00 -0.00000000000E+00 -0.45593999997E+02  0.45594000000E+02  0.51100000000E-03 0. -1.
    9900012    2    1    2    0    0  0.35144974089E+02 -0.22184431725E+02  0.17372263383E+02  0.46142314860E+02  0.99999735471E+01 0.  0.
         12    1    1    2    0    0 -0.35144974089E+02  0.22184431725E+02 -0.17372263383E+02  0.45045685140E+02  0.00000000000E+00 0. -1.
         11    1    3    3    0    0  0.29629348891E+01 -0.39469229249E+01  0.93053823589E+00  0.50222589939E+01  0.51100000000E-03 0. -1.
        -11    1    3    3    0    0  0.14742047598E+02 -0.43030351037E+01  0.71564257999E+01  0.16942801096E+02  0.51100000000E-03 0.  1.
        -12    1    3    3    0    0  0.17439991602E+02 -0.13934473696E+02  0.92852993472E+01  0.24177254770E+02  0.00000000000E+00 0.  1.
</event>
<event>
 7    1  0.1445801E-008  0.4614232E+02  0.7816164E-02  0.1320468E+00
        -11   -1    0    0    0    0  0.00000000000E+00  0.00000000000E+00  0.45593999997E+02  0.45594000000E+02  0.51100000000E-03 0.  1.
         11   -1    0    0    0    0 -0.00000000000E+00 -0.00000000000E+00 -0.45593999997E+02  0.45594000000E+02  0.51100000000E-03 0. -1.
    9900012    2    1    2    0    0  0.84771106271E+01  0.39169832658E+02  0.20566387920E+02  0.46142317553E+02  0.99999981062E+01 0.  0.
         12    1    1    2    0    0 -0.84771106271E+01 -0.39169832658E+02 -0.20566387920E+02  0.45045682447E+02  0.00000000000E+00 0. -1.
         11    1    3    3    0    0  0.51877277724E+01  0.16189176109E+02  0.75974698326E+01  0.18620512631E+02  0.51100000000E-03 0.  1.
        -11    1    3    3    0    0 -0.21738586672E-01  0.12185001245E+01  0.32277064035E+01  0.34501165209E+01  0.51100000000E-03 0. -1.
         12    1    3    3    0    0  0.33111214413E+01  0.21762156424E+02  0.97412116837E+01  0.24071688401E+02  0.00000000000E+00 0. -1.
</event>
<event>
 7    1  0.1445801E-008  0.4614232E+02  0.7816164E-02  0.1320468E+00
        -11   -1    0    0    0    0  0.00000000000E+00  0.00000000000E+00  0.45593999997E+02  0.45594000000E+02  0.51100000000E-03 0.  1.
         11   -1    0    0    0    0 -0.00000000000E+00 -0.00000000000E+00 -0.45593999997E+02  0.45594000000E+02  0.51100000000E-03 0. -1.
    9900012    2    1    2    0    0  0.15523982217E+02  0.21971287932E+02  0.36130071436E+02  0.46142316752E+02  0.99999907995E+01 0.  0.
         12    1    1    2    0    0 -0.15523982217E+02 -0.21971287932E+02 -0.36130071436E+02  0.45045683248E+02  0.00000000000E+00 0. -1.
         11    1    3    3    0    0  0.83248465231E+01  0.11971546787E+02  0.14181105703E+02  0.20340225203E+02  0.51100000000E-03 0. -1.
        -11    1    3    3    0    0  0.12041785008E+01 -0.58362345418E+00  0.30039706889E+01  0.32885410685E+01  0.51100000000E-03 0.  1.
        -12    1    3    3    0    0  0.59949571935E+01  0.10583364599E+02  0.18944995045E+02  0.22513550480E+02  0.00000000000E+00 0.  1.
</event>
<event>
 7    1  0.1445801E-008  0.4614232E+02  0.7816164E-02  0.1320468E+00
        -11   -1    0    0    0    0  0.00000000000E+00  0.00000000000E+00  0.45593999997E+02  0.45594000000E+02  0.51100000000E-03 0.  1.
         11   -1    0    0    0    0 -0.00000000000E+00 -0.00000000000E+00 -0.45593999997E+02  0.45594000000E+02  0.51100000000E-03 0. -1.
    9900012    2    1    2    0    0 -0.10615161379E+02 -0.47305577473E+01  0.43520726114E+02  0.46142318418E+02  0.10000005990E+02 0.  0.
         12    1    1    2    0    0  0.10615161379E+02  0.47305577473E+01 -0.43520726114E+02  0.45045681582E+02  0.00000000000E+00 0. -1.
         11    1    3    3    0    0  0.97984194942E+00  0.97899816490E+00  0.33082876666E+01  0.35865436284E+01  0.51100000000E-03 0. -1.
        -11    1    3    3    0    0 -0.61200161733E+01 -0.65264389272E+00  0.22782868513E+02  0.23599568640E+02  0.51100000000E-03 0.  1.
         12    1    3    3    0    0 -0.54749871548E+01 -0.50569120195E+01  0.17429569934E+02  0.18956206150E+02  0.00000000000E+00 0. -1.
</event>
<event>
 7    1  0.1445801E-008  0.4614232E+02  0.7816164E-02  0.1320468E+00
        -11   -1    0    0    0    0  0.00000000000E+00  0.00000000000E+00  0.45593999997E+02  0.45594000000E+02  0.51100000000E-03 0. -1.
         11   -1    0    0    0    0 -0.00000000000E+00 -0.00000000000E+00 -0.45593999997E+02  0.45594000000E+02  0.51100000000E-03 0.  1.
    9900012    2    1    2    0    0 -0.39787836855E+02  0.13081472788E+02 -0.16580613214E+02  0.46142316228E+02  0.99999860192E+01 0.  0.
         12    1    1    2    0    0  0.39787836855E+02 -0.13081472788E+02  0.16580613214E+02  0.45045683772E+02  0.00000000000E+00 0. -1.
         11    1    3    3    0    0 -0.20221449493E+02  0.29233709972E+01 -0.69508217017E+01  0.21581636642E+02  0.51100000000E-03 0. -1.
        -11    1    3    3    0    0 -0.19186696425E+02  0.10298229304E+02 -0.10044934466E+02  0.23980899799E+02  0.51100000000E-03 0.  1.
        -12    1    3    3    0    0 -0.37969093799E+00 -0.14012751286E+00  0.41514295405E+00  0.57977978626E+00  0.00000000000E+00 0.  1.
</event>
<event>
 7    1  0.1445801E-008  0.4614232E+02  0.7816164E-02  0.1320468E+00
        -11   -1    0    0    0    0  0.00000000000E+00  0.00000000000E+00  0.45593999997E+02  0.45594000000E+02  0.51100000000E-03 0. -1.
         11   -1    0    0    0    0 -0.00000000000E+00 -0.00000000000E+00 -0.45593999997E+02  0.45594000000E+02  0.51100000000E-03 0.  1.
    9900012    2    1    2    0    0 -0.17374405679E+02 -0.40749402399E+02 -0.81688298479E+01  0.46142317081E+02  0.99999937976E+01 0.  0.
         12    1    1    2    0    0  0.17374405679E+02  0.40749402399E+02  0.81688298479E+01  0.45045682919E+02  0.00000000000E+00 0. -1.
         11    1    3    3    0    0 -0.58599198475E+01 -0.21051947263E+02 -0.20525221084E+01  0.21948484947E+02  0.51100000000E-03 0. -1.
        -11    1    3    3    0    0 -0.94989858777E+01 -0.15402853747E+02 -0.69349503860E+01  0.19379684553E+02  0.51100000000E-03 0.  1.
         12    1    3    3    0    0 -0.20154999537E+01 -0.42946013885E+01  0.81864264645E+00  0.48141475811E+01  0.00000000000E+00 0. -1.
</event>
<event>
 7    1  0.1445801E-008  0.4614231E+02  0.7816164E-02  0.1320468E+00
        -11   -1    0    0    0    0  0.00000000000E+00  0.00000000000E+00  0.45593999997E+02  0.45594000000E+02  0.51100000000E-03 0. -1.
         11   -1    0    0    0    0 -0.00000000000E+00 -0.00000000000E+00 -0.45593999997E+02  0.45594000000E+02  0.51100000000E-03 0.  1.
    9900012    2    1    2    0    0  0.14946679226E+02  0.22433330964E+02 -0.36089557926E+02  0.46142314865E+02  0.99999735904E+01 0.  0.
         12    1    1    2    0    0 -0.14946679226E+02 -0.22433330964E+02  0.36089557926E+02  0.45045685135E+02  0.00000000000E+00 0. -1.
         11    1    3    3    0    0  0.41522043035E+01  0.11690097060E+02 -0.12213524740E+02  0.17408887290E+02  0.51100000000E-03 0. -1.
        -11    1    3    3    0    0  0.67784620875E+01  0.91117812042E+01 -0.14619540675E+02  0.18512241215E+02  0.51100000000E-03 0.  1.
         12    1    3    3    0    0  0.40160128350E+01  0.16314526995E+01 -0.92564925103E+01  0.10221186359E+02  0.00000000000E+00 0. -1.
</event>
<event>
 7    1  0.1445801E-008  0.4614232E+02  0.7816164E-02  0.1320468E+00
        -11   -1    0    0    0    0  0.00000000000E+00  0.00000000000E+00  0.45593999997E+02  0.45594000000E+02  0.51100000000E-03 0. -1.
         11   -1    0    0    0    0 -0.00000000000E+00 -0.00000000000E+00 -0.45593999997E+02  0.45594000000E+02  0.51100000000E-03 0.  1.
    9900012    2    1    2    0    0  0.36000246547E+02  0.16720270296E+01 -0.27024064906E+02  0.46142317523E+02  0.99999978260E+01 0.  0.
         12    1    1    2    0    0 -0.36000246547E+02 -0.16720270296E+01  0.27024064906E+02  0.45045682477E+02  0.00000000000E+00 0. -1.
         11    1    3    3    0    0  0.16481799303E+01  0.50238894328E+00 -0.15341787237E+01  0.23070752806E+01  0.51100000000E-03 0.  1.
        -11    1    3    3    0    0  0.29948391612E+02  0.20367841691E+01 -0.17707168016E+02  0.34851089643E+02  0.51100000000E-03 0. -1.
         12    1    3    3    0    0  0.44036750048E+01 -0.86714608286E+00 -0.77827181660E+01  0.89841525994E+01  0.00000000000E+00 0. -1.
</event>
<event>
 7    1  0.1445801E-008  0.4614231E+02  0.7816164E-02  0.1320468E+00
        -11   -1    0    0    0    0  0.00000000000E+00  0.00000000000E+00  0.45593999997E+02  0.45594000000E+02  0.51100000000E-03 0.  1.
         11   -1    0    0    0    0 -0.00000000000E+00 -0.00000000000E+00 -0.45593999997E+02  0.45594000000E+02  0.51100000000E-03 0. -1.
    9900012    2    1    2    0    0 -0.13506720859E+02 -0.36062811355E+02  0.23369994612E+02  0.46142306317E+02  0.99998956469E+01 0.  0.
         12    1    1    2    0    0  0.13506720859E+02  0.36062811355E+02 -0.23369994612E+02  0.45045693683E+02  0.00000000000E+00 0. -1.
         11    1    3    3    0    0 -0.57692223812E+01 -0.17473226740E+02  0.15656066548E+02  0.24160091051E+02  0.51100000000E-03 0.  1.
        -11    1    3    3    0    0 -0.44203268440E+01 -0.67026248322E+01  0.15110345841E+01  0.81699262435E+01  0.51100000000E-03 0. -1.
        -12    1    3    3    0    0 -0.33171716342E+01 -0.11886959783E+02  0.62028934800E+01  0.13812289023E+02  0.00000000000E+00 0.  1.
</event>
<event>
 7    1  0.1445801E-008  0.4614232E+02  0.7816164E-02  0.1320468E+00
        -11   -1    0    0    0    0  0.00000000000E+00  0.00000000000E+00  0.45593999997E+02  0.45594000000E+02  0.51100000000E-03 0.  1.
         11   -1    0    0    0    0 -0.00000000000E+00 -0.00000000000E+00 -0.45593999997E+02  0.45594000000E+02  0.51100000000E-03 0. -1.
    9900012    2    1    2    0    0  0.17288160708E+02 -0.34519466418E+02  0.23208606750E+02  0.46142317745E+02  0.99999998571E+01 0.  0.
         12    1    1    2    0    0 -0.17288160708E+02  0.34519466418E+02 -0.23208606750E+02  0.45045682255E+02  0.00000000000E+00 0. -1.
         11    1    3    3    0    0  0.12556799505E+02 -0.14847798414E+02  0.11471007096E+02  0.22576853980E+02  0.51100000000E-03 0. -1.
        -11    1    3    3    0    0  0.42793523025E+01 -0.14052109757E+02  0.73736351845E+01  0.16436092627E+02  0.51100000000E-03 0.  1.
         12    1    3    3    0    0  0.45200890079E+00 -0.56195582471E+01  0.43639644698E+01  0.71293711386E+01  0.00000000000E+00 0. -1.
</event>
<event>
 7    1  0.1445801E-008  0.4614231E+02  0.7816164E-02  0.1320468E+00
        -11   -1    0    0    0    0  0.00000000000E+00  0.00000000000E+00  0.45593999997E+02  0.45594000000E+02  0.51100000000E-03 0. -1.
         11   -1    0    0    0    0 -0.00000000000E+00 -0.00000000000E+00 -0.45593999997E+02  0.45594000000E+02  0.51100000000E-03 0.  1.
    9900012    2    1    2    0    0 -0.22833675988E+02  0.96553918112E+01 -0.37609984203E+02  0.46142309175E+02  0.99999217003E+01 0.  0.
         12    1    1    2    0    0  0.22833675988E+02 -0.96553918112E+01  0.37609984203E+02  0.45045690825E+02  0.00000000000E+00 0. -1.
         11    1    3    3    0    0 -0.20048896488E+02  0.77982222356E+01 -0.30900537937E+02  0.37651212006E+02  0.51100000000E-03 0.  1.
        -11    1    3    3    0    0 -0.10529581194E+01  0.24535802407E+01 -0.17198966388E+01  0.31759756781E+01  0.51100000000E-03 0. -1.
        -12    1    3    3    0    0 -0.17318213807E+01 -0.59641066510E+00 -0.49895496276E+01  0.53151214909E+01  0.00000000000E+00 0.  1.
</event>
<event>
 7    1  0.1445801E-008  0.4614231E+02  0.7816164E-02  0.1320468E+00
        -11   -1    0    0    0    0  0.00000000000E+00  0.00000000000E+00  0.45593999997E+02  0.45594000000E+02  0.51100000000E-03 0.  1.
         11   -1    0    0    0    0 -0.00000000000E+00 -0.00000000000E+00 -0.45593999997E+02  0.45594000000E+02  0.51100000000E-03 0. -1.
    9900012    2    1    2    0    0  0.34799766080E+01 -0.21632268771E+01  0.44858942586E+02  0.46142306336E+02  0.99998958157E+01 0.  0.
         12    1    1    2    0    0 -0.34799766080E+01  0.21632268771E+01 -0.44858942586E+02  0.45045693664E+02  0.00000000000E+00 0. -1.
         11    1    3    3    0    0 -0.17776903021E+01  0.22949064945E+01  0.96630846680E+01  0.10089696933E+02  0.51100000000E-03 0. -1.
        -11    1    3    3    0    0  0.48551578045E+01 -0.47662398788E+01  0.34633771059E+02  0.35295717841E+02  0.51100000000E-03 0.  1.
        -12    1    3    3    0    0  0.40250910556E+00  0.30810650719E+00  0.56208685965E+00  0.75689156266E+00  0.00000000000E+00 0.  1.
</event>
<event>
 7    1  0.1445801E-008  0.4614232E+02  0.7816164E-02  0.1320468E+00
        -11   -1    0    0    0    0  0.00000000000E+00  0.00000000000E+00  0.45593999997E+02  0.45594000000E+02  0.51100000000E-03 0.  1.
         11   -1    0    0    0    0 -0.00000000000E+00 -0.00000000000E+00 -0.45593999997E+02  0.45594000000E+02  0.51100000000E-03 0. -1.
    9900012    2    1    2    0    0 -0.13899977803E+02  0.43261127236E+01  0.42628498566E+02  0.46142317363E+02  0.99999963671E+01 0.  0.
         12    1    1    2    0    0  0.13899977803E+02 -0.43261127236E+01 -0.42628498566E+02  0.45045682637E+02  0.00000000000E+00 0. -1.
         11    1    3    3    0    0 -0.85118258677E+00 -0.23363981515E+01  0.46058949109E+01  0.52342655941E+01  0.51100000000E-03 0. -1.
        -11    1    3    3    0    0 -0.11554005977E+02  0.53811438393E+01  0.29068169575E+02  0.31739726619E+02  0.51100000000E-03 0.  1.
        -12    1    3    3    0    0 -0.14947892402E+01  0.12813670358E+01  0.89544340801E+01  0.91683251496E+01  0.00000000000E+00 0.  1.
</event>
<event>
 7    1  0.1445801E-008  0.4614232E+02  0.7816164E-02  0.1320468E+00
        -11   -1    0    0    0    0  0.00000000000E+00  0.00000000000E+00  0.45593999997E+02  0.45594000000E+02  0.51100000000E-03 0.  1.
         11   -1    0    0    0    0 -0.00000000000E+00 -0.00000000000E+00 -0.45593999997E+02  0.45594000000E+02  0.51100000000E-03 0. -1.
    9900012    2    1    2    0    0 -0.35603055171E+02 -0.88326318505E+01  0.26144226260E+02  0.46142317747E+02  0.99999998723E+01 0.  0.
         12    1    1    2    0    0  0.35603055171E+02  0.88326318505E+01 -0.26144226260E+02  0.45045682253E+02  0.00000000000E+00 0. -1.
         11    1    3    3    0    0 -0.99668660566E+00 -0.15068986628E+01  0.23951736854E+01  0.30001641646E+01  0.51100000000E-03 0. -1.
        -11    1    3    3    0    0 -0.16630489412E+02 -0.69460848202E+01  0.11279516268E+02  0.21261438331E+02  0.51100000000E-03 0.  1.
        -12    1    3    3    0    0 -0.17975879153E+02 -0.37964836753E+00  0.12469536307E+02  0.21880715251E+02  0.00000000000E+00 0.  1.
</event>
<event>
 7    1  0.1445801E-008  0.4614231E+02  0.7816164E-02  0.1320468E+00
        -11   -1    0    0    0    0  0.00000000000E+00  0.00000000000E+00  0.45593999997E+02  0.45594000000E+02  0.51100000000E-03 0.  1.
         11   -1    0    0    0    0 -0.00000000000E+00 -0.00000000000E+00 -0.45593999997E+02  0.45594000000E+02  0.51100000000E-03 0. -1.
    9900012    2    1    2    0    0  0.32153428597E+02 -0.66116341598E+01  0.30847323401E+02  0.46142311663E+02  0.99999443880E+01 0.  0.
         12    1    1    2    0    0 -0.32153428597E+02  0.66116341598E+01 -0.30847323401E+02  0.45045688337E+02  0.00000000000E+00 0. -1.
         11    1    3    3    0    0  0.88124109902E+01  0.12456251518E+00  0.74425332684E+01  0.11535397912E+02  0.51100000000E-03 0. -1.
        -11    1    3    3    0    0  0.20680415809E+02 -0.35876782868E+01  0.21563880656E+02  0.30092390778E+02  0.51100000000E-03 0.  1.
         12    1    3    3    0    0  0.26606017976E+01 -0.31485183881E+01  0.18409094760E+01  0.45145229720E+01  0.00000000000E+00 0. -1.
</event>
<event>
 7    1  0.1445801E-008  0.4614232E+02  0.7816164E-02  0.1320468E+00
        -11   -1    0    0    0    0  0.00000000000E+00  0.00000000000E+00  0.45593999997E+02  0.45594000000E+02  0.51100000000E-03 0. -1.
         11   -1    0    0    0    0 -0.00000000000E+00 -0.00000000000E+00 -0.45593999997E+02  0.45594000000E+02  0.51100000000E-03 0.  1.
    9900012    2    1    2    0    0 -0.36254983479E+02 -0.26522778928E+02  0.33513981951E+01  0.46142317643E+02  0.99999989239E+01 0.  0.
         12    1    1    2    0    0  0.36254983479E+02  0.26522778928E+02 -0.33513981951E+01  0.45045682357E+02  0.00000000000E+00 0. -1.
         11    1    3    3    0    0 -0.55701526755E+01 -0.47609265448E+01  0.38416415062E+01  0.82735259785E+01  0.51100000000E-03 0. -1.
        -11    1    3    3    0    0 -0.14027535081E+02 -0.84812189394E+01 -0.19901059129E+01  0.16512520611E+02  0.51100000000E-03 0.  1.
        -12    1    3    3    0    0 -0.16657295723E+02 -0.13280633444E+02  0.14998626018E+01  0.21356271053E+02  0.00000000000E+00 0.  1.
</event>
<event>
 7    1  0.1445801E-008  0.4614232E+02  0.7816164E-02  0.1320468E+00
        -11   -1    0    0    0    0  0.00000000000E+00  0.00000000000E+00  0.45593999997E+02  0.45594000000E+02  0.51100000000E-03 0.  1.
         11   -1    0    0    0    0 -0.00000000000E+00 -0.00000000000E+00 -0.45593999997E+02  0.45594000000E+02  0.51100000000E-03 0. -1.
    9900012    2    1    2    0    0 -0.95389877533E+01 -0.32801879827E+02  0.29362521450E+02  0.46142320146E+02  0.10000021752E+02 0.  0.
         12    1    1    2    0    0  0.95389877533E+01  0.32801879827E+02 -0.29362521450E+02  0.45045679854E+02  0.00000000000E+00 0. -1.
         11    1    3    3    0    0 -0.38972425855E+01 -0.18453842517E+02  0.14251631941E+02  0.23639835377E+02  0.51100000000E-03 0. -1.
        -11    1    3    3    0    0  0.84459142702E+00 -0.44060267399E+01  0.62304624670E+01  0.76775692198E+01  0.51100000000E-03 0.  1.
         12    1    3    3    0    0 -0.64863365949E+01 -0.99420105704E+01  0.88804270420E+01  0.14824915550E+02  0.00000000000E+00 0. -1.
</event>
<event>
 7    1  0.1445801E-008  0.4614232E+02  0.7816164E-02  0.1320468E+00
        -11   -1    0    0    0    0  0.00000000000E+00  0.00000000000E+00  0.45593999997E+02  0.45594000000E+02  0.51100000000E-03 0. -1.
         11   -1    0    0    0    0 -0.00000000000E+00 -0.00000000000E+00 -0.45593999997E+02  0.45594000000E+02  0.51100000000E-03 0.  1.
    9900012    2    1    2    0    0 -0.37670490855E+02  0.89920073462E+01 -0.23004162157E+02  0.46142317033E+02  0.99999933615E+01 0.  0.
         12    1    1    2    0    0  0.37670490855E+02 -0.89920073462E+01  0.23004162157E+02  0.45045682967E+02  0.00000000000E+00 0. -1.
         11    1    3    3    0    0 -0.28586977454E+01  0.56685340270E+00 -0.31878526147E+01  0.43192453199E+01  0.51100000000E-03 0. -1.
        -11    1    3    3    0    0 -0.30133686378E+02  0.67851499616E+01 -0.13285963728E+02  0.33624308872E+02  0.51100000000E-03 0.  1.
        -12    1    3    3    0    0 -0.46781067322E+01  0.16400039819E+01 -0.65303458147E+01  0.81987628407E+01  0.00000000000E+00 0.  1.
</event>
<event>
 7    1  0.1445801E-008  0.4614232E+02  0.7816164E-02  0.1320468E+00
        -11   -1    0    0    0    0  0.00000000000E+00  0.00000000000E+00  0.45593999997E+02  0.45594000000E+02  0.51100000000E-03 0. -1.
         11   -1    0    0    0    0 -0.00000000000E+00 -0.00000000000E+00 -0.45593999997E+02  0.45594000000E+02  0.51100000000E-03 0.  1.
    9900012    2    1    2    0    0  0.25813781028E+01 -0.42130144013E+02 -0.15732162903E+02  0.46142317664E+02  0.99999991166E+01 0.  0.
         12    1    1    2    0    0 -0.25813781028E+01  0.42130144013E+02  0.15732162903E+02  0.45045682336E+02  0.00000000000E+00 0. -1.
         11    1    3    3    0    0 -0.27390062869E+01 -0.64659636207E+01 -0.35761225682E+01  0.78803232083E+01  0.51100000000E-03 0. -1.
        -11    1    3    3    0    0  0.40583071973E+01 -0.21724834688E+02 -0.55602608745E+01  0.22789357183E+02  0.51100000000E-03 0.  1.
         12    1    3    3    0    0  0.12620771924E+01 -0.13939345704E+02 -0.65957794605E+01  0.15472637273E+02  0.00000000000E+00 0. -1.
</event>
<event>
 7    1  0.1445801E-008  0.4614232E+02  0.7816164E-02  0.1320468E+00
        -11   -1    0    0    0    0  0.00000000000E+00  0.00000000000E+00  0.45593999997E+02  0.45594000000E+02  0.51100000000E-03 0.  1.
         11   -1    0    0    0    0 -0.00000000000E+00 -0.00000000000E+00 -0.45593999997E+02  0.45594000000E+02  0.51100000000E-03 0. -1.
    9900012    2    1    2    0    0 -0.20218259220E+02  0.38880181296E+02  0.10424333872E+02  0.46142320516E+02  0.10000025123E+02 0.  0.
         12    1    1    2    0    0  0.20218259220E+02 -0.38880181296E+02 -0.10424333872E+02  0.45045679484E+02  0.00000000000E+00 0. -1.
         11    1    3    3    0    0 -0.67733433850E+01  0.22846708588E+02  0.65704618951E+01  0.24718843899E+02  0.51100000000E-03 0. -1.
        -11    1    3    3    0    0 -0.10615143383E+02  0.12646661897E+02  0.19827384240E+01  0.16629809924E+02  0.51100000000E-03 0.  1.
         12    1    3    3    0    0 -0.28297724517E+01  0.33868108107E+01  0.18711335526E+01  0.47936666934E+01  0.00000000000E+00 0. -1.
</event>
<event>
 7    1  0.1445801E-008  0.4614232E+02  0.7816164E-02  0.1320468E+00
        -11   -1    0    0    0    0  0.00000000000E+00  0.00000000000E+00  0.45593999997E+02  0.45594000000E+02  0.51100000000E-03 0.  1.
         11   -1    0    0    0    0 -0.00000000000E+00 -0.00000000000E+00 -0.45593999997E+02  0.45594000000E+02  0.51100000000E-03 0. -1.
    9900012    2    1    2    0    0  0.12426243012E+02 -0.35551664349E+02  0.24713979128E+02  0.46142321875E+02  0.10000037517E+02 0.  0.
         12    1    1    2    0    0 -0.12426243012E+02  0.35551664349E+02 -0.24713979128E+02  0.45045678125E+02  0.00000000000E+00 0. -1.
         11    1    3    3    0    0  0.25854094182E+01 -0.21172458612E+02  0.14394645295E+02  0.25732531142E+02  0.51100000000E-03 0. -1.
        -11    1    3    3    0    0  0.79368697675E+01 -0.10126934870E+02  0.84298260521E+01  0.15382154566E+02  0.51100000000E-03 0.  1.
         12    1    3    3    0    0  0.19039638264E+01 -0.42522708664E+01  0.18895077813E+01  0.50276361671E+01  0.00000000000E+00 0. -1.
</event>
<event>
 7    1  0.1445801E-008  0.4614231E+02  0.7816164E-02  0.1320468E+00
        -11   -1    0    0    0    0  0.00000000000E+00  0.00000000000E+00  0.45593999997E+02  0.45594000000E+02  0.51100000000E-03 0. -1.
         11   -1    0    0    0    0 -0.00000000000E+00 -0.00000000000E+00 -0.45593999997E+02  0.45594000000E+02  0.51100000000E-03 0.  1.
    9900012    2    1    2    0    0 -0.68024224045E+01 -0.30822491083E+01 -0.44422299126E+02  0.46142313528E+02  0.99999613964E+01 0.  0.
         12    1    1    2    0    0  0.68024224045E+01  0.30822491083E+01  0.44422299126E+02  0.45045686472E+02  0.00000000000E+00 0. -1.
         11    1    3    3    0    0  0.42236568868E+00  0.15534144758E+01 -0.21881586170E+01  0.27165286126E+01  0.51100000000E-03 0. -1.
        -11    1    3    3    0    0 -0.14588003597E+01 -0.40237446273E+01 -0.16445725954E+02  0.16993543530E+02  0.51100000000E-03 0.  1.
         12    1    3    3    0    0 -0.57659877335E+01 -0.61191895672E+00 -0.25788414555E+02  0.26432241385E+02  0.00000000000E+00 0. -1.
</event>
<event>
 7    1  0.1445801E-008  0.4614232E+02  0.7816164E-02  0.1320468E+00
        -11   -1    0    0    0    0  0.00000000000E+00  0.00000000000E+00  0.45593999997E+02  0.45594000000E+02  0.51100000000E-03 0. -1.
         11   -1    0    0    0    0 -0.00000000000E+00 -0.00000000000E+00 -0.45593999997E+02  0.45594000000E+02  0.51100000000E-03 0.  1.
    9900012    2    1    2    0    0  0.50185210208E+01  0.19749224534E+02 -0.40173325105E+02  0.46142317932E+02  0.10000001563E+02 0.  0.
         12    1    1    2    0    0 -0.50185210208E+01 -0.19749224534E+02  0.40173325105E+02  0.45045682068E+02  0.00000000000E+00 0. -1.
         11    1    3    3    0    0  0.43889760898E+01  0.62194046451E+01 -0.14996653905E+02  0.16817958671E+02  0.51100000000E-03 0. -1.
        -11    1    3    3    0    0 -0.70587238709E+00  0.11368119252E+01 -0.12618885300E+00  0.13440688479E+01  0.51100000000E-03 0.  1.
        -12    1    3    3    0    0  0.13354173181E+01  0.12393007964E+02 -0.25050482347E+02  0.27980290413E+02  0.00000000000E+00 0.  1.
</event>
<event>
 7    1  0.1445801E-008  0.4614232E+02  0.7816164E-02  0.1320468E+00
        -11   -1    0    0    0    0  0.00000000000E+00  0.00000000000E+00  0.45593999997E+02  0.45594000000E+02  0.51100000000E-03 0. -1.
         11   -1    0    0    0    0 -0.00000000000E+00 -0.00000000000E+00 -0.45593999997E+02  0.45594000000E+02  0.51100000000E-03 0.  1.
    9900012    2    1    2    0    0 -0.15064361212E+02 -0.15865077431E+02 -0.39376108313E+02  0.46142316894E+02  0.99999920896E+01 0.  0.
         12    1    1    2    0    0  0.15064361212E+02  0.15865077431E+02  0.39376108313E+02  0.45045683106E+02  0.00000000000E+00 0. -1.
         11    1    3    3    0    0 -0.63932332318E+01 -0.26542836568E+01 -0.10008189579E+02  0.12168915802E+02  0.51100000000E-03 0. -1.
        -11    1    3    3    0    0 -0.56113545255E+01 -0.31454941942E+01 -0.13202071254E+02  0.14685915668E+02  0.51100000000E-03 0.  1.
         12    1    3    3    0    0 -0.30597734549E+01 -0.10065299580E+02 -0.16165847480E+02  0.19287485424E+02  0.00000000000E+00 0. -1.
</event>
<event>
 7    1  0.2157688E-008  0.4614232E+02  0.7816164E-02  0.1320468E+00
        -11   -1    0    0    0    0  0.00000000000E+00  0.00000000000E+00  0.45593999997E+02  0.45594000000E+02  0.51100000000E-03 0.  1.
         11   -1    0    0    0    0 -0.00000000000E+00 -0.00000000000E+00 -0.45593999997E+02  0.45594000000E+02  0.51100000000E-03 0. -1.
    9900012    2    1    2    0    0 -0.82426048944E+01  0.42145733670E+02  0.13598167232E+02  0.46142317031E+02  0.99999933467E+01 0.  0.
         12    1    1    2    0    0  0.82426048944E+01 -0.42145733670E+02 -0.13598167232E+02  0.45045682969E+02  0.00000000000E+00 0. -1.
         11    1    3    3    0    0  0.16554940829E-01  0.18088505317E+01 -0.13575403034E+01  0.22616653706E+01  0.51100000000E-03 0. -1.
        -11    1    3    3    0    0 -0.34054135937E+01  0.15993589958E+02  0.46191493130E+01  0.16992007007E+02  0.51100000000E-03 0.  1.
         12    1    3    3    0    0 -0.48537462415E+01  0.24343293181E+02  0.10336558222E+02  0.26888644654E+02  0.00000000000E+00 0. -1.
</event>
<event>
 7    1  0.1445801E-008  0.4614232E+02  0.7816164E-02  0.1320468E+00
        -11   -1    0    0    0    0  0.00000000000E+00  0.00000000000E+00  0.45593999997E+02  0.45594000000E+02  0.51100000000E-03 0.  1.
         11   -1    0    0    0    0 -0.00000000000E+00 -0.00000000000E+00 -0.45593999997E+02  0.45594000000E+02  0.51100000000E-03 0. -1.
    9900012    2    1    2    0    0  0.29255121997E+02 -0.30073621317E+02  0.16395994797E+02  0.46142317549E+02  0.99999980623E+01 0.  0.
         12    1    1    2    0    0 -0.29255121997E+02  0.30073621317E+02 -0.16395994797E+02  0.45045682451E+02  0.00000000000E+00 0. -1.
         11    1    3    3    0    0  0.40555295273E+01 -0.66946415412E+01  0.31472730292E+00  0.78335559390E+01  0.51100000000E-03 0. -1.
        -11    1    3    3    0    0  0.16918294801E+02 -0.17903057827E+02  0.95169127933E+01  0.26406813664E+02  0.51100000000E-03 0.  1.
         12    1    3    3    0    0  0.82812976686E+01 -0.54759219485E+01  0.65643547006E+01  0.11901947946E+02  0.00000000000E+00 0. -1.
</event>
<event>
 7    1  0.1445801E-008  0.4614232E+02  0.7816164E-02  0.1320468E+00
        -11   -1    0    0    0    0  0.00000000000E+00  0.00000000000E+00  0.45593999997E+02  0.45594000000E+02  0.51100000000E-03 0.  1.
         11   -1    0    0    0    0 -0.00000000000E+00 -0.00000000000E+00 -0.45593999997E+02  0.45594000000E+02  0.51100000000E-03 0. -1.
    9900012    2    1    2    0    0  0.11079585880E+02 -0.36255984472E+02  0.24328170024E+02  0.46142317742E+02  0.99999998296E+01 0.  0.
         12    1    1    2    0    0 -0.11079585880E+02  0.36255984472E+02 -0.24328170024E+02  0.45045682258E+02  0.00000000000E+00 0. -1.
         11    1    3    3    0    0  0.26171189294E+00 -0.11161210482E+02  0.69427595759E+01  0.13146977726E+02  0.51100000000E-03 0. -1.
        -11    1    3    3    0    0  0.40326181513E+01 -0.16432895792E+02  0.12009264026E+02  0.20749084220E+02  0.51100000000E-03 0.  1.
         12    1    3    3    0    0  0.67852558355E+01 -0.86618781981E+01  0.53761464227E+01  0.12246255796E+02  0.00000000000E+00 0. -1.
</event>
<event>
 7    1  0.1445801E-008  0.4614232E+02  0.7816164E-02  0.1320468E+00
        -11   -1    0    0    0    0  0.00000000000E+00  0.00000000000E+00  0.45593999997E+02  0.45594000000E+02  0.51100000000E-03 0.  1.
         11   -1    0    0    0    0 -0.00000000000E+00 -0.00000000000E+00 -0.45593999997E+02  0.45594000000E+02  0.51100000000E-03 0. -1.
    9900012    2    1    2    0    0 -0.51062920434E+01 -0.44664962443E+02  0.28426032053E+01  0.46142317838E+02  0.10000000704E+02 0.  0.
         12    1    1    2    0    0  0.51062920434E+01  0.44664962443E+02 -0.28426032053E+01  0.45045682162E+02  0.00000000000E+00 0. -1.
         11    1    3    3    0    0 -0.95063268864E+00 -0.19220795572E+02 -0.19156912835E+01  0.19339404290E+02  0.51100000000E-03 0. -1.
        -11    1    3    3    0    0 -0.36561275007E+01 -0.17013945934E+02  0.56845554939E+01  0.18307260744E+02  0.51100000000E-03 0.  1.
        -12    1    3    3    0    0 -0.49953185404E+00 -0.84302209373E+01 -0.92626100510E+00  0.84956528045E+01  0.00000000000E+00 0.  1.
</event>
<event>
 7    1  0.1445801E-008  0.4614232E+02  0.7816164E-02  0.1320468E+00
        -11   -1    0    0    0    0  0.00000000000E+00  0.00000000000E+00  0.45593999997E+02  0.45594000000E+02  0.51100000000E-03 0.  1.
         11   -1    0    0    0    0 -0.00000000000E+00 -0.00000000000E+00 -0.45593999997E+02  0.45594000000E+02  0.51100000000E-03 0. -1.
    9900012    2    1    2    0    0  0.29594568136E+02 -0.31920930140E+02 -0.11590051320E+02  0.46142317257E+02  0.99999954042E+01 0.  0.
         12    1    1    2    0    0 -0.29594568136E+02  0.31920930140E+02  0.11590051320E+02  0.45045682743E+02  0.00000000000E+00 0. -1.
         11    1    3    3    0    0  0.10157871445E+01  0.16430770604E+00  0.46080971313E+00  0.11274601536E+01  0.51100000000E-03 0. -1.
        -11    1    3    3    0    0  0.16598457051E+02 -0.21433526965E+02 -0.53091483084E+01  0.27624118279E+02  0.51100000000E-03 0.  1.
        -12    1    3    3    0    0  0.11980323941E+02 -0.10651710880E+02 -0.67417127250E+01  0.17390738825E+02  0.00000000000E+00 0.  1.
</event>
<event>
 7    1  0.1445801E-008  0.4614232E+02  0.7816164E-02  0.1320468E+00
        -11   -1    0    0    0    0  0.00000000000E+00  0.00000000000E+00  0.45593999997E+02  0.45594000000E+02  0.51100000000E-03 0.  1.
         11   -1    0    0    0    0 -0.00000000000E+00 -0.00000000000E+00 -0.45593999997E+02  0.45594000000E+02  0.51100000000E-03 0. -1.
    9900012    2    1    2    0    0  0.72691071683E+01  0.44455222324E+02 -0.83665045245E-01  0.46142315293E+02  0.99999774936E+01 0.  0.
         12    1    1    2    0    0 -0.72691071683E+01 -0.44455222324E+02  0.83665045245E-01  0.45045684707E+02  0.00000000000E+00 0. -1.
         11    1    3    3    0    0 -0.88661062664E+00  0.53890422410E+00 -0.35907003880E+00  0.10979197238E+01  0.51100000000E-03 0. -1.
        -11    1    3    3    0    0  0.33591870860E+01  0.26876679415E+02  0.25109477660E+01  0.27201928116E+02  0.51100000000E-03 0.  1.
         12    1    3    3    0    0  0.47965307090E+01  0.17039638685E+02 -0.22355427725E+01  0.17842467454E+02  0.00000000000E+00 0. -1.
</event>
<event>
 7    1  0.1445801E-008  0.4614232E+02  0.7816164E-02  0.1320468E+00
        -11   -1    0    0    0    0  0.00000000000E+00  0.00000000000E+00  0.45593999997E+02  0.45594000000E+02  0.51100000000E-03 0. -1.
         11   -1    0    0    0    0 -0.00000000000E+00 -0.00000000000E+00 -0.45593999997E+02  0.45594000000E+02  0.51100000000E-03 0.  1.
    9900012    2    1    2    0    0  0.20828588710E+02 -0.32355457616E+02  0.23418106764E+02  0.46142317970E+02  0.10000001901E+02 0.  0.
         12    1    1    2    0    0 -0.20828588710E+02  0.32355457616E+02 -0.23418106764E+02  0.45045682030E+02  0.00000000000E+00 0. -1.
         11    1    3    3    0    0  0.12684751028E+02 -0.17427576408E+02  0.11003748918E+02  0.24201359850E+02  0.51100000000E-03 0. -1.
        -11    1    3    3    0    0  0.22775897050E+01 -0.10422050474E+02  0.79076874835E+01  0.13279234637E+02  0.51100000000E-03 0.  1.
        -12    1    3    3    0    0  0.58662479767E+01 -0.45058307342E+01  0.45066703624E+01  0.86617234824E+01  0.00000000000E+00 0.  1.
</event>
<event>
 7    1  0.1445801E-008  0.4614232E+02  0.7816164E-02  0.1320468E+00
        -11   -1    0    0    0    0  0.00000000000E+00  0.00000000000E+00  0.45593999997E+02  0.45594000000E+02  0.51100000000E-03 0. -1.
         11   -1    0    0    0    0 -0.00000000000E+00 -0.00000000000E+00 -0.45593999997E+02  0.45594000000E+02  0.51100000000E-03 0.  1.
    9900012    2    1    2    0    0  0.18304841149E+02 -0.40433809457E+02  0.76911153096E+01  0.46142318615E+02  0.10000007786E+02 0.  0.
         12    1    1    2    0    0 -0.18304841149E+02  0.40433809457E+02 -0.76911153096E+01  0.45045681385E+02  0.00000000000E+00 0. -1.
         11    1    3    3    0    0  0.44491958512E+01 -0.51069012448E+01  0.13395302858E+01  0.69043555596E+01  0.51100000000E-03 0. -1.
        -11    1    3    3    0    0  0.11415876873E+02 -0.34132583468E+02  0.61641333026E+01  0.36515093299E+02  0.51100000000E-03 0.  1.
        -12    1    3    3    0    0  0.24397684251E+01 -0.11943247445E+01  0.18745172121E+00  0.27228697565E+01  0.00000000000E+00 0.  1.
</event>
<event>
 7    1  0.1445801E-008  0.4614232E+02  0.7816164E-02  0.1320468E+00
        -11   -1    0    0    0    0  0.00000000000E+00  0.00000000000E+00  0.45593999997E+02  0.45594000000E+02  0.51100000000E-03 0.  1.
         11   -1    0    0    0    0 -0.00000000000E+00 -0.00000000000E+00 -0.45593999997E+02  0.45594000000E+02  0.51100000000E-03 0. -1.
    9900012    2    1    2    0    0  0.41979965628E+02 -0.11471444667E+02 -0.11627643311E+02  0.46142316013E+02  0.99999840595E+01 0.  0.
         12    1    1    2    0    0 -0.41979965628E+02  0.11471444667E+02  0.11627643311E+02  0.45045683987E+02  0.00000000000E+00 0. -1.
         11    1    3    3    0    0  0.69861177474E+01  0.25280255159E+00  0.56878413967E+00  0.70137911267E+01  0.51100000000E-03 0. -1.
        -11    1    3    3    0    0  0.23983431449E+02 -0.70096773635E+01 -0.10187888021E+02  0.26983951219E+02  0.51100000000E-03 0.  1.
         12    1    3    3    0    0  0.11010416432E+02 -0.47145698547E+01 -0.20085394300E+01  0.12144573667E+02  0.00000000000E+00 0. -1.
</event>
<event>
 7    1  0.1445801E-008  0.4614231E+02  0.7816164E-02  0.1320468E+00
        -11   -1    0    0    0    0  0.00000000000E+00  0.00000000000E+00  0.45593999997E+02  0.45594000000E+02  0.51100000000E-03 0.  1.
         11   -1    0    0    0    0 -0.00000000000E+00 -0.00000000000E+00 -0.45593999997E+02  0.45594000000E+02  0.51100000000E-03 0. -1.
    9900012    2    1    2    0    0 -0.15317754391E+02  0.36713512513E+02  0.21132869300E+02  0.46142314685E+02  0.99999719493E+01 0.  0.
         12    1    1    2    0    0  0.15317754391E+02 -0.36713512513E+02 -0.21132869300E+02  0.45045685315E+02  0.00000000000E+00 0. -1.
         11    1    3    3    0    0 -0.63158524752E+00  0.12939541881E+01  0.20760134850E+01  0.25264697933E+01  0.51100000000E-03 0. -1.
        -11    1    3    3    0    0 -0.93381203388E+01  0.30627215646E+02  0.16238679472E+02  0.35901553461E+02  0.51100000000E-03 0.  1.
        -12    1    3    3    0    0 -0.53480488044E+01  0.47923426797E+01  0.28181763430E+01  0.77142914305E+01  0.00000000000E+00 0.  1.
</event>
<event>
 7    1  0.1445801E-008  0.4614232E+02  0.7816164E-02  0.1320468E+00
        -11   -1    0    0    0    0  0.00000000000E+00  0.00000000000E+00  0.45593999997E+02  0.45594000000E+02  0.51100000000E-03 0.  1.
         11   -1    0    0    0    0 -0.00000000000E+00 -0.00000000000E+00 -0.45593999997E+02  0.45594000000E+02  0.51100000000E-03 0. -1.
    9900012    2    1    2    0    0  0.24282456419E+02 -0.38659443331E+01  0.37742949496E+02  0.46142318165E+02  0.10000003679E+02 0.  0.
         12    1    1    2    0    0 -0.24282456419E+02  0.38659443331E+01 -0.37742949496E+02  0.45045681835E+02  0.00000000000E+00 0. -1.
         11    1    3    3    0    0  0.18134271131E+02 -0.54803024822E+01  0.27445717579E+02  0.33348956782E+02  0.51100000000E-03 0. -1.
        -11    1    3    3    0    0  0.49886964146E+01  0.27173591669E+01  0.62748904529E+01  0.84643595869E+01  0.51100000000E-03 0.  1.
         12    1    3    3    0    0  0.11594888740E+01 -0.11030010178E+01  0.40223414640E+01  0.43290017957E+01  0.00000000000E+00 0. -1.
</event>
<event>
 7    1  0.1445801E-008  0.4614232E+02  0.7816164E-02  0.1320468E+00
        -11   -1    0    0    0    0  0.00000000000E+00  0.00000000000E+00  0.45593999997E+02  0.45594000000E+02  0.51100000000E-03 0. -1.
         11   -1    0    0    0    0 -0.00000000000E+00 -0.00000000000E+00 -0.45593999997E+02  0.45594000000E+02  0.51100000000E-03 0.  1.
    9900012    2    1    2    0    0 -0.42666643157E+02  0.14442210276E+02 -0.30597711489E+00  0.46142317655E+02  0.99999990321E+01 0.  0.
         12    1    1    2    0    0  0.42666643157E+02 -0.14442210276E+02  0.30597711489E+00  0.45045682345E+02  0.00000000000E+00 0. -1.
         11    1    3    3    0    0 -0.14320443600E+02  0.45794817567E+01  0.25640638927E+01  0.15251923878E+02  0.51100000000E-03 0.  1.
        -11    1    3    3    0    0 -0.12925276545E+02  0.20579135828E+01 -0.36556711206E+01  0.13589029166E+02  0.51100000000E-03 0. -1.
         12    1    3    3    0    0 -0.15420923012E+02  0.78048149363E+01  0.78563011303E+00  0.17301364611E+02  0.00000000000E+00 0. -1.
</event>
<event>
 7    1  0.1445801E-008  0.4614232E+02  0.7816164E-02  0.1320468E+00
        -11   -1    0    0    0    0  0.00000000000E+00  0.00000000000E+00  0.45593999997E+02  0.45594000000E+02  0.51100000000E-03 0.  1.
         11   -1    0    0    0    0 -0.00000000000E+00 -0.00000000000E+00 -0.45593999997E+02  0.45594000000E+02  0.51100000000E-03 0. -1.
    9900012    2    1    2    0    0 -0.11590683197E+02  0.43342218695E+02 -0.40276165191E+01  0.46142317042E+02  0.99999934384E+01 0.  0.
         12    1    1    2    0    0  0.11590683197E+02 -0.43342218695E+02  0.40276165191E+01  0.45045682958E+02  0.00000000000E+00 0. -1.
         11    1    3    3    0    0 -0.58709428869E+01  0.10938152403E+02  0.69948354838E+00  0.12433841960E+02  0.51100000000E-03 0. -1.
        -11    1    3    3    0    0  0.89065913990E+00  0.91602057023E+01 -0.10089063008E+01  0.92585384590E+01  0.51100000000E-03 0.  1.
        -12    1    3    3    0    0 -0.66103994499E+01  0.23243860589E+02 -0.37181937666E+01  0.24449936623E+02  0.00000000000E+00 0.  1.
</event>
<event>
 7    1  0.1445801E-008  0.4614232E+02  0.7816164E-02  0.1320468E+00
        -11   -1    0    0    0    0  0.00000000000E+00  0.00000000000E+00  0.45593999997E+02  0.45594000000E+02  0.51100000000E-03 0. -1.
         11   -1    0    0    0    0 -0.00000000000E+00 -0.00000000000E+00 -0.45593999997E+02  0.45594000000E+02  0.51100000000E-03 0.  1.
    9900012    2    1    2    0    0 -0.10588839286E+02  0.40118770463E+02 -0.17534943186E+02  0.46142317705E+02  0.99999994895E+01 0.  0.
         12    1    1    2    0    0  0.10588839286E+02 -0.40118770463E+02  0.17534943186E+02  0.45045682295E+02  0.00000000000E+00 0. -1.
         11    1    3    3    0    0 -0.26629458770E+01  0.71084533642E+01 -0.40364960955E-01  0.75909827800E+01  0.51100000000E-03 0. -1.
        -11    1    3    3    0    0 -0.20533747250E+01  0.18961929415E+02 -0.86511563413E+01  0.20943104383E+02  0.51100000000E-03 0.  1.
         12    1    3    3    0    0 -0.58725186844E+01  0.14048387683E+02 -0.88434218838E+01  0.17608230542E+02  0.00000000000E+00 0. -1.
</event>
<event>
 7    1  0.1445801E-008  0.4614232E+02  0.7816164E-02  0.1320468E+00
        -11   -1    0    0    0    0  0.00000000000E+00  0.00000000000E+00  0.45593999997E+02  0.45594000000E+02  0.51100000000E-03 0.  1.
         11   -1    0    0    0    0 -0.00000000000E+00 -0.00000000000E+00 -0.45593999997E+02  0.45594000000E+02  0.51100000000E-03 0. -1.
    9900012    2    1    2    0    0 -0.17632214748E+01  0.12857890494E+02  0.43135589786E+02  0.46142318696E+02  0.10000008527E+02 0.  0.
         12    1    1    2    0    0  0.17632214748E+01 -0.12857890494E+02 -0.43135589786E+02  0.45045681304E+02  0.00000000000E+00 0. -1.
         11    1    3    3    0    0 -0.50931315892E+00  0.47409031147E+00  0.54534639508E-01  0.69795114822E+00  0.51100000000E-03 0. -1.
        -11    1    3    3    0    0 -0.57695548459E+00  0.12558211642E+02  0.42925088008E+02  0.44728120215E+02  0.51100000000E-03 0.  1.
        -12    1    3    3    0    0 -0.67695283128E+00 -0.17441145976E+00  0.15596713915E+00  0.71624733268E+00  0.00000000000E+00 0.  1.
</event>
<event>
 7    1  0.1445801E-008  0.4614231E+02  0.7816164E-02  0.1320468E+00
        -11   -1    0    0    0    0  0.00000000000E+00  0.00000000000E+00  0.45593999997E+02  0.45594000000E+02  0.51100000000E-03 0.  1.
         11   -1    0    0    0    0 -0.00000000000E+00 -0.00000000000E+00 -0.45593999997E+02  0.45594000000E+02  0.51100000000E-03 0. -1.
    9900012    2    1    2    0    0  0.11872821872E+02  0.11075204738E+02  0.42017732196E+02  0.46142313435E+02  0.99999605515E+01 0.  0.
         12    1    1    2    0    0 -0.11872821872E+02 -0.11075204738E+02 -0.42017732196E+02  0.45045686565E+02  0.00000000000E+00 0. -1.
         11    1    3    3    0    0  0.61628547796E+00  0.12325686102E+01  0.42490480484E+01  0.44669276631E+01  0.51100000000E-03 0. -1.
        -11    1    3    3    0    0  0.76752646733E+01  0.24005994062E+01  0.26571900876E+02  0.27762177179E+02  0.51100000000E-03 0.  1.
        -12    1    3    3    0    0  0.35812717207E+01  0.74420367217E+01  0.11196783272E+02  0.13913208593E+02  0.00000000000E+00 0.  1.
</event>
<event>
 7    1  0.1445801E-008  0.4614232E+02  0.7816164E-02  0.1320468E+00
        -11   -1    0    0    0    0  0.00000000000E+00  0.00000000000E+00  0.45593999997E+02  0.45594000000E+02  0.51100000000E-03 0. -1.
         11   -1    0    0    0    0 -0.00000000000E+00 -0.00000000000E+00 -0.45593999997E+02  0.45594000000E+02  0.51100000000E-03 0.  1.
    9900012    2    1    2    0    0  0.20783860263E+02 -0.20301793349E+02 -0.34423565317E+02  0.46142317524E+02  0.99999978358E+01 0.  0.
         12    1    1    2    0    0 -0.20783860263E+02  0.20301793349E+02  0.34423565317E+02  0.45045682476E+02  0.00000000000E+00 0. -1.
         11    1    3    3    0    0  0.27722421575E+01 -0.49444932951E+01 -0.10981882867E+02  0.12358603971E+02  0.51100000000E-03 0. -1.
        -11    1    3    3    0    0  0.14275187244E+02 -0.14135474039E+02 -0.17408795824E+02  0.26583054179E+02  0.51100000000E-03 0.  1.
        -12    1    3    3    0    0  0.37364308607E+01 -0.12218260147E+01 -0.60328866255E+01  0.72006593742E+01  0.00000000000E+00 0.  1.
</event>
<event>
 7    1  0.1445801E-008  0.4614231E+02  0.7816164E-02  0.1320468E+00
        -11   -1    0    0    0    0  0.00000000000E+00  0.00000000000E+00  0.45593999997E+02  0.45594000000E+02  0.51100000000E-03 0.  1.
         11   -1    0    0    0    0 -0.00000000000E+00 -0.00000000000E+00 -0.45593999997E+02  0.45594000000E+02  0.51100000000E-03 0. -1.
    9900012    2    1    2    0    0 -0.36408390541E+02  0.12612993081E+02  0.23333565798E+02  0.46142314423E+02  0.99999695595E+01 0.  0.
         12    1    1    2    0    0  0.36408390541E+02 -0.12612993081E+02 -0.23333565798E+02  0.45045685577E+02  0.00000000000E+00 0. -1.
         11    1    3    3    0    0 -0.95936071174E+01  0.64585008405E+01  0.50588100892E+01  0.12623038082E+02  0.51100000000E-03 0. -1.
        -11    1    3    3    0    0 -0.16257287567E+02  0.64590890054E+01  0.12297290164E+02  0.21383231174E+02  0.51100000000E-03 0.  1.
         12    1    3    3    0    0 -0.10557495857E+02 -0.30459676501E+00  0.59774655448E+01  0.12136045167E+02  0.00000000000E+00 0. -1.
</event>
<event>
 7    1  0.1445801E-008  0.4614232E+02  0.7816164E-02  0.1320468E+00
        -11   -1    0    0    0    0  0.00000000000E+00  0.00000000000E+00  0.45593999997E+02  0.45594000000E+02  0.51100000000E-03 0. -1.
         11   -1    0    0    0    0 -0.00000000000E+00 -0.00000000000E+00 -0.45593999997E+02  0.45594000000E+02  0.51100000000E-03 0.  1.
    9900012    2    1    2    0    0  0.15488688913E+02  0.27531537249E+02 -0.32112746387E+02  0.46142317543E+02  0.99999980073E+01 0.  0.
         12    1    1    2    0    0 -0.15488688913E+02 -0.27531537249E+02  0.32112746387E+02  0.45045682457E+02  0.00000000000E+00 0. -1.
         11    1    3    3    0    0  0.53951343769E+01  0.36544565135E+01 -0.64437728314E+01  0.91643186282E+01  0.51100000000E-03 0. -1.
        -11    1    3    3    0    0  0.10258844967E+02  0.17960208649E+02 -0.19443994192E+02  0.28388059200E+02  0.51100000000E-03 0.  1.
        -12    1    3    3    0    0 -0.16529043051E+00  0.59168720858E+01 -0.62249793644E+01  0.85899397142E+01  0.00000000000E+00 0.  1.
</event>
<event>
 7    1  0.1445801E-008  0.4614232E+02  0.7816164E-02  0.1320468E+00
        -11   -1    0    0    0    0  0.00000000000E+00  0.00000000000E+00  0.45593999997E+02  0.45594000000E+02  0.51100000000E-03 0. -1.
         11   -1    0    0    0    0 -0.00000000000E+00 -0.00000000000E+00 -0.45593999997E+02  0.45594000000E+02  0.51100000000E-03 0.  1.
    9900012    2    1    2    0    0  0.18720009097E+02 -0.38892000027E+02  0.12887477165E+02  0.46142317916E+02  0.10000001416E+02 0.  0.
         12    1    1    2    0    0 -0.18720009097E+02  0.38892000027E+02 -0.12887477165E+02  0.45045682084E+02  0.00000000000E+00 0. -1.
         11    1    3    3    0    0  0.31222780640E+01 -0.99921324622E+01  0.53295237824E+01  0.11747133925E+02  0.51100000000E-03 0. -1.
        -11    1    3    3    0    0  0.13315725580E+02 -0.25351749798E+02  0.40748196831E+01  0.28924451961E+02  0.51100000000E-03 0.  1.
        -12    1    3    3    0    0  0.22820054525E+01 -0.35481177671E+01  0.34831336995E+01  0.54707320299E+01  0.00000000000E+00 0.  1.
</event>
<event>
 7    1  0.1445801E-008  0.4614232E+02  0.7816164E-02  0.1320468E+00
        -11   -1    0    0    0    0  0.00000000000E+00  0.00000000000E+00  0.45593999997E+02  0.45594000000E+02  0.51100000000E-03 0.  1.
         11   -1    0    0    0    0 -0.00000000000E+00 -0.00000000000E+00 -0.45593999997E+02  0.45594000000E+02  0.51100000000E-03 0. -1.
    9900012    2    1    2    0    0  0.19034657094E+02 -0.21486387762E+02  0.34714990103E+02  0.46142316882E+02  0.99999919818E+01 0.  0.
         12    1    1    2    0    0 -0.19034657094E+02  0.21486387762E+02 -0.34714990103E+02  0.45045683118E+02  0.00000000000E+00 0. -1.
         11    1    3    3    0    0  0.11808182600E+02 -0.70824364435E+01  0.16970169969E+02  0.21853621012E+02  0.51100000000E-03 0. -1.
        -11    1    3    3    0    0  0.75592192956E+01 -0.14380228276E+02  0.17294894710E+02  0.23728593404E+02  0.51100000000E-03 0.  1.
         12    1    3    3    0    0 -0.33274480177E+00 -0.23723042983E-01  0.44992542331E+00  0.56010246600E+00  0.00000000000E+00 0. -1.
</event>
<event>
 7    1  0.1445801E-008  0.4614232E+02  0.7816164E-02  0.1320468E+00
        -11   -1    0    0    0    0  0.00000000000E+00  0.00000000000E+00  0.45593999997E+02  0.45594000000E+02  0.51100000000E-03 0.  1.
         11   -1    0    0    0    0 -0.00000000000E+00 -0.00000000000E+00 -0.45593999997E+02  0.45594000000E+02  0.51100000000E-03 0. -1.
    9900012    2    1    2    0    0  0.26084134400E+02 -0.33514339742E+02  0.15017338626E+02  0.46142317686E+02  0.99999993137E+01 0.  0.
         12    1    1    2    0    0 -0.26084134400E+02  0.33514339742E+02 -0.15017338626E+02  0.45045682314E+02  0.00000000000E+00 0. -1.
         11    1    3    3    0    0  0.67195300447E+01 -0.11966875102E+02  0.58695587926E+01  0.14926818295E+02  0.51100000000E-03 0. -1.
        -11    1    3    3    0    0  0.13334766767E+02 -0.14191744605E+02  0.95632313192E+01  0.21695091914E+02  0.51100000000E-03 0.  1.
         12    1    3    3    0    0  0.60298375881E+01 -0.73557200356E+01 -0.41545148583E+00  0.95204074765E+01  0.00000000000E+00 0. -1.
</event>
<event>
 7    1  0.1445801E-008  0.4614232E+02  0.7816164E-02  0.1320468E+00
        -11   -1    0    0    0    0  0.00000000000E+00  0.00000000000E+00  0.45593999997E+02  0.45594000000E+02  0.51100000000E-03 0. -1.
         11   -1    0    0    0    0 -0.00000000000E+00 -0.00000000000E+00 -0.45593999997E+02  0.45594000000E+02  0.51100000000E-03 0.  1.
    9900012    2    1    2    0    0 -0.25604222362E+02 -0.65713013204E+01 -0.36474035535E+02  0.46142317943E+02  0.10000001654E+02 0.  0.
         12    1    1    2    0    0  0.25604222362E+02  0.65713013204E+01  0.36474035535E+02  0.45045682057E+02  0.00000000000E+00 0. -1.
         11    1    3    3    0    0 -0.50563783207E+01 -0.14568286444E+01 -0.53639322570E+01  0.75140588859E+01  0.51100000000E-03 0. -1.
        -11    1    3    3    0    0 -0.54295709395E+01 -0.54001676717E+01 -0.12369814717E+02  0.14548345881E+02  0.51100000000E-03 0.  1.
        -12    1    3    3    0    0 -0.15118273102E+02  0.28569499577E+00 -0.18740288561E+02  0.24079913176E+02  0.00000000000E+00 0.  1.
</event>
<event>
 7    1  0.1445801E-008  0.4614232E+02  0.7816164E-02  0.1320468E+00
        -11   -1    0    0    0    0  0.00000000000E+00  0.00000000000E+00  0.45593999997E+02  0.45594000000E+02  0.51100000000E-03 0.  1.
         11   -1    0    0    0    0 -0.00000000000E+00 -0.00000000000E+00 -0.45593999997E+02  0.45594000000E+02  0.51100000000E-03 0. -1.
    9900012    2    1    2    0    0  0.10652953903E+02  0.43455733120E+02 -0.52179793877E+01  0.46142317891E+02  0.10000001180E+02 0.  0.
         12    1    1    2    0    0 -0.10652953903E+02 -0.43455733120E+02  0.52179793877E+01  0.45045682109E+02  0.00000000000E+00 0. -1.
         11    1    3    3    0    0  0.27503296631E+01  0.15085312038E+02 -0.22235869823E+01  0.15494363229E+02  0.51100000000E-03 0. -1.
        -11    1    3    3    0    0  0.35902669522E+01  0.22809066888E+02 -0.24120509376E+00  0.23091161280E+02  0.51100000000E-03 0.  1.
         12    1    3    3    0    0  0.43123572874E+01  0.55613541931E+01 -0.27531873117E+01  0.75567933814E+01  0.00000000000E+00 0. -1.
</event>
<event>
 7    1  0.1445801E-008  0.4614232E+02  0.7816164E-02  0.1320468E+00
        -11   -1    0    0    0    0  0.00000000000E+00  0.00000000000E+00  0.45593999997E+02  0.45594000000E+02  0.51100000000E-03 0.  1.
         11   -1    0    0    0    0 -0.00000000000E+00 -0.00000000000E+00 -0.45593999997E+02  0.45594000000E+02  0.51100000000E-03 0. -1.
    9900012    2    1    2    0    0 -0.18778100294E+02  0.54608291354E+01  0.40579253274E+02  0.46142317612E+02  0.99999986439E+01 0.  0.
         12    1    1    2    0    0  0.18778100294E+02 -0.54608291354E+01 -0.40579253274E+02  0.45045682388E+02  0.00000000000E+00 0. -1.
         11    1    3    3    0    0 -0.25203581785E+00  0.48944578691E+00 -0.34157571364E+00  0.64788383301E+00  0.51100000000E-03 0. -1.
        -11    1    3    3    0    0 -0.14860251920E+02  0.41785814437E+01  0.27250728586E+02  0.31319160888E+02  0.51100000000E-03 0.  1.
         12    1    3    3    0    0 -0.36658125567E+01  0.79280190473E+00  0.13670100401E+02  0.14175272891E+02  0.00000000000E+00 0. -1.
</event>
<event>
 7    1  0.1445801E-008  0.4614232E+02  0.7816164E-02  0.1320468E+00
        -11   -1    0    0    0    0  0.00000000000E+00  0.00000000000E+00  0.45593999997E+02  0.45594000000E+02  0.51100000000E-03 0.  1.
         11   -1    0    0    0    0 -0.00000000000E+00 -0.00000000000E+00 -0.45593999997E+02  0.45594000000E+02  0.51100000000E-03 0. -1.
    9900012    2    1    2    0    0  0.42459979724E+01  0.35041733724E+02  0.27985018256E+02  0.46142324869E+02  0.10000064818E+02 0.  0.
         12    1    1    2    0    0 -0.42459979724E+01 -0.35041733724E+02 -0.27985018256E+02  0.45045675131E+02  0.00000000000E+00 0. -1.
         11    1    3    3    0    0  0.33052257390E+01  0.65570989849E+01  0.49648991252E+01  0.88639882597E+01  0.51100000000E-03 0. -1.
        -11    1    3    3    0    0 -0.90244314900E+00  0.14412998898E+02  0.75906137207E+01  0.16314605658E+02  0.51100000000E-03 0.  1.
        -12    1    3    3    0    0  0.18432153824E+01  0.14071635842E+02  0.15429505410E+02  0.20963730952E+02  0.00000000000E+00 0.  1.
</event>
<event>
 7    1  0.1445801E-008  0.4614232E+02  0.7816164E-02  0.1320468E+00
        -11   -1    0    0    0    0  0.00000000000E+00  0.00000000000E+00  0.45593999997E+02  0.45594000000E+02  0.51100000000E-03 0.  1.
         11   -1    0    0    0    0 -0.00000000000E+00 -0.00000000000E+00 -0.45593999997E+02  0.45594000000E+02  0.51100000000E-03 0. -1.
    9900012    2    1    2    0    0 -0.39101628582E+02 -0.12162488642E+02  0.18768326559E+02  0.46142316860E+02  0.99999917794E+01 0.  0.
         12    1    1    2    0    0  0.39101628582E+02  0.12162488642E+02 -0.18768326559E+02  0.45045683140E+02  0.00000000000E+00 0. -1.
         11    1    3    3    0    0 -0.10423489459E+02 -0.78684069124E+01  0.50359302647E+01  0.13997198067E+02  0.51100000000E-03 0. -1.
        -11    1    3    3    0    0 -0.13592210976E+02 -0.18775125085E+01  0.54287676806E+01  0.14756177392E+02  0.51100000000E-03 0.  1.
         12    1    3    3    0    0 -0.15085928147E+02 -0.24165692210E+01  0.83036286141E+01  0.17388941400E+02  0.00000000000E+00 0. -1.
</event>
<event>
 7    1  0.1445801E-008  0.4614232E+02  0.7816164E-02  0.1320468E+00
        -11   -1    0    0    0    0  0.00000000000E+00  0.00000000000E+00  0.45593999997E+02  0.45594000000E+02  0.51100000000E-03 0. -1.
         11   -1    0    0    0    0 -0.00000000000E+00 -0.00000000000E+00 -0.45593999997E+02  0.45594000000E+02  0.51100000000E-03 0.  1.
    9900012    2    1    2    0    0  0.33308932564E+02 -0.27410845435E+02 -0.12972053247E+02  0.46142316506E+02  0.99999885514E+01 0.  0.
         12    1    1    2    0    0 -0.33308932564E+02  0.27410845435E+02  0.12972053247E+02  0.45045683494E+02  0.00000000000E+00 0. -1.
         11    1    3    3    0    0  0.69521250539E+01 -0.95064745224E+01 -0.11455656227E+01  0.11832895735E+02  0.51100000000E-03 0. -1.
        -11    1    3    3    0    0  0.14464495481E+02 -0.92771189972E+01 -0.88108139191E+01  0.19311059230E+02  0.51100000000E-03 0.  1.
        -12    1    3    3    0    0  0.11892312030E+02 -0.86272519154E+01 -0.30156737054E+01  0.14998361541E+02  0.00000000000E+00 0.  1.
</event>
<event>
 7    1  0.1445801E-008  0.4614232E+02  0.7816164E-02  0.1320468E+00
        -11   -1    0    0    0    0  0.00000000000E+00  0.00000000000E+00  0.45593999997E+02  0.45594000000E+02  0.51100000000E-03 0.  1.
         11   -1    0    0    0    0 -0.00000000000E+00 -0.00000000000E+00 -0.45593999997E+02  0.45594000000E+02  0.51100000000E-03 0. -1.
    9900012    2    1    2    0    0 -0.15025414378E+01 -0.42473467783E+02  0.14928508717E+02  0.46142317978E+02  0.10000001979E+02 0.  0.
         12    1    1    2    0    0  0.15025414378E+01  0.42473467783E+02 -0.14928508717E+02  0.45045682022E+02  0.00000000000E+00 0. -1.
         11    1    3    3    0    0 -0.10138491860E+01 -0.30373690447E+00  0.39780378777E+00  0.11306610429E+01  0.51100000000E-03 0. -1.
        -11    1    3    3    0    0 -0.74371469485E+00 -0.28009478236E+02  0.66247685143E+01  0.28791865878E+02  0.51100000000E-03 0.  1.
        -12    1    3    3    0    0  0.25502244309E+00 -0.14160252643E+02  0.79059364148E+01  0.16219791058E+02  0.00000000000E+00 0.  1.
</event>
<event>
 7    1  0.1445801E-008  0.4614232E+02  0.7816164E-02  0.1320468E+00
        -11   -1    0    0    0    0  0.00000000000E+00  0.00000000000E+00  0.45593999997E+02  0.45594000000E+02  0.51100000000E-03 0.  1.
         11   -1    0    0    0    0 -0.00000000000E+00 -0.00000000000E+00 -0.45593999997E+02  0.45594000000E+02  0.51100000000E-03 0. -1.
    9900012    2    1    2    0    0  0.16558505896E+02  0.16755053090E+02  0.38395283215E+02  0.46142315470E+02  0.99999791110E+01 0.  0.
         12    1    1    2    0    0 -0.16558505896E+02 -0.16755053090E+02 -0.38395283215E+02  0.45045684530E+02  0.00000000000E+00 0. -1.
         11    1    3    3    0    0  0.58390165976E+01  0.12026669934E+02  0.19917427698E+02  0.23988306128E+02  0.51100000000E-03 0. -1.
        -11    1    3    3    0    0  0.42538753555E+01  0.82508121374E-01  0.67488673850E+01  0.79780620687E+01  0.51100000000E-03 0.  1.
        -12    1    3    3    0    0  0.64656139430E+01  0.46458750348E+01  0.11728988133E+02  0.14175947274E+02  0.00000000000E+00 0.  1.
</event>
<event>
 7    1  0.1445801E-008  0.4614232E+02  0.7816164E-02  0.1320468E+00
        -11   -1    0    0    0    0  0.00000000000E+00  0.00000000000E+00  0.45593999997E+02  0.45594000000E+02  0.51100000000E-03 0.  1.
         11   -1    0    0    0    0 -0.00000000000E+00 -0.00000000000E+00 -0.45593999997E+02  0.45594000000E+02  0.51100000000E-03 0. -1.
    9900012    2    1    2    0    0 -0.44249642790E+01 -0.18772778829E+02  0.40707688398E+02  0.46142318426E+02  0.10000006060E+02 0.  0.
         12    1    1    2    0    0  0.44249642790E+01  0.18772778829E+02 -0.40707688398E+02  0.45045681574E+02  0.00000000000E+00 0. -1.
         11    1    3    3    0    0 -0.20962534127E+01 -0.57226503704E+01  0.74285777952E+01  0.96086822173E+01  0.51100000000E-03 0. -1.
        -11    1    3    3    0    0 -0.37718548845E+01 -0.11821285340E+02  0.31781539650E+02  0.34117970912E+02  0.51100000000E-03 0.  1.
        -12    1    3    3    0    0  0.14431440182E+01 -0.12288431188E+01  0.14975709523E+01  0.24156652966E+01  0.00000000000E+00 0.  1.
</event>
<event>
 7    1  0.1445801E-008  0.4614232E+02  0.7816164E-02  0.1320468E+00
        -11   -1    0    0    0    0  0.00000000000E+00  0.00000000000E+00  0.45593999997E+02  0.45594000000E+02  0.51100000000E-03 0.  1.
         11   -1    0    0    0    0 -0.00000000000E+00 -0.00000000000E+00 -0.45593999997E+02  0.45594000000E+02  0.51100000000E-03 0. -1.
    9900012    2    1    2    0    0 -0.95910255662E+01 -0.86666790475E+01  0.43151064488E+02  0.46142318037E+02  0.10000002512E+02 0.  0.
         12    1    1    2    0    0  0.95910255662E+01  0.86666790475E+01 -0.43151064488E+02  0.45045681963E+02  0.00000000000E+00 0. -1.
         11    1    3    3    0    0 -0.32696332791E+01  0.11682069186E+00  0.97203809540E+01  0.10256215433E+02  0.51100000000E-03 0.  1.
        -11    1    3    3    0    0  0.10158888298E+01 -0.11969267153E+01  0.10821806765E+02  0.10935088732E+02  0.51100000000E-03 0. -1.
        -12    1    3    3    0    0 -0.73372811168E+01 -0.75865730241E+01  0.22608876769E+02  0.24951013871E+02  0.00000000000E+00 0.  1.
</event>
<event>
 7    1  0.1445801E-008  0.4614232E+02  0.7816164E-02  0.1320468E+00
        -11   -1    0    0    0    0  0.00000000000E+00  0.00000000000E+00  0.45593999997E+02  0.45594000000E+02  0.51100000000E-03 0.  1.
         11   -1    0    0    0    0 -0.00000000000E+00 -0.00000000000E+00 -0.45593999997E+02  0.45594000000E+02  0.51100000000E-03 0. -1.
    9900012    2    1    2    0    0 -0.39516080638E+02 -0.11814895360E+02 -0.18110801978E+02  0.46142317303E+02  0.99999958227E+01 0.  0.
         12    1    1    2    0    0  0.39516080638E+02  0.11814895360E+02  0.18110801978E+02  0.45045682697E+02  0.00000000000E+00 0. -1.
         11    1    3    3    0    0 -0.15069824509E+02 -0.43871619794E+01 -0.22653761623E+01  0.15858080917E+02  0.51100000000E-03 0. -1.
        -11    1    3    3    0    0 -0.22348172863E+02 -0.78132030753E+01 -0.14574618291E+02  0.27801195499E+02  0.51100000000E-03 0.  1.
        -12    1    3    3    0    0 -0.20980832667E+01  0.38546969510E+00 -0.12708075257E+01  0.24830408871E+01  0.00000000000E+00 0.  1.
</event>
<event>
 7    1  0.1445801E-008  0.4614232E+02  0.7816164E-02  0.1320468E+00
        -11   -1    0    0    0    0  0.00000000000E+00  0.00000000000E+00  0.45593999997E+02  0.45594000000E+02  0.51100000000E-03 0.  1.
         11   -1    0    0    0    0 -0.00000000000E+00 -0.00000000000E+00 -0.45593999997E+02  0.45594000000E+02  0.51100000000E-03 0. -1.
    9900012    2    1    2    0    0 -0.17549868036E+02  0.41467010624E+02  0.12659522619E+01  0.46142317928E+02  0.10000001525E+02 0.  0.
         12    1    1    2    0    0  0.17549868036E+02 -0.41467010624E+02 -0.12659522619E+01  0.45045682072E+02  0.00000000000E+00 0. -1.
         11    1    3    3    0    0 -0.46222969269E+01  0.74328138092E+01  0.24160592317E+01  0.90801813019E+01  0.51100000000E-03 0. -1.
        -11    1    3    3    0    0 -0.77568484942E+01  0.24174339882E+02 -0.36559042954E+01  0.25650205531E+02  0.51100000000E-03 0.  1.
        -12    1    3    3    0    0 -0.51707226148E+01  0.98598569329E+01  0.25057973256E+01  0.11411931096E+02  0.00000000000E+00 0.  1.
</event>
<event>
 7    1  0.1445801E-008  0.4614232E+02  0.7816164E-02  0.1320468E+00
        -11   -1    0    0    0    0  0.00000000000E+00  0.00000000000E+00  0.45593999997E+02  0.45594000000E+02  0.51100000000E-03 0.  1.
         11   -1    0    0    0    0 -0.00000000000E+00 -0.00000000000E+00 -0.45593999997E+02  0.45594000000E+02  0.51100000000E-03 0. -1.
    9900012    2    1    2    0    0 -0.21559342148E+02  0.27019300033E+02  0.28883656883E+02  0.46142318264E+02  0.10000004588E+02 0.  0.
         12    1    1    2    0    0  0.21559342148E+02 -0.27019300033E+02 -0.28883656883E+02  0.45045681736E+02  0.00000000000E+00 0. -1.
         11    1    3    3    0    0 -0.16790802068E+01  0.85023909237E+01  0.79180443916E+01  0.11739054008E+02  0.51100000000E-03 0. -1.
        -11    1    3    3    0    0 -0.63544496652E+01  0.45952711543E+01  0.53786422187E+01  0.95092239382E+01  0.51100000000E-03 0.  1.
         12    1    3    3    0    0 -0.13525812276E+02  0.13921637955E+02  0.15586970273E+02  0.24894040318E+02  0.00000000000E+00 0. -1.
</event>
<event>
 7    1  0.1445801E-008  0.4614232E+02  0.7816164E-02  0.1320468E+00
        -11   -1    0    0    0    0  0.00000000000E+00  0.00000000000E+00  0.45593999997E+02  0.45594000000E+02  0.51100000000E-03 0.  1.
         11   -1    0    0    0    0 -0.00000000000E+00 -0.00000000000E+00 -0.45593999997E+02  0.45594000000E+02  0.51100000000E-03 0. -1.
    9900012    2    1    2    0    0 -0.40202062590E+02  0.16462805256E+02  0.11911496000E+02  0.46142317295E+02  0.99999957478E+01 0.  0.
         12    1    1    2    0    0  0.40202062590E+02 -0.16462805256E+02 -0.11911496000E+02  0.45045682705E+02  0.00000000000E+00 0. -1.
         11    1    3    3    0    0 -0.22634108823E+02  0.14173038781E+02  0.58798877254E+01  0.27345035938E+02  0.51100000000E-03 0. -1.
        -11    1    3    3    0    0 -0.60908930182E+01  0.15465414640E+01  0.25373078434E+01  0.67770716104E+01  0.51100000000E-03 0.  1.
         12    1    3    3    0    0 -0.11477060749E+02  0.74322501125E+00  0.34943004315E+01  0.12020209747E+02  0.00000000000E+00 0. -1.
</event>
<event>
 7    1  0.1445801E-008  0.4614232E+02  0.7816164E-02  0.1320468E+00
        -11   -1    0    0    0    0  0.00000000000E+00  0.00000000000E+00  0.45593999997E+02  0.45594000000E+02  0.51100000000E-03 0.  1.
         11   -1    0    0    0    0 -0.00000000000E+00 -0.00000000000E+00 -0.45593999997E+02  0.45594000000E+02  0.51100000000E-03 0. -1.
    9900012    2    1    2    0    0 -0.21016470307E+02 -0.10500596866E+02  0.38433825606E+02  0.46142317527E+02  0.99999978670E+01 0.  0.
         12    1    1    2    0    0  0.21016470307E+02  0.10500596866E+02 -0.38433825606E+02  0.45045682473E+02  0.00000000000E+00 0. -1.
         11    1    3    3    0    0 -0.55140403237E+01 -0.12612075118E+01  0.90822186917E+01  0.10699625307E+02  0.51100000000E-03 0. -1.
        -11    1    3    3    0    0  0.46450029309E+00  0.53716158482E+00  0.32139632584E+01  0.32914834312E+01  0.51100000000E-03 0.  1.
        -12    1    3    3    0    0 -0.15966930276E+02 -0.97765509387E+01  0.26137643656E+02  0.32151208789E+02  0.00000000000E+00 0.  1.
</event>
<event>
 7    1  0.1445801E-008  0.4614232E+02  0.7816164E-02  0.1320468E+00
        -11   -1    0    0    0    0  0.00000000000E+00  0.00000000000E+00  0.45593999997E+02  0.45594000000E+02  0.51100000000E-03 0.  1.
         11   -1    0    0    0    0 -0.00000000000E+00 -0.00000000000E+00 -0.45593999997E+02  0.45594000000E+02  0.51100000000E-03 0. -1.
    9900012    2    1    2    0    0  0.17041390592E+02 -0.37135914723E+02 -0.18963868907E+02  0.46142317859E+02  0.10000000896E+02 0.  0.
         12    1    1    2    0    0 -0.17041390592E+02  0.37135914723E+02  0.18963868907E+02  0.45045682141E+02  0.00000000000E+00 0. -1.
         11    1    3    3    0    0  0.99419392881E+00 -0.36209101735E+01  0.58346119771E+00  0.37999788530E+01  0.51100000000E-03 0. -1.
        -11    1    3    3    0    0  0.65199100967E+01 -0.79773804448E+01 -0.52579598359E+01  0.11566934267E+02  0.51100000000E-03 0.  1.
         12    1    3    3    0    0  0.95272865661E+01 -0.25537624105E+02 -0.14289370269E+02  0.30775404740E+02  0.00000000000E+00 0. -1.
</event>
<event>
 7    1  0.1445801E-008  0.4614233E+02  0.7816164E-02  0.1320468E+00
        -11   -1    0    0    0    0  0.00000000000E+00  0.00000000000E+00  0.45593999997E+02  0.45594000000E+02  0.51100000000E-03 0.  1.
         11   -1    0    0    0    0 -0.00000000000E+00 -0.00000000000E+00 -0.45593999997E+02  0.45594000000E+02  0.51100000000E-03 0. -1.
    9900012    2    1    2    0    0 -0.35623636812E+02  0.80744733881E+01  0.26360418478E+02  0.46142331145E+02  0.10000122048E+02 0.  0.
         12    1    1    2    0    0  0.35623636812E+02 -0.80744733881E+01 -0.26360418478E+02  0.45045668855E+02  0.00000000000E+00 0. -1.
         11    1    3    3    0    0 -0.17068639688E+02  0.35587249036E+00  0.11676542630E+02  0.20683489891E+02  0.51100000000E-03 0. -1.
        -11    1    3    3    0    0 -0.42816229962E+01  0.25909546811E+01  0.65681446811E+01  0.82574733698E+01  0.51100000000E-03 0.  1.
         12    1    3    3    0    0 -0.14273374128E+02  0.51276462167E+01  0.81157311667E+01  0.17201367885E+02  0.00000000000E+00 0. -1.
</event>
<event>
 7    1  0.1445801E-008  0.4614232E+02  0.7816164E-02  0.1320468E+00
        -11   -1    0    0    0    0  0.00000000000E+00  0.00000000000E+00  0.45593999997E+02  0.45594000000E+02  0.51100000000E-03 0.  1.
         11   -1    0    0    0    0 -0.00000000000E+00 -0.00000000000E+00 -0.45593999997E+02  0.45594000000E+02  0.51100000000E-03 0. -1.
    9900012    2    1    2    0    0 -0.40134169836E+02  0.20268748314E+02  0.27458649333E+01  0.46142317400E+02  0.99999967051E+01 0.  0.
         12    1    1    2    0    0  0.40134169836E+02 -0.20268748314E+02 -0.27458649333E+01  0.45045682600E+02  0.00000000000E+00 0. -1.
         11    1    3    3    0    0 -0.18595125776E+02  0.13389340599E+02  0.26486638523E+00  0.22915568916E+02  0.51100000000E-03 0. -1.
        -11    1    3    3    0    0 -0.74632503542E+01  0.21088114554E+01 -0.13656202143E+01  0.78747768498E+01  0.51100000000E-03 0.  1.
         12    1    3    3    0    0 -0.14075793707E+02  0.47705962605E+01  0.38466187624E+01  0.15351971634E+02  0.00000000000E+00 0. -1.
</event>
<event>
 7    1  0.1445801E-008  0.4614232E+02  0.7816164E-02  0.1320468E+00
        -11   -1    0    0    0    0  0.00000000000E+00  0.00000000000E+00  0.45593999997E+02  0.45594000000E+02  0.51100000000E-03 0.  1.
         11   -1    0    0    0    0 -0.00000000000E+00 -0.00000000000E+00 -0.45593999997E+02  0.45594000000E+02  0.51100000000E-03 0. -1.
    9900012    2    1    2    0    0 -0.15176066653E+02  0.18218932174E+02  0.38299751290E+02  0.46142318325E+02  0.10000005145E+02 0.  0.
         12    1    1    2    0    0  0.15176066653E+02 -0.18218932174E+02 -0.38299751290E+02  0.45045681675E+02  0.00000000000E+00 0. -1.
         11    1    3    3    0    0 -0.49488125958E+01  0.34240790070E+01  0.12509094149E+02  0.13881372405E+02  0.51100000000E-03 0. -1.
        -11    1    3    3    0    0 -0.44366056039E-01  0.51393493075E+01  0.91373130962E+01  0.10483576228E+02  0.51100000000E-03 0.  1.
        -12    1    3    3    0    0 -0.10182888001E+02  0.96555038597E+01  0.16653344045E+02  0.21777369693E+02  0.00000000000E+00 0.  1.
</event>
<event>
 7    1  0.1445801E-008  0.4614232E+02  0.7816164E-02  0.1320468E+00
        -11   -1    0    0    0    0  0.00000000000E+00  0.00000000000E+00  0.45593999997E+02  0.45594000000E+02  0.51100000000E-03 0.  1.
         11   -1    0    0    0    0 -0.00000000000E+00 -0.00000000000E+00 -0.45593999997E+02  0.45594000000E+02  0.51100000000E-03 0. -1.
    9900012    2    1    2    0    0 -0.16928974896E+02  0.32442669058E+02  0.26267786254E+02  0.46142316952E+02  0.99999926192E+01 0.  0.
         12    1    1    2    0    0  0.16928974896E+02 -0.32442669058E+02 -0.26267786254E+02  0.45045683048E+02  0.00000000000E+00 0. -1.
         11    1    3    3    0    0 -0.10013491197E+02  0.11202425173E+02  0.11173247065E+02  0.18724470244E+02  0.51100000000E-03 0. -1.
        -11    1    3    3    0    0 -0.43685847161E+01  0.64430636315E+01  0.63216074055E+01  0.10027976956E+02  0.51100000000E-03 0.  1.
         12    1    3    3    0    0 -0.25468989827E+01  0.14797180254E+02  0.87729317834E+01  0.17389869751E+02  0.00000000000E+00 0. -1.
</event>
<event>
 7    1  0.1445801E-008  0.4614232E+02  0.7816164E-02  0.1320468E+00
        -11   -1    0    0    0    0  0.00000000000E+00  0.00000000000E+00  0.45593999997E+02  0.45594000000E+02  0.51100000000E-03 0.  1.
         11   -1    0    0    0    0 -0.00000000000E+00 -0.00000000000E+00 -0.45593999997E+02  0.45594000000E+02  0.51100000000E-03 0. -1.
    9900012    2    1    2    0    0 -0.92274873448E+01 -0.26984153861E+02  0.34868645516E+02  0.46142317384E+02  0.99999965600E+01 0.  0.
         12    1    1    2    0    0  0.92274873448E+01  0.26984153861E+02 -0.34868645516E+02  0.45045682616E+02  0.00000000000E+00 0. -1.
         11    1    3    3    0    0 -0.20640464280E+01 -0.32233895451E+01  0.16690874076E+01  0.41756892667E+01  0.51100000000E-03 0. -1.
        -11    1    3    3    0    0 -0.44954177590E+01 -0.13552559830E+02  0.13660806260E+02  0.19761029495E+02  0.51100000000E-03 0.  1.
         12    1    3    3    0    0 -0.26680231578E+01 -0.10208204485E+02  0.19538751848E+02  0.22205598622E+02  0.00000000000E+00 0. -1.
</event>
<event>
 7    1  0.1445801E-008  0.4614232E+02  0.7816164E-02  0.1320468E+00
        -11   -1    0    0    0    0  0.00000000000E+00  0.00000000000E+00  0.45593999997E+02  0.45594000000E+02  0.51100000000E-03 0.  1.
         11   -1    0    0    0    0 -0.00000000000E+00 -0.00000000000E+00 -0.45593999997E+02  0.45594000000E+02  0.51100000000E-03 0. -1.
    9900012    2    1    2    0    0 -0.28461446693E+02 -0.24938481454E+02  0.24436275933E+02  0.46142318892E+02  0.10000010308E+02 0.  0.
         12    1    1    2    0    0  0.28461446693E+02  0.24938481454E+02 -0.24436275933E+02  0.45045681108E+02  0.00000000000E+00 0. -1.
         11    1    3    3    0    0  0.28087207322E-01  0.15611881358E+00 -0.39363284503E+00  0.42439256942E+00  0.51100000000E-03 0. -1.
        -11    1    3    3    0    0 -0.15664241808E+02 -0.16381947247E+02  0.12333237244E+02  0.25803980472E+02  0.51100000000E-03 0.  1.
        -12    1    3    3    0    0 -0.12825292092E+02 -0.87126530206E+01  0.12496671534E+02  0.19913945850E+02  0.00000000000E+00 0.  1.
</event>
<event>
 7    1  0.1445801E-008  0.4614232E+02  0.7816164E-02  0.1320468E+00
        -11   -1    0    0    0    0  0.00000000000E+00  0.00000000000E+00  0.45593999997E+02  0.45594000000E+02  0.51100000000E-03 0.  1.
         11   -1    0    0    0    0 -0.00000000000E+00 -0.00000000000E+00 -0.45593999997E+02  0.45594000000E+02  0.51100000000E-03 0. -1.
    9900012    2    1    2    0    0  0.24779340981E+02 -0.32102900873E+02  0.19608710780E+02  0.46142317384E+02  0.99999965601E+01 0.  0.
         12    1    1    2    0    0 -0.24779340981E+02  0.32102900873E+02 -0.19608710780E+02  0.45045682616E+02  0.00000000000E+00 0. -1.
         11    1    3    3    0    0  0.79487026540E+01 -0.13353851065E+02  0.43738243285E+01  0.16144273030E+02  0.51100000000E-03 0. -1.
        -11    1    3    3    0    0  0.48458962777E+01 -0.96346899173E+01  0.63631556208E+01  0.12521969104E+02  0.51100000000E-03 0.  1.
         12    1    3    3    0    0  0.11984742049E+02 -0.91143598911E+01  0.88717308308E+01  0.17476075250E+02  0.00000000000E+00 0. -1.
</event>
<event>
 7    1  0.1445801E-008  0.4614232E+02  0.7816164E-02  0.1320468E+00
        -11   -1    0    0    0    0  0.00000000000E+00  0.00000000000E+00  0.45593999997E+02  0.45594000000E+02  0.51100000000E-03 0. -1.
         11   -1    0    0    0    0 -0.00000000000E+00 -0.00000000000E+00 -0.45593999997E+02  0.45594000000E+02  0.51100000000E-03 0.  1.
    9900012    2    1    2    0    0  0.16271032336E+02  0.41578772399E+02  0.59642772814E+01  0.46142318620E+02  0.10000007834E+02 0.  0.
         12    1    1    2    0    0 -0.16271032336E+02 -0.41578772399E+02 -0.59642772814E+01  0.45045681380E+02  0.00000000000E+00 0. -1.
         11    1    3    3    0    0  0.25059338341E-01  0.11720427188E+01  0.19415486165E+01  0.22680219127E+01  0.51100000000E-03 0. -1.
        -11    1    3    3    0    0  0.44480127588E+01  0.12746674436E+02 -0.23987119442E+00  0.13502594755E+02  0.51100000000E-03 0.  1.
        -12    1    3    3    0    0  0.11797960239E+02  0.27660055244E+02  0.42625998593E+01  0.30371701952E+02  0.00000000000E+00 0.  1.
</event>
<event>
 7    1  0.1445801E-008  0.4614232E+02  0.7816164E-02  0.1320468E+00
        -11   -1    0    0    0    0  0.00000000000E+00  0.00000000000E+00  0.45593999997E+02  0.45594000000E+02  0.51100000000E-03 0.  1.
         11   -1    0    0    0    0 -0.00000000000E+00 -0.00000000000E+00 -0.45593999997E+02  0.45594000000E+02  0.51100000000E-03 0. -1.
    9900012    2    1    2    0    0 -0.27839642470E+02 -0.25643509052E+02  0.24422902972E+02  0.46142318310E+02  0.10000005003E+02 0.  0.
         12    1    1    2    0    0  0.27839642470E+02  0.25643509052E+02 -0.24422902972E+02  0.45045681690E+02  0.00000000000E+00 0. -1.
         11    1    3    3    0    0 -0.68550784599E+01 -0.64140395219E+01  0.32058859462E+01  0.99201667648E+01  0.51100000000E-03 0. -1.
        -11    1    3    3    0    0 -0.16992873460E+02 -0.18496678503E+02  0.16768068170E+02  0.30200214808E+02  0.51100000000E-03 0.  1.
        -12    1    3    3    0    0 -0.39916905502E+01 -0.73279102735E+00  0.44489488559E+01  0.60219367367E+01  0.00000000000E+00 0.  1.
</event>
<event>
 7    1  0.1445801E-008  0.4614232E+02  0.7816164E-02  0.1320468E+00
        -11   -1    0    0    0    0  0.00000000000E+00  0.00000000000E+00  0.45593999997E+02  0.45594000000E+02  0.51100000000E-03 0. -1.
         11   -1    0    0    0    0 -0.00000000000E+00 -0.00000000000E+00 -0.45593999997E+02  0.45594000000E+02  0.51100000000E-03 0.  1.
    9900012    2    1    2    0    0 -0.25455893069E+02  0.30482169893E+02 -0.21259076322E+02  0.46142317639E+02  0.99999988849E+01 0.  0.
         12    1    1    2    0    0  0.25455893069E+02 -0.30482169893E+02  0.21259076322E+02  0.45045682361E+02  0.00000000000E+00 0. -1.
         11    1    3    3    0    0 -0.84846586154E+01  0.12295749414E+02 -0.51344341461E+01  0.15796749657E+02  0.51100000000E-03 0. -1.
        -11    1    3    3    0    0 -0.98269595006E+01  0.14620916260E+02 -0.12346451089E+02  0.21512210023E+02  0.51100000000E-03 0.  1.
        -12    1    3    3    0    0 -0.71442749526E+01  0.35655042186E+01 -0.37781910868E+01  0.88333579584E+01  0.00000000000E+00 0.  1.
</event>
<event>
 7    1  0.1445801E-008  0.4614232E+02  0.7816164E-02  0.1320468E+00
        -11   -1    0    0    0    0  0.00000000000E+00  0.00000000000E+00  0.45593999997E+02  0.45594000000E+02  0.51100000000E-03 0. -1.
         11   -1    0    0    0    0 -0.00000000000E+00 -0.00000000000E+00 -0.45593999997E+02  0.45594000000E+02  0.51100000000E-03 0.  1.
    9900012    2    1    2    0    0  0.33090945952E+01 -0.14851368774E+02 -0.42398115590E+02  0.46142317998E+02  0.10000002156E+02 0.  0.
         12    1    1    2    0    0 -0.33090945952E+01  0.14851368774E+02  0.42398115590E+02  0.45045682002E+02  0.00000000000E+00 0. -1.
         11    1    3    3    0    0  0.45542821731E+01 -0.70482056665E+01 -0.13874184287E+02  0.16214551462E+02  0.51100000000E-03 0.  1.
        -11    1    3    3    0    0 -0.19487460930E+01 -0.30384707347E+01 -0.17939104545E+02  0.18298671752E+02  0.51100000000E-03 0. -1.
         12    1    3    3    0    0  0.70355851509E+00 -0.47646923731E+01 -0.10584826758E+02  0.11629094784E+02  0.00000000000E+00 0. -1.
</event>
<event>
 7    1  0.1445801E-008  0.4614232E+02  0.7816164E-02  0.1320468E+00
        -11   -1    0    0    0    0  0.00000000000E+00  0.00000000000E+00  0.45593999997E+02  0.45594000000E+02  0.51100000000E-03 0. -1.
         11   -1    0    0    0    0 -0.00000000000E+00 -0.00000000000E+00 -0.45593999997E+02  0.45594000000E+02  0.51100000000E-03 0.  1.
    9900012    2    1    2    0    0  0.17028238379E+02  0.32922446994E+02 -0.25598145009E+02  0.46142318228E+02  0.10000004261E+02 0.  0.
         12    1    1    2    0    0 -0.17028238379E+02 -0.32922446994E+02  0.25598145009E+02  0.45045681772E+02  0.00000000000E+00 0. -1.
         11    1    3    3    0    0  0.67498180460E+01  0.19845784798E+02 -0.13078608404E+02  0.24707594297E+02  0.51100000000E-03 0. -1.
        -11    1    3    3    0    0  0.18011516607E+01  0.62743239520E+01 -0.48454680555E+01  0.81295663659E+01  0.51100000000E-03 0.  1.
         12    1    3    3    0    0  0.84772686728E+01  0.68023382434E+01 -0.76740685494E+01  0.13305157565E+02  0.00000000000E+00 0. -1.
</event>
<event>
 7    1  0.1445801E-008  0.4614232E+02  0.7816164E-02  0.1320468E+00
        -11   -1    0    0    0    0  0.00000000000E+00  0.00000000000E+00  0.45593999997E+02  0.45594000000E+02  0.51100000000E-03 0.  1.
         11   -1    0    0    0    0 -0.00000000000E+00 -0.00000000000E+00 -0.45593999997E+02  0.45594000000E+02  0.51100000000E-03 0. -1.
    9900012    2    1    2    0    0  0.42869884030E+02 -0.12296117320E+02  0.63318320191E+01  0.46142317025E+02  0.99999932920E+01 0.  0.
         12    1    1    2    0    0 -0.42869884030E+02  0.12296117320E+02 -0.63318320191E+01  0.45045682975E+02  0.00000000000E+00 0. -1.
         11    1    3    3    0    0  0.19699271503E+02 -0.57892532613E+01 -0.10237348002E+01  0.20557839971E+02  0.51100000000E-03 0. -1.
        -11    1    3    3    0    0  0.23000857337E+02 -0.68819507214E+01  0.74929521124E+01  0.25150447622E+02  0.51100000000E-03 0.  1.
         12    1    3    3    0    0  0.16975519033E+00  0.37508666297E+00 -0.13738529306E+00  0.43402943233E+00  0.00000000000E+00 0. -1.
</event>
<event>
 7    1  0.1445801E-008  0.4614232E+02  0.7816164E-02  0.1320468E+00
        -11   -1    0    0    0    0  0.00000000000E+00  0.00000000000E+00  0.45593999997E+02  0.45594000000E+02  0.51100000000E-03 0. -1.
         11   -1    0    0    0    0 -0.00000000000E+00 -0.00000000000E+00 -0.45593999997E+02  0.45594000000E+02  0.51100000000E-03 0.  1.
    9900012    2    1    2    0    0  0.11829529682E+02  0.24193404942E+02 -0.36108931391E+02  0.46142317173E+02  0.99999946344E+01 0.  0.
         12    1    1    2    0    0 -0.11829529682E+02 -0.24193404942E+02  0.36108931391E+02  0.45045682827E+02  0.00000000000E+00 0. -1.
         11    1    3    3    0    0  0.10108269942E+02  0.21362914621E+02 -0.31218002711E+02  0.39155011631E+02  0.51100000000E-03 0. -1.
        -11    1    3    3    0    0  0.22691444371E+01  0.17229801378E+00 -0.21881758512E+01  0.31570265915E+01  0.51100000000E-03 0.  1.
         12    1    3    3    0    0 -0.54788469677E+00  0.26581923066E+01 -0.27027528291E+01  0.38302789500E+01  0.00000000000E+00 0. -1.
</event>
<event>
 7    1  0.1445801E-008  0.4614232E+02  0.7816164E-02  0.1320468E+00
        -11   -1    0    0    0    0  0.00000000000E+00  0.00000000000E+00  0.45593999997E+02  0.45594000000E+02  0.51100000000E-03 0.  1.
         11   -1    0    0    0    0 -0.00000000000E+00 -0.00000000000E+00 -0.45593999997E+02  0.45594000000E+02  0.51100000000E-03 0. -1.
    9900012    2    1    2    0    0  0.94880209261E+01 -0.42712322047E+02  0.10712071621E+02  0.46142317918E+02  0.10000001434E+02 0.  0.
         12    1    1    2    0    0 -0.94880209261E+01  0.42712322047E+02 -0.10712071621E+02  0.45045682082E+02  0.00000000000E+00 0. -1.
         11    1    3    3    0    0  0.45136709189E+01 -0.95875564278E+01 -0.86261095818E+00  0.10631959431E+02  0.51100000000E-03 0. -1.
        -11    1    3    3    0    0  0.12058787561E+01 -0.69125845106E+01  0.33881772619E+01  0.77921571859E+01  0.51100000000E-03 0.  1.
         12    1    3    3    0    0  0.37684712511E+01 -0.26212181109E+02  0.81865053175E+01  0.27718201301E+02  0.00000000000E+00 0. -1.
</event>
<event>
 7    1  0.1445801E-008  0.4614232E+02  0.7816164E-02  0.1320468E+00
        -11   -1    0    0    0    0  0.00000000000E+00  0.00000000000E+00  0.45593999997E+02  0.45594000000E+02  0.51100000000E-03 0.  1.
         11   -1    0    0    0    0 -0.00000000000E+00 -0.00000000000E+00 -0.45593999997E+02  0.45594000000E+02  0.51100000000E-03 0. -1.
    9900012    2    1    2    0    0  0.36332200461E+02 -0.12346345449E+02  0.23593485904E+02  0.46142316373E+02  0.99999873438E+01 0.  0.
         12    1    1    2    0    0 -0.36332200461E+02  0.12346345449E+02 -0.23593485904E+02  0.45045683627E+02  0.00000000000E+00 0. -1.
         11    1    3    3    0    0  0.25503238471E+02 -0.47957949620E+01  0.12993669630E+02  0.29021548417E+02  0.51100000000E-03 0. -1.
        -11    1    3    3    0    0  0.10627634582E+02 -0.76845230782E+01  0.10623591768E+02  0.16877772782E+02  0.51100000000E-03 0.  1.
         12    1    3    3    0    0  0.20132740835E+00  0.13397259172E+00 -0.23775493579E-01  0.24299517440E+00  0.00000000000E+00 0. -1.
</event>
<event>
 7    1  0.1445801E-008  0.4614232E+02  0.7816164E-02  0.1320468E+00
        -11   -1    0    0    0    0  0.00000000000E+00  0.00000000000E+00  0.45593999997E+02  0.45594000000E+02  0.51100000000E-03 0. -1.
         11   -1    0    0    0    0 -0.00000000000E+00 -0.00000000000E+00 -0.45593999997E+02  0.45594000000E+02  0.51100000000E-03 0.  1.
    9900012    2    1    2    0    0  0.30005456774E+02  0.20162219767E+02 -0.26875100575E+02  0.46142316821E+02  0.99999914244E+01 0.  0.
         12    1    1    2    0    0 -0.30005456774E+02 -0.20162219767E+02  0.26875100575E+02  0.45045683179E+02  0.00000000000E+00 0. -1.
         11    1    3    3    0    0  0.16385022902E+02  0.75130037713E+01 -0.11220193250E+02  0.21232214627E+02  0.51100000000E-03 0. -1.
        -11    1    3    3    0    0  0.61786192720E+01  0.45116906474E+01 -0.97757059360E+01  0.12413505364E+02  0.51100000000E-03 0.  1.
        -12    1    3    3    0    0  0.74418146007E+01  0.81375253488E+01 -0.58792013891E+01  0.12496596830E+02  0.00000000000E+00 0.  1.
</event>
<event>
 7    1  0.1445801E-008  0.4614232E+02  0.7816164E-02  0.1320468E+00
        -11   -1    0    0    0    0  0.00000000000E+00  0.00000000000E+00  0.45593999997E+02  0.45594000000E+02  0.51100000000E-03 0. -1.
         11   -1    0    0    0    0 -0.00000000000E+00 -0.00000000000E+00 -0.45593999997E+02  0.45594000000E+02  0.51100000000E-03 0.  1.
    9900012    2    1    2    0    0  0.24046834895E+02  0.23223746573E+02 -0.30191402570E+02  0.46142318048E+02  0.10000002620E+02 0.  0.
         12    1    1    2    0    0 -0.24046834895E+02 -0.23223746573E+02  0.30191402570E+02  0.45045681952E+02  0.00000000000E+00 0. -1.
         11    1    3    3    0    0  0.15035758855E+02  0.11211974828E+02 -0.19819911412E+02  0.27287566995E+02  0.51100000000E-03 0. -1.
        -11    1    3    3    0    0  0.15432495432E+01  0.42997163210E+01 -0.52536522322E+01  0.69620429208E+01  0.51100000000E-03 0.  1.
         12    1    3    3    0    0  0.74678264967E+01  0.77120554249E+01 -0.51178389258E+01  0.11892708133E+02  0.00000000000E+00 0. -1.
</event>
<event>
 7    1  0.1445801E-008  0.4614232E+02  0.7816164E-02  0.1320468E+00
        -11   -1    0    0    0    0  0.00000000000E+00  0.00000000000E+00  0.45593999997E+02  0.45594000000E+02  0.51100000000E-03 0.  1.
         11   -1    0    0    0    0 -0.00000000000E+00 -0.00000000000E+00 -0.45593999997E+02  0.45594000000E+02  0.51100000000E-03 0. -1.
    9900012    2    1    2    0    0  0.13571138104E+02 -0.40646883829E+02 -0.13884110004E+02  0.46142318020E+02  0.10000002362E+02 0.  0.
         12    1    1    2    0    0 -0.13571138104E+02  0.40646883829E+02  0.13884110004E+02  0.45045681980E+02  0.00000000000E+00 0. -1.
         11    1    3    3    0    0  0.20744482258E+01 -0.88725387186E+01  0.10262070602E+00  0.91123986977E+01  0.51100000000E-03 0. -1.
        -11    1    3    3    0    0  0.61480809222E+00 -0.82858253831E+01 -0.22574262608E+01  0.86098121265E+01  0.51100000000E-03 0.  1.
         12    1    3    3    0    0  0.10881881786E+02 -0.23488519727E+02 -0.11729304449E+02  0.28420107196E+02  0.00000000000E+00 0. -1.
</event>
<event>
 7    1  0.1445801E-008  0.4614232E+02  0.7816164E-02  0.1320468E+00
        -11   -1    0    0    0    0  0.00000000000E+00  0.00000000000E+00  0.45593999997E+02  0.45594000000E+02  0.51100000000E-03 0. -1.
         11   -1    0    0    0    0 -0.00000000000E+00 -0.00000000000E+00 -0.45593999997E+02  0.45594000000E+02  0.51100000000E-03 0.  1.
    9900012    2    1    2    0    0  0.41024683594E+02 -0.12540743677E+02 -0.13741127133E+02  0.46142317734E+02  0.99999997515E+01 0.  0.
         12    1    1    2    0    0 -0.41024683594E+02  0.12540743677E+02  0.13741127133E+02  0.45045682266E+02  0.00000000000E+00 0. -1.
         11    1    3    3    0    0  0.16959175730E+02 -0.10844185040E+01 -0.30446960888E+01  0.17264407881E+02  0.51100000000E-03 0. -1.
        -11    1    3    3    0    0  0.11786712637E+02 -0.42250466737E+01 -0.41000163691E+01  0.13175270345E+02  0.51100000000E-03 0.  1.
         12    1    3    3    0    0  0.12278795226E+02 -0.72312784988E+01 -0.65964146749E+01  0.15702639507E+02  0.00000000000E+00 0. -1.
</event>
<event>
 7    1  0.1445801E-008  0.4614232E+02  0.7816164E-02  0.1320468E+00
        -11   -1    0    0    0    0  0.00000000000E+00  0.00000000000E+00  0.45593999997E+02  0.45594000000E+02  0.51100000000E-03 0. -1.
         11   -1    0    0    0    0 -0.00000000000E+00 -0.00000000000E+00 -0.45593999997E+02  0.45594000000E+02  0.51100000000E-03 0.  1.
    9900012    2    1    2    0    0 -0.18328957590E+02  0.31317456344E+02 -0.26690442838E+02  0.46142317664E+02  0.99999991125E+01 0.  0.
         12    1    1    2    0    0  0.18328957590E+02 -0.31317456344E+02  0.26690442838E+02  0.45045682336E+02  0.00000000000E+00 0. -1.
         11    1    3    3    0    0 -0.34552734698E+01  0.82019166774E+01 -0.11549460001E+02  0.14580822285E+02  0.51100000000E-03 0. -1.
        -11    1    3    3    0    0 -0.19422334595E+01  0.40801922698E+01 -0.38105201882E+01  0.59110324086E+01  0.51100000000E-03 0.  1.
         12    1    3    3    0    0 -0.12931450661E+02  0.19035347397E+02 -0.11330462649E+02  0.25650462970E+02  0.00000000000E+00 0. -1.
</event>
<event>
 7    1  0.1445801E-008  0.4614232E+02  0.7816164E-02  0.1320468E+00
        -11   -1    0    0    0    0  0.00000000000E+00  0.00000000000E+00  0.45593999997E+02  0.45594000000E+02  0.51100000000E-03 0.  1.
         11   -1    0    0    0    0 -0.00000000000E+00 -0.00000000000E+00 -0.45593999997E+02  0.45594000000E+02  0.51100000000E-03 0. -1.
    9900012    2    1    2    0    0  0.96688347342E+01  0.43528873525E+02  0.63925153749E+01  0.46142318206E+02  0.10000004052E+02 0.  0.
         12    1    1    2    0    0 -0.96688347342E+01 -0.43528873525E+02 -0.63925153749E+01  0.45045681794E+02  0.00000000000E+00 0. -1.
         11    1    3    3    0    0 -0.41190182744E+00  0.13505595016E+01  0.85193764150E+00  0.16490821959E+01  0.51100000000E-03 0. -1.
        -11    1    3    3    0    0  0.73644306468E-02  0.33143951067E+01 -0.16561190885E+01  0.37051315570E+01  0.51100000000E-03 0.  1.
        -12    1    3    3    0    0  0.10073372131E+02  0.38863918917E+02  0.71966968219E+01  0.40788104453E+02  0.00000000000E+00 0.  1.
</event>
<event>
 7    1  0.1445801E-008  0.4614232E+02  0.7816164E-02  0.1320468E+00
        -11   -1    0    0    0    0  0.00000000000E+00  0.00000000000E+00  0.45593999997E+02  0.45594000000E+02  0.51100000000E-03 0.  1.
         11   -1    0    0    0    0 -0.00000000000E+00 -0.00000000000E+00 -0.45593999997E+02  0.45594000000E+02  0.51100000000E-03 0. -1.
    9900012    2    1    2    0    0 -0.23474003692E+02 -0.12360979194E+02  0.36404544384E+02  0.46142317546E+02  0.99999980414E+01 0.  0.
         12    1    1    2    0    0  0.23474003692E+02  0.12360979194E+02 -0.36404544384E+02  0.45045682454E+02  0.00000000000E+00 0. -1.
         11    1    3    3    0    0 -0.33682519436E+01 -0.28649546181E+01  0.10720028543E+02  0.11596210517E+02  0.51100000000E-03 0. -1.
        -11    1    3    3    0    0 -0.24854035781E+01 -0.18156014053E+01  0.74106462099E+01  0.80244200363E+01  0.51100000000E-03 0.  1.
         12    1    3    3    0    0 -0.17620348170E+02 -0.76804231702E+01  0.18273869631E+02  0.26521686993E+02  0.00000000000E+00 0. -1.
</event>
<event>
 7    1  0.1445801E-008  0.4614232E+02  0.7816164E-02  0.1320468E+00
        -11   -1    0    0    0    0  0.00000000000E+00  0.00000000000E+00  0.45593999997E+02  0.45594000000E+02  0.51100000000E-03 0.  1.
         11   -1    0    0    0    0 -0.00000000000E+00 -0.00000000000E+00 -0.45593999997E+02  0.45594000000E+02  0.51100000000E-03 0. -1.
    9900012    2    1    2    0    0 -0.12254738902E+02  0.32036207483E+01  0.43228133293E+02  0.46142319636E+02  0.10000017099E+02 0.  0.
         12    1    1    2    0    0  0.12254738902E+02 -0.32036207483E+01 -0.43228133293E+02  0.45045680364E+02  0.00000000000E+00 0. -1.
         11    1    3    3    0    0 -0.29196201523E+01  0.91294149146E+00  0.45522164226E+01  0.54845527275E+01  0.51100000000E-03 0. -1.
        -11    1    3    3    0    0 -0.13338447315E+01  0.35282520456E+01  0.68684947219E+01  0.78360656117E+01  0.51100000000E-03 0.  1.
        -12    1    3    3    0    0 -0.80012740182E+01 -0.12375727887E+01  0.31807422148E+02  0.32821701297E+02  0.00000000000E+00 0.  1.
</event>
<event>
 7    1  0.1445801E-008  0.4614232E+02  0.7816164E-02  0.1320468E+00
        -11   -1    0    0    0    0  0.00000000000E+00  0.00000000000E+00  0.45593999997E+02  0.45594000000E+02  0.51100000000E-03 0.  1.
         11   -1    0    0    0    0 -0.00000000000E+00 -0.00000000000E+00 -0.45593999997E+02  0.45594000000E+02  0.51100000000E-03 0. -1.
    9900012    2    1    2    0    0 -0.62479649030E+01 -0.22953287336E+02  0.38252098047E+02  0.46142317966E+02  0.10000001864E+02 0.  0.
         12    1    1    2    0    0  0.62479649030E+01  0.22953287336E+02 -0.38252098047E+02  0.45045682034E+02  0.00000000000E+00 0. -1.
         11    1    3    3    0    0 -0.48951263992E+01 -0.84840801566E+01  0.18125450920E+02  0.20602763161E+02  0.51100000000E-03 0. -1.
        -11    1    3    3    0    0  0.17653754781E+00  0.52818345260E+00  0.29991958182E+00  0.63253085463E+00  0.51100000000E-03 0.  1.
        -12    1    3    3    0    0 -0.15293760516E+01 -0.14997390632E+02  0.19826727545E+02  0.24907023949E+02  0.00000000000E+00 0.  1.
</event>
<event>
 7    1  0.1445801E-008  0.4614232E+02  0.7816164E-02  0.1320468E+00
        -11   -1    0    0    0    0  0.00000000000E+00  0.00000000000E+00  0.45593999997E+02  0.45594000000E+02  0.51100000000E-03 0. -1.
         11   -1    0    0    0    0 -0.00000000000E+00 -0.00000000000E+00 -0.45593999997E+02  0.45594000000E+02  0.51100000000E-03 0.  1.
    9900012    2    1    2    0    0  0.74043067138E+01  0.44431118888E+02  0.40668825715E+00  0.46142317866E+02  0.10000000960E+02 0.  0.
         12    1    1    2    0    0 -0.74043067138E+01 -0.44431118888E+02 -0.40668825715E+00  0.45045682134E+02  0.00000000000E+00 0. -1.
         11    1    3    3    0    0  0.45593195464E+00  0.14561939962E+02  0.13198533037E+01  0.14628738237E+02  0.51100000000E-03 0. -1.
        -11    1    3    3    0    0  0.53682221662E+01  0.23452800252E+02 -0.36994517097E+01  0.24342095063E+02  0.51100000000E-03 0.  1.
        -12    1    3    3    0    0  0.15801525929E+01  0.64163786741E+01  0.27862866632E+01  0.71714845656E+01  0.00000000000E+00 0.  1.
</event>
<event>
 7    1  0.1445801E-008  0.4614232E+02  0.7816164E-02  0.1320468E+00
        -11   -1    0    0    0    0  0.00000000000E+00  0.00000000000E+00  0.45593999997E+02  0.45594000000E+02  0.51100000000E-03 0. -1.
         11   -1    0    0    0    0 -0.00000000000E+00 -0.00000000000E+00 -0.45593999997E+02  0.45594000000E+02  0.51100000000E-03 0.  1.
    9900012    2    1    2    0    0 -0.26374296021E+02  0.35749534545E+02 -0.74485416215E+01  0.46142317820E+02  0.10000000540E+02 0.  0.
         12    1    1    2    0    0  0.26374296021E+02 -0.35749534545E+02  0.74485416215E+01  0.45045682180E+02  0.00000000000E+00 0. -1.
         11    1    3    3    0    0 -0.99637950234E+01  0.14459098403E+02 -0.69279594041E+01  0.18876953135E+02  0.51100000000E-03 0.  1.
        -11    1    3    3    0    0 -0.31262958945E+01  0.16748118699E+01 -0.44683152152E+00  0.35746859287E+01  0.51100000000E-03 0. -1.
         12    1    3    3    0    0 -0.13284205103E+02  0.19615624272E+02 -0.73750695898E-01  0.23690678757E+02  0.00000000000E+00 0. -1.
</event>
<event>
 7    1  0.1445801E-008  0.4614232E+02  0.7816164E-02  0.1320468E+00
        -11   -1    0    0    0    0  0.00000000000E+00  0.00000000000E+00  0.45593999997E+02  0.45594000000E+02  0.51100000000E-03 0. -1.
         11   -1    0    0    0    0 -0.00000000000E+00 -0.00000000000E+00 -0.45593999997E+02  0.45594000000E+02  0.51100000000E-03 0.  1.
    9900012    2    1    2    0    0 -0.14456493729E+02 -0.23535860985E+02 -0.35583515169E+02  0.46142317465E+02  0.99999972972E+01 0.  0.
         12    1    1    2    0    0  0.14456493729E+02  0.23535860985E+02  0.35583515169E+02  0.45045682535E+02  0.00000000000E+00 0. -1.
         11    1    3    3    0    0 -0.19142773758E+01 -0.68405633987E+01 -0.48708295233E+01  0.86129406122E+01  0.51100000000E-03 0. -1.
        -11    1    3    3    0    0 -0.11279186575E+02 -0.16631457139E+02 -0.29902201766E+02  0.36027310295E+02  0.51100000000E-03 0.  1.
         12    1    3    3    0    0 -0.12630297784E+01 -0.63840447328E-01 -0.81048388029E+00  0.15020665578E+01  0.00000000000E+00 0. -1.
</event>
<event>
 7    1  0.1445801E-008  0.4614232E+02  0.7816164E-02  0.1320468E+00
        -11   -1    0    0    0    0  0.00000000000E+00  0.00000000000E+00  0.45593999997E+02  0.45594000000E+02  0.51100000000E-03 0.  1.
         11   -1    0    0    0    0 -0.00000000000E+00 -0.00000000000E+00 -0.45593999997E+02  0.45594000000E+02  0.51100000000E-03 0. -1.
    9900012    2    1    2    0    0 -0.86755874190E+01 -0.21160504617E+02  0.38808255604E+02  0.46142317902E+02  0.10000001281E+02 0.  0.
         12    1    1    2    0    0  0.86755874190E+01  0.21160504617E+02 -0.38808255604E+02  0.45045682098E+02  0.00000000000E+00 0. -1.
         11    1    3    3    0    0  0.13149533470E+01 -0.35556239801E+01  0.65933711161E+01  0.76055313509E+01  0.51100000000E-03 0. -1.
        -11    1    3    3    0    0 -0.93936149648E+01 -0.11098304942E+02  0.23685858851E+02  0.27792666019E+02  0.51100000000E-03 0.  1.
        -12    1    3    3    0    0 -0.59692580128E+00 -0.65065756947E+01  0.85290256366E+01  0.10744120531E+02  0.00000000000E+00 0.  1.
</event>
<event>
 7    1  0.1445801E-008  0.4614232E+02  0.7816164E-02  0.1320468E+00
        -11   -1    0    0    0    0  0.00000000000E+00  0.00000000000E+00  0.45593999997E+02  0.45594000000E+02  0.51100000000E-03 0.  1.
         11   -1    0    0    0    0 -0.00000000000E+00 -0.00000000000E+00 -0.45593999997E+02  0.45594000000E+02  0.51100000000E-03 0. -1.
    9900012    2    1    2    0    0 -0.11284183395E+02  0.33022108461E+02  0.28483699942E+02  0.46142316472E+02  0.99999882481E+01 0.  0.
         12    1    1    2    0    0  0.11284183395E+02 -0.33022108461E+02 -0.28483699942E+02  0.45045683528E+02  0.00000000000E+00 0. -1.
         11    1    3    3    0    0 -0.21536509059E+01  0.11344590044E+02  0.46641515428E+01  0.12453603710E+02  0.51100000000E-03 0. -1.
        -11    1    3    3    0    0 -0.73237858498E+01  0.19702705030E+02  0.19922568371E+02  0.28961062747E+02  0.51100000000E-03 0.  1.
         12    1    3    3    0    0 -0.18067466391E+01  0.19748133874E+01  0.38969800278E+01  0.47276500156E+01  0.00000000000E+00 0. -1.
</event>
<event>
 7    1  0.1445801E-008  0.4614232E+02  0.7816164E-02  0.1320468E+00
        -11   -1    0    0    0    0  0.00000000000E+00  0.00000000000E+00  0.45593999997E+02  0.45594000000E+02  0.51100000000E-03 0. -1.
         11   -1    0    0    0    0 -0.00000000000E+00 -0.00000000000E+00 -0.45593999997E+02  0.45594000000E+02  0.51100000000E-03 0.  1.
    9900012    2    1    2    0    0  0.28871639245E+02 -0.15554888586E+02 -0.30880208386E+02  0.46142318946E+02  0.10000010803E+02 0.  0.
         12    1    1    2    0    0 -0.28871639245E+02  0.15554888586E+02  0.30880208386E+02  0.45045681054E+02  0.00000000000E+00 0. -1.
         11    1    3    3    0    0  0.90788357885E+00  0.69954642287E+00 -0.14618585323E+01  0.18575921027E+01  0.51100000000E-03 0. -1.
        -11    1    3    3    0    0  0.18894138685E+02 -0.13366490793E+02 -0.23958879420E+02  0.33311851586E+02  0.51100000000E-03 0.  1.
         12    1    3    3    0    0  0.90696169814E+01 -0.28879442167E+01 -0.54594704339E+01  0.10972875257E+02  0.00000000000E+00 0. -1.
</event>
<event>
 7    1  0.1445801E-008  0.4614232E+02  0.7816164E-02  0.1320468E+00
        -11   -1    0    0    0    0  0.00000000000E+00  0.00000000000E+00  0.45593999997E+02  0.45594000000E+02  0.51100000000E-03 0.  1.
         11   -1    0    0    0    0 -0.00000000000E+00 -0.00000000000E+00 -0.45593999997E+02  0.45594000000E+02  0.51100000000E-03 0. -1.
    9900012    2    1    2    0    0  0.39286761289E+02 -0.80793364369E+01  0.20503372681E+02  0.46142316731E+02  0.99999906095E+01 0.  0.
         12    1    1    2    0    0 -0.39286761289E+02  0.80793364369E+01 -0.20503372681E+02  0.45045683269E+02  0.00000000000E+00 0. -1.
         11    1    3    3    0    0  0.17006868897E+02 -0.18928330248E+01  0.84821349373E+01  0.19098770114E+02  0.51100000000E-03 0. -1.
        -11    1    3    3    0    0  0.21325397571E+02 -0.40706123025E+01  0.11804799328E+02  0.24712259174E+02  0.51100000000E-03 0.  1.
         12    1    3    3    0    0  0.95449482201E+00 -0.21158911095E+01  0.21643841553E+00  0.23312874427E+01  0.00000000000E+00 0. -1.
</event>
<event>
 7    1  0.1445801E-008  0.4614232E+02  0.7816164E-02  0.1320468E+00
        -11   -1    0    0    0    0  0.00000000000E+00  0.00000000000E+00  0.45593999997E+02  0.45594000000E+02  0.51100000000E-03 0.  1.
         11   -1    0    0    0    0 -0.00000000000E+00 -0.00000000000E+00 -0.45593999997E+02  0.45594000000E+02  0.51100000000E-03 0. -1.
    9900012    2    1    2    0    0  0.15100417595E+01  0.42582759862E+02 -0.14613070580E+02  0.46142317684E+02  0.99999992953E+01 0.  0.
         12    1    1    2    0    0 -0.15100417595E+01 -0.42582759862E+02  0.14613070580E+02  0.45045682316E+02  0.00000000000E+00 0. -1.
         11    1    3    3    0    0  0.21598464231E+01  0.41067822307E+01 -0.23575375830E+01  0.52046691132E+01  0.51100000000E-03 0. -1.
        -11    1    3    3    0    0  0.25264897983E+01  0.14894324581E+02 -0.29748275165E+01  0.15397196317E+02  0.51100000000E-03 0.  1.
        -12    1    3    3    0    0 -0.31762944619E+01  0.23581653050E+02 -0.92807054807E+01  0.25540452254E+02  0.00000000000E+00 0.  1.
</event>
<event>
 7    1  0.1445801E-008  0.4614232E+02  0.7816164E-02  0.1320468E+00
        -11   -1    0    0    0    0  0.00000000000E+00  0.00000000000E+00  0.45593999997E+02  0.45594000000E+02  0.51100000000E-03 0.  1.
         11   -1    0    0    0    0 -0.00000000000E+00 -0.00000000000E+00 -0.45593999997E+02  0.45594000000E+02  0.51100000000E-03 0. -1.
    9900012    2    1    2    0    0 -0.27436920104E+02  0.15820940249E+02  0.32031652049E+02  0.46142317985E+02  0.10000002043E+02 0.  0.
         12    1    1    2    0    0  0.27436920104E+02 -0.15820940249E+02 -0.32031652049E+02  0.45045682015E+02  0.00000000000E+00 0. -1.
         11    1    3    3    0    0 -0.23460880205E+01 -0.41265875766E+00  0.97901892963E+00  0.25754406566E+01  0.51100000000E-03 0. -1.
        -11    1    3    3    0    0 -0.20111364214E+02  0.10802265922E+02  0.20409383128E+02  0.30621868648E+02  0.51100000000E-03 0.  1.
        -12    1    3    3    0    0 -0.49794678704E+01  0.54313330845E+01  0.10643249992E+02  0.12945008680E+02  0.00000000000E+00 0.  1.
</event>
<event>
 7    1  0.1445801E-008  0.4614232E+02  0.7816164E-02  0.1320468E+00
        -11   -1    0    0    0    0  0.00000000000E+00  0.00000000000E+00  0.45593999997E+02  0.45594000000E+02  0.51100000000E-03 0.  1.
         11   -1    0    0    0    0 -0.00000000000E+00 -0.00000000000E+00 -0.45593999997E+02  0.45594000000E+02  0.51100000000E-03 0. -1.
    9900012    2    1    2    0    0  0.19170438502E+02 -0.32594765870E+02  0.24478337964E+02  0.46142317588E+02  0.99999984221E+01 0.  0.
         12    1    1    2    0    0 -0.19170438502E+02  0.32594765870E+02 -0.24478337964E+02  0.45045682412E+02  0.00000000000E+00 0. -1.
         11    1    3    3    0    0  0.13321566247E+02 -0.20527972753E+02  0.18937405938E+02  0.30943289039E+02  0.51100000000E-03 0. -1.
        -11    1    3    3    0    0  0.42014824743E+01 -0.95534071347E+01  0.61767561610E+01  0.12127339354E+02  0.51100000000E-03 0.  1.
         12    1    3    3    0    0  0.16473897800E+01 -0.25133859828E+01 -0.63582413469E+00  0.30716891958E+01  0.00000000000E+00 0. -1.
</event>
<event>
 7    1  0.1445801E-008  0.4614232E+02  0.7816164E-02  0.1320468E+00
        -11   -1    0    0    0    0  0.00000000000E+00  0.00000000000E+00  0.45593999997E+02  0.45594000000E+02  0.51100000000E-03 0.  1.
         11   -1    0    0    0    0 -0.00000000000E+00 -0.00000000000E+00 -0.45593999997E+02  0.45594000000E+02  0.51100000000E-03 0. -1.
    9900012    2    1    2    0    0  0.44108692204E+02  0.91330090532E+01 -0.35332123885E+00  0.46142318540E+02  0.10000007101E+02 0.  0.
         12    1    1    2    0    0 -0.44108692204E+02 -0.91330090532E+01  0.35332123885E+00  0.45045681460E+02  0.00000000000E+00 0. -1.
         11    1    3    3    0    0  0.16108353771E+02  0.89265589605E+00  0.14046494717E+01  0.16194101894E+02  0.51100000000E-03 0. -1.
        -11    1    3    3    0    0  0.20352264941E+02  0.75886364078E+01  0.11218996049E+01  0.21749959764E+02  0.51100000000E-03 0.  1.
         12    1    3    3    0    0  0.76480734918E+01  0.65171674928E+00 -0.28798703155E+01  0.81982568813E+01  0.00000000000E+00 0. -1.
</event>
<event>
 7    1  0.1445801E-008  0.4614232E+02  0.7816164E-02  0.1320468E+00
        -11   -1    0    0    0    0  0.00000000000E+00  0.00000000000E+00  0.45593999997E+02  0.45594000000E+02  0.51100000000E-03 0.  1.
         11   -1    0    0    0    0 -0.00000000000E+00 -0.00000000000E+00 -0.45593999997E+02  0.45594000000E+02  0.51100000000E-03 0. -1.
    9900012    2    1    2    0    0 -0.36948222409E+02  0.24930402266E+02  0.65128547994E+01  0.46142319032E+02  0.10000011584E+02 0.  0.
         12    1    1    2    0    0  0.36948222409E+02 -0.24930402266E+02 -0.65128547994E+01  0.45045680968E+02  0.00000000000E+00 0. -1.
         11    1    3    3    0    0 -0.42416558623E+01  0.29287957113E+01 -0.18504713062E+01  0.54766534571E+01  0.51100000000E-03 0. -1.
        -11    1    3    3    0    0 -0.13523042230E+02  0.71141066922E+01  0.10984533043E+01  0.15319588281E+02  0.51100000000E-03 0.  1.
         12    1    3    3    0    0 -0.19183524317E+02  0.14887499862E+02  0.72648728013E+01  0.25346077294E+02  0.00000000000E+00 0. -1.
</event>
<event>
 7    1  0.1445801E-008  0.4614232E+02  0.7816164E-02  0.1320468E+00
        -11   -1    0    0    0    0  0.00000000000E+00  0.00000000000E+00  0.45593999997E+02  0.45594000000E+02  0.51100000000E-03 0. -1.
         11   -1    0    0    0    0 -0.00000000000E+00 -0.00000000000E+00 -0.45593999997E+02  0.45594000000E+02  0.51100000000E-03 0.  1.
    9900012    2    1    2    0    0  0.22683455014E+02  0.38791307669E+02  0.31318992712E+01  0.46142317908E+02  0.10000001344E+02 0.  0.
         12    1    1    2    0    0 -0.22683455014E+02 -0.38791307669E+02 -0.31318992712E+01  0.45045682092E+02  0.00000000000E+00 0. -1.
         11    1    3    3    0    0  0.99717473534E+00  0.87185483232E+01 -0.63018462560E+00  0.87979869993E+01  0.51100000000E-03 0. -1.
        -11    1    3    3    0    0  0.15903372856E+02  0.23484866939E+02  0.34594154741E+01  0.28573130718E+02  0.51100000000E-03 0.  1.
         12    1    3    3    0    0  0.57829074219E+01  0.65878924068E+01  0.30266842263E+00  0.87712001908E+01  0.00000000000E+00 0. -1.
</event>
<event>
 7    1  0.1445801E-008  0.4614232E+02  0.7816164E-02  0.1320468E+00
        -11   -1    0    0    0    0  0.00000000000E+00  0.00000000000E+00  0.45593999997E+02  0.45594000000E+02  0.51100000000E-03 0. -1.
         11   -1    0    0    0    0 -0.00000000000E+00 -0.00000000000E+00 -0.45593999997E+02  0.45594000000E+02  0.51100000000E-03 0.  1.
    9900012    2    1    2    0    0 -0.31952722604E+02  0.76250359626E+01 -0.30822004924E+02  0.46142316047E+02  0.99999843736E+01 0.  0.
         12    1    1    2    0    0  0.31952722604E+02 -0.76250359626E+01  0.30822004924E+02  0.45045683953E+02  0.00000000000E+00 0. -1.
         11    1    3    3    0    0 -0.22051704271E+02  0.41704336986E+01 -0.20466429565E+02  0.30373424534E+02  0.51100000000E-03 0.  1.
        -11    1    3    3    0    0  0.35805735107E+00 -0.45696763826E+00 -0.16739565935E+01  0.17717661886E+01  0.51100000000E-03 0. -1.
        -12    1    3    3    0    0 -0.10259075683E+02  0.39115699022E+01 -0.86816187654E+01  0.13997125325E+02  0.00000000000E+00 0.  1.
</event>
<event>
 7    1  0.1445801E-008  0.4614232E+02  0.7816164E-02  0.1320468E+00
        -11   -1    0    0    0    0  0.00000000000E+00  0.00000000000E+00  0.45593999997E+02  0.45594000000E+02  0.51100000000E-03 0.  1.
         11   -1    0    0    0    0 -0.00000000000E+00 -0.00000000000E+00 -0.45593999997E+02  0.45594000000E+02  0.51100000000E-03 0. -1.
    9900012    2    1    2    0    0 -0.15658025171E+01 -0.39992396304E+02  0.20670510429E+02  0.46142317621E+02  0.99999987179E+01 0.  0.
         12    1    1    2    0    0  0.15658025171E+01  0.39992396304E+02 -0.20670510429E+02  0.45045682379E+02  0.00000000000E+00 0. -1.
         11    1    3    3    0    0  0.16973666749E+01 -0.14040360557E+02  0.27311991444E+01  0.14403896251E+02  0.51100000000E-03 0. -1.
        -11    1    3    3    0    0 -0.57012115321E+00 -0.68525659914E+01  0.42083504984E+01  0.80618182176E+01  0.51100000000E-03 0.  1.
         12    1    3    3    0    0 -0.26930480388E+01 -0.19099469756E+02  0.13730960786E+02  0.23676603151E+02  0.00000000000E+00 0. -1.
</event>
<event>
 7    1  0.1445801E-008  0.4614232E+02  0.7816164E-02  0.1320468E+00
        -11   -1    0    0    0    0  0.00000000000E+00  0.00000000000E+00  0.45593999997E+02  0.45594000000E+02  0.51100000000E-03 0. -1.
         11   -1    0    0    0    0 -0.00000000000E+00 -0.00000000000E+00 -0.45593999997E+02  0.45594000000E+02  0.51100000000E-03 0.  1.
    9900012    2    1    2    0    0 -0.43621225373E+02  0.26656548608E+01  0.10917716458E+02  0.46142317060E+02  0.99999936095E+01 0.  0.
         12    1    1    2    0    0  0.43621225373E+02 -0.26656548608E+01 -0.10917716458E+02  0.45045682940E+02  0.00000000000E+00 0. -1.
         11    1    3    3    0    0 -0.19726832444E+02 -0.48914068632E+00  0.87260221363E+01  0.21576159052E+02  0.51100000000E-03 0. -1.
        -11    1    3    3    0    0 -0.14353934960E+02  0.36087367920E+01  0.16140036844E+00  0.14801502641E+02  0.51100000000E-03 0.  1.
         12    1    3    3    0    0 -0.95404579685E+01 -0.45394124491E+00  0.20302939530E+01  0.97646553671E+01  0.00000000000E+00 0. -1.
</event>
<event>
 7    1  0.1445801E-008  0.4614232E+02  0.7816164E-02  0.1320468E+00
        -11   -1    0    0    0    0  0.00000000000E+00  0.00000000000E+00  0.45593999997E+02  0.45594000000E+02  0.51100000000E-03 0.  1.
         11   -1    0    0    0    0 -0.00000000000E+00 -0.00000000000E+00 -0.45593999997E+02  0.45594000000E+02  0.51100000000E-03 0. -1.
    9900012    2    1    2    0    0 -0.21123378462E+02 -0.29809535768E+02  0.26349724125E+02  0.46142317612E+02  0.99999986382E+01 0.  0.
         12    1    1    2    0    0  0.21123378462E+02  0.29809535768E+02 -0.26349724125E+02  0.45045682388E+02  0.00000000000E+00 0. -1.
         11    1    3    3    0    0 -0.91150088717E+00 -0.16408393368E+00 -0.15390883421E+00  0.93885334050E+00  0.51100000000E-03 0. -1.
        -11    1    3    3    0    0 -0.13270153341E+02 -0.13037528169E+02  0.14118418667E+02  0.23353883111E+02  0.51100000000E-03 0.  1.
        -12    1    3    3    0    0 -0.69417242342E+01 -0.16607923665E+02  0.12385214292E+02  0.21849581161E+02  0.00000000000E+00 0.  1.
</event>
<event>
 7    1  0.1445801E-008  0.4614232E+02  0.7816164E-02  0.1320468E+00
        -11   -1    0    0    0    0  0.00000000000E+00  0.00000000000E+00  0.45593999997E+02  0.45594000000E+02  0.51100000000E-03 0.  1.
         11   -1    0    0    0    0 -0.00000000000E+00 -0.00000000000E+00 -0.45593999997E+02  0.45594000000E+02  0.51100000000E-03 0. -1.
    9900012    2    1    2    0    0  0.38099935337E+02  0.16288192753E+02  0.17669270807E+02  0.46142318446E+02  0.10000006245E+02 0.  0.
         12    1    1    2    0    0 -0.38099935337E+02 -0.16288192753E+02 -0.17669270807E+02  0.45045681554E+02  0.00000000000E+00 0. -1.
         11    1    3    3    0    0  0.58255480289E+01  0.53022908574E+01  0.28331368642E+01  0.83712581447E+01  0.51100000000E-03 0. -1.
        -11    1    3    3    0    0  0.48785156458E+01  0.26596242967E+01  0.74988031683E-01  0.55569001945E+01  0.51100000000E-03 0.  1.
        -12    1    3    3    0    0  0.27395871662E+02  0.83262775987E+01  0.14761145911E+02  0.32214160107E+02  0.00000000000E+00 0.  1.
</event>
<event>
 7    1  0.1445801E-008  0.4614232E+02  0.7816164E-02  0.1320468E+00
        -11   -1    0    0    0    0  0.00000000000E+00  0.00000000000E+00  0.45593999997E+02  0.45594000000E+02  0.51100000000E-03 0.  1.
         11   -1    0    0    0    0 -0.00000000000E+00 -0.00000000000E+00 -0.45593999997E+02  0.45594000000E+02  0.51100000000E-03 0. -1.
    9900012    2    1    2    0    0  0.23369368094E+02  0.37915589723E+02 -0.67375152319E+01  0.46142318513E+02  0.10000006856E+02 0.  0.
         12    1    1    2    0    0 -0.23369368094E+02 -0.37915589723E+02  0.67375152319E+01  0.45045681487E+02  0.00000000000E+00 0. -1.
         11    1    3    3    0    0  0.45563094179E+01  0.15301524429E+02 -0.46533769090E+01  0.16629808245E+02  0.51100000000E-03 0.  1.
        -11    1    3    3    0    0  0.14834085760E+02  0.17120348612E+02 -0.17680862332E+01  0.22721852172E+02  0.51100000000E-03 0. -1.
        -12    1    3    3    0    0  0.39789729160E+01  0.54937166821E+01 -0.31605208980E+00  0.67906580957E+01  0.00000000000E+00 0.  1.
</event>
<event>
 7    1  0.1445801E-008  0.4614232E+02  0.7816164E-02  0.1320468E+00
        -11   -1    0    0    0    0  0.00000000000E+00  0.00000000000E+00  0.45593999997E+02  0.45594000000E+02  0.51100000000E-03 0. -1.
         11   -1    0    0    0    0 -0.00000000000E+00 -0.00000000000E+00 -0.45593999997E+02  0.45594000000E+02  0.51100000000E-03 0.  1.
    9900012    2    1    2    0    0  0.11227765037E+00 -0.19384167100E+02 -0.40661468370E+02  0.46142317072E+02  0.99999937142E+01 0.  0.
         12    1    1    2    0    0 -0.11227765037E+00  0.19384167100E+02  0.40661468370E+02  0.45045682928E+02  0.00000000000E+00 0. -1.
         11    1    3    3    0    0 -0.30640007495E+01 -0.25257840168E+01 -0.12026249779E+02  0.12664847788E+02  0.51100000000E-03 0. -1.
        -11    1    3    3    0    0  0.20826202003E+01 -0.13908709155E+02 -0.21654931227E+02  0.25821029103E+02  0.51100000000E-03 0.  1.
         12    1    3    3    0    0  0.10936581996E+01 -0.29496739281E+01 -0.69802873650E+01  0.76564401806E+01  0.00000000000E+00 0. -1.
</event>
<event>
 7    1  0.1445801E-008  0.4614232E+02  0.7816164E-02  0.1320468E+00
        -11   -1    0    0    0    0  0.00000000000E+00  0.00000000000E+00  0.45593999997E+02  0.45594000000E+02  0.51100000000E-03 0.  1.
         11   -1    0    0    0    0 -0.00000000000E+00 -0.00000000000E+00 -0.45593999997E+02  0.45594000000E+02  0.51100000000E-03 0. -1.
    9900012    2    1    2    0    0 -0.37685052358E+02  0.19756772920E+02  0.14785811995E+02  0.46142317812E+02  0.10000000464E+02 0.  0.
         12    1    1    2    0    0  0.37685052358E+02 -0.19756772920E+02 -0.14785811995E+02  0.45045682188E+02  0.00000000000E+00 0. -1.
         11    1    3    3    0    0 -0.39818659365E+01  0.18049582900E+01  0.33920232601E+01  0.55334395111E+01  0.51100000000E-03 0. -1.
        -11    1    3    3    0    0 -0.28160593480E+02  0.15818663146E+02  0.65770461945E+01  0.32962200560E+02  0.51100000000E-03 0.  1.
        -12    1    3    3    0    0 -0.55425929420E+01  0.21331514841E+01  0.48167425404E+01  0.76466777411E+01  0.00000000000E+00 0.  1.
</event>
<event>
 7    1  0.1445801E-008  0.4614233E+02  0.7816164E-02  0.1320468E+00
        -11   -1    0    0    0    0  0.00000000000E+00  0.00000000000E+00  0.45593999997E+02  0.45594000000E+02  0.51100000000E-03 0.  1.
         11   -1    0    0    0    0 -0.00000000000E+00 -0.00000000000E+00 -0.45593999997E+02  0.45594000000E+02  0.51100000000E-03 0. -1.
    9900012    2    1    2    0    0  0.39072281397E+02 -0.14898640192E+02  0.16748129344E+02  0.46142328846E+02  0.10000101084E+02 0.  0.
         12    1    1    2    0    0 -0.39072281397E+02  0.14898640192E+02 -0.16748129344E+02  0.45045671154E+02  0.00000000000E+00 0. -1.
         11    1    3    3    0    0  0.54935814425E-02  0.84377953055E+00  0.41614683767E+00  0.94083607884E+00  0.51100000000E-03 0. -1.
        -11    1    3    3    0    0  0.25711416087E+02 -0.10916177586E+02  0.11384576465E+02  0.30163693936E+02  0.51100000000E-03 0.  1.
         12    1    3    3    0    0  0.13355371729E+02 -0.48262421361E+01  0.49474060413E+01  0.15037798832E+02  0.00000000000E+00 0. -1.
</event>
<event>
 7    1  0.1445801E-008  0.4614232E+02  0.7816164E-02  0.1320468E+00
        -11   -1    0    0    0    0  0.00000000000E+00  0.00000000000E+00  0.45593999997E+02  0.45594000000E+02  0.51100000000E-03 0. -1.
         11   -1    0    0    0    0 -0.00000000000E+00 -0.00000000000E+00 -0.45593999997E+02  0.45594000000E+02  0.51100000000E-03 0.  1.
    9900012    2    1    2    0    0 -0.96789776197E+01 -0.39475720562E+02 -0.19419018690E+02  0.46142318648E+02  0.10000008085E+02 0.  0.
         12    1    1    2    0    0  0.96789776197E+01  0.39475720562E+02  0.19419018690E+02  0.45045681352E+02  0.00000000000E+00 0. -1.
         11    1    3    3    0    0 -0.65272776309E+01 -0.14103670580E+02 -0.58458964167E+01  0.16604017052E+02  0.51100000000E-03 0. -1.
        -11    1    3    3    0    0 -0.32993396543E+01 -0.86035505054E+01 -0.68046903670E+01  0.11454716701E+02  0.51100000000E-03 0.  1.
         12    1    3    3    0    0  0.14763966558E+00 -0.16768499476E+02 -0.67684319060E+01  0.18083584894E+02  0.00000000000E+00 0. -1.
</event>
<event>
 7    1  0.1445801E-008  0.4614232E+02  0.7816164E-02  0.1320468E+00
        -11   -1    0    0    0    0  0.00000000000E+00  0.00000000000E+00  0.45593999997E+02  0.45594000000E+02  0.51100000000E-03 0. -1.
         11   -1    0    0    0    0 -0.00000000000E+00 -0.00000000000E+00 -0.45593999997E+02  0.45594000000E+02  0.51100000000E-03 0.  1.
    9900012    2    1    2    0    0  0.28744389942E+01  0.11906501137E+02 -0.43348431551E+02  0.46142315559E+02  0.99999799150E+01 0.  0.
         12    1    1    2    0    0 -0.28744389942E+01 -0.11906501137E+02  0.43348431551E+02  0.45045684441E+02  0.00000000000E+00 0. -1.
         11    1    3    3    0    0 -0.18288988497E+01  0.22953648574E+00 -0.23224341592E+01  0.29650056805E+01  0.51100000000E-03 0. -1.
        -11    1    3    3    0    0  0.34239917885E+01  0.37231015111E+01 -0.11327402072E+02  0.12405452132E+02  0.51100000000E-03 0.  1.
        -12    1    3    3    0    0  0.12793460553E+01  0.79538631406E+01 -0.29698595319E+02  0.30771857746E+02  0.00000000000E+00 0.  1.
</event>
<event>
 7    1  0.1445801E-008  0.4614232E+02  0.7816164E-02  0.1320468E+00
        -11   -1    0    0    0    0  0.00000000000E+00  0.00000000000E+00  0.45593999997E+02  0.45594000000E+02  0.51100000000E-03 0.  1.
         11   -1    0    0    0    0 -0.00000000000E+00 -0.00000000000E+00 -0.45593999997E+02  0.45594000000E+02  0.51100000000E-03 0. -1.
    9900012    2    1    2    0    0 -0.25325125406E+02  0.10527628251E+02  0.35734024495E+02  0.46142318297E+02  0.10000004890E+02 0.  0.
         12    1    1    2    0    0  0.25325125406E+02 -0.10527628251E+02 -0.35734024495E+02  0.45045681703E+02  0.00000000000E+00 0. -1.
         11    1    3    3    0    0 -0.87211953039E+01  0.46853070453E+00  0.63631995356E+01  0.10805974141E+02  0.51100000000E-03 0. -1.
        -11    1    3    3    0    0 -0.46569500328E+01  0.37846625780E+01  0.11154528831E+02  0.12666268911E+02  0.51100000000E-03 0.  1.
         12    1    3    3    0    0 -0.11946980070E+02  0.62744349688E+01  0.18216296129E+02  0.22670075245E+02  0.00000000000E+00 0. -1.
</event>
<event>
 7    1  0.1445801E-008  0.4614232E+02  0.7816164E-02  0.1320468E+00
        -11   -1    0    0    0    0  0.00000000000E+00  0.00000000000E+00  0.45593999997E+02  0.45594000000E+02  0.51100000000E-03 0.  1.
         11   -1    0    0    0    0 -0.00000000000E+00 -0.00000000000E+00 -0.45593999997E+02  0.45594000000E+02  0.51100000000E-03 0. -1.
    9900012    2    1    2    0    0  0.44654290632E+01  0.17031571558E+02  0.41462019081E+02  0.46142317491E+02  0.99999975371E+01 0.  0.
         12    1    1    2    0    0 -0.44654290632E+01 -0.17031571558E+02 -0.41462019081E+02  0.45045682509E+02  0.00000000000E+00 0. -1.
         11    1    3    3    0    0 -0.10012166430E+01  0.34487091916E+01  0.12539866293E+02  0.13043936398E+02  0.51100000000E-03 0. -1.
        -11    1    3    3    0    0  0.21721870196E+01  0.10666068832E+02  0.24736138456E+02  0.27025172835E+02  0.51100000000E-03 0.  1.
        -12    1    3    3    0    0  0.32944586866E+01  0.29167935342E+01  0.41860143318E+01  0.60732082580E+01  0.00000000000E+00 0.  1.
</event>
<event>
 7    1  0.1445801E-008  0.4614232E+02  0.7816164E-02  0.1320468E+00
        -11   -1    0    0    0    0  0.00000000000E+00  0.00000000000E+00  0.45593999997E+02  0.45594000000E+02  0.51100000000E-03 0. -1.
         11   -1    0    0    0    0 -0.00000000000E+00 -0.00000000000E+00 -0.45593999997E+02  0.45594000000E+02  0.51100000000E-03 0.  1.
    9900012    2    1    2    0    0 -0.20914627937E+02  0.11251061888E+02 -0.38276696260E+02  0.46142317277E+02  0.99999955870E+01 0.  0.
         12    1    1    2    0    0  0.20914627937E+02 -0.11251061888E+02  0.38276696260E+02  0.45045682723E+02  0.00000000000E+00 0. -1.
         11    1    3    3    0    0  0.42202103988E+00  0.16771886525E+01 -0.54589298703E+01  0.57263408145E+01  0.51100000000E-03 0. -1.
        -11    1    3    3    0    0 -0.12903537380E+02  0.43041100073E+01 -0.20145588136E+02  0.24307845678E+02  0.51100000000E-03 0.  1.
        -12    1    3    3    0    0 -0.84331115965E+01  0.52697632286E+01 -0.12672178254E+02  0.16108130785E+02  0.00000000000E+00 0.  1.
</event>
<event>
 7    1  0.1445801E-008  0.4614232E+02  0.7816164E-02  0.1320468E+00
        -11   -1    0    0    0    0  0.00000000000E+00  0.00000000000E+00  0.45593999997E+02  0.45594000000E+02  0.51100000000E-03 0. -1.
         11   -1    0    0    0    0 -0.00000000000E+00 -0.00000000000E+00 -0.45593999997E+02  0.45594000000E+02  0.51100000000E-03 0.  1.
    9900012    2    1    2    0    0 -0.29146457212E+02  0.71774842574E+01 -0.33586919018E+02  0.46142318993E+02  0.10000011234E+02 0.  0.
         12    1    1    2    0    0  0.29146457212E+02 -0.71774842574E+01  0.33586919018E+02  0.45045681007E+02  0.00000000000E+00 0. -1.
         11    1    3    3    0    0  0.24317904229E+00 -0.27501282383E+00  0.34985822859E+00  0.50711846852E+00  0.51100000000E-03 0. -1.
        -11    1    3    3    0    0 -0.17978295265E+02  0.31154762732E+01 -0.21676839766E+02  0.28333913876E+02  0.51100000000E-03 0.  1.
         12    1    3    3    0    0 -0.11411340989E+02  0.43370208081E+01 -0.12259937480E+02  0.17301286648E+02  0.00000000000E+00 0. -1.
</event>
<event>
 7    1  0.1445801E-008  0.4614232E+02  0.7816164E-02  0.1320468E+00
        -11   -1    0    0    0    0  0.00000000000E+00  0.00000000000E+00  0.45593999997E+02  0.45594000000E+02  0.51100000000E-03 0.  1.
         11   -1    0    0    0    0 -0.00000000000E+00 -0.00000000000E+00 -0.45593999997E+02  0.45594000000E+02  0.51100000000E-03 0. -1.
    9900012    2    1    2    0    0  0.35385176065E+02  0.21296796407E+02  0.17984695421E+02  0.46142317723E+02  0.99999996546E+01 0.  0.
         12    1    1    2    0    0 -0.35385176065E+02 -0.21296796407E+02 -0.17984695421E+02  0.45045682277E+02  0.00000000000E+00 0. -1.
         11    1    3    3    0    0  0.19611803591E+02  0.17144831148E+02  0.12819359493E+02  0.29032809944E+02  0.51100000000E-03 0.  1.
        -11    1    3    3    0    0  0.13701768162E+02  0.35816476293E+01  0.45226025094E+01  0.14866761054E+02  0.51100000000E-03 0. -1.
        -12    1    3    3    0    0  0.20716043123E+01  0.57031762966E+00  0.64273341872E+00  0.22427467251E+01  0.00000000000E+00 0.  1.
</event>
<event>
 7    1  0.1445801E-008  0.4614232E+02  0.7816164E-02  0.1320468E+00
        -11   -1    0    0    0    0  0.00000000000E+00  0.00000000000E+00  0.45593999997E+02  0.45594000000E+02  0.51100000000E-03 0.  1.
         11   -1    0    0    0    0 -0.00000000000E+00 -0.00000000000E+00 -0.45593999997E+02  0.45594000000E+02  0.51100000000E-03 0. -1.
    9900012    2    1    2    0    0 -0.39707995484E+02  0.85701650821E+01 -0.19466402973E+02  0.46142317858E+02  0.10000000886E+02 0.  0.
         12    1    1    2    0    0  0.39707995484E+02 -0.85701650821E+01  0.19466402973E+02  0.45045682142E+02  0.00000000000E+00 0. -1.
         11    1    3    3    0    0 -0.22257403182E+02  0.69502230546E+01 -0.90707912494E+01  0.25019529393E+02  0.51100000000E-03 0. -1.
        -11    1    3    3    0    0 -0.48725308495E+00  0.12583282092E-01 -0.21289629745E+01  0.21840461341E+01  0.51100000000E-03 0.  1.
        -12    1    3    3    0    0 -0.16963339217E+02  0.16073587455E+01 -0.82666487491E+01  0.18938742331E+02  0.00000000000E+00 0.  1.
</event>
<event>
 7    1  0.1445801E-008  0.4614232E+02  0.7816164E-02  0.1320468E+00
        -11   -1    0    0    0    0  0.00000000000E+00  0.00000000000E+00  0.45593999997E+02  0.45594000000E+02  0.51100000000E-03 0. -1.
         11   -1    0    0    0    0 -0.00000000000E+00 -0.00000000000E+00 -0.45593999997E+02  0.45594000000E+02  0.51100000000E-03 0.  1.
    9900012    2    1    2    0    0  0.35714744529E+02  0.12706596257E+02 -0.24333372253E+02  0.46142316851E+02  0.99999916965E+01 0.  0.
         12    1    1    2    0    0 -0.35714744529E+02 -0.12706596257E+02  0.24333372253E+02  0.45045683149E+02  0.00000000000E+00 0. -1.
         11    1    3    3    0    0  0.10958369662E+02  0.11658107455E+01 -0.59452672477E+01  0.12521628618E+02  0.51100000000E-03 0. -1.
        -11    1    3    3    0    0  0.15120945060E+02  0.48663698796E+01 -0.13770406947E+02  0.21022574606E+02  0.51100000000E-03 0.  1.
        -12    1    3    3    0    0  0.96354298070E+01  0.66744156314E+01 -0.46176980580E+01  0.12598113626E+02  0.00000000000E+00 0.  1.
</event>
<event>
 7    1  0.1445801E-008  0.4614232E+02  0.7816164E-02  0.1320468E+00
        -11   -1    0    0    0    0  0.00000000000E+00  0.00000000000E+00  0.45593999997E+02  0.45594000000E+02  0.51100000000E-03 0.  1.
         11   -1    0    0    0    0 -0.00000000000E+00 -0.00000000000E+00 -0.45593999997E+02  0.45594000000E+02  0.51100000000E-03 0. -1.
    9900012    2    1    2    0    0  0.27268401595E+02  0.68159095347E+01  0.35200727003E+02  0.46142317301E+02  0.99999958031E+01 0.  0.
         12    1    1    2    0    0 -0.27268401595E+02 -0.68159095347E+01 -0.35200727003E+02  0.45045682699E+02  0.00000000000E+00 0. -1.
         11    1    3    3    0    0  0.74586319016E+01 -0.20760862879E+01  0.80730482418E+01  0.11185500985E+02  0.51100000000E-03 0. -1.
        -11    1    3    3    0    0  0.93878459537E+01  0.62863793762E+01  0.14313328066E+02  0.18235174194E+02  0.51100000000E-03 0.  1.
         12    1    3    3    0    0  0.10421923739E+02  0.26056164464E+01  0.12814350695E+02  0.16721642121E+02  0.00000000000E+00 0. -1.
</event>
<event>
 7    1  0.1445801E-008  0.4614232E+02  0.7816164E-02  0.1320468E+00
        -11   -1    0    0    0    0  0.00000000000E+00  0.00000000000E+00  0.45593999997E+02  0.45594000000E+02  0.51100000000E-03 0. -1.
         11   -1    0    0    0    0 -0.00000000000E+00 -0.00000000000E+00 -0.45593999997E+02  0.45594000000E+02  0.51100000000E-03 0.  1.
    9900012    2    1    2    0    0 -0.25641613867E+02  0.11714653902E+02 -0.35133857049E+02  0.46142318866E+02  0.10000010071E+02 0.  0.
         12    1    1    2    0    0  0.25641613867E+02 -0.11714653902E+02  0.35133857049E+02  0.45045681134E+02  0.00000000000E+00 0. -1.
         11    1    3    3    0    0 -0.13154918473E+02  0.64565370018E+01 -0.13712079796E+02  0.20068878461E+02  0.51100000000E-03 0. -1.
        -11    1    3    3    0    0  0.44299499882E+00 -0.26133868385E+00 -0.21992637640E+01  0.22586066150E+01  0.51100000000E-03 0.  1.
         12    1    3    3    0    0 -0.12929690392E+02  0.55194555837E+01 -0.19222513489E+02  0.23814833790E+02  0.00000000000E+00 0. -1.
</event>
<event>
 7    1  0.1445801E-008  0.4614232E+02  0.7816164E-02  0.1320468E+00
        -11   -1    0    0    0    0  0.00000000000E+00  0.00000000000E+00  0.45593999997E+02  0.45594000000E+02  0.51100000000E-03 0. -1.
         11   -1    0    0    0    0 -0.00000000000E+00 -0.00000000000E+00 -0.45593999997E+02  0.45594000000E+02  0.51100000000E-03 0.  1.
    9900012    2    1    2    0    0  0.59225385114E+01 -0.42280168259E+02 -0.14367478506E+02  0.46142317309E+02  0.99999958789E+01 0.  0.
         12    1    1    2    0    0 -0.59225385114E+01  0.42280168259E+02  0.14367478506E+02  0.45045682691E+02  0.00000000000E+00 0. -1.
         11    1    3    3    0    0 -0.16442952817E+01 -0.91391398485E+01 -0.14027833967E+01  0.93912398363E+01  0.51100000000E-03 0. -1.
        -11    1    3    3    0    0  0.17734893806E+01 -0.87967431076E+01 -0.10490633567E+01  0.90348485362E+01  0.51100000000E-03 0.  1.
         12    1    3    3    0    0  0.57933444125E+01 -0.24344285303E+02 -0.11915631752E+02  0.27716228937E+02  0.00000000000E+00 0. -1.
</event>
<event>
 7    1  0.1445801E-008  0.4614233E+02  0.7816164E-02  0.1320468E+00
        -11   -1    0    0    0    0  0.00000000000E+00  0.00000000000E+00  0.45593999997E+02  0.45594000000E+02  0.51100000000E-03 0. -1.
         11   -1    0    0    0    0 -0.00000000000E+00 -0.00000000000E+00 -0.45593999997E+02  0.45594000000E+02  0.51100000000E-03 0.  1.
    9900012    2    1    2    0    0 -0.22108249522E+02 -0.31304268660E+02 -0.23672363477E+02  0.46142326225E+02  0.10000077183E+02 0.  0.
         12    1    1    2    0    0  0.22108249522E+02  0.31304268660E+02  0.23672363477E+02  0.45045673775E+02  0.00000000000E+00 0. -1.
         11    1    3    3    0    0 -0.13007091329E+02 -0.16280125210E+02 -0.76920386812E+01  0.22212482100E+02  0.51100000000E-03 0. -1.
        -11    1    3    3    0    0 -0.19094817596E+01 -0.58157798258E+01 -0.58104367454E+01  0.84398217401E+01  0.51100000000E-03 0.  1.
         12    1    3    3    0    0 -0.71916764332E+01 -0.92083636239E+01 -0.10169888050E+02  0.15490022386E+02  0.00000000000E+00 0. -1.
</event>
<event>
 7    1  0.1445801E-008  0.4614232E+02  0.7816164E-02  0.1320468E+00
        -11   -1    0    0    0    0  0.00000000000E+00  0.00000000000E+00  0.45593999997E+02  0.45594000000E+02  0.51100000000E-03 0.  1.
         11   -1    0    0    0    0 -0.00000000000E+00 -0.00000000000E+00 -0.45593999997E+02  0.45594000000E+02  0.51100000000E-03 0. -1.
    9900012    2    1    2    0    0  0.63553752200E+01 -0.44536269146E+02 -0.22898614567E+01  0.46142317308E+02  0.99999958714E+01 0.  0.
         12    1    1    2    0    0 -0.63553752200E+01  0.44536269146E+02  0.22898614567E+01  0.45045682692E+02  0.00000000000E+00 0. -1.
         11    1    3    3    0    0  0.25617456018E+01 -0.12413066158E+02 -0.20522190638E+01  0.12839717883E+02  0.51100000000E-03 0. -1.
        -11    1    3    3    0    0  0.14559812114E+01 -0.28395446735E+02 -0.21308932642E+01  0.28512488193E+02  0.51100000000E-03 0.  1.
        -12    1    3    3    0    0  0.23376484067E+01 -0.37277562528E+01  0.18932508713E+01  0.47901112321E+01  0.00000000000E+00 0.  1.
</event>
<event>
 7    1  0.1445801E-008  0.4614232E+02  0.7816164E-02  0.1320468E+00
        -11   -1    0    0    0    0  0.00000000000E+00  0.00000000000E+00  0.45593999997E+02  0.45594000000E+02  0.51100000000E-03 0.  1.
         11   -1    0    0    0    0 -0.00000000000E+00 -0.00000000000E+00 -0.45593999997E+02  0.45594000000E+02  0.51100000000E-03 0. -1.
    9900012    2    1    2    0    0 -0.18275235965E+02  0.46867245051E+01  0.40904326809E+02  0.46142316657E+02  0.99999899278E+01 0.  0.
         12    1    1    2    0    0  0.18275235965E+02 -0.46867245051E+01 -0.40904326809E+02  0.45045683343E+02  0.00000000000E+00 0. -1.
         11    1    3    3    0    0 -0.77933434534E+01  0.29853462547E+01  0.14627974298E+02  0.16841203245E+02  0.51100000000E-03 0. -1.
        -11    1    3    3    0    0 -0.25916960714E+01 -0.27092296031E+01  0.56475258324E+01  0.67787433834E+01  0.51100000000E-03 0.  1.
        -12    1    3    3    0    0 -0.78901964400E+01  0.44106078536E+01  0.20628826679E+02  0.22522370028E+02  0.00000000000E+00 0.  1.
</event>
<event>
 7    1  0.1445801E-008  0.4614232E+02  0.7816164E-02  0.1320468E+00
        -11   -1    0    0    0    0  0.00000000000E+00  0.00000000000E+00  0.45593999997E+02  0.45594000000E+02  0.51100000000E-03 0. -1.
         11   -1    0    0    0    0 -0.00000000000E+00 -0.00000000000E+00 -0.45593999997E+02  0.45594000000E+02  0.51100000000E-03 0.  1.
    9900012    2    1    2    0    0 -0.73469501930E+01 -0.44320633078E+02 -0.32889608854E+01  0.46142318106E+02  0.10000003142E+02 0.  0.
         12    1    1    2    0    0  0.73469501930E+01  0.44320633078E+02  0.32889608854E+01  0.45045681894E+02  0.00000000000E+00 0. -1.
         11    1    3    3    0    0 -0.28410167033E+01 -0.37202033779E+02 -0.21428845132E+01  0.37371842977E+02  0.51100000000E-03 0. -1.
        -11    1    3    3    0    0 -0.47241107625E+01 -0.65105521685E+01 -0.97941672499E+00  0.81033184200E+01  0.51100000000E-03 0.  1.
         12    1    3    3    0    0  0.21817727272E+00 -0.60804713100E+00 -0.16665964721E+00  0.66715670862E+00  0.00000000000E+00 0. -1.
</event>
<event>
 7    1  0.1445801E-008  0.4614232E+02  0.7816164E-02  0.1320468E+00
        -11   -1    0    0    0    0  0.00000000000E+00  0.00000000000E+00  0.45593999997E+02  0.45594000000E+02  0.51100000000E-03 0. -1.
         11   -1    0    0    0    0 -0.00000000000E+00 -0.00000000000E+00 -0.45593999997E+02  0.45594000000E+02  0.51100000000E-03 0.  1.
    9900012    2    1    2    0    0 -0.24971344608E+02 -0.28906335867E+02 -0.23874031108E+02  0.46142315788E+02  0.99999820065E+01 0.  0.
         12    1    1    2    0    0  0.24971344608E+02  0.28906335867E+02  0.23874031108E+02  0.45045684212E+02  0.00000000000E+00 0. -1.
         11    1    3    3    0    0 -0.17451673548E+01 -0.69185633741E+00 -0.40473525160E+01  0.44615397497E+01  0.51100000000E-03 0. -1.
        -11    1    3    3    0    0 -0.19384523950E+02 -0.23398888067E+02 -0.15190288912E+02  0.33970761090E+02  0.51100000000E-03 0.  1.
        -12    1    3    3    0    0 -0.38416533037E+01 -0.48155914627E+01 -0.46363896800E+01  0.77100149485E+01  0.00000000000E+00 0.  1.
</event>
<event>
 7    1  0.1445801E-008  0.4614232E+02  0.7816164E-02  0.1320468E+00
        -11   -1    0    0    0    0  0.00000000000E+00  0.00000000000E+00  0.45593999997E+02  0.45594000000E+02  0.51100000000E-03 0.  1.
         11   -1    0    0    0    0 -0.00000000000E+00 -0.00000000000E+00 -0.45593999997E+02  0.45594000000E+02  0.51100000000E-03 0. -1.
    9900012    2    1    2    0    0  0.27589847248E+02  0.49378253666E+01  0.35263747030E+02  0.46142316022E+02  0.99999841391E+01 0.  0.
         12    1    1    2    0    0 -0.27589847248E+02 -0.49378253666E+01 -0.35263747030E+02  0.45045683978E+02  0.00000000000E+00 0. -1.
         11    1    3    3    0    0 -0.12347059020E+00  0.29963977093E+00  0.18021610636E+01  0.18310690154E+01  0.51100000000E-03 0. -1.
        -11    1    3    3    0    0  0.25956870188E+02  0.28529655777E+01  0.27912077748E+02  0.38222802187E+02  0.51100000000E-03 0.  1.
        -12    1    3    3    0    0  0.17564476500E+01  0.17852200179E+01  0.55495082177E+01  0.60884448194E+01  0.00000000000E+00 0.  1.
</event>
<event>
 7    1  0.1445801E-008  0.4614232E+02  0.7816164E-02  0.1320468E+00
        -11   -1    0    0    0    0  0.00000000000E+00  0.00000000000E+00  0.45593999997E+02  0.45594000000E+02  0.51100000000E-03 0. -1.
         11   -1    0    0    0    0 -0.00000000000E+00 -0.00000000000E+00 -0.45593999997E+02  0.45594000000E+02  0.51100000000E-03 0.  1.
    9900012    2    1    2    0    0  0.32946811400E+02  0.26671521288E+02 -0.15239786239E+02  0.46142317478E+02  0.99999974211E+01 0.  0.
         12    1    1    2    0    0 -0.32946811400E+02 -0.26671521288E+02  0.15239786239E+02  0.45045682522E+02  0.00000000000E+00 0. -1.
         11    1    3    3    0    0  0.24297740538E+01 -0.16708844537E+00 -0.10261300003E+01  0.26428514033E+01  0.51100000000E-03 0. -1.
        -11    1    3    3    0    0  0.28054271753E+02  0.25683552396E+02 -0.11696045290E+02  0.39793020782E+02  0.51100000000E-03 0.  1.
        -12    1    3    3    0    0  0.24627655929E+01  0.11550573374E+01 -0.25176109495E+01  0.37064452931E+01  0.00000000000E+00 0.  1.
</event>
<event>
 7    1  0.1445801E-008  0.4614232E+02  0.7816164E-02  0.1320468E+00
        -11   -1    0    0    0    0  0.00000000000E+00  0.00000000000E+00  0.45593999997E+02  0.45594000000E+02  0.51100000000E-03 0.  1.
         11   -1    0    0    0    0 -0.00000000000E+00 -0.00000000000E+00 -0.45593999997E+02  0.45594000000E+02  0.51100000000E-03 0. -1.
    9900012    2    1    2    0    0 -0.14515287049E+02  0.93263105333E+01  0.41610573571E+02  0.46142318085E+02  0.10000002956E+02 0.  0.
         12    1    1    2    0    0  0.14515287049E+02 -0.93263105333E+01 -0.41610573571E+02  0.45045681915E+02  0.00000000000E+00 0. -1.
         11    1    3    3    0    0 -0.24151371636E+01  0.21379537016E+01  0.11699359594E+02  0.12135845612E+02  0.51100000000E-03 0. -1.
        -11    1    3    3    0    0 -0.12043531238E+02  0.70551310256E+01  0.21746697430E+02  0.25840672743E+02  0.51100000000E-03 0.  1.
         12    1    3    3    0    0 -0.56618647981E-01  0.13322580611E+00  0.81645165466E+01  0.81657997297E+01  0.00000000000E+00 0. -1.
</event>
<event>
 7    1  0.1445801E-008  0.4614232E+02  0.7816164E-02  0.1320468E+00
        -11   -1    0    0    0    0  0.00000000000E+00  0.00000000000E+00  0.45593999997E+02  0.45594000000E+02  0.51100000000E-03 0. -1.
         11   -1    0    0    0    0 -0.00000000000E+00 -0.00000000000E+00 -0.45593999997E+02  0.45594000000E+02  0.51100000000E-03 0.  1.
    9900012    2    1    2    0    0  0.42061202930E+02  0.11291375592E+01 -0.16083961437E+02  0.46142316977E+02  0.99999928465E+01 0.  0.
         12    1    1    2    0    0 -0.42061202930E+02 -0.11291375592E+01  0.16083961437E+02  0.45045683023E+02  0.00000000000E+00 0. -1.
         11    1    3    3    0    0  0.61415512944E+01 -0.26825708527E+01 -0.15973394008E+01  0.68895814172E+01  0.51100000000E-03 0.  1.
        -11    1    3    3    0    0  0.45406552796E+01 -0.30809859867E+00 -0.27321377724E+00  0.45592895438E+01  0.51100000000E-03 0. -1.
        -12    1    3    3    0    0  0.31378996356E+02  0.41198070106E+01 -0.14213408259E+02  0.34693446016E+02  0.00000000000E+00 0.  1.
</event>
<event>
 7    1  0.1445801E-008  0.4614232E+02  0.7816164E-02  0.1320468E+00
        -11   -1    0    0    0    0  0.00000000000E+00  0.00000000000E+00  0.45593999997E+02  0.45594000000E+02  0.51100000000E-03 0. -1.
         11   -1    0    0    0    0 -0.00000000000E+00 -0.00000000000E+00 -0.45593999997E+02  0.45594000000E+02  0.51100000000E-03 0.  1.
    9900012    2    1    2    0    0 -0.44810374780E+02 -0.44185325322E+01  0.12728006381E+01  0.46142321638E+02  0.10000035352E+02 0.  0.
         12    1    1    2    0    0  0.44810374780E+02  0.44185325322E+01 -0.12728006381E+01  0.45045678362E+02  0.00000000000E+00 0. -1.
         11    1    3    3    0    0 -0.16154785627E+02  0.65439168920E+00  0.20538359741E+01  0.16297962130E+02  0.51100000000E-03 0. -1.
        -11    1    3    3    0    0 -0.26533228777E+02 -0.55613344700E+01  0.85057001090E+00  0.27123129244E+02  0.51100000000E-03 0.  1.
        -12    1    3    3    0    0 -0.21223603765E+01  0.48841024868E+00 -0.16316053469E+01  0.27212302635E+01  0.00000000000E+00 0.  1.
</event>
<event>
 7    1  0.1445801E-008  0.4614232E+02  0.7816164E-02  0.1320468E+00
        -11   -1    0    0    0    0  0.00000000000E+00  0.00000000000E+00  0.45593999997E+02  0.45594000000E+02  0.51100000000E-03 0. -1.
         11   -1    0    0    0    0 -0.00000000000E+00 -0.00000000000E+00 -0.45593999997E+02  0.45594000000E+02  0.51100000000E-03 0.  1.
    9900012    2    1    2    0    0  0.10656333822E+02 -0.19381033358E+02 -0.39241962585E+02  0.46142317276E+02  0.99999955752E+01 0.  0.
         12    1    1    2    0    0 -0.10656333822E+02  0.19381033358E+02  0.39241962585E+02  0.45045682724E+02  0.00000000000E+00 0. -1.
         11    1    3    3    0    0 -0.13965683397E+00 -0.36027217274E+01 -0.89174521331E+01  0.96187348796E+01  0.51100000000E-03 0. -1.
        -11    1    3    3    0    0  0.44923289739E+01 -0.10543918547E+02 -0.12818923799E+02  0.17195349533E+02  0.51100000000E-03 0.  1.
        -12    1    3    3    0    0  0.63036616821E+01 -0.52343930839E+01 -0.17505586653E+02  0.19328232864E+02  0.00000000000E+00 0.  1.
</event>
<event>
 7    1  0.1445801E-008  0.4614232E+02  0.7816164E-02  0.1320468E+00
        -11   -1    0    0    0    0  0.00000000000E+00  0.00000000000E+00  0.45593999997E+02  0.45594000000E+02  0.51100000000E-03 0.  1.
         11   -1    0    0    0    0 -0.00000000000E+00 -0.00000000000E+00 -0.45593999997E+02  0.45594000000E+02  0.51100000000E-03 0. -1.
    9900012    2    1    2    0    0 -0.26691274323E+02  0.68002537446E+01  0.35643315142E+02  0.46142317740E+02  0.99999998030E+01 0.  0.
         12    1    1    2    0    0  0.26691274323E+02 -0.68002537446E+01 -0.35643315142E+02  0.45045682260E+02  0.00000000000E+00 0. -1.
         11    1    3    3    0    0 -0.27390601547E+01  0.16609990921E+01  0.15506434721E+01  0.35589133108E+01  0.51100000000E-03 0. -1.
        -11    1    3    3    0    0 -0.16033146698E+02  0.64506726108E+01  0.20661359641E+02  0.26936309188E+02  0.51100000000E-03 0.  1.
         12    1    3    3    0    0 -0.79190674705E+01 -0.13114179583E+01  0.13431312029E+02  0.15647095241E+02  0.00000000000E+00 0. -1.
</event>
<event>
 7    1  0.1445801E-008  0.4614232E+02  0.7816164E-02  0.1320468E+00
        -11   -1    0    0    0    0  0.00000000000E+00  0.00000000000E+00  0.45593999997E+02  0.45594000000E+02  0.51100000000E-03 0. -1.
         11   -1    0    0    0    0 -0.00000000000E+00 -0.00000000000E+00 -0.45593999997E+02  0.45594000000E+02  0.51100000000E-03 0.  1.
    9900012    2    1    2    0    0 -0.43766298964E+02 -0.73179800057E+01  0.77505973798E+01  0.46142317453E+02  0.99999971903E+01 0.  0.
         12    1    1    2    0    0  0.43766298964E+02  0.73179800057E+01 -0.77505973798E+01  0.45045682547E+02  0.00000000000E+00 0. -1.
         11    1    3    3    0    0 -0.11978251478E+02  0.62942998334E+00  0.54636153062E+01  0.13180507693E+02  0.51100000000E-03 0. -1.
        -11    1    3    3    0    0 -0.23020185115E+02 -0.52447303974E+01  0.50549511908E+00  0.23615495871E+02  0.51100000000E-03 0.  1.
         12    1    3    3    0    0 -0.87678623714E+01 -0.27026795917E+01  0.17814869545E+01  0.93463138888E+01  0.00000000000E+00 0. -1.
</event>
<event>
 7    1  0.1445801E-008  0.4614233E+02  0.7816164E-02  0.1320468E+00
        -11   -1    0    0    0    0  0.00000000000E+00  0.00000000000E+00  0.45593999997E+02  0.45594000000E+02  0.51100000000E-03 0.  1.
         11   -1    0    0    0    0 -0.00000000000E+00 -0.00000000000E+00 -0.45593999997E+02  0.45594000000E+02  0.51100000000E-03 0. -1.
    9900012    2    1    2    0    0 -0.20399290569E+02 -0.39956866872E+02 -0.40534551237E+01  0.46142325797E+02  0.10000073278E+02 0.  0.
         12    1    1    2    0    0  0.20399290569E+02  0.39956866872E+02  0.40534551237E+01  0.45045674203E+02  0.00000000000E+00 0. -1.
         11    1    3    3    0    0 -0.85069600485E+00 -0.16528635140E+01 -0.12470509704E+01  0.22384766857E+01  0.51100000000E-03 0. -1.
        -11    1    3    3    0    0 -0.18281070404E+02 -0.31893624437E+02 -0.47965802774E+01  0.37073009015E+02  0.51100000000E-03 0.  1.
        -12    1    3    3    0    0 -0.12675241602E+01 -0.64103789214E+01  0.19901761241E+01  0.68308400960E+01  0.00000000000E+00 0.  1.
</event>
<event>
 7    1  0.1445801E-008  0.4614232E+02  0.7816164E-02  0.1320468E+00
        -11   -1    0    0    0    0  0.00000000000E+00  0.00000000000E+00  0.45593999997E+02  0.45594000000E+02  0.51100000000E-03 0. -1.
         11   -1    0    0    0    0 -0.00000000000E+00 -0.00000000000E+00 -0.45593999997E+02  0.45594000000E+02  0.51100000000E-03 0.  1.
    9900012    2    1    2    0    0 -0.14534217547E+02 -0.37944034763E+02 -0.19445310888E+02  0.46142319082E+02  0.10000012049E+02 0.  0.
         12    1    1    2    0    0  0.14534217547E+02  0.37944034763E+02  0.19445310888E+02  0.45045680918E+02  0.00000000000E+00 0. -1.
         11    1    3    3    0    0  0.11219341530E+01 -0.13351889687E+01 -0.25502066872E+00  0.17625270575E+01  0.51100000000E-03 0. -1.
        -11    1    3    3    0    0 -0.12573237015E+02 -0.25627726450E+02 -0.12558726902E+02  0.31186347553E+02  0.51100000000E-03 0.  1.
         12    1    3    3    0    0 -0.30829146846E+01 -0.10981119344E+02 -0.66315633174E+01  0.13193444472E+02  0.00000000000E+00 0. -1.
</event>
<event>
 7    1  0.1445801E-008  0.4614232E+02  0.7816164E-02  0.1320468E+00
        -11   -1    0    0    0    0  0.00000000000E+00  0.00000000000E+00  0.45593999997E+02  0.45594000000E+02  0.51100000000E-03 0.  1.
         11   -1    0    0    0    0 -0.00000000000E+00 -0.00000000000E+00 -0.45593999997E+02  0.45594000000E+02  0.51100000000E-03 0. -1.
    9900012    2    1    2    0    0  0.34188632354E+02  0.24207963784E+02  0.16559758308E+02  0.46142315545E+02  0.99999797942E+01 0.  0.
         12    1    1    2    0    0 -0.34188632354E+02 -0.24207963784E+02 -0.16559758308E+02  0.45045684455E+02  0.00000000000E+00 0. -1.
         11    1    3    3    0    0  0.16035604862E+01  0.16598668325E+01 -0.11300222427E+01  0.25697304654E+01  0.51100000000E-03 0. -1.
        -11    1    3    3    0    0  0.26467046820E+02  0.19858080157E+02  0.13899647614E+02  0.35889387275E+02  0.51100000000E-03 0.  1.
        -12    1    3    3    0    0  0.61180250478E+01  0.26900167938E+01  0.37901329365E+01  0.76831978051E+01  0.00000000000E+00 0.  1.
</event>
<event>
 7    1  0.1445801E-008  0.4614232E+02  0.7816164E-02  0.1320468E+00
        -11   -1    0    0    0    0  0.00000000000E+00  0.00000000000E+00  0.45593999997E+02  0.45594000000E+02  0.51100000000E-03 0.  1.
         11   -1    0    0    0    0 -0.00000000000E+00 -0.00000000000E+00 -0.45593999997E+02  0.45594000000E+02  0.51100000000E-03 0. -1.
    9900012    2    1    2    0    0  0.41230239026E+02 -0.15863654204E+02  0.88048464823E+01  0.46142318116E+02  0.10000003236E+02 0.  0.
         12    1    1    2    0    0 -0.41230239026E+02  0.15863654204E+02 -0.88048464823E+01  0.45045681884E+02  0.00000000000E+00 0. -1.
         11    1    3    3    0    0  0.43963552840E+01 -0.10956460820E+00  0.26507476448E+01  0.51348230275E+01  0.51100000000E-03 0. -1.
        -11    1    3    3    0    0  0.22670501748E+02 -0.63695016691E+01  0.32751728457E+01  0.23774964952E+02  0.51100000000E-03 0.  1.
         12    1    3    3    0    0  0.14163381994E+02 -0.93845879262E+01  0.28789259918E+01  0.17232530137E+02  0.00000000000E+00 0. -1.
</event>
<event>
 7    1  0.1445801E-008  0.4614232E+02  0.7816164E-02  0.1320468E+00
        -11   -1    0    0    0    0  0.00000000000E+00  0.00000000000E+00  0.45593999997E+02  0.45594000000E+02  0.51100000000E-03 0.  1.
         11   -1    0    0    0    0 -0.00000000000E+00 -0.00000000000E+00 -0.45593999997E+02  0.45594000000E+02  0.51100000000E-03 0. -1.
    9900012    2    1    2    0    0  0.16163851718E+02  0.40917930789E+02 -0.96729644608E+01  0.46142318699E+02  0.10000008554E+02 0.  0.
         12    1    1    2    0    0 -0.16163851718E+02 -0.40917930789E+02  0.96729644608E+01  0.45045681301E+02  0.00000000000E+00 0. -1.
         11    1    3    3    0    0  0.56745091942E+01  0.12471828728E+02 -0.60930310493E+01  0.14995719191E+02  0.51100000000E-03 0. -1.
        -11    1    3    3    0    0  0.98696355465E+01  0.18473505671E+02 -0.26474298861E+01  0.21111347727E+02  0.51100000000E-03 0.  1.
        -12    1    3    3    0    0  0.61970697746E+00  0.99725963892E+01 -0.93250352534E+00  0.10035251781E+02  0.00000000000E+00 0.  1.
</event>
<event>
 7    1  0.1445801E-008  0.4614232E+02  0.7816164E-02  0.1320468E+00
        -11   -1    0    0    0    0  0.00000000000E+00  0.00000000000E+00  0.45593999997E+02  0.45594000000E+02  0.51100000000E-03 0.  1.
         11   -1    0    0    0    0 -0.00000000000E+00 -0.00000000000E+00 -0.45593999997E+02  0.45594000000E+02  0.51100000000E-03 0. -1.
    9900012    2    1    2    0    0  0.17247354554E+01  0.43717898711E+02 -0.10718398325E+02  0.46142318268E+02  0.10000004621E+02 0.  0.
         12    1    1    2    0    0 -0.17247354554E+01 -0.43717898711E+02  0.10718398325E+02  0.45045681732E+02  0.00000000000E+00 0. -1.
         11    1    3    3    0    0  0.15685968158E+01  0.98434917510E+00 -0.30962793384E+00  0.18775806208E+01  0.51100000000E-03 0. -1.
        -11    1    3    3    0    0  0.18974723026E+01  0.29298985175E+02 -0.56001827607E+01  0.29889680169E+02  0.51100000000E-03 0.  1.
        -12    1    3    3    0    0 -0.17413336631E+01  0.13434564361E+02 -0.48085876303E+01  0.14375057478E+02  0.00000000000E+00 0.  1.
</event>
<event>
 7    1  0.1445801E-008  0.4614232E+02  0.7816164E-02  0.1320468E+00
        -11   -1    0    0    0    0  0.00000000000E+00  0.00000000000E+00  0.45593999997E+02  0.45594000000E+02  0.51100000000E-03 0.  1.
         11   -1    0    0    0    0 -0.00000000000E+00 -0.00000000000E+00 -0.45593999997E+02  0.45594000000E+02  0.51100000000E-03 0. -1.
    9900012    2    1    2    0    0 -0.16333832401E+02  0.38227832504E+02 -0.17347978417E+02  0.46142316367E+02  0.99999872848E+01 0.  0.
         12    1    1    2    0    0  0.16333832401E+02 -0.38227832504E+02  0.17347978417E+02  0.45045683633E+02  0.00000000000E+00 0. -1.
         11    1    3    3    0    0 -0.97844880392E+00  0.14540205458E+01  0.92849083749E+00  0.19833389286E+01  0.51100000000E-03 0. -1.
        -11    1    3    3    0    0 -0.31757337819E+01  0.33101893103E+01 -0.19921059583E+01  0.50011123497E+01  0.51100000000E-03 0.  1.
         12    1    3    3    0    0 -0.12179649815E+02  0.33463622648E+02 -0.16284363296E+02  0.39157865088E+02  0.00000000000E+00 0. -1.
</event>
<event>
 7    1  0.1445801E-008  0.4614232E+02  0.7816164E-02  0.1320468E+00
        -11   -1    0    0    0    0  0.00000000000E+00  0.00000000000E+00  0.45593999997E+02  0.45594000000E+02  0.51100000000E-03 0. -1.
         11   -1    0    0    0    0 -0.00000000000E+00 -0.00000000000E+00 -0.45593999997E+02  0.45594000000E+02  0.51100000000E-03 0.  1.
    9900012    2    1    2    0    0 -0.26487103687E+02  0.25599519714E+02 -0.25927040369E+02  0.46142317703E+02  0.99999994680E+01 0.  0.
         12    1    1    2    0    0  0.26487103687E+02 -0.25599519714E+02  0.25927040369E+02  0.45045682297E+02  0.00000000000E+00 0. -1.
         11    1    3    3    0    0 -0.91280211541E+00  0.16732991924E+01  0.19948254639E+00  0.19164893520E+01  0.51100000000E-03 0. -1.
        -11    1    3    3    0    0 -0.22248947415E+02  0.22742021345E+02 -0.25172334627E+02  0.40569220189E+02  0.51100000000E-03 0.  1.
        -12    1    3    3    0    0 -0.33253541564E+01  0.11841991766E+01 -0.95418828863E+00  0.36566081613E+01  0.00000000000E+00 0.  1.
</event>
<event>
 7    1  0.1445801E-008  0.4614232E+02  0.7816164E-02  0.1320468E+00
        -11   -1    0    0    0    0  0.00000000000E+00  0.00000000000E+00  0.45593999997E+02  0.45594000000E+02  0.51100000000E-03 0.  1.
         11   -1    0    0    0    0 -0.00000000000E+00 -0.00000000000E+00 -0.45593999997E+02  0.45594000000E+02  0.51100000000E-03 0. -1.
    9900012    2    1    2    0    0  0.11118007111E+02 -0.37673372366E+02 -0.22050404748E+02  0.46142318552E+02  0.10000007215E+02 0.  0.
         12    1    1    2    0    0 -0.11118007111E+02  0.37673372366E+02  0.22050404748E+02  0.45045681448E+02  0.00000000000E+00 0. -1.
         11    1    3    3    0    0  0.46008281080E+01 -0.97208396679E+01 -0.39721503436E+01  0.11464742550E+02  0.51100000000E-03 0. -1.
        -11    1    3    3    0    0  0.35025574652E+01 -0.74773255225E+01 -0.20687950146E+01  0.85122393552E+01  0.51100000000E-03 0.  1.
         12    1    3    3    0    0  0.30146215374E+01 -0.20475207175E+02 -0.16009459390E+02  0.26165336647E+02  0.00000000000E+00 0. -1.
</event>
<event>
 7    1  0.1445801E-008  0.4614232E+02  0.7816164E-02  0.1320468E+00
        -11   -1    0    0    0    0  0.00000000000E+00  0.00000000000E+00  0.45593999997E+02  0.45594000000E+02  0.51100000000E-03 0.  1.
         11   -1    0    0    0    0 -0.00000000000E+00 -0.00000000000E+00 -0.45593999997E+02  0.45594000000E+02  0.51100000000E-03 0. -1.
    9900012    2    1    2    0    0  0.11492281405E+02  0.28215875530E+02  0.33179895143E+02  0.46142316461E+02  0.99999881465E+01 0.  0.
         12    1    1    2    0    0 -0.11492281405E+02 -0.28215875530E+02 -0.33179895143E+02  0.45045683539E+02  0.00000000000E+00 0. -1.
         11    1    3    3    0    0  0.38069811240E+01  0.68446304574E+01  0.11506190154E+02  0.13918853526E+02  0.51100000000E-03 0. -1.
        -11    1    3    3    0    0  0.48584839997E+01  0.13115992553E+02  0.83286003849E+01  0.16278811752E+02  0.51100000000E-03 0.  1.
        -12    1    3    3    0    0  0.28268162812E+01  0.82552525193E+01  0.13345104604E+02  0.15944651183E+02  0.00000000000E+00 0.  1.
</event>
<event>
 7    1  0.1445801E-008  0.4614232E+02  0.7816164E-02  0.1320468E+00
        -11   -1    0    0    0    0  0.00000000000E+00  0.00000000000E+00  0.45593999997E+02  0.45594000000E+02  0.51100000000E-03 0.  1.
         11   -1    0    0    0    0 -0.00000000000E+00 -0.00000000000E+00 -0.45593999997E+02  0.45594000000E+02  0.51100000000E-03 0. -1.
    9900012    2    1    2    0    0 -0.41241681984E+02 -0.15861182795E+02  0.87555715719E+01  0.46142317786E+02  0.10000000229E+02 0.  0.
         12    1    1    2    0    0  0.41241681984E+02  0.15861182795E+02 -0.87555715719E+01  0.45045682214E+02  0.00000000000E+00 0. -1.
         11    1    3    3    0    0 -0.30478775186E+02 -0.11238665734E+02  0.31346136495E+01  0.32635703567E+02  0.51100000000E-03 0. -1.
        -11    1    3    3    0    0 -0.10612443462E+02 -0.39034584345E+01  0.58577498825E+01  0.12734762579E+02  0.51100000000E-03 0.  1.
         12    1    3    3    0    0 -0.15046333673E+00 -0.71905862591E+00 -0.23679196007E+00  0.77185164089E+00  0.00000000000E+00 0. -1.
</event>
<event>
 7    1  0.1445801E-008  0.4614232E+02  0.7816164E-02  0.1320468E+00
        -11   -1    0    0    0    0  0.00000000000E+00  0.00000000000E+00  0.45593999997E+02  0.45594000000E+02  0.51100000000E-03 0. -1.
         11   -1    0    0    0    0 -0.00000000000E+00 -0.00000000000E+00 -0.45593999997E+02  0.45594000000E+02  0.51100000000E-03 0.  1.
    9900012    2    1    2    0    0  0.36871948497E+02  0.22097851328E+01 -0.25781569323E+02  0.46142322593E+02  0.10000044056E+02 0.  0.
         12    1    1    2    0    0 -0.36871948497E+02 -0.22097851328E+01  0.25781569323E+02  0.45045677407E+02  0.00000000000E+00 0. -1.
         11    1    3    3    0    0  0.16650763334E+02  0.23217597532E+01 -0.13597757093E+02  0.21622615156E+02  0.51100000000E-03 0. -1.
        -11    1    3    3    0    0  0.19880609879E+02 -0.78519004462E+00 -0.12701486475E+02  0.23604722653E+02  0.51100000000E-03 0.  1.
         12    1    3    3    0    0  0.34057528372E+00  0.67321542421E+00  0.51767424436E+00  0.91498478379E+00  0.00000000000E+00 0. -1.
</event>
<event>
 7    1  0.1445801E-008  0.4614232E+02  0.7816164E-02  0.1320468E+00
        -11   -1    0    0    0    0  0.00000000000E+00  0.00000000000E+00  0.45593999997E+02  0.45594000000E+02  0.51100000000E-03 0. -1.
         11   -1    0    0    0    0 -0.00000000000E+00 -0.00000000000E+00 -0.45593999997E+02  0.45594000000E+02  0.51100000000E-03 0.  1.
    9900012    2    1    2    0    0  0.29787605024E+02 -0.13805424787E+02 -0.30841895393E+02  0.46142315656E+02  0.99999808028E+01 0.  0.
         12    1    1    2    0    0 -0.29787605024E+02  0.13805424787E+02  0.30841895393E+02  0.45045684344E+02  0.00000000000E+00 0. -1.
         11    1    3    3    0    0  0.45582194448E+01  0.62547285875E-02 -0.76794424545E+01  0.89303549930E+01  0.51100000000E-03 0. -1.
        -11    1    3    3    0    0  0.22879065804E+02 -0.13014379968E+02 -0.22538884648E+02  0.34652951671E+02  0.51100000000E-03 0.  1.
        -12    1    3    3    0    0  0.23503197744E+01 -0.79729954697E+00 -0.62356829067E+00  0.25590089923E+01  0.00000000000E+00 0.  1.
</event>
<event>
 7    1  0.1445801E-008  0.4614232E+02  0.7816164E-02  0.1320468E+00
        -11   -1    0    0    0    0  0.00000000000E+00  0.00000000000E+00  0.45593999997E+02  0.45594000000E+02  0.51100000000E-03 0.  1.
         11   -1    0    0    0    0 -0.00000000000E+00 -0.00000000000E+00 -0.45593999997E+02  0.45594000000E+02  0.51100000000E-03 0. -1.
    9900012    2    1    2    0    0 -0.19518903334E+02 -0.33391274723E+02  0.23090012453E+02  0.46142317742E+02  0.99999998247E+01 0.  0.
         12    1    1    2    0    0  0.19518903334E+02  0.33391274723E+02 -0.23090012453E+02  0.45045682258E+02  0.00000000000E+00 0. -1.
         11    1    3    3    0    0 -0.51066569542E+00 -0.32085364406E+01  0.45785469301E+01  0.56141408778E+01  0.51100000000E-03 0. -1.
        -11    1    3    3    0    0 -0.13176658944E+02 -0.24886855482E+02  0.13957568418E+02  0.31429184416E+02  0.51100000000E-03 0.  1.
         12    1    3    3    0    0 -0.58315786949E+01 -0.52958828010E+01  0.45538971054E+01  0.90989924477E+01  0.00000000000E+00 0. -1.
</event>
<event>
 7    1  0.1445801E-008  0.4614232E+02  0.7816164E-02  0.1320468E+00
        -11   -1    0    0    0    0  0.00000000000E+00  0.00000000000E+00  0.45593999997E+02  0.45594000000E+02  0.51100000000E-03 0. -1.
         11   -1    0    0    0    0 -0.00000000000E+00 -0.00000000000E+00 -0.45593999997E+02  0.45594000000E+02  0.51100000000E-03 0.  1.
    9900012    2    1    2    0    0 -0.34183990272E+02 -0.84000576281E+01 -0.28107068893E+02  0.46142317845E+02  0.10000000764E+02 0.  0.
         12    1    1    2    0    0  0.34183990272E+02  0.84000576281E+01  0.28107068893E+02  0.45045682155E+02  0.00000000000E+00 0. -1.
         11    1    3    3    0    0 -0.10563370029E+02  0.53964531119E+00 -0.84597665668E+01  0.13544137258E+02  0.51100000000E-03 0. -1.
        -11    1    3    3    0    0 -0.12006598951E+02 -0.78259660303E+01 -0.11337763569E+02  0.18274272781E+02  0.51100000000E-03 0.  1.
        -12    1    3    3    0    0 -0.11614021292E+02 -0.11137369091E+01 -0.83095387577E+01  0.14323907806E+02  0.00000000000E+00 0.  1.
</event>
<event>
 7    1  0.1445801E-008  0.4614232E+02  0.7816164E-02  0.1320468E+00
        -11   -1    0    0    0    0  0.00000000000E+00  0.00000000000E+00  0.45593999997E+02  0.45594000000E+02  0.51100000000E-03 0. -1.
         11   -1    0    0    0    0 -0.00000000000E+00 -0.00000000000E+00 -0.45593999997E+02  0.45594000000E+02  0.51100000000E-03 0.  1.
    9900012    2    1    2    0    0 -0.10384164768E+02  0.35642201809E+02 -0.25513056572E+02  0.46142317817E+02  0.10000000505E+02 0.  0.
         12    1    1    2    0    0  0.10384164768E+02 -0.35642201809E+02  0.25513056572E+02  0.45045682183E+02  0.00000000000E+00 0. -1.
         11    1    3    3    0    0 -0.40838997847E+01  0.86800646500E+01 -0.38791736729E+01  0.10347451301E+02  0.51100000000E-03 0. -1.
        -11    1    3    3    0    0  0.90089333579E+00  0.55986157947E+01 -0.65796420963E+01  0.86860691913E+01  0.51100000000E-03 0.  1.
        -12    1    3    3    0    0 -0.72011583188E+01  0.21363521364E+02 -0.15054240803E+02  0.27108797324E+02  0.00000000000E+00 0.  1.
</event>
<event>
 7    1  0.1445801E-008  0.4614232E+02  0.7816164E-02  0.1320468E+00
        -11   -1    0    0    0    0  0.00000000000E+00  0.00000000000E+00  0.45593999997E+02  0.45594000000E+02  0.51100000000E-03 0.  1.
         11   -1    0    0    0    0 -0.00000000000E+00 -0.00000000000E+00 -0.45593999997E+02  0.45594000000E+02  0.51100000000E-03 0. -1.
    9900012    2    1    2    0    0 -0.37920296430E+01 -0.58789409936E+01  0.44499125353E+02  0.46142316597E+02  0.99999893873E+01 0.  0.
         12    1    1    2    0    0  0.37920296430E+01  0.58789409936E+01 -0.44499125353E+02  0.45045683403E+02  0.00000000000E+00 0. -1.
         11    1    3    3    0    0 -0.11866469742E+01 -0.30098849373E+01  0.57792856594E+01  0.66232681790E+01  0.51100000000E-03 0. -1.
        -11    1    3    3    0    0  0.10192631792E+01 -0.25412944641E+01  0.29186215029E+02  0.29314368882E+02  0.51100000000E-03 0.  1.
        -12    1    3    3    0    0 -0.36246458480E+01 -0.32776159212E+00  0.95336246650E+01  0.10204679536E+02  0.00000000000E+00 0.  1.
</event>
<event>
 7    1  0.1445801E-008  0.4614232E+02  0.7816164E-02  0.1320468E+00
        -11   -1    0    0    0    0  0.00000000000E+00  0.00000000000E+00  0.45593999997E+02  0.45594000000E+02  0.51100000000E-03 0.  1.
         11   -1    0    0    0    0 -0.00000000000E+00 -0.00000000000E+00 -0.45593999997E+02  0.45594000000E+02  0.51100000000E-03 0. -1.
    9900012    2    1    2    0    0  0.24393629061E+02  0.31801576369E+02 -0.20560255484E+02  0.46142317589E+02  0.99999984282E+01 0.  0.
         12    1    1    2    0    0 -0.24393629061E+02 -0.31801576369E+02  0.20560255484E+02  0.45045682411E+02  0.00000000000E+00 0. -1.
         11    1    3    3    0    0  0.23134363459E+02  0.26764702619E+02 -0.15321369431E+02  0.38552463480E+02  0.51100000000E-03 0. -1.
        -11    1    3    3    0    0  0.11396142979E+01  0.39387465590E+01 -0.49882085445E+01  0.64571410042E+01  0.51100000000E-03 0.  1.
        -12    1    3    3    0    0  0.11965130460E+00  0.10981271913E+01 -0.25067750855E+00  0.11327131041E+01  0.00000000000E+00 0.  1.
</event>
<event>
 7    1  0.1445801E-008  0.4614232E+02  0.7816164E-02  0.1320468E+00
        -11   -1    0    0    0    0  0.00000000000E+00  0.00000000000E+00  0.45593999997E+02  0.45594000000E+02  0.51100000000E-03 0. -1.
         11   -1    0    0    0    0 -0.00000000000E+00 -0.00000000000E+00 -0.45593999997E+02  0.45594000000E+02  0.51100000000E-03 0.  1.
    9900012    2    1    2    0    0 -0.24326304113E+02  0.22105424722E+02 -0.30800886108E+02  0.46142318088E+02  0.10000002980E+02 0.  0.
         12    1    1    2    0    0  0.24326304113E+02 -0.22105424722E+02  0.30800886108E+02  0.45045681912E+02  0.00000000000E+00 0. -1.
         11    1    3    3    0    0 -0.68815475165E+00  0.43750735838E+01 -0.21421583450E+01  0.49197223968E+01  0.51100000000E-03 0. -1.
        -11    1    3    3    0    0 -0.98567156945E+01  0.65655982936E+01 -0.12670228761E+02  0.17343489336E+02  0.51100000000E-03 0.  1.
         12    1    3    3    0    0 -0.13781433667E+02  0.11164752844E+02 -0.15988499002E+02  0.23879106355E+02  0.00000000000E+00 0. -1.
</event>
<event>
 7    1  0.1445801E-008  0.4614232E+02  0.7816164E-02  0.1320468E+00
        -11   -1    0    0    0    0  0.00000000000E+00  0.00000000000E+00  0.45593999997E+02  0.45594000000E+02  0.51100000000E-03 0.  1.
         11   -1    0    0    0    0 -0.00000000000E+00 -0.00000000000E+00 -0.45593999997E+02  0.45594000000E+02  0.51100000000E-03 0. -1.
    9900012    2    1    2    0    0  0.53289011182E+01  0.97955448433E+01  0.43643598152E+02  0.46142317127E+02  0.99999942140E+01 0.  0.
         12    1    1    2    0    0 -0.53289011182E+01 -0.97955448433E+01 -0.43643598152E+02  0.45045682873E+02  0.00000000000E+00 0. -1.
         11    1    3    3    0    0  0.19894313691E+01  0.60907225669E+01  0.12422609928E+02  0.13977695670E+02  0.51100000000E-03 0. -1.
        -11    1    3    3    0    0  0.49628411875E+01  0.21655158026E+01  0.24085824022E+02  0.24686963572E+02  0.51100000000E-03 0.  1.
        -12    1    3    3    0    0 -0.16233714385E+01  0.15393064738E+01  0.71351642017E+01  0.74776578842E+01  0.00000000000E+00 0.  1.
</event>
<event>
 7    1  0.1445801E-008  0.4614232E+02  0.7816164E-02  0.1320468E+00
        -11   -1    0    0    0    0  0.00000000000E+00  0.00000000000E+00  0.45593999997E+02  0.45594000000E+02  0.51100000000E-03 0.  1.
         11   -1    0    0    0    0 -0.00000000000E+00 -0.00000000000E+00 -0.45593999997E+02  0.45594000000E+02  0.51100000000E-03 0. -1.
    9900012    2    1    2    0    0  0.22871470221E+02  0.27402433175E+02  0.27479374850E+02  0.46142317231E+02  0.99999951666E+01 0.  0.
         12    1    1    2    0    0 -0.22871470221E+02 -0.27402433175E+02 -0.27479374850E+02  0.45045682769E+02  0.00000000000E+00 0. -1.
         11    1    3    3    0    0  0.11322518738E+02  0.16936187262E+02  0.12723363306E+02  0.24019114131E+02  0.51100000000E-03 0. -1.
        -11    1    3    3    0    0  0.90296122132E+01  0.98231163456E+01  0.98982103528E+01  0.16613310324E+02  0.51100000000E-03 0.  1.
         12    1    3    3    0    0  0.25193392690E+01  0.64312956714E+00  0.48578011912E+01  0.55098927763E+01  0.00000000000E+00 0. -1.
</event>
<event>
 7    1  0.1445801E-008  0.4614232E+02  0.7816164E-02  0.1320468E+00
        -11   -1    0    0    0    0  0.00000000000E+00  0.00000000000E+00  0.45593999997E+02  0.45594000000E+02  0.51100000000E-03 0. -1.
         11   -1    0    0    0    0 -0.00000000000E+00 -0.00000000000E+00 -0.45593999997E+02  0.45594000000E+02  0.51100000000E-03 0.  1.
    9900012    2    1    2    0    0 -0.34935795420E+02 -0.16171211127E+01 -0.28389936957E+02  0.46142318711E+02  0.10000008663E+02 0.  0.
         12    1    1    2    0    0  0.34935795420E+02  0.16171211127E+01  0.28389936957E+02  0.45045681289E+02  0.00000000000E+00 0. -1.
         11    1    3    3    0    0 -0.14552458627E+00 -0.31108436302E+00 -0.11223627082E+01  0.11737330174E+01  0.51100000000E-03 0. -1.
        -11    1    3    3    0    0 -0.10628385028E+02  0.33576142968E+01 -0.88240589361E+01  0.14216193528E+02  0.51100000000E-03 0.  1.
        -12    1    3    3    0    0 -0.24161885806E+02 -0.46636510465E+01 -0.18443515313E+02  0.30752392166E+02  0.00000000000E+00 0.  1.
</event>
<event>
 7    1  0.1445801E-008  0.4614232E+02  0.7816164E-02  0.1320468E+00
        -11   -1    0    0    0    0  0.00000000000E+00  0.00000000000E+00  0.45593999997E+02  0.45594000000E+02  0.51100000000E-03 0. -1.
         11   -1    0    0    0    0 -0.00000000000E+00 -0.00000000000E+00 -0.45593999997E+02  0.45594000000E+02  0.51100000000E-03 0.  1.
    9900012    2    1    2    0    0  0.17392278193E+02  0.41237239570E+02  0.51100092183E+01  0.46142318050E+02  0.10000002638E+02 0.  0.
         12    1    1    2    0    0 -0.17392278193E+02 -0.41237239570E+02 -0.51100092183E+01  0.45045681950E+02  0.00000000000E+00 0. -1.
         11    1    3    3    0    0  0.51663535890E+01  0.90130629598E+01 -0.27272907218E+01  0.10740792721E+02  0.51100000000E-03 0. -1.
        -11    1    3    3    0    0  0.11481984440E+02  0.29829735185E+02  0.67480647740E+01  0.32667804431E+02  0.51100000000E-03 0.  1.
         12    1    3    3    0    0  0.74394016445E+00  0.23944414253E+01  0.10892351661E+01  0.27337208992E+01  0.00000000000E+00 0. -1.
</event>
<event>
 7    1  0.1445801E-008  0.4614232E+02  0.7816164E-02  0.1320468E+00
        -11   -1    0    0    0    0  0.00000000000E+00  0.00000000000E+00  0.45593999997E+02  0.45594000000E+02  0.51100000000E-03 0. -1.
         11   -1    0    0    0    0 -0.00000000000E+00 -0.00000000000E+00 -0.45593999997E+02  0.45594000000E+02  0.51100000000E-03 0.  1.
    9900012    2    1    2    0    0  0.47600957931E+01 -0.35767279927E+02 -0.26965842317E+02  0.46142317885E+02  0.10000001127E+02 0.  0.
         12    1    1    2    0    0 -0.47600957931E+01  0.35767279927E+02  0.26965842317E+02  0.45045682115E+02  0.00000000000E+00 0. -1.
         11    1    3    3    0    0  0.55517227899E+01 -0.10470317614E+02 -0.91983506011E+01  0.15001960903E+02  0.51100000000E-03 0. -1.
        -11    1    3    3    0    0 -0.11560138851E+00 -0.22111925426E+02 -0.14048923081E+02  0.26197764212E+02  0.51100000000E-03 0.  1.
        -12    1    3    3    0    0 -0.67602560831E+00 -0.31850368868E+01 -0.37185686353E+01  0.49425927699E+01  0.00000000000E+00 0.  1.
</event>
<event>
 7    1  0.1445801E-008  0.4614232E+02  0.7816164E-02  0.1320468E+00
        -11   -1    0    0    0    0  0.00000000000E+00  0.00000000000E+00  0.45593999997E+02  0.45594000000E+02  0.51100000000E-03 0. -1.
         11   -1    0    0    0    0 -0.00000000000E+00 -0.00000000000E+00 -0.45593999997E+02  0.45594000000E+02  0.51100000000E-03 0.  1.
    9900012    2    1    2    0    0 -0.35073979879E+02  0.28172019296E+02  0.22949308893E+01  0.46142318259E+02  0.10000004538E+02 0.  0.
         12    1    1    2    0    0  0.35073979879E+02 -0.28172019296E+02 -0.22949308893E+01  0.45045681741E+02  0.00000000000E+00 0. -1.
         11    1    3    3    0    0 -0.15399449091E+01  0.15537273621E+01 -0.94652285629E+00  0.23835697635E+01  0.51100000000E-03 0. -1.
        -11    1    3    3    0    0 -0.15545179663E+02  0.15919573147E+02  0.48297174023E+01  0.22768653680E+02  0.51100000000E-03 0.  1.
        -12    1    3    3    0    0 -0.17988855307E+02  0.10698718786E+02 -0.15882636568E+01  0.20990094815E+02  0.00000000000E+00 0.  1.
</event>
<event>
 7    1  0.1445801E-008  0.4614232E+02  0.7816164E-02  0.1320468E+00
        -11   -1    0    0    0    0  0.00000000000E+00  0.00000000000E+00  0.45593999997E+02  0.45594000000E+02  0.51100000000E-03 0. -1.
         11   -1    0    0    0    0 -0.00000000000E+00 -0.00000000000E+00 -0.45593999997E+02  0.45594000000E+02  0.51100000000E-03 0.  1.
    9900012    2    1    2    0    0  0.22603983330E+02  0.20847583176E+02  0.32917346774E+02  0.46142317573E+02  0.99999982847E+01 0.  0.
         12    1    1    2    0    0 -0.22603983330E+02 -0.20847583176E+02 -0.32917346774E+02  0.45045682427E+02  0.00000000000E+00 0. -1.
         11    1    3    3    0    0  0.37288935137E+01  0.58404535364E+01  0.11813336425E+02  0.13695636608E+02  0.51100000000E-03 0. -1.
        -11    1    3    3    0    0  0.13087219986E+02  0.84563979529E+01  0.10928425340E+02  0.19031985550E+02  0.51100000000E-03 0.  1.
        -12    1    3    3    0    0  0.57878698308E+01  0.65507316869E+01  0.10175585008E+02  0.13414695415E+02  0.00000000000E+00 0.  1.
</event>
<event>
 7    1  0.1445801E-008  0.4614232E+02  0.7816164E-02  0.1320468E+00
        -11   -1    0    0    0    0  0.00000000000E+00  0.00000000000E+00  0.45593999997E+02  0.45594000000E+02  0.51100000000E-03 0.  1.
         11   -1    0    0    0    0 -0.00000000000E+00 -0.00000000000E+00 -0.45593999997E+02  0.45594000000E+02  0.51100000000E-03 0. -1.
    9900012    2    1    2    0    0 -0.41700005015E+02  0.15932237258E+02 -0.60321418069E+01  0.46142319440E+02  0.10000015311E+02 0.  0.
         12    1    1    2    0    0  0.41700005015E+02 -0.15932237258E+02  0.60321418069E+01  0.45045680560E+02  0.00000000000E+00 0. -1.
         11    1    3    3    0    0 -0.48404484121E+01  0.42527166572E+01  0.73364617604E+00  0.64848883390E+01  0.51100000000E-03 0. -1.
        -11    1    3    3    0    0 -0.33631815906E+02  0.93764957664E+01 -0.72611164476E+01  0.35661485195E+02  0.51100000000E-03 0.  1.
        -12    1    3    3    0    0 -0.32277406973E+01  0.23030248348E+01  0.49532846457E+00  0.39959459064E+01  0.00000000000E+00 0.  1.
</event>
<event>
 7    1  0.1445801E-008  0.4614232E+02  0.7816164E-02  0.1320468E+00
        -11   -1    0    0    0    0  0.00000000000E+00  0.00000000000E+00  0.45593999997E+02  0.45594000000E+02  0.51100000000E-03 0. -1.
         11   -1    0    0    0    0 -0.00000000000E+00 -0.00000000000E+00 -0.45593999997E+02  0.45594000000E+02  0.51100000000E-03 0.  1.
    9900012    2    1    2    0    0  0.17484445586E+02 -0.92985424509E+01 -0.40459173511E+02  0.46142318183E+02  0.10000003845E+02 0.  0.
         12    1    1    2    0    0 -0.17484445586E+02  0.92985424509E+01  0.40459173511E+02  0.45045681817E+02  0.00000000000E+00 0. -1.
         11    1    3    3    0    0  0.54671174628E+01 -0.73467186806E+01 -0.16564111936E+02  0.18927056116E+02  0.51100000000E-03 0. -1.
        -11    1    3    3    0    0  0.46878057647E+01 -0.28470484453E+01 -0.12317934859E+02  0.13483794985E+02  0.51100000000E-03 0.  1.
         12    1    3    3    0    0  0.73295223586E+01  0.89522467498E+00 -0.11577126716E+02  0.13731467082E+02  0.00000000000E+00 0. -1.
</event>
<event>
 7    1  0.1445801E-008  0.4614232E+02  0.7816164E-02  0.1320468E+00
        -11   -1    0    0    0    0  0.00000000000E+00  0.00000000000E+00  0.45593999997E+02  0.45594000000E+02  0.51100000000E-03 0.  1.
         11   -1    0    0    0    0 -0.00000000000E+00 -0.00000000000E+00 -0.45593999997E+02  0.45594000000E+02  0.51100000000E-03 0. -1.
    9900012    2    1    2    0    0  0.41499444898E+02  0.34850659599E+01  0.17168688901E+02  0.46142317741E+02  0.99999998152E+01 0.  0.
         12    1    1    2    0    0 -0.41499444898E+02 -0.34850659599E+01 -0.17168688901E+02  0.45045682259E+02  0.00000000000E+00 0. -1.
         11    1    3    3    0    0  0.37138194654E+01  0.12229032922E+01 -0.93108955046E-01  0.39110889817E+01  0.51100000000E-03 0. -1.
        -11    1    3    3    0    0  0.37873118397E+02  0.21776438653E+01  0.16346137198E+02  0.41307522698E+02  0.51100000000E-03 0.  1.
         12    1    3    3    0    0 -0.87492963584E-01  0.84518802422E-01  0.91566065841E+00  0.92370606147E+00  0.00000000000E+00 0. -1.
</event>
<event>
 7    1  0.1445801E-008  0.4614232E+02  0.7816164E-02  0.1320468E+00
        -11   -1    0    0    0    0  0.00000000000E+00  0.00000000000E+00  0.45593999997E+02  0.45594000000E+02  0.51100000000E-03 0.  1.
         11   -1    0    0    0    0 -0.00000000000E+00 -0.00000000000E+00 -0.45593999997E+02  0.45594000000E+02  0.51100000000E-03 0. -1.
    9900012    2    1    2    0    0  0.10264772410E+02  0.81741742876E+01  0.43092119626E+02  0.46142318167E+02  0.10000003705E+02 0.  0.
         12    1    1    2    0    0 -0.10264772410E+02 -0.81741742876E+01 -0.43092119626E+02  0.45045681833E+02  0.00000000000E+00 0. -1.
         11    1    3    3    0    0  0.23160422533E+01 -0.79629993508E+00  0.18745543621E+01  0.30841691949E+01  0.51100000000E-03 0. -1.
        -11    1    3    3    0    0  0.76773231372E+01  0.83177923360E+01  0.34635414360E+02  0.36438151546E+02  0.51100000000E-03 0.  1.
         12    1    3    3    0    0  0.27140701981E+00  0.65268188670E+00  0.65821509036E+01  0.66199974270E+01  0.00000000000E+00 0. -1.
</event>
<event>
 7    1  0.1445801E-008  0.4614232E+02  0.7816164E-02  0.1320468E+00
        -11   -1    0    0    0    0  0.00000000000E+00  0.00000000000E+00  0.45593999997E+02  0.45594000000E+02  0.51100000000E-03 0.  1.
         11   -1    0    0    0    0 -0.00000000000E+00 -0.00000000000E+00 -0.45593999997E+02  0.45594000000E+02  0.51100000000E-03 0. -1.
    9900012    2    1    2    0    0  0.32345488478E+02  0.29198251195E+02  0.11416873830E+02  0.46142317568E+02  0.99999982382E+01 0.  0.
         12    1    1    2    0    0 -0.32345488478E+02 -0.29198251195E+02 -0.11416873830E+02  0.45045682432E+02  0.00000000000E+00 0. -1.
         11    1    3    3    0    0  0.92404937957E+00 -0.64844815423E+00  0.38631618264E+00  0.11931440478E+01  0.51100000000E-03 0. -1.
        -11    1    3    3    0    0  0.84906664645E+01  0.10196579917E+02  0.19245838972E+01  0.13407672522E+02  0.51100000000E-03 0.  1.
         12    1    3    3    0    0  0.22930772634E+02  0.19650119432E+02  0.91059737502E+01  0.31541500998E+02  0.00000000000E+00 0. -1.
</event>
<event>
 7    1  0.1445801E-008  0.4614232E+02  0.7816164E-02  0.1320468E+00
        -11   -1    0    0    0    0  0.00000000000E+00  0.00000000000E+00  0.45593999997E+02  0.45594000000E+02  0.51100000000E-03 0.  1.
         11   -1    0    0    0    0 -0.00000000000E+00 -0.00000000000E+00 -0.45593999997E+02  0.45594000000E+02  0.51100000000E-03 0. -1.
    9900012    2    1    2    0    0  0.29862088371E+02  0.18855547463E+02  0.27961357657E+02  0.46142317477E+02  0.99999974053E+01 0.  0.
         12    1    1    2    0    0 -0.29862088371E+02 -0.18855547463E+02 -0.27961357657E+02  0.45045682523E+02  0.00000000000E+00 0. -1.
         11    1    3    3    0    0  0.40602946696E+01  0.49590325918E+01  0.82599991058E+01  0.10454931016E+02  0.51100000000E-03 0. -1.
        -11    1    3    3    0    0  0.15034018935E+02  0.96895634297E+01  0.14433184843E+02  0.22983171882E+02  0.51100000000E-03 0.  1.
         12    1    3    3    0    0  0.10767774767E+02  0.42069514413E+01  0.52681737084E+01  0.12704214579E+02  0.00000000000E+00 0. -1.
</event>
<event>
 7    1  0.1445801E-008  0.4614232E+02  0.7816164E-02  0.1320468E+00
        -11   -1    0    0    0    0  0.00000000000E+00  0.00000000000E+00  0.45593999997E+02  0.45594000000E+02  0.51100000000E-03 0.  1.
         11   -1    0    0    0    0 -0.00000000000E+00 -0.00000000000E+00 -0.45593999997E+02  0.45594000000E+02  0.51100000000E-03 0. -1.
    9900012    2    1    2    0    0 -0.20013909275E+02 -0.34577960866E+02  0.20806766938E+02  0.46142317715E+02  0.99999995779E+01 0.  0.
         12    1    1    2    0    0  0.20013909275E+02  0.34577960866E+02 -0.20806766938E+02  0.45045682285E+02  0.00000000000E+00 0. -1.
         11    1    3    3    0    0 -0.92798630637E+01 -0.17852560746E+02  0.65927440382E+01  0.21172955813E+02  0.51100000000E-03 0. -1.
        -11    1    3    3    0    0 -0.11199664587E+02 -0.15758889240E+02  0.12768201870E+02  0.23168989106E+02  0.51100000000E-03 0.  1.
         12    1    3    3    0    0  0.46561837486E+00 -0.96651088015E+00  0.14458210305E+01  0.18003727960E+01  0.00000000000E+00 0. -1.
</event>
<event>
 7    1  0.1445801E-008  0.4614232E+02  0.7816164E-02  0.1320468E+00
        -11   -1    0    0    0    0  0.00000000000E+00  0.00000000000E+00  0.45593999997E+02  0.45594000000E+02  0.51100000000E-03 0.  1.
         11   -1    0    0    0    0 -0.00000000000E+00 -0.00000000000E+00 -0.45593999997E+02  0.45594000000E+02  0.51100000000E-03 0. -1.
    9900012    2    1    2    0    0  0.25030633009E+02 -0.97274097777E+01  0.36165708148E+02  0.46142317236E+02  0.99999952091E+01 0.  0.
         12    1    1    2    0    0 -0.25030633009E+02  0.97274097777E+01 -0.36165708148E+02  0.45045682764E+02  0.00000000000E+00 0. -1.
         11    1    3    3    0    0  0.23121422898E+00  0.58986993237E+00  0.14869341242E+01  0.16162858373E+01  0.51100000000E-03 0. -1.
        -11    1    3    3    0    0  0.47534783789E+01 -0.54540449102E+01  0.10379668466E+02  0.12652259889E+02  0.51100000000E-03 0.  1.
        -12    1    3    3    0    0  0.20045940402E+02 -0.48632347999E+01  0.24299105558E+02  0.31873771509E+02  0.00000000000E+00 0.  1.
</event>
<event>
 7    1  0.1445801E-008  0.4614232E+02  0.7816164E-02  0.1320468E+00
        -11   -1    0    0    0    0  0.00000000000E+00  0.00000000000E+00  0.45593999997E+02  0.45594000000E+02  0.51100000000E-03 0.  1.
         11   -1    0    0    0    0 -0.00000000000E+00 -0.00000000000E+00 -0.45593999997E+02  0.45594000000E+02  0.51100000000E-03 0. -1.
    9900012    2    1    2    0    0  0.29167048462E+02 -0.11027770712E+02  0.32508230061E+02  0.46142318026E+02  0.10000002413E+02 0.  0.
         12    1    1    2    0    0 -0.29167048462E+02  0.11027770712E+02 -0.32508230061E+02  0.45045681974E+02  0.00000000000E+00 0. -1.
         11    1    3    3    0    0  0.36621323499E+01 -0.42709305045E+01  0.44083827025E+01  0.71474400337E+01  0.51100000000E-03 0. -1.
        -11    1    3    3    0    0  0.17208486892E+02 -0.16688450069E+01  0.17342139970E+02  0.24488096777E+02  0.51100000000E-03 0.  1.
        -12    1    3    3    0    0  0.82964292200E+01 -0.50879952008E+01  0.10757707388E+02  0.14506781215E+02  0.00000000000E+00 0.  1.
</event>
<event>
 7    1  0.1445801E-008  0.4614232E+02  0.7816164E-02  0.1320468E+00
        -11   -1    0    0    0    0  0.00000000000E+00  0.00000000000E+00  0.45593999997E+02  0.45594000000E+02  0.51100000000E-03 0.  1.
         11   -1    0    0    0    0 -0.00000000000E+00 -0.00000000000E+00 -0.45593999997E+02  0.45594000000E+02  0.51100000000E-03 0. -1.
    9900012    2    1    2    0    0 -0.32999134142E+02  0.48681162087E+01  0.30273291599E+02  0.46142316591E+02  0.99999893288E+01 0.  0.
         12    1    1    2    0    0  0.32999134142E+02 -0.48681162087E+01 -0.30273291599E+02  0.45045683409E+02  0.00000000000E+00 0. -1.
         11    1    3    3    0    0 -0.79822539323E+01 -0.17654560636E+01  0.89897803791E+01  0.12151105484E+02  0.51100000000E-03 0. -1.
        -11    1    3    3    0    0 -0.10810624903E+02  0.47442619913E+01  0.68399889042E+01  0.13644159231E+02  0.51100000000E-03 0.  1.
        -12    1    3    3    0    0 -0.14206255306E+02  0.18893102809E+01  0.14443522316E+02  0.20347051876E+02  0.00000000000E+00 0.  1.
</event>
<event>
 7    1  0.1445801E-008  0.4614232E+02  0.7816164E-02  0.1320468E+00
        -11   -1    0    0    0    0  0.00000000000E+00  0.00000000000E+00  0.45593999997E+02  0.45594000000E+02  0.51100000000E-03 0. -1.
         11   -1    0    0    0    0 -0.00000000000E+00 -0.00000000000E+00 -0.45593999997E+02  0.45594000000E+02  0.51100000000E-03 0.  1.
    9900012    2    1    2    0    0  0.35105710567E+02  0.95963017035E+01  0.26544560368E+02  0.46142316456E+02  0.99999881027E+01 0.  0.
         12    1    1    2    0    0 -0.35105710567E+02 -0.95963017035E+01 -0.26544560368E+02  0.45045683544E+02  0.00000000000E+00 0. -1.
         11    1    3    3    0    0  0.13518641710E+02  0.42397265263E+01  0.69341083124E+01  0.15773738081E+02  0.51100000000E-03 0.  1.
        -11    1    3    3    0    0  0.18238042805E+02  0.22528109972E+01  0.17352455521E+02  0.25274672611E+02  0.51100000000E-03 0. -1.
         12    1    3    3    0    0  0.33490260520E+01  0.31037641800E+01  0.22579965341E+01  0.50939057638E+01  0.00000000000E+00 0. -1.
</event>
<event>
 7    1  0.1445801E-008  0.4614232E+02  0.7816164E-02  0.1320468E+00
        -11   -1    0    0    0    0  0.00000000000E+00  0.00000000000E+00  0.45593999997E+02  0.45594000000E+02  0.51100000000E-03 0.  1.
         11   -1    0    0    0    0 -0.00000000000E+00 -0.00000000000E+00 -0.45593999997E+02  0.45594000000E+02  0.51100000000E-03 0. -1.
    9900012    2    1    2    0    0 -0.10289911505E+02  0.43724663848E+02  0.33741463811E+01  0.46142319061E+02  0.10000011856E+02 0.  0.
         12    1    1    2    0    0  0.10289911505E+02 -0.43724663848E+02 -0.33741463811E+01  0.45045680939E+02  0.00000000000E+00 0. -1.
         11    1    3    3    0    0 -0.36943328984E-01 -0.72275798527E-01  0.33250153410E+00  0.34226617114E+00  0.51100000000E-03 0. -1.
        -11    1    3    3    0    0 -0.55318418134E+01  0.28139289074E+02 -0.18292241924E+01  0.28736160579E+02  0.51100000000E-03 0.  1.
        -12    1    3    3    0    0 -0.47211263630E+01  0.15657650573E+02  0.48708690394E+01  0.17063892311E+02  0.00000000000E+00 0.  1.
</event>
<event>
 7    1  0.1445801E-008  0.4614232E+02  0.7816164E-02  0.1320468E+00
        -11   -1    0    0    0    0  0.00000000000E+00  0.00000000000E+00  0.45593999997E+02  0.45594000000E+02  0.51100000000E-03 0. -1.
         11   -1    0    0    0    0 -0.00000000000E+00 -0.00000000000E+00 -0.45593999997E+02  0.45594000000E+02  0.51100000000E-03 0.  1.
    9900012    2    1    2    0    0  0.30157370635E+02  0.30060781356E+02 -0.14696790688E+02  0.46142320564E+02  0.10000025560E+02 0.  0.
         12    1    1    2    0    0 -0.30157370635E+02 -0.30060781356E+02  0.14696790688E+02  0.45045679436E+02  0.00000000000E+00 0. -1.
         11    1    3    3    0    0  0.19337084690E+02  0.15991653111E+02 -0.10106200619E+02  0.27051637746E+02  0.51100000000E-03 0. -1.
        -11    1    3    3    0    0  0.90844179211E+01  0.10583107448E+02 -0.13282146546E+01  0.14010459187E+02  0.51100000000E-03 0.  1.
         12    1    3    3    0    0  0.17358680239E+01  0.34860207970E+01 -0.32623754146E+01  0.50802236308E+01  0.00000000000E+00 0. -1.
</event>
<event>
 7    1  0.1445801E-008  0.4614232E+02  0.7816164E-02  0.1320468E+00
        -11   -1    0    0    0    0  0.00000000000E+00  0.00000000000E+00  0.45593999997E+02  0.45594000000E+02  0.51100000000E-03 0.  1.
         11   -1    0    0    0    0 -0.00000000000E+00 -0.00000000000E+00 -0.45593999997E+02  0.45594000000E+02  0.51100000000E-03 0. -1.
    9900012    2    1    2    0    0 -0.23863922636E+02 -0.14512462433E+02  0.35341407782E+02  0.46142317927E+02  0.10000001513E+02 0.  0.
         12    1    1    2    0    0  0.23863922636E+02  0.14512462433E+02 -0.35341407782E+02  0.45045682073E+02  0.00000000000E+00 0. -1.
         11    1    3    3    0    0 -0.13367239454E+02 -0.10459050809E+02  0.15104610342E+02  0.22720565317E+02  0.51100000000E-03 0. -1.
        -11    1    3    3    0    0 -0.65738765882E+01 -0.23597855911E+01  0.15732508743E+02  0.17213258641E+02  0.51100000000E-03 0.  1.
         12    1    3    3    0    0 -0.39228065935E+01 -0.16936260325E+01  0.45042886968E+01  0.62084939697E+01  0.00000000000E+00 0. -1.
</event>
<event>
 7    1  0.1445801E-008  0.4614232E+02  0.7816164E-02  0.1320468E+00
        -11   -1    0    0    0    0  0.00000000000E+00  0.00000000000E+00  0.45593999997E+02  0.45594000000E+02  0.51100000000E-03 0.  1.
         11   -1    0    0    0    0 -0.00000000000E+00 -0.00000000000E+00 -0.45593999997E+02  0.45594000000E+02  0.51100000000E-03 0. -1.
    9900012    2    1    2    0    0 -0.12418044633E+02  0.21653306939E+02  0.37497201936E+02  0.46142315557E+02  0.99999799004E+01 0.  0.
         12    1    1    2    0    0  0.12418044633E+02 -0.21653306939E+02 -0.37497201936E+02  0.45045684443E+02  0.00000000000E+00 0. -1.
         11    1    3    3    0    0 -0.13723814637E+01  0.87802757695E+01  0.76419050973E+01  0.11720724690E+02  0.51100000000E-03 0. -1.
        -11    1    3    3    0    0 -0.52327805059E+01  0.63138950526E+01  0.12042632644E+02  0.14569566356E+02  0.51100000000E-03 0.  1.
         12    1    3    3    0    0 -0.58128826635E+01  0.65591361170E+01  0.17812664195E+02  0.19852024511E+02  0.00000000000E+00 0. -1.
</event>
<event>
 7    1  0.1445801E-008  0.4614232E+02  0.7816164E-02  0.1320468E+00
        -11   -1    0    0    0    0  0.00000000000E+00  0.00000000000E+00  0.45593999997E+02  0.45594000000E+02  0.51100000000E-03 0.  1.
         11   -1    0    0    0    0 -0.00000000000E+00 -0.00000000000E+00 -0.45593999997E+02  0.45594000000E+02  0.51100000000E-03 0. -1.
    9900012    2    1    2    0    0 -0.14760241762E+02 -0.42061699691E+02  0.64855412301E+01  0.46142316935E+02  0.99999924628E+01 0.  0.
         12    1    1    2    0    0  0.14760241762E+02  0.42061699691E+02 -0.64855412301E+01  0.45045683065E+02  0.00000000000E+00 0. -1.
         11    1    3    3    0    0 -0.80741293334E+01 -0.24766977950E+02  0.48312355426E+01  0.26494067230E+02  0.51100000000E-03 0.  1.
        -11    1    3    3    0    0  0.27833719218E+00 -0.50678761305E-01  0.10001792230E+01  0.10394222764E+01  0.51100000000E-03 0. -1.
         12    1    3    3    0    0 -0.69644496207E+01 -0.17244042980E+02  0.65412646445E+00  0.18608827428E+02  0.00000000000E+00 0. -1.
</event>
<event>
 7    1  0.1445801E-008  0.4614232E+02  0.7816164E-02  0.1320468E+00
        -11   -1    0    0    0    0  0.00000000000E+00  0.00000000000E+00  0.45593999997E+02  0.45594000000E+02  0.51100000000E-03 0.  1.
         11   -1    0    0    0    0 -0.00000000000E+00 -0.00000000000E+00 -0.45593999997E+02  0.45594000000E+02  0.51100000000E-03 0. -1.
    9900012    2    1    2    0    0 -0.29082386617E+02  0.16296989587E+02  0.30294164205E+02  0.46142318011E+02  0.10000002282E+02 0.  0.
         12    1    1    2    0    0  0.29082386617E+02 -0.16296989587E+02 -0.30294164205E+02  0.45045681989E+02  0.00000000000E+00 0. -1.
         11    1    3    3    0    0 -0.79916873995E+01  0.93771718084E+00  0.10643783309E+02  0.13343032054E+02  0.51100000000E-03 0. -1.
        -11    1    3    3    0    0 -0.20364576330E+02  0.13987388479E+02  0.18614053946E+02  0.30932927604E+02  0.51100000000E-03 0.  1.
         12    1    3    3    0    0 -0.72612288786E+00  0.13718839272E+01  0.10363269496E+01  0.18663583537E+01  0.00000000000E+00 0. -1.
</event>
<event>
 7    1  0.1445801E-008  0.4614232E+02  0.7816164E-02  0.1320468E+00
        -11   -1    0    0    0    0  0.00000000000E+00  0.00000000000E+00  0.45593999997E+02  0.45594000000E+02  0.51100000000E-03 0.  1.
         11   -1    0    0    0    0 -0.00000000000E+00 -0.00000000000E+00 -0.45593999997E+02  0.45594000000E+02  0.51100000000E-03 0. -1.
    9900012    2    1    2    0    0 -0.16906419707E+02  0.74697592021E+01  0.41079060402E+02  0.46142317261E+02  0.99999954429E+01 0.  0.
         12    1    1    2    0    0  0.16906419707E+02 -0.74697592021E+01 -0.41079060402E+02  0.45045682739E+02  0.00000000000E+00 0. -1.
         11    1    3    3    0    0 -0.15748971961E+02  0.46290352670E+01  0.38158429511E+02  0.41539424988E+02  0.51100000000E-03 0.  1.
        -11    1    3    3    0    0 -0.77763944586E+00  0.96519216661E-01  0.73187367416E+00  0.10722305736E+01  0.51100000000E-03 0. -1.
        -12    1    3    3    0    0 -0.37980830066E+00  0.27442047185E+01  0.21887572168E+01  0.35306616995E+01  0.00000000000E+00 0.  1.
</event>
<event>
 7    1  0.1445801E-008  0.4614232E+02  0.7816164E-02  0.1320468E+00
        -11   -1    0    0    0    0  0.00000000000E+00  0.00000000000E+00  0.45593999997E+02  0.45594000000E+02  0.51100000000E-03 0.  1.
         11   -1    0    0    0    0 -0.00000000000E+00 -0.00000000000E+00 -0.45593999997E+02  0.45594000000E+02  0.51100000000E-03 0. -1.
    9900012    2    1    2    0    0 -0.10246145881E+01  0.11913924000E+02  0.43429506981E+02  0.46142317668E+02  0.99999991507E+01 0.  0.
         12    1    1    2    0    0  0.10246145881E+01 -0.11913924000E+02 -0.43429506981E+02  0.45045682332E+02  0.00000000000E+00 0. -1.
         11    1    3    3    0    0  0.27770325105E+01  0.42770750864E+01  0.16163258330E+02  0.16948634192E+02  0.51100000000E-03 0. -1.
        -11    1    3    3    0    0 -0.88416505544E+00 -0.26762521845E+00  0.93451676947E+01  0.93907151275E+01  0.51100000000E-03 0.  1.
         12    1    3    3    0    0 -0.29174820431E+01  0.79044741320E+01  0.17921080956E+02  0.19802968349E+02  0.00000000000E+00 0. -1.
</event>
<event>
 7    1  0.1445801E-008  0.4614232E+02  0.7816164E-02  0.1320468E+00
        -11   -1    0    0    0    0  0.00000000000E+00  0.00000000000E+00  0.45593999997E+02  0.45594000000E+02  0.51100000000E-03 0.  1.
         11   -1    0    0    0    0 -0.00000000000E+00 -0.00000000000E+00 -0.45593999997E+02  0.45594000000E+02  0.51100000000E-03 0. -1.
    9900012    2    1    2    0    0  0.41510466140E+02  0.16120033741E+01  0.17418263254E+02  0.46142320420E+02  0.10000024246E+02 0.  0.
         12    1    1    2    0    0 -0.41510466140E+02 -0.16120033741E+01 -0.17418263254E+02  0.45045679580E+02  0.00000000000E+00 0. -1.
         11    1    3    3    0    0  0.11632252235E+02 -0.23561756312E+01  0.69298826533E+01  0.13743512270E+02  0.51100000000E-03 0. -1.
        -11    1    3    3    0    0  0.18042308734E+02  0.46986249581E+01  0.79686697716E+01  0.20275642508E+02  0.51100000000E-03 0.  1.
        -12    1    3    3    0    0  0.11835905172E+02 -0.73044595280E+00  0.25197108288E+01  0.12123165642E+02  0.00000000000E+00 0.  1.
</event>
<event>
 7    1  0.1445801E-008  0.4614232E+02  0.7816164E-02  0.1320468E+00
        -11   -1    0    0    0    0  0.00000000000E+00  0.00000000000E+00  0.45593999997E+02  0.45594000000E+02  0.51100000000E-03 0. -1.
         11   -1    0    0    0    0 -0.00000000000E+00 -0.00000000000E+00 -0.45593999997E+02  0.45594000000E+02  0.51100000000E-03 0.  1.
    9900012    2    1    2    0    0  0.49887487533E+01  0.33018556203E+02 -0.30232446513E+02  0.46142317743E+02  0.99999998318E+01 0.  0.
         12    1    1    2    0    0 -0.49887487533E+01 -0.33018556203E+02  0.30232446513E+02  0.45045682257E+02  0.00000000000E+00 0. -1.
         11    1    3    3    0    0  0.13784079777E+01  0.80770719675E+01 -0.12700674769E+02  0.15114438129E+02  0.51100000000E-03 0. -1.
        -11    1    3    3    0    0  0.38030519531E+01  0.24610639822E+02 -0.17755539413E+02  0.30584407411E+02  0.51100000000E-03 0.  1.
        -12    1    3    3    0    0 -0.19271117741E+00  0.33084441447E+00  0.22376766902E+00  0.44347220227E+00  0.00000000000E+00 0.  1.
</event>
<event>
 7    1  0.1445801E-008  0.4614232E+02  0.7816164E-02  0.1320468E+00
        -11   -1    0    0    0    0  0.00000000000E+00  0.00000000000E+00  0.45593999997E+02  0.45594000000E+02  0.51100000000E-03 0.  1.
         11   -1    0    0    0    0 -0.00000000000E+00 -0.00000000000E+00 -0.45593999997E+02  0.45594000000E+02  0.51100000000E-03 0. -1.
    9900012    2    1    2    0    0  0.30873663275E+02 -0.15384385928E+02  0.28969830241E+02  0.46142317870E+02  0.10000000990E+02 0.  0.
         12    1    1    2    0    0 -0.30873663275E+02  0.15384385928E+02 -0.28969830241E+02  0.45045682130E+02  0.00000000000E+00 0. -1.
         11    1    3    3    0    0  0.12140427423E+01 -0.14527764366E+00 -0.16271562327E+00  0.12334836882E+01  0.51100000000E-03 0. -1.
        -11    1    3    3    0    0  0.73191969938E+01 -0.73723823668E+01  0.10527966948E+02  0.14790563029E+02  0.51100000000E-03 0.  1.
        -12    1    3    3    0    0  0.22340423539E+02 -0.78667259175E+01  0.18604578916E+02  0.30118271152E+02  0.00000000000E+00 0.  1.
</event>
<event>
 7    1  0.1445801E-008  0.4614232E+02  0.7816164E-02  0.1320468E+00
        -11   -1    0    0    0    0  0.00000000000E+00  0.00000000000E+00  0.45593999997E+02  0.45594000000E+02  0.51100000000E-03 0.  1.
         11   -1    0    0    0    0 -0.00000000000E+00 -0.00000000000E+00 -0.45593999997E+02  0.45594000000E+02  0.51100000000E-03 0. -1.
    9900012    2    1    2    0    0 -0.44629734541E+02  0.24376034603E+01 -0.55998529898E+01  0.46142317972E+02  0.10000001925E+02 0.  0.
         12    1    1    2    0    0  0.44629734541E+02 -0.24376034603E+01  0.55998529898E+01  0.45045682028E+02  0.00000000000E+00 0. -1.
         11    1    3    3    0    0 -0.17171475373E+01 -0.12366689267E+01  0.95831918949E+00  0.23229984135E+01  0.51100000000E-03 0. -1.
        -11    1    3    3    0    0 -0.40036384521E+02  0.23753863444E+01 -0.54544344047E+01  0.40475985482E+02  0.51100000000E-03 0.  1.
        -12    1    3    3    0    0 -0.28762024825E+01  0.12988860426E+01 -0.11037377746E+01  0.33433340765E+01  0.00000000000E+00 0.  1.
</event>
<event>
 7    1  0.1445801E-008  0.4614232E+02  0.7816164E-02  0.1320468E+00
        -11   -1    0    0    0    0  0.00000000000E+00  0.00000000000E+00  0.45593999997E+02  0.45594000000E+02  0.51100000000E-03 0. -1.
         11   -1    0    0    0    0 -0.00000000000E+00 -0.00000000000E+00 -0.45593999997E+02  0.45594000000E+02  0.51100000000E-03 0.  1.
    9900012    2    1    2    0    0 -0.16861367891E+02  0.13963502073E+02 -0.39367859935E+02  0.46142317486E+02  0.99999974905E+01 0.  0.
         12    1    1    2    0    0  0.16861367891E+02 -0.13963502073E+02  0.39367859935E+02  0.45045682514E+02  0.00000000000E+00 0. -1.
         11    1    3    3    0    0 -0.74732689572E+01  0.63278780774E+01 -0.26008836908E+02  0.27791210614E+02  0.51100000000E-03 0. -1.
        -11    1    3    3    0    0 -0.71550667258E+01  0.46923166964E+01 -0.72651327870E+01  0.11224748127E+02  0.51100000000E-03 0.  1.
        -12    1    3    3    0    0 -0.22330322083E+01  0.29433072991E+01 -0.60938902403E+01  0.71263587449E+01  0.00000000000E+00 0.  1.
</event>
<event>
 7    1  0.1445801E-008  0.4614232E+02  0.7816164E-02  0.1320468E+00
        -11   -1    0    0    0    0  0.00000000000E+00  0.00000000000E+00  0.45593999997E+02  0.45594000000E+02  0.51100000000E-03 0. -1.
         11   -1    0    0    0    0 -0.00000000000E+00 -0.00000000000E+00 -0.45593999997E+02  0.45594000000E+02  0.51100000000E-03 0.  1.
    9900012    2    1    2    0    0 -0.10348828551E+02 -0.39135864301E+02  0.19758523741E+02  0.46142318882E+02  0.10000010221E+02 0.  0.
         12    1    1    2    0    0  0.10348828551E+02  0.39135864301E+02 -0.19758523741E+02  0.45045681118E+02  0.00000000000E+00 0. -1.
         11    1    3    3    0    0 -0.11324571862E+01  0.96637511689E-01  0.46282992605E+00  0.12271959456E+01  0.51100000000E-03 0. -1.
        -11    1    3    3    0    0 -0.77300746086E+01 -0.35702539423E+02  0.18703289723E+02  0.41039473941E+02  0.51100000000E-03 0.  1.
         12    1    3    3    0    0 -0.14862967566E+01 -0.35299623900E+01  0.59240409216E+00  0.38756489949E+01  0.00000000000E+00 0. -1.
</event>
<event>
 7    1  0.1445801E-008  0.4614231E+02  0.7816164E-02  0.1320468E+00
        -11   -1    0    0    0    0  0.00000000000E+00  0.00000000000E+00  0.45593999997E+02  0.45594000000E+02  0.51100000000E-03 0.  1.
         11   -1    0    0    0    0 -0.00000000000E+00 -0.00000000000E+00 -0.45593999997E+02  0.45594000000E+02  0.51100000000E-03 0. -1.
    9900012    2    1    2    0    0  0.41217156823E+02 -0.16289134078E+01  0.18099903092E+02  0.46142313554E+02  0.99999616362E+01 0.  0.
         12    1    1    2    0    0 -0.41217156823E+02  0.16289134078E+01 -0.18099903092E+02  0.45045686446E+02  0.00000000000E+00 0. -1.
         11    1    3    3    0    0  0.10997043235E+02  0.18413651138E+01  0.19534701839E+01  0.11319966052E+02  0.51100000000E-03 0. -1.
        -11    1    3    3    0    0  0.24240713340E+02 -0.10970941738E+01  0.11298135585E+02  0.26766838939E+02  0.51100000000E-03 0.  1.
         12    1    3    3    0    0  0.59794002486E+01 -0.23731843477E+01  0.48482973226E+01  0.80555085631E+01  0.00000000000E+00 0. -1.
</event>
<event>
 7    1  0.1445801E-008  0.4614231E+02  0.7816164E-02  0.1320468E+00
        -11   -1    0    0    0    0  0.00000000000E+00  0.00000000000E+00  0.45593999997E+02  0.45594000000E+02  0.51100000000E-03 0.  1.
         11   -1    0    0    0    0 -0.00000000000E+00 -0.00000000000E+00 -0.45593999997E+02  0.45594000000E+02  0.51100000000E-03 0. -1.
    9900012    2    1    2    0    0 -0.21856557459E+02 -0.10193025389E+02  0.38046119848E+02  0.46142310905E+02  0.99999374833E+01 0.  0.
         12    1    1    2    0    0  0.21856557459E+02  0.10193025389E+02 -0.38046119848E+02  0.45045689095E+02  0.00000000000E+00 0. -1.
         11    1    3    3    0    0 -0.15898933092E+01 -0.25186282806E+01  0.16404290075E+01  0.34003318574E+01  0.51100000000E-03 0. -1.
        -11    1    3    3    0    0 -0.12617828954E+02 -0.69614595576E+01  0.26931872892E+02  0.30545004574E+02  0.51100000000E-03 0.  1.
         12    1    3    3    0    0 -0.76488351957E+01 -0.71293755095E+00  0.94738179480E+01  0.12196974474E+02  0.00000000000E+00 0. -1.
</event>
<event>
 7    1  0.1445801E-008  0.4614232E+02  0.7816164E-02  0.1320468E+00
        -11   -1    0    0    0    0  0.00000000000E+00  0.00000000000E+00  0.45593999997E+02  0.45594000000E+02  0.51100000000E-03 0. -1.
         11   -1    0    0    0    0 -0.00000000000E+00 -0.00000000000E+00 -0.45593999997E+02  0.45594000000E+02  0.51100000000E-03 0.  1.
    9900012    2    1    2    0    0  0.28025131199E+02  0.32207440783E+02  0.14366146874E+02  0.46142318781E+02  0.10000009297E+02 0.  0.
         12    1    1    2    0    0 -0.28025131199E+02 -0.32207440783E+02 -0.14366146874E+02  0.45045681219E+02  0.00000000000E+00 0. -1.
         11    1    3    3    0    0  0.54444553335E+00  0.38482536016E+01  0.18030038092E+01  0.42844252494E+01  0.51100000000E-03 0. -1.
        -11    1    3    3    0    0  0.22576826818E+02  0.22886003964E+02  0.77357972098E+01  0.33065463030E+02  0.51100000000E-03 0.  1.
        -12    1    3    3    0    0  0.49038588468E+01  0.54731832179E+01  0.48273458547E+01  0.87924305017E+01  0.00000000000E+00 0.  1.
</event>
<event>
 7    1  0.1445801E-008  0.4614232E+02  0.7816164E-02  0.1320468E+00
        -11   -1    0    0    0    0  0.00000000000E+00  0.00000000000E+00  0.45593999997E+02  0.45594000000E+02  0.51100000000E-03 0.  1.
         11   -1    0    0    0    0 -0.00000000000E+00 -0.00000000000E+00 -0.45593999997E+02  0.45594000000E+02  0.51100000000E-03 0. -1.
    9900012    2    1    2    0    0 -0.48872161529E+01 -0.42119302699E+02  0.15205030030E+02  0.46142317857E+02  0.10000000872E+02 0.  0.
         12    1    1    2    0    0  0.48872161529E+01  0.42119302699E+02 -0.15205030030E+02  0.45045682143E+02  0.00000000000E+00 0. -1.
         11    1    3    3    0    0 -0.12188354901E+01 -0.11458960724E+02 -0.34276881524E+00  0.11528696004E+02  0.51100000000E-03 0. -1.
        -11    1    3    3    0    0 -0.31081519247E+01 -0.22077607104E+02  0.11883728674E+02  0.25264685854E+02  0.51100000000E-03 0.  1.
         12    1    3    3    0    0 -0.56022873803E+00 -0.85827348708E+01  0.36640701709E+01  0.93489359993E+01  0.00000000000E+00 0. -1.
</event>
<event>
 7    1  0.1445801E-008  0.4614232E+02  0.7816164E-02  0.1320468E+00
        -11   -1    0    0    0    0  0.00000000000E+00  0.00000000000E+00  0.45593999997E+02  0.45594000000E+02  0.51100000000E-03 0.  1.
         11   -1    0    0    0    0 -0.00000000000E+00 -0.00000000000E+00 -0.45593999997E+02  0.45594000000E+02  0.51100000000E-03 0. -1.
    9900012    2    1    2    0    0 -0.28134370827E+02 -0.30091800227E+02  0.18222355092E+02  0.46142317767E+02  0.10000000050E+02 0.  0.
         12    1    1    2    0    0  0.28134370827E+02  0.30091800227E+02 -0.18222355092E+02  0.45045682233E+02  0.00000000000E+00 0. -1.
         11    1    3    3    0    0 -0.34534101668E+01 -0.19459871851E+01  0.39177391589E+00  0.39832643606E+01  0.51100000000E-03 0. -1.
        -11    1    3    3    0    0 -0.24893135842E+02 -0.27562215727E+02  0.18278093967E+02  0.41393630756E+02  0.51100000000E-03 0.  1.
        -12    1    3    3    0    0  0.21217518175E+00 -0.58359731576E+00 -0.44751279130E+00  0.76542264997E+00  0.00000000000E+00 0.  1.
</event>
<event>
 7    1  0.1445801E-008  0.4614232E+02  0.7816164E-02  0.1320468E+00
        -11   -1    0    0    0    0  0.00000000000E+00  0.00000000000E+00  0.45593999997E+02  0.45594000000E+02  0.51100000000E-03 0.  1.
         11   -1    0    0    0    0 -0.00000000000E+00 -0.00000000000E+00 -0.45593999997E+02  0.45594000000E+02  0.51100000000E-03 0. -1.
    9900012    2    1    2    0    0  0.28172495043E+02  0.26948783314E+02 -0.22565177194E+02  0.46142316290E+02  0.99999865876E+01 0.  0.
         12    1    1    2    0    0 -0.28172495043E+02 -0.26948783314E+02  0.22565177194E+02  0.45045683710E+02  0.00000000000E+00 0. -1.
         11    1    3    3    0    0  0.98311951498E+01  0.10635340652E+02 -0.10232085987E+02  0.17732976422E+02  0.51100000000E-03 0. -1.
        -11    1    3    3    0    0  0.17335135996E+01  0.13837664271E+01  0.96393596900E+00  0.24184812876E+01  0.51100000000E-03 0.  1.
        -12    1    3    3    0    0  0.16607786294E+02  0.14929676235E+02 -0.13297027176E+02  0.25990858581E+02  0.00000000000E+00 0.  1.
</event>
<event>
 7    1  0.1445801E-008  0.4614232E+02  0.7816164E-02  0.1320468E+00
        -11   -1    0    0    0    0  0.00000000000E+00  0.00000000000E+00  0.45593999997E+02  0.45594000000E+02  0.51100000000E-03 0.  1.
         11   -1    0    0    0    0 -0.00000000000E+00 -0.00000000000E+00 -0.45593999997E+02  0.45594000000E+02  0.51100000000E-03 0. -1.
    9900012    2    1    2    0    0 -0.89342172621E+01 -0.40867615277E+02  0.16707222031E+02  0.46142317804E+02  0.10000000391E+02 0.  0.
         12    1    1    2    0    0  0.89342172621E+01  0.40867615277E+02 -0.16707222031E+02  0.45045682196E+02  0.00000000000E+00 0. -1.
         11    1    3    3    0    0 -0.14909440736E+01 -0.42996337927E+01  0.83372531600E+00  0.46265390029E+01  0.51100000000E-03 0. -1.
        -11    1    3    3    0    0  0.12179132665E+01 -0.71516959336E+01  0.56376738616E+01  0.91876783946E+01  0.51100000000E-03 0.  1.
        -12    1    3    3    0    0 -0.86611864550E+01 -0.29416285551E+02  0.10235822853E+02  0.32328100406E+02  0.00000000000E+00 0.  1.
</event>
<event>
 7    1  0.1445801E-008  0.4614232E+02  0.7816164E-02  0.1320468E+00
        -11   -1    0    0    0    0  0.00000000000E+00  0.00000000000E+00  0.45593999997E+02  0.45594000000E+02  0.51100000000E-03 0.  1.
         11   -1    0    0    0    0 -0.00000000000E+00 -0.00000000000E+00 -0.45593999997E+02  0.45594000000E+02  0.51100000000E-03 0. -1.
    9900012    2    1    2    0    0  0.10725074169E+02 -0.43730445049E+02  0.13169510415E+01  0.46142318740E+02  0.10000008925E+02 0.  0.
         12    1    1    2    0    0 -0.10725074169E+02  0.43730445049E+02 -0.13169510415E+01  0.45045681260E+02  0.00000000000E+00 0. -1.
         11    1    3    3    0    0  0.77517523749E+00 -0.27460602507E+00  0.13107517955E+01  0.15473770221E+01  0.51100000000E-03 0. -1.
        -11    1    3    3    0    0  0.90570019745E+01 -0.37904614207E+02  0.89585904675E-01  0.38971747315E+02  0.51100000000E-03 0.  1.
         12    1    3    3    0    0  0.89289695719E+00 -0.55512248176E+01 -0.83386658689E-01  0.56231944024E+01  0.00000000000E+00 0. -1.
</event>
<event>
 7    1  0.1445801E-008  0.4614232E+02  0.7816164E-02  0.1320468E+00
        -11   -1    0    0    0    0  0.00000000000E+00  0.00000000000E+00  0.45593999997E+02  0.45594000000E+02  0.51100000000E-03 0. -1.
         11   -1    0    0    0    0 -0.00000000000E+00 -0.00000000000E+00 -0.45593999997E+02  0.45594000000E+02  0.51100000000E-03 0.  1.
    9900012    2    1    2    0    0 -0.31909053605E+02  0.28608361636E+02  0.13873984278E+02  0.46142317663E+02  0.99999991062E+01 0.  0.
         12    1    1    2    0    0  0.31909053605E+02 -0.28608361636E+02 -0.13873984278E+02  0.45045682337E+02  0.00000000000E+00 0. -1.
         11    1    3    3    0    0 -0.98292731624E+01  0.14948353326E+02  0.51976048135E+01  0.18630163019E+02  0.51100000000E-03 0. -1.
        -11    1    3    3    0    0 -0.10085462752E+02  0.59755614251E+01  0.25022358085E+01  0.11986871050E+02  0.51100000000E-03 0.  1.
         12    1    3    3    0    0 -0.11994317691E+02  0.76844468845E+01  0.61741436560E+01  0.15525283594E+02  0.00000000000E+00 0. -1.
</event>
<event>
 7    1  0.1445801E-008  0.4614232E+02  0.7816164E-02  0.1320468E+00
        -11   -1    0    0    0    0  0.00000000000E+00  0.00000000000E+00  0.45593999997E+02  0.45594000000E+02  0.51100000000E-03 0.  1.
         11   -1    0    0    0    0 -0.00000000000E+00 -0.00000000000E+00 -0.45593999997E+02  0.45594000000E+02  0.51100000000E-03 0. -1.
    9900012    2    1    2    0    0 -0.15645872071E+02  0.72089377348E+01  0.41621526887E+02  0.46142316561E+02  0.99999890540E+01 0.  0.
         12    1    1    2    0    0  0.15645872071E+02 -0.72089377348E+01 -0.41621526887E+02  0.45045683439E+02  0.00000000000E+00 0. -1.
         11    1    3    3    0    0 -0.43604714771E+00  0.23251545783E+00  0.11132085996E+02  0.11143048929E+02  0.51100000000E-03 0. -1.
        -11    1    3    3    0    0 -0.13601869471E+02  0.70130364079E+01  0.29079123928E+02  0.32860142748E+02  0.51100000000E-03 0.  1.
        -12    1    3    3    0    0 -0.16079554524E+01 -0.36614130870E-01  0.14103169632E+01  0.21391248837E+01  0.00000000000E+00 0.  1.
</event>
<event>
 7    1  0.1445801E-008  0.4614232E+02  0.7816164E-02  0.1320468E+00
        -11   -1    0    0    0    0  0.00000000000E+00  0.00000000000E+00  0.45593999997E+02  0.45594000000E+02  0.51100000000E-03 0.  1.
         11   -1    0    0    0    0 -0.00000000000E+00 -0.00000000000E+00 -0.45593999997E+02  0.45594000000E+02  0.51100000000E-03 0. -1.
    9900012    2    1    2    0    0  0.89509007938E+00 -0.12029052159E+02  0.43400623539E+02  0.46142318679E+02  0.10000008369E+02 0.  0.
         12    1    1    2    0    0 -0.89509007938E+00  0.12029052159E+02 -0.43400623539E+02  0.45045681321E+02  0.00000000000E+00 0. -1.
         11    1    3    3    0    0 -0.78202407288E+00 -0.78275357674E+01  0.21913202592E+02  0.23282403783E+02  0.51100000000E-03 0.  1.
        -11    1    3    3    0    0  0.40289699112E+01 -0.35275537831E+01  0.14681509341E+02  0.15627634211E+02  0.51100000000E-03 0. -1.
         12    1    3    3    0    0 -0.23518557589E+01 -0.67396260861E+00  0.68059116060E+01  0.72322806843E+01  0.00000000000E+00 0. -1.
</event>
<event>
 7    1  0.1445801E-008  0.4614232E+02  0.7816164E-02  0.1320468E+00
        -11   -1    0    0    0    0  0.00000000000E+00  0.00000000000E+00  0.45593999997E+02  0.45594000000E+02  0.51100000000E-03 0. -1.
         11   -1    0    0    0    0 -0.00000000000E+00 -0.00000000000E+00 -0.45593999997E+02  0.45594000000E+02  0.51100000000E-03 0.  1.
    9900012    2    1    2    0    0  0.10547539875E+02 -0.33490265390E+02 -0.28218172466E+02  0.46142315072E+02  0.99999754824E+01 0.  0.
         12    1    1    2    0    0 -0.10547539875E+02  0.33490265390E+02  0.28218172466E+02  0.45045684928E+02  0.00000000000E+00 0. -1.
         11    1    3    3    0    0  0.44727763569E+01 -0.48583852895E+01 -0.74516140536E+01  0.99567157349E+01  0.51100000000E-03 0. -1.
        -11    1    3    3    0    0  0.51011338045E+01 -0.21990902786E+02 -0.13545237705E+02  0.26326694365E+02  0.51100000000E-03 0.  1.
        -12    1    3    3    0    0  0.97362971357E+00 -0.66409773145E+01 -0.72213207070E+01  0.98589049729E+01  0.00000000000E+00 0.  1.
</event>
<event>
 7    1  0.1445801E-008  0.4614232E+02  0.7816164E-02  0.1320468E+00
        -11   -1    0    0    0    0  0.00000000000E+00  0.00000000000E+00  0.45593999997E+02  0.45594000000E+02  0.51100000000E-03 0. -1.
         11   -1    0    0    0    0 -0.00000000000E+00 -0.00000000000E+00 -0.45593999997E+02  0.45594000000E+02  0.51100000000E-03 0.  1.
    9900012    2    1    2    0    0 -0.23569159343E+02  0.34717374569E+02  0.16380233637E+02  0.46142318486E+02  0.10000006611E+02 0.  0.
         12    1    1    2    0    0  0.23569159343E+02 -0.34717374569E+02 -0.16380233637E+02  0.45045681514E+02  0.00000000000E+00 0. -1.
         11    1    3    3    0    0 -0.81139630542E+00  0.57553311248E+01  0.40562803308E+01  0.70877084240E+01  0.51100000000E-03 0. -1.
        -11    1    3    3    0    0 -0.97464151204E+01  0.14324429210E+02  0.40426548270E+01  0.17791147748E+02  0.51100000000E-03 0.  1.
         12    1    3    3    0    0 -0.13011347917E+02  0.14637614234E+02  0.82812984789E+01  0.21263462314E+02  0.00000000000E+00 0. -1.
</event>
<event>
 7    1  0.1445801E-008  0.4614232E+02  0.7816164E-02  0.1320468E+00
        -11   -1    0    0    0    0  0.00000000000E+00  0.00000000000E+00  0.45593999997E+02  0.45594000000E+02  0.51100000000E-03 0.  1.
         11   -1    0    0    0    0 -0.00000000000E+00 -0.00000000000E+00 -0.45593999997E+02  0.45594000000E+02  0.51100000000E-03 0. -1.
    9900012    2    1    2    0    0 -0.26160553355E+02 -0.33833774418E+02  0.14142658929E+02  0.46142316025E+02  0.99999841643E+01 0.  0.
         12    1    1    2    0    0  0.26160553355E+02  0.33833774418E+02 -0.14142658929E+02  0.45045683975E+02  0.00000000000E+00 0. -1.
         11    1    3    3    0    0 -0.57451765927E+01 -0.48122523865E+01 -0.80871115571E+00  0.75378273466E+01  0.51100000000E-03 0. -1.
        -11    1    3    3    0    0 -0.32414906591E+01 -0.63960385172E+01  0.34803579327E+01  0.79705371216E+01  0.51100000000E-03 0.  1.
         12    1    3    3    0    0 -0.17173886103E+02 -0.22625483515E+02  0.11471012152E+02  0.30633951556E+02  0.00000000000E+00 0. -1.
</event>
<event>
 7    1  0.1445801E-008  0.4614232E+02  0.7816164E-02  0.1320468E+00
        -11   -1    0    0    0    0  0.00000000000E+00  0.00000000000E+00  0.45593999997E+02  0.45594000000E+02  0.51100000000E-03 0. -1.
         11   -1    0    0    0    0 -0.00000000000E+00 -0.00000000000E+00 -0.45593999997E+02  0.45594000000E+02  0.51100000000E-03 0.  1.
    9900012    2    1    2    0    0 -0.40265097495E+01  0.28037409510E+02 -0.35025767339E+02  0.46142317737E+02  0.99999997839E+01 0.  0.
         12    1    1    2    0    0  0.40265097495E+01 -0.28037409510E+02  0.35025767339E+02  0.45045682263E+02  0.00000000000E+00 0. -1.
         11    1    3    3    0    0 -0.22528175885E+01  0.41659236927E+01 -0.32665300805E+01  0.57532883057E+01  0.51100000000E-03 0. -1.
        -11    1    3    3    0    0 -0.10621975916E+00  0.22096840108E+02 -0.30453991631E+02  0.37626150905E+02  0.51100000000E-03 0.  1.
        -12    1    3    3    0    0 -0.16674724019E+01  0.17746457093E+01 -0.13052456276E+01  0.27628785267E+01  0.00000000000E+00 0.  1.
</event>
<event>
 7    1  0.1445801E-008  0.4614232E+02  0.7816164E-02  0.1320468E+00
        -11   -1    0    0    0    0  0.00000000000E+00  0.00000000000E+00  0.45593999997E+02  0.45594000000E+02  0.51100000000E-03 0.  1.
         11   -1    0    0    0    0 -0.00000000000E+00 -0.00000000000E+00 -0.45593999997E+02  0.45594000000E+02  0.51100000000E-03 0. -1.
    9900012    2    1    2    0    0  0.29898113972E+02  0.10762547477E+02  0.31927790095E+02  0.46142318435E+02  0.10000006146E+02 0.  0.
         12    1    1    2    0    0 -0.29898113972E+02 -0.10762547477E+02 -0.31927790095E+02  0.45045681565E+02  0.00000000000E+00 0. -1.
         11    1    3    3    0    0  0.19817079845E+02  0.56019932913E+01  0.14310260044E+02  0.25077530285E+02  0.51100000000E-03 0. -1.
        -11    1    3    3    0    0  0.65657741346E+01  0.41154049507E+01  0.10404970366E+02  0.12973409594E+02  0.51100000000E-03 0.  1.
         12    1    3    3    0    0  0.35152599932E+01  0.10451492352E+01  0.72125596845E+01  0.80913785566E+01  0.00000000000E+00 0. -1.
</event>
<event>
 7    1  0.1445801E-008  0.4614232E+02  0.7816164E-02  0.1320468E+00
        -11   -1    0    0    0    0  0.00000000000E+00  0.00000000000E+00  0.45593999997E+02  0.45594000000E+02  0.51100000000E-03 0.  1.
         11   -1    0    0    0    0 -0.00000000000E+00 -0.00000000000E+00 -0.45593999997E+02  0.45594000000E+02  0.51100000000E-03 0. -1.
    9900012    2    1    2    0    0  0.24499773272E+02 -0.12823958379E+02  0.35558693983E+02  0.46142317447E+02  0.99999971341E+01 0.  0.
         12    1    1    2    0    0 -0.24499773272E+02  0.12823958379E+02 -0.35558693983E+02  0.45045682553E+02  0.00000000000E+00 0. -1.
         11    1    3    3    0    0  0.60772147668E+01 -0.44010784835E+01  0.16864453021E+02  0.18458380403E+02  0.51100000000E-03 0.  1.
        -11    1    3    3    0    0  0.63561312517E+01 -0.16427863376E+01  0.64790017818E+01  0.92236985960E+01  0.51100000000E-03 0. -1.
         12    1    3    3    0    0  0.12066427254E+02 -0.67800935580E+01  0.12215239180E+02  0.18460238448E+02  0.00000000000E+00 0. -1.
</event>
<event>
 7    1  0.1445801E-008  0.4614232E+02  0.7816164E-02  0.1320468E+00
        -11   -1    0    0    0    0  0.00000000000E+00  0.00000000000E+00  0.45593999997E+02  0.45594000000E+02  0.51100000000E-03 0.  1.
         11   -1    0    0    0    0 -0.00000000000E+00 -0.00000000000E+00 -0.45593999997E+02  0.45594000000E+02  0.51100000000E-03 0. -1.
    9900012    2    1    2    0    0  0.15396273444E+02 -0.34598759109E+02  0.24392500580E+02  0.46142318160E+02  0.10000003638E+02 0.  0.
         12    1    1    2    0    0 -0.15396273444E+02  0.34598759109E+02 -0.24392500580E+02  0.45045681840E+02  0.00000000000E+00 0. -1.
         11    1    3    3    0    0  0.86231647270E+01 -0.14198428720E+02  0.13132921365E+02  0.21176117960E+02  0.51100000000E-03 0. -1.
        -11    1    3    3    0    0  0.77975804180E+01 -0.18495342577E+02  0.10632778929E+02  0.22714223417E+02  0.51100000000E-03 0.  1.
         12    1    3    3    0    0 -0.10244717014E+01 -0.19049878125E+01  0.62680028624E+00  0.22519767831E+01  0.00000000000E+00 0. -1.
</event>
<event>
 7    1  0.1445801E-008  0.4614232E+02  0.7816164E-02  0.1320468E+00
        -11   -1    0    0    0    0  0.00000000000E+00  0.00000000000E+00  0.45593999997E+02  0.45594000000E+02  0.51100000000E-03 0.  1.
         11   -1    0    0    0    0 -0.00000000000E+00 -0.00000000000E+00 -0.45593999997E+02  0.45594000000E+02  0.51100000000E-03 0. -1.
    9900012    2    1    2    0    0 -0.36925622989E+02  0.23178339990E+01  0.25695126889E+02  0.46142317261E+02  0.99999954380E+01 0.  0.
         12    1    1    2    0    0  0.36925622989E+02 -0.23178339990E+01 -0.25695126889E+02  0.45045682739E+02  0.00000000000E+00 0. -1.
         11    1    3    3    0    0 -0.15581358706E+01  0.22686730153E+00 -0.27622843409E+00  0.15986114514E+01  0.51100000000E-03 0. -1.
        -11    1    3    3    0    0 -0.31984648140E+02  0.41088375525E+01  0.23301857438E+02  0.39785384540E+02  0.51100000000E-03 0.  1.
        -12    1    3    3    0    0 -0.33828389783E+01 -0.20178708551E+01  0.26694978850E+01  0.47583212690E+01  0.00000000000E+00 0.  1.
</event>
<event>
 7    1  0.1445801E-008  0.4614232E+02  0.7816164E-02  0.1320468E+00
        -11   -1    0    0    0    0  0.00000000000E+00  0.00000000000E+00  0.45593999997E+02  0.45594000000E+02  0.51100000000E-03 0.  1.
         11   -1    0    0    0    0 -0.00000000000E+00 -0.00000000000E+00 -0.45593999997E+02  0.45594000000E+02  0.51100000000E-03 0. -1.
    9900012    2    1    2    0    0  0.35646777974E+02  0.27516906422E+02  0.11136488605E+01  0.46142321708E+02  0.10000035993E+02 0.  0.
         12    1    1    2    0    0 -0.35646777974E+02 -0.27516906422E+02 -0.11136488605E+01  0.45045678292E+02  0.00000000000E+00 0. -1.
         11    1    3    3    0    0  0.55940166845E-01  0.26495989355E+01  0.16803722455E+00  0.26555113615E+01  0.51100000000E-03 0. -1.
        -11    1    3    3    0    0  0.67209275279E+01  0.50124714753E+01 -0.67195038676E+00  0.84111387285E+01  0.51100000000E-03 0.  1.
         12    1    3    3    0    0  0.28869910280E+02  0.19854836011E+02  0.16175620227E+01  0.35075671618E+02  0.00000000000E+00 0. -1.
</event>
<event>
 7    1  0.1445801E-008  0.4614232E+02  0.7816164E-02  0.1320468E+00
        -11   -1    0    0    0    0  0.00000000000E+00  0.00000000000E+00  0.45593999997E+02  0.45594000000E+02  0.51100000000E-03 0.  1.
         11   -1    0    0    0    0 -0.00000000000E+00 -0.00000000000E+00 -0.45593999997E+02  0.45594000000E+02  0.51100000000E-03 0. -1.
    9900012    2    1    2    0    0 -0.17300310530E+02 -0.14361609528E+02  0.39032766624E+02  0.46142318265E+02  0.10000004591E+02 0.  0.
         12    1    1    2    0    0  0.17300310530E+02  0.14361609528E+02 -0.39032766624E+02  0.45045681735E+02  0.00000000000E+00 0. -1.
         11    1    3    3    0    0 -0.18397492148E+01 -0.43183850617E+00  0.62970136907E+00  0.19919050540E+01  0.51100000000E-03 0. -1.
        -11    1    3    3    0    0 -0.52890781978E+01 -0.90157110214E+01  0.19676893785E+02  0.22280878410E+02  0.51100000000E-03 0.  1.
        -12    1    3    3    0    0 -0.10171483117E+02 -0.49140599999E+01  0.18726171470E+02  0.21869534801E+02  0.00000000000E+00 0.  1.
</event>
<event>
 7    1  0.1445801E-008  0.4614232E+02  0.7816164E-02  0.1320468E+00
        -11   -1    0    0    0    0  0.00000000000E+00  0.00000000000E+00  0.45593999997E+02  0.45594000000E+02  0.51100000000E-03 0. -1.
         11   -1    0    0    0    0 -0.00000000000E+00 -0.00000000000E+00 -0.45593999997E+02  0.45594000000E+02  0.51100000000E-03 0.  1.
    9900012    2    1    2    0    0  0.63647697580E+01 -0.44409018050E+02 -0.40549050652E+01  0.46142318372E+02  0.10000005570E+02 0.  0.
         12    1    1    2    0    0 -0.63647697580E+01  0.44409018050E+02  0.40549050652E+01  0.45045681628E+02  0.00000000000E+00 0. -1.
         11    1    3    3    0    0  0.25319982826E+00 -0.90551654241E+00 -0.85030593857E+00  0.12677108550E+01  0.51100000000E-03 0. -1.
        -11    1    3    3    0    0  0.15808921134E+01 -0.18726962209E+02  0.27479337662E+01  0.18993406059E+02  0.51100000000E-03 0.  1.
        -12    1    3    3    0    0  0.45306778163E+01 -0.24776539298E+02 -0.59525328929E+01  0.25881201458E+02  0.00000000000E+00 0.  1.
</event>
<event>
 7    1  0.1445801E-008  0.4614232E+02  0.7816164E-02  0.1320468E+00
        -11   -1    0    0    0    0  0.00000000000E+00  0.00000000000E+00  0.45593999997E+02  0.45594000000E+02  0.51100000000E-03 0. -1.
         11   -1    0    0    0    0 -0.00000000000E+00 -0.00000000000E+00 -0.45593999997E+02  0.45594000000E+02  0.51100000000E-03 0.  1.
    9900012    2    1    2    0    0  0.32419448350E+02  0.23627557143E+02 -0.20489791091E+02  0.46142316224E+02  0.99999859859E+01 0.  0.
         12    1    1    2    0    0 -0.32419448350E+02 -0.23627557143E+02  0.20489791091E+02  0.45045683776E+02  0.00000000000E+00 0. -1.
         11    1    3    3    0    0  0.25424101659E+01 -0.47959257754E+00 -0.96639547669E+00  0.27618434008E+01  0.51100000000E-03 0. -1.
        -11    1    3    3    0    0  0.20954801768E+02  0.14860518527E+02 -0.15058533517E+02  0.29777477395E+02  0.51100000000E-03 0.  1.
        -12    1    3    3    0    0  0.89222364161E+01  0.92466311933E+01 -0.44648620969E+01  0.13602995429E+02  0.00000000000E+00 0.  1.
</event>
<event>
 7    1  0.1445801E-008  0.4614232E+02  0.7816164E-02  0.1320468E+00
        -11   -1    0    0    0    0  0.00000000000E+00  0.00000000000E+00  0.45593999997E+02  0.45594000000E+02  0.51100000000E-03 0. -1.
         11   -1    0    0    0    0 -0.00000000000E+00 -0.00000000000E+00 -0.45593999997E+02  0.45594000000E+02  0.51100000000E-03 0.  1.
    9900012    2    1    2    0    0 -0.20970643634E+02 -0.39224056841E+02 -0.71287465858E+01  0.46142316995E+02  0.99999930185E+01 0.  0.
         12    1    1    2    0    0  0.20970643634E+02  0.39224056841E+02  0.71287465858E+01  0.45045683005E+02  0.00000000000E+00 0. -1.
         11    1    3    3    0    0 -0.69251264429E+01 -0.20166458875E+02 -0.21047096545E+01  0.21425994558E+02  0.51100000000E-03 0. -1.
        -11    1    3    3    0    0 -0.77583956087E+01 -0.81621083845E+01 -0.25705939109E+00  0.11264048805E+02  0.51100000000E-03 0.  1.
         12    1    3    3    0    0 -0.62871215820E+01 -0.10895489582E+02 -0.47669775402E+01  0.13452273632E+02  0.00000000000E+00 0. -1.
</event>
<event>
 7    1  0.1445801E-008  0.4614232E+02  0.7816164E-02  0.1320468E+00
        -11   -1    0    0    0    0  0.00000000000E+00  0.00000000000E+00  0.45593999997E+02  0.45594000000E+02  0.51100000000E-03 0.  1.
         11   -1    0    0    0    0 -0.00000000000E+00 -0.00000000000E+00 -0.45593999997E+02  0.45594000000E+02  0.51100000000E-03 0. -1.
    9900012    2    1    2    0    0 -0.37742037924E+02 -0.18209068086E+02  0.16525189843E+02  0.46142317781E+02  0.10000000185E+02 0.  0.
         12    1    1    2    0    0  0.37742037924E+02  0.18209068086E+02 -0.16525189843E+02  0.45045682219E+02  0.00000000000E+00 0. -1.
         11    1    3    3    0    0 -0.32636049016E+02 -0.14315287366E+02  0.13435291475E+02  0.38086036877E+02  0.51100000000E-03 0. -1.
        -11    1    3    3    0    0 -0.20941675186E+01 -0.34628571370E+01  0.53248769260E+00  0.40817227431E+01  0.51100000000E-03 0.  1.
         12    1    3    3    0    0 -0.30118213896E+01 -0.43092358322E+00  0.25574106751E+01  0.39745581614E+01  0.00000000000E+00 0. -1.
</event>
<event>
 7    1  0.1445801E-008  0.4614232E+02  0.7816164E-02  0.1320468E+00
        -11   -1    0    0    0    0  0.00000000000E+00  0.00000000000E+00  0.45593999997E+02  0.45594000000E+02  0.51100000000E-03 0. -1.
         11   -1    0    0    0    0 -0.00000000000E+00 -0.00000000000E+00 -0.45593999997E+02  0.45594000000E+02  0.51100000000E-03 0.  1.
    9900012    2    1    2    0    0  0.22202230138E+01 -0.40014180886E+02 -0.20568164900E+02  0.46142317970E+02  0.10000001902E+02 0.  0.
         12    1    1    2    0    0 -0.22202230138E+01  0.40014180886E+02  0.20568164900E+02  0.45045682030E+02  0.00000000000E+00 0. -1.
         11    1    3    3    0    0 -0.79844383495E+00 -0.16647762117E+02 -0.49578045399E+01  0.17388654985E+02  0.51100000000E-03 0. -1.
        -11    1    3    3    0    0  0.41717437884E+01 -0.13970075129E+02 -0.10733198829E+02  0.18104364190E+02  0.51100000000E-03 0.  1.
        -12    1    3    3    0    0 -0.11530769396E+01 -0.93963436401E+01 -0.48771615307E+01  0.10649298795E+02  0.00000000000E+00 0.  1.
</event>
<event>
 7    1  0.1445801E-008  0.4614232E+02  0.7816164E-02  0.1320468E+00
        -11   -1    0    0    0    0  0.00000000000E+00  0.00000000000E+00  0.45593999997E+02  0.45594000000E+02  0.51100000000E-03 0. -1.
         11   -1    0    0    0    0 -0.00000000000E+00 -0.00000000000E+00 -0.45593999997E+02  0.45594000000E+02  0.51100000000E-03 0.  1.
    9900012    2    1    2    0    0  0.31220283619E+02 -0.14545710309E+02 -0.29031528616E+02  0.46142318171E+02  0.10000003736E+02 0.  0.
         12    1    1    2    0    0 -0.31220283619E+02  0.14545710309E+02  0.29031528616E+02  0.45045681829E+02  0.00000000000E+00 0. -1.
         11    1    3    3    0    0  0.15723916694E+02 -0.77340235348E+01 -0.84018564560E+01  0.19433164138E+02  0.51100000000E-03 0. -1.
        -11    1    3    3    0    0  0.53800944343E+01 -0.29531260431E+01 -0.74235985516E+01  0.96320395174E+01  0.51100000000E-03 0.  1.
         12    1    3    3    0    0  0.10116272491E+02 -0.38585607316E+01 -0.13206073608E+02  0.17077114516E+02  0.00000000000E+00 0. -1.
</event>
<event>
 7    1  0.1445801E-008  0.4614232E+02  0.7816164E-02  0.1320468E+00
        -11   -1    0    0    0    0  0.00000000000E+00  0.00000000000E+00  0.45593999997E+02  0.45594000000E+02  0.51100000000E-03 0.  1.
         11   -1    0    0    0    0 -0.00000000000E+00 -0.00000000000E+00 -0.45593999997E+02  0.45594000000E+02  0.51100000000E-03 0. -1.
    9900012    2    1    2    0    0  0.13379720388E+02 -0.24984399456E+02  0.35012517052E+02  0.46142317808E+02  0.10000000424E+02 0.  0.
         12    1    1    2    0    0 -0.13379720388E+02  0.24984399456E+02 -0.35012517052E+02  0.45045682192E+02  0.00000000000E+00 0. -1.
         11    1    3    3    0    0  0.11887889788E+02 -0.19029190474E+02  0.27525358796E+02  0.35511651479E+02  0.51100000000E-03 0.  1.
        -11    1    3    3    0    0  0.16947312679E+01 -0.26920511740E+01  0.64648470875E+01  0.72051024781E+01  0.51100000000E-03 0. -1.
         12    1    3    3    0    0 -0.20290066795E+00 -0.32631578086E+01  0.10223111690E+01  0.34255638501E+01  0.00000000000E+00 0. -1.
</event>
<event>
 7    1  0.1445801E-008  0.4614232E+02  0.7816164E-02  0.1320468E+00
        -11   -1    0    0    0    0  0.00000000000E+00  0.00000000000E+00  0.45593999997E+02  0.45594000000E+02  0.51100000000E-03 0.  1.
         11   -1    0    0    0    0 -0.00000000000E+00 -0.00000000000E+00 -0.45593999997E+02  0.45594000000E+02  0.51100000000E-03 0. -1.
    9900012    2    1    2    0    0 -0.21744074732E+02  0.34840679158E+02  0.18505022100E+02  0.46142317043E+02  0.99999934490E+01 0.  0.
         12    1    1    2    0    0  0.21744074732E+02 -0.34840679158E+02 -0.18505022100E+02  0.45045682957E+02  0.00000000000E+00 0. -1.
         11    1    3    3    0    0 -0.32955450558E+01  0.18115996498E+01  0.27956329184E+01  0.46859443212E+01  0.51100000000E-03 0. -1.
        -11    1    3    3    0    0 -0.14563120081E+02  0.19955032644E+02  0.94549837420E+01  0.26451550279E+02  0.51100000000E-03 0.  1.
         12    1    3    3    0    0 -0.38854095949E+01  0.13074046864E+02  0.62544054401E+01  0.15004822443E+02  0.00000000000E+00 0. -1.
</event>
<event>
 7    1  0.1445801E-008  0.4614232E+02  0.7816164E-02  0.1320468E+00
        -11   -1    0    0    0    0  0.00000000000E+00  0.00000000000E+00  0.45593999997E+02  0.45594000000E+02  0.51100000000E-03 0.  1.
         11   -1    0    0    0    0 -0.00000000000E+00 -0.00000000000E+00 -0.45593999997E+02  0.45594000000E+02  0.51100000000E-03 0. -1.
    9900012    2    1    2    0    0  0.39966150899E+02 -0.20272500085E+02  0.45657368514E+01  0.46142318405E+02  0.10000005871E+02 0.  0.
         12    1    1    2    0    0 -0.39966150899E+02  0.20272500085E+02 -0.45657368514E+01  0.45045681595E+02  0.00000000000E+00 0. -1.
         11    1    3    3    0    0  0.26301931349E+02 -0.88953658591E+01  0.18940635295E+01  0.27829958738E+02  0.51100000000E-03 0. -1.
        -11    1    3    3    0    0  0.42730256389E+01 -0.25674769417E+01  0.21397344841E+01  0.54248640426E+01  0.51100000000E-03 0.  1.
         12    1    3    3    0    0  0.93911939109E+01 -0.88096572843E+01  0.53193883786E+00  0.12887495624E+02  0.00000000000E+00 0. -1.
</event>
<event>
 7    1  0.1445801E-008  0.4614232E+02  0.7816164E-02  0.1320468E+00
        -11   -1    0    0    0    0  0.00000000000E+00  0.00000000000E+00  0.45593999997E+02  0.45594000000E+02  0.51100000000E-03 0.  1.
         11   -1    0    0    0    0 -0.00000000000E+00 -0.00000000000E+00 -0.45593999997E+02  0.45594000000E+02  0.51100000000E-03 0. -1.
    9900012    2    1    2    0    0  0.27151649032E+01  0.40237323869E+02  0.20067363331E+02  0.46142318480E+02  0.10000006556E+02 0.  0.
         12    1    1    2    0    0 -0.27151649032E+01 -0.40237323869E+02 -0.20067363331E+02  0.45045681520E+02  0.00000000000E+00 0. -1.
         11    1    3    3    0    0 -0.10860930891E+01  0.27355249174E+01  0.25579168006E+01  0.38994401382E+01  0.51100000000E-03 0. -1.
        -11    1    3    3    0    0 -0.26905529727E+00  0.22825509941E+02  0.13393529301E+02  0.26466260072E+02  0.51100000000E-03 0.  1.
        -12    1    3    3    0    0  0.40703132896E+01  0.14676289010E+02  0.41159172291E+01  0.15776618269E+02  0.00000000000E+00 0.  1.
</event>
<event>
 7    1  0.1445801E-008  0.4614232E+02  0.7816164E-02  0.1320468E+00
        -11   -1    0    0    0    0  0.00000000000E+00  0.00000000000E+00  0.45593999997E+02  0.45594000000E+02  0.51100000000E-03 0.  1.
         11   -1    0    0    0    0 -0.00000000000E+00 -0.00000000000E+00 -0.45593999997E+02  0.45594000000E+02  0.51100000000E-03 0. -1.
    9900012    2    1    2    0    0  0.23231865709E+02 -0.37953673350E+02  0.69937526345E+01  0.46142317842E+02  0.10000000741E+02 0.  0.
         12    1    1    2    0    0 -0.23231865709E+02  0.37953673350E+02 -0.69937526345E+01  0.45045682158E+02  0.00000000000E+00 0. -1.
         11    1    3    3    0    0  0.34837078028E+01 -0.11676723503E+02  0.22440804620E+00  0.12187389017E+02  0.51100000000E-03 0. -1.
        -11    1    3    3    0    0  0.14909806218E+02 -0.21177803664E+02  0.72904079261E+01  0.26906351248E+02  0.51100000000E-03 0.  1.
         12    1    3    3    0    0  0.48383516890E+01 -0.50991461839E+01 -0.52106333778E+00  0.70485775780E+01  0.00000000000E+00 0. -1.
</event>
<event>
 7    1  0.1445801E-008  0.4614232E+02  0.7816164E-02  0.1320468E+00
        -11   -1    0    0    0    0  0.00000000000E+00  0.00000000000E+00  0.45593999997E+02  0.45594000000E+02  0.51100000000E-03 0.  1.
         11   -1    0    0    0    0 -0.00000000000E+00 -0.00000000000E+00 -0.45593999997E+02  0.45594000000E+02  0.51100000000E-03 0. -1.
    9900012    2    1    2    0    0  0.39280558334E+02 -0.15650949581E+02  0.15530578145E+02  0.46142319370E+02  0.10000014675E+02 0.  0.
         12    1    1    2    0    0 -0.39280558334E+02  0.15650949581E+02 -0.15530578145E+02  0.45045680630E+02  0.00000000000E+00 0. -1.
         11    1    3    3    0    0  0.36551264849E+01 -0.11237967890E+01 -0.12307431778E+01  0.40171629136E+01  0.51100000000E-03 0. -1.
        -11    1    3    3    0    0  0.23431520531E+02 -0.93043221893E+01  0.90809527375E+01  0.26796833184E+02  0.51100000000E-03 0.  1.
         12    1    3    3    0    0  0.12193911319E+02 -0.52228306027E+01  0.76803685857E+01  0.15328323273E+02  0.00000000000E+00 0. -1.
</event>
<event>
 7    1  0.1704100E-008  0.4614232E+02  0.7816164E-02  0.1320468E+00
        -11   -1    0    0    0    0  0.00000000000E+00  0.00000000000E+00  0.45593999997E+02  0.45594000000E+02  0.51100000000E-03 0. -1.
         11   -1    0    0    0    0 -0.00000000000E+00 -0.00000000000E+00 -0.45593999997E+02  0.45594000000E+02  0.51100000000E-03 0.  1.
    9900012    2    1    2    0    0  0.32819647758E+02  0.20720878282E+02  0.22861089057E+02  0.46142317980E+02  0.10000001999E+02 0.  0.
         12    1    1    2    0    0 -0.32819647758E+02 -0.20720878282E+02 -0.22861089057E+02  0.45045682020E+02  0.00000000000E+00 0. -1.
         11    1    3    3    0    0 -0.47776476630E+00 -0.74395393224E-01 -0.12613442222E+00  0.49970391237E+00  0.51100000000E-03 0. -1.
        -11    1    3    3    0    0  0.13817153384E+02  0.10445257229E+02  0.11269812670E+02  0.20664602684E+02  0.51100000000E-03 0.  1.
         12    1    3    3    0    0  0.19480259141E+02  0.10350016446E+02  0.11717410809E+02  0.24978011384E+02  0.00000000000E+00 0. -1.
</event>
<event>
 7    1  0.1794451E-008  0.4614232E+02  0.7816164E-02  0.1320468E+00
        -11   -1    0    0    0    0  0.00000000000E+00  0.00000000000E+00  0.45593999997E+02  0.45594000000E+02  0.51100000000E-03 0. -1.
         11   -1    0    0    0    0 -0.00000000000E+00 -0.00000000000E+00 -0.45593999997E+02  0.45594000000E+02  0.51100000000E-03 0.  1.
    9900012    2    1    2    0    0  0.44846319648E+02  0.12132325858E+01 -0.40557340472E+01  0.46142319875E+02  0.10000019272E+02 0.  0.
         12    1    1    2    0    0 -0.44846319648E+02 -0.12132325858E+01  0.40557340472E+01  0.45045680125E+02  0.00000000000E+00 0. -1.
         11    1    3    3    0    0  0.37119266458E+01 -0.24850206627E+01  0.22446606651E+00  0.44725957110E+01  0.51100000000E-03 0. -1.
        -11    1    3    3    0    0  0.18141320258E+02  0.22538360430E+01 -0.25647551051E+00  0.18282588918E+02  0.51100000000E-03 0.  1.
         12    1    3    3    0    0  0.22993072744E+02  0.14444172055E+01 -0.40237246032E+01  0.23387135245E+02  0.00000000000E+00 0. -1.
</event>
<event>
 7    1  0.1445801E-008  0.4614232E+02  0.7816164E-02  0.1320468E+00
        -11   -1    0    0    0    0  0.00000000000E+00  0.00000000000E+00  0.45593999997E+02  0.45594000000E+02  0.51100000000E-03 0.  1.
         11   -1    0    0    0    0 -0.00000000000E+00 -0.00000000000E+00 -0.45593999997E+02  0.45594000000E+02  0.51100000000E-03 0. -1.
    9900012    2    1    2    0    0 -0.44266316583E+02  0.46221236634E+01  0.69456965539E+01  0.46142317503E+02  0.99999976467E+01 0.  0.
         12    1    1    2    0    0  0.44266316583E+02 -0.46221236634E+01 -0.69456965539E+01  0.45045682497E+02  0.00000000000E+00 0. -1.
         11    1    3    3    0    0 -0.31781934592E+01 -0.10720825139E+01 -0.13943547765E+01  0.36324234451E+01  0.51100000000E-03 0. -1.
        -11    1    3    3    0    0 -0.11129340933E+02  0.33856917826E+01  0.20910106673E+01  0.11819368186E+02  0.51100000000E-03 0.  1.
         12    1    3    3    0    0 -0.29958782191E+02  0.23085143948E+01  0.62490406631E+01  0.30690525871E+02  0.00000000000E+00 0. -1.
</event>
<event>
 7    1  0.1445801E-008  0.4614232E+02  0.7816164E-02  0.1320468E+00
        -11   -1    0    0    0    0  0.00000000000E+00  0.00000000000E+00  0.45593999997E+02  0.45594000000E+02  0.51100000000E-03 0.  1.
         11   -1    0    0    0    0 -0.00000000000E+00 -0.00000000000E+00 -0.45593999997E+02  0.45594000000E+02  0.51100000000E-03 0. -1.
    9900012    2    1    2    0    0  0.25068663779E+02 -0.21325211332E+02  0.30755665445E+02  0.46142317643E+02  0.99999989242E+01 0.  0.
         12    1    1    2    0    0 -0.25068663779E+02  0.21325211332E+02 -0.30755665445E+02  0.45045682357E+02  0.00000000000E+00 0. -1.
         11    1    3    3    0    0  0.27358599346E+01 -0.61030374748E+01  0.34483406720E+01  0.75248288786E+01  0.51100000000E-03 0. -1.
        -11    1    3    3    0    0  0.15719065599E+02 -0.12752509055E+02  0.19925881218E+02  0.28403454950E+02  0.51100000000E-03 0.  1.
         12    1    3    3    0    0  0.66137382453E+01 -0.24696648024E+01  0.73814435551E+01  0.10214033815E+02  0.00000000000E+00 0. -1.
</event>
<event>
 7    1  0.1445801E-008  0.4614232E+02  0.7816164E-02  0.1320468E+00
        -11   -1    0    0    0    0  0.00000000000E+00  0.00000000000E+00  0.45593999997E+02  0.45594000000E+02  0.51100000000E-03 0.  1.
         11   -1    0    0    0    0 -0.00000000000E+00 -0.00000000000E+00 -0.45593999997E+02  0.45594000000E+02  0.51100000000E-03 0. -1.
    9900012    2    1    2    0    0 -0.30181835272E+01  0.38314471006E+02  0.23494793117E+02  0.46142318477E+02  0.10000006526E+02 0.  0.
         12    1    1    2    0    0  0.30181835272E+01 -0.38314471006E+02 -0.23494793117E+02  0.45045681523E+02  0.00000000000E+00 0. -1.
         11    1    3    3    0    0 -0.32042324775E+00  0.12988402916E+02  0.60438305860E+01  0.14329311560E+02  0.51100000000E-03 0. -1.
        -11    1    3    3    0    0 -0.97404989221E+00  0.23840950422E+02  0.17410285811E+02  0.29537395662E+02  0.51100000000E-03 0.  1.
         12    1    3    3    0    0 -0.17237103873E+01  0.14851176680E+01  0.40676720153E-01  0.22756112547E+01  0.00000000000E+00 0. -1.
</event>
<event>
 7    1  0.1445801E-008  0.4614232E+02  0.7816164E-02  0.1320468E+00
        -11   -1    0    0    0    0  0.00000000000E+00  0.00000000000E+00  0.45593999997E+02  0.45594000000E+02  0.51100000000E-03 0. -1.
         11   -1    0    0    0    0 -0.00000000000E+00 -0.00000000000E+00 -0.45593999997E+02  0.45594000000E+02  0.51100000000E-03 0.  1.
    9900012    2    1    2    0    0 -0.30518784151E+02 -0.27259093294E+02 -0.18832394827E+02  0.46142318207E+02  0.10000004065E+02 0.  0.
         12    1    1    2    0    0  0.30518784151E+02  0.27259093294E+02  0.18832394827E+02  0.45045681793E+02  0.00000000000E+00 0. -1.
         11    1    3    3    0    0 -0.73052149369E+01 -0.74258176585E+01 -0.87791220480E+01  0.13622845421E+02  0.51100000000E-03 0. -1.
        -11    1    3    3    0    0 -0.15025668457E+02 -0.15603553169E+02 -0.78808334649E+01  0.23051011267E+02  0.51100000000E-03 0.  1.
        -12    1    3    3    0    0 -0.81879007575E+01 -0.42297224668E+01 -0.21724393140E+01  0.94684615188E+01  0.00000000000E+00 0.  1.
</event>
<event>
 7    1  0.1445801E-008  0.4614232E+02  0.7816164E-02  0.1320468E+00
        -11   -1    0    0    0    0  0.00000000000E+00  0.00000000000E+00  0.45593999997E+02  0.45594000000E+02  0.51100000000E-03 0.  1.
         11   -1    0    0    0    0 -0.00000000000E+00 -0.00000000000E+00 -0.45593999997E+02  0.45594000000E+02  0.51100000000E-03 0. -1.
    9900012    2    1    2    0    0  0.44447191375E+02 -0.47859456668E+01  0.55367214199E+01  0.46142318951E+02  0.10000010854E+02 0.  0.
         12    1    1    2    0    0 -0.44447191375E+02  0.47859456668E+01 -0.55367214199E+01  0.45045681049E+02  0.00000000000E+00 0. -1.
         11    1    3    3    0    0  0.60106382936E+00 -0.74009835736E+00  0.91512331656E+00  0.13215423758E+01  0.51100000000E-03 0. -1.
        -11    1    3    3    0    0  0.22335376851E+02 -0.37219992609E+01 -0.71833037220E+00  0.22654764098E+02  0.51100000000E-03 0.  1.
        -12    1    3    3    0    0  0.21510750695E+02 -0.32384804857E+00  0.53399284756E+01  0.22166012477E+02  0.00000000000E+00 0.  1.
</event>
<event>
 7    1  0.1445801E-008  0.4614232E+02  0.7816164E-02  0.1320468E+00
        -11   -1    0    0    0    0  0.00000000000E+00  0.00000000000E+00  0.45593999997E+02  0.45594000000E+02  0.51100000000E-03 0. -1.
         11   -1    0    0    0    0 -0.00000000000E+00 -0.00000000000E+00 -0.45593999997E+02  0.45594000000E+02  0.51100000000E-03 0.  1.
    9900012    2    1    2    0    0 -0.18869947744E+02  0.21029111585E+01 -0.40848700199E+02  0.46142317952E+02  0.10000001743E+02 0.  0.
         12    1    1    2    0    0  0.18869947744E+02 -0.21029111585E+01  0.40848700199E+02  0.45045682048E+02  0.00000000000E+00 0. -1.
         11    1    3    3    0    0 -0.15143728930E+01 -0.13434399362E+01 -0.15783123707E+01  0.25669488351E+01  0.51100000000E-03 0. -1.
        -11    1    3    3    0    0 -0.98999639270E+01  0.16061463468E+01 -0.14415610605E+02  0.17561287573E+02  0.51100000000E-03 0.  1.
         12    1    3    3    0    0 -0.74556109235E+01  0.18402047479E+01 -0.24854777223E+02  0.26014081544E+02  0.00000000000E+00 0. -1.
</event>
<event>
 7    1  0.1445801E-008  0.4614232E+02  0.7816164E-02  0.1320468E+00
        -11   -1    0    0    0    0  0.00000000000E+00  0.00000000000E+00  0.45593999997E+02  0.45594000000E+02  0.51100000000E-03 0.  1.
         11   -1    0    0    0    0 -0.00000000000E+00 -0.00000000000E+00 -0.45593999997E+02  0.45594000000E+02  0.51100000000E-03 0. -1.
    9900012    2    1    2    0    0  0.28825997548E+02  0.19563888649E+02  0.28555727671E+02  0.46142318114E+02  0.10000003221E+02 0.  0.
         12    1    1    2    0    0 -0.28825997548E+02 -0.19563888649E+02 -0.28555727671E+02  0.45045681886E+02  0.00000000000E+00 0. -1.
         11    1    3    3    0    0  0.59969419434E+00  0.15385911755E+01 -0.20293477276E+00  0.16637544035E+01  0.51100000000E-03 0. -1.
        -11    1    3    3    0    0  0.11515684352E+02  0.67776338349E+01  0.14979782283E+02  0.20073394930E+02  0.51100000000E-03 0.  1.
        -12    1    3    3    0    0  0.16710619002E+02  0.11247663639E+02  0.13778880161E+02  0.24405168781E+02  0.00000000000E+00 0.  1.
</event>
<event>
 7    1  0.1445801E-008  0.4614233E+02  0.7816164E-02  0.1320468E+00
        -11   -1    0    0    0    0  0.00000000000E+00  0.00000000000E+00  0.45593999997E+02  0.45594000000E+02  0.51100000000E-03 0.  1.
         11   -1    0    0    0    0 -0.00000000000E+00 -0.00000000000E+00 -0.45593999997E+02  0.45594000000E+02  0.51100000000E-03 0. -1.
    9900012    2    1    2    0    0  0.38637084243E+02  0.11944762981E+02  0.19839627414E+02  0.46142329204E+02  0.10000104347E+02 0.  0.
         12    1    1    2    0    0 -0.38637084243E+02 -0.11944762981E+02 -0.19839627414E+02  0.45045670796E+02  0.00000000000E+00 0. -1.
         11    1    3    3    0    0  0.12569752357E+02  0.57093132742E+01  0.84287743334E+01  0.16175264121E+02  0.51100000000E-03 0.  1.
        -11    1    3    3    0    0  0.70931174747E+01  0.47694736207E+01  0.49054028772E+01  0.98551089176E+01  0.51100000000E-03 0. -1.
        -12    1    3    3    0    0  0.18974214412E+02  0.14659760860E+01  0.65054502037E+01  0.20111956165E+02  0.00000000000E+00 0.  1.
</event>
<event>
 7    1  0.1445801E-008  0.4614232E+02  0.7816164E-02  0.1320468E+00
        -11   -1    0    0    0    0  0.00000000000E+00  0.00000000000E+00  0.45593999997E+02  0.45594000000E+02  0.51100000000E-03 0. -1.
         11   -1    0    0    0    0 -0.00000000000E+00 -0.00000000000E+00 -0.45593999997E+02  0.45594000000E+02  0.51100000000E-03 0.  1.
    9900012    2    1    2    0    0 -0.24787004480E+02 -0.14134138617E+02 -0.34856047708E+02  0.46142317328E+02  0.99999960538E+01 0.  0.
         12    1    1    2    0    0  0.24787004480E+02  0.14134138617E+02  0.34856047708E+02  0.45045682672E+02  0.00000000000E+00 0. -1.
         11    1    3    3    0    0 -0.10408084640E+02 -0.81857791716E+01 -0.16128131598E+02  0.20867482733E+02  0.51100000000E-03 0. -1.
        -11    1    3    3    0    0 -0.31689071465E+01  0.13640550396E+01 -0.26203303397E+01  0.43322915419E+01  0.51100000000E-03 0.  1.
        -12    1    3    3    0    0 -0.11210012694E+02 -0.73124144846E+01 -0.16107585771E+02  0.20942543053E+02  0.00000000000E+00 0.  1.
</event>
<event>
 7    1  0.1445801E-008  0.4614232E+02  0.7816164E-02  0.1320468E+00
        -11   -1    0    0    0    0  0.00000000000E+00  0.00000000000E+00  0.45593999997E+02  0.45594000000E+02  0.51100000000E-03 0.  1.
         11   -1    0    0    0    0 -0.00000000000E+00 -0.00000000000E+00 -0.45593999997E+02  0.45594000000E+02  0.51100000000E-03 0. -1.
    9900012    2    1    2    0    0 -0.30083930639E+02 -0.12877874946E+02  0.30955306824E+02  0.46142316895E+02  0.99999921012E+01 0.  0.
         12    1    1    2    0    0  0.30083930639E+02  0.12877874946E+02 -0.30955306824E+02  0.45045683105E+02  0.00000000000E+00 0. -1.
         11    1    3    3    0    0 -0.69499835364E+00  0.67175812546E+00  0.20431994468E+00  0.98794159321E+00  0.51100000000E-03 0. -1.
        -11    1    3    3    0    0 -0.71573007006E+01 -0.54102449849E+00  0.51188539121E+01  0.88160266822E+01  0.51100000000E-03 0.  1.
        -12    1    3    3    0    0 -0.22231631585E+02 -0.13008608573E+02  0.25632132968E+02  0.36338348620E+02  0.00000000000E+00 0.  1.
</event>
<event>
 7    1  0.1445801E-008  0.4614232E+02  0.7816164E-02  0.1320468E+00
        -11   -1    0    0    0    0  0.00000000000E+00  0.00000000000E+00  0.45593999997E+02  0.45594000000E+02  0.51100000000E-03 0.  1.
         11   -1    0    0    0    0 -0.00000000000E+00 -0.00000000000E+00 -0.45593999997E+02  0.45594000000E+02  0.51100000000E-03 0. -1.
    9900012    2    1    2    0    0  0.26369578137E+02 -0.36324809393E+02  0.37771777698E+01  0.46142317627E+02  0.99999987765E+01 0.  0.
         12    1    1    2    0    0 -0.26369578137E+02  0.36324809393E+02 -0.37771777698E+01  0.45045682373E+02  0.00000000000E+00 0. -1.
         11    1    3    3    0    0  0.24786277995E+01 -0.31246357937E+01  0.31652463439E+01  0.50917314629E+01  0.51100000000E-03 0. -1.
        -11    1    3    3    0    0  0.10825270264E+02 -0.12397513339E+02  0.90379472352E+00  0.16483375213E+02  0.51100000000E-03 0.  1.
        -12    1    3    3    0    0  0.13065680073E+02 -0.20802660261E+02 -0.29186329763E+00  0.24567210951E+02  0.00000000000E+00 0.  1.
</event>
<event>
 7    1  0.1445801E-008  0.4614232E+02  0.7816164E-02  0.1320468E+00
        -11   -1    0    0    0    0  0.00000000000E+00  0.00000000000E+00  0.45593999997E+02  0.45594000000E+02  0.51100000000E-03 0.  1.
         11   -1    0    0    0    0 -0.00000000000E+00 -0.00000000000E+00 -0.45593999997E+02  0.45594000000E+02  0.51100000000E-03 0. -1.
    9900012    2    1    2    0    0 -0.78475817724E+01  0.28229647800E+02  0.34214264185E+02  0.46142318428E+02  0.10000006082E+02 0.  0.
         12    1    1    2    0    0  0.78475817724E+01 -0.28229647800E+02 -0.34214264185E+02  0.45045681572E+02  0.00000000000E+00 0. -1.
         11    1    3    3    0    0 -0.25978537958E+01  0.38092956703E+01  0.65270282082E+01  0.79913500324E+01  0.51100000000E-03 0. -1.
        -11    1    3    3    0    0 -0.40060754482E+01  0.24628410658E+02  0.26741427366E+02  0.36574734310E+02  0.51100000000E-03 0.  1.
        -12    1    3    3    0    0 -0.12436525284E+01 -0.20805852919E+00  0.94580861107E+00  0.15762340853E+01  0.00000000000E+00 0.  1.
</event>
<event>
 7    1  0.1445801E-008  0.4614232E+02  0.7816164E-02  0.1320468E+00
        -11   -1    0    0    0    0  0.00000000000E+00  0.00000000000E+00  0.45593999997E+02  0.45594000000E+02  0.51100000000E-03 0. -1.
         11   -1    0    0    0    0 -0.00000000000E+00 -0.00000000000E+00 -0.45593999997E+02  0.45594000000E+02  0.51100000000E-03 0.  1.
    9900012    2    1    2    0    0  0.13290443192E+02 -0.28687796537E+02 -0.32085634948E+02  0.46142317406E+02  0.99999967590E+01 0.  0.
         12    1    1    2    0    0 -0.13290443192E+02  0.28687796537E+02  0.32085634948E+02  0.45045682594E+02  0.00000000000E+00 0. -1.
         11    1    3    3    0    0  0.68349285834E+01 -0.16066983158E+02 -0.11991456323E+02  0.21181577409E+02  0.51100000000E-03 0. -1.
        -11    1    3    3    0    0  0.25194423169E+01 -0.84478604608E+01 -0.14358555990E+02  0.16848800145E+02  0.51100000000E-03 0.  1.
         12    1    3    3    0    0  0.39360722915E+01 -0.41729529184E+01 -0.57356226349E+01  0.81119398514E+01  0.00000000000E+00 0. -1.
</event>
<event>
 7    1  0.1445801E-008  0.4614232E+02  0.7816164E-02  0.1320468E+00
        -11   -1    0    0    0    0  0.00000000000E+00  0.00000000000E+00  0.45593999997E+02  0.45594000000E+02  0.51100000000E-03 0. -1.
         11   -1    0    0    0    0 -0.00000000000E+00 -0.00000000000E+00 -0.45593999997E+02  0.45594000000E+02  0.51100000000E-03 0.  1.
    9900012    2    1    2    0    0 -0.18902017415E+02 -0.80658362964E+01 -0.40084529015E+02  0.46142318255E+02  0.10000004506E+02 0.  0.
         12    1    1    2    0    0  0.18902017415E+02  0.80658362964E+01  0.40084529015E+02  0.45045681745E+02  0.00000000000E+00 0. -1.
         11    1    3    3    0    0 -0.15719194844E+01  0.99710587448E+00 -0.82121953778E+01  0.84205287349E+01  0.51100000000E-03 0. -1.
        -11    1    3    3    0    0 -0.63785613129E+01 -0.60904856826E+01 -0.14509784432E+02  0.16979808738E+02  0.51100000000E-03 0.  1.
        -12    1    3    3    0    0 -0.10951536618E+02 -0.29724564882E+01 -0.17362549205E+02  0.20741980782E+02  0.00000000000E+00 0.  1.
</event>
<event>
 7    1  0.1445801E-008  0.4614232E+02  0.7816164E-02  0.1320468E+00
        -11   -1    0    0    0    0  0.00000000000E+00  0.00000000000E+00  0.45593999997E+02  0.45594000000E+02  0.51100000000E-03 0. -1.
         11   -1    0    0    0    0 -0.00000000000E+00 -0.00000000000E+00 -0.45593999997E+02  0.45594000000E+02  0.51100000000E-03 0.  1.
    9900012    2    1    2    0    0  0.42942015558E+02 -0.59720080124E+01 -0.12224229212E+02  0.46142319189E+02  0.10000013022E+02 0.  0.
         12    1    1    2    0    0 -0.42942015558E+02  0.59720080124E+01  0.12224229212E+02  0.45045680811E+02  0.00000000000E+00 0. -1.
         11    1    3    3    0    0  0.73165997714E+01  0.99992089796E+00  0.20487377919E+00  0.73874520333E+01  0.51100000000E-03 0. -1.
        -11    1    3    3    0    0  0.32490546686E+02 -0.48360644984E+01 -0.11834048927E+02  0.34915152270E+02  0.51100000000E-03 0.  1.
        -12    1    3    3    0    0  0.31348691007E+01 -0.21358644119E+01 -0.59505406421E+00  0.38397148857E+01  0.00000000000E+00 0.  1.
</event>
<event>
 7    1  0.1445801E-008  0.4614232E+02  0.7816164E-02  0.1320468E+00
        -11   -1    0    0    0    0  0.00000000000E+00  0.00000000000E+00  0.45593999997E+02  0.45594000000E+02  0.51100000000E-03 0. -1.
         11   -1    0    0    0    0 -0.00000000000E+00 -0.00000000000E+00 -0.45593999997E+02  0.45594000000E+02  0.51100000000E-03 0.  1.
    9900012    2    1    2    0    0  0.12383054346E+02 -0.34273217488E+02 -0.26478671081E+02  0.46142317697E+02  0.99999994154E+01 0.  0.
         12    1    1    2    0    0 -0.12383054346E+02  0.34273217488E+02  0.26478671081E+02  0.45045682303E+02  0.00000000000E+00 0. -1.
         11    1    3    3    0    0  0.92482453670E+01 -0.30408400330E+02 -0.23789610540E+02  0.39700710610E+02  0.51100000000E-03 0. -1.
        -11    1    3    3    0    0  0.81539721312E+00 -0.28841831242E+01 -0.25232975142E+01  0.39179606322E+01  0.51100000000E-03 0.  1.
         12    1    3    3    0    0  0.23194117659E+01 -0.98063403357E+00 -0.16576302641E+00  0.25236464547E+01  0.00000000000E+00 0. -1.
</event>
<event>
 7    1  0.1445801E-008  0.4614232E+02  0.7816164E-02  0.1320468E+00
        -11   -1    0    0    0    0  0.00000000000E+00  0.00000000000E+00  0.45593999997E+02  0.45594000000E+02  0.51100000000E-03 0.  1.
         11   -1    0    0    0    0 -0.00000000000E+00 -0.00000000000E+00 -0.45593999997E+02  0.45594000000E+02  0.51100000000E-03 0. -1.
    9900012    2    1    2    0    0  0.34727693280E+02 -0.20021035800E+02 -0.20548941023E+02  0.46142317274E+02  0.99999955593E+01 0.  0.
         12    1    1    2    0    0 -0.34727693280E+02  0.20021035800E+02  0.20548941023E+02  0.45045682726E+02  0.00000000000E+00 0. -1.
         11    1    3    3    0    0  0.11744517746E+01 -0.47446928091E+00  0.21989748195E+00  0.12856178410E+01  0.51100000000E-03 0. -1.
        -11    1    3    3    0    0  0.12080479928E+02 -0.51159467666E+01 -0.11275095177E+02  0.17298516645E+02  0.51100000000E-03 0.  1.
        -12    1    3    3    0    0  0.21472761577E+02 -0.14430619752E+02 -0.94937433286E+01  0.27558182788E+02  0.00000000000E+00 0.  1.
</event>
<event>
 7    1  0.1445801E-008  0.4614232E+02  0.7816164E-02  0.1320468E+00
        -11   -1    0    0    0    0  0.00000000000E+00  0.00000000000E+00  0.45593999997E+02  0.45594000000E+02  0.51100000000E-03 0.  1.
         11   -1    0    0    0    0 -0.00000000000E+00 -0.00000000000E+00 -0.45593999997E+02  0.45594000000E+02  0.51100000000E-03 0. -1.
    9900012    2    1    2    0    0 -0.69697105009E+01  0.31081545532E+02  0.31850811295E+02  0.46142317440E+02  0.99999970702E+01 0.  0.
         12    1    1    2    0    0  0.69697105009E+01 -0.31081545532E+02 -0.31850811295E+02  0.45045682560E+02  0.00000000000E+00 0. -1.
         11    1    3    3    0    0 -0.24866395471E+01  0.53226504760E+01  0.11069610089E+02  0.12531969203E+02  0.51100000000E-03 0. -1.
        -11    1    3    3    0    0 -0.30229956244E+01  0.22656932153E+02  0.19122523729E+02  0.29801778322E+02  0.51100000000E-03 0.  1.
        -12    1    3    3    0    0 -0.14600753295E+01  0.31019629031E+01  0.16586774776E+01  0.38085699146E+01  0.00000000000E+00 0.  1.
</event>
<event>
 7    1  0.1445801E-008  0.4614232E+02  0.7816164E-02  0.1320468E+00
        -11   -1    0    0    0    0  0.00000000000E+00  0.00000000000E+00  0.45593999997E+02  0.45594000000E+02  0.51100000000E-03 0.  1.
         11   -1    0    0    0    0 -0.00000000000E+00 -0.00000000000E+00 -0.45593999997E+02  0.45594000000E+02  0.51100000000E-03 0. -1.
    9900012    2    1    2    0    0  0.31259746482E+02  0.20291811788E+02  0.25301856593E+02  0.46142319599E+02  0.10000016757E+02 0.  0.
         12    1    1    2    0    0 -0.31259746482E+02 -0.20291811788E+02 -0.25301856593E+02  0.45045680401E+02  0.00000000000E+00 0. -1.
         11    1    3    3    0    0  0.92528734273E+01  0.10867522146E+02  0.10611158280E+02  0.17785257506E+02  0.51100000000E-03 0. -1.
        -11    1    3    3    0    0  0.20688650548E+02  0.92848576196E+01  0.12775049871E+02  0.26027499726E+02  0.51100000000E-03 0.  1.
         12    1    3    3    0    0  0.13182225065E+01  0.13943202209E+00  0.19156484422E+01  0.23295623665E+01  0.00000000000E+00 0. -1.
</event>
<event>
 7    1  0.1445801E-008  0.4614232E+02  0.7816164E-02  0.1320468E+00
        -11   -1    0    0    0    0  0.00000000000E+00  0.00000000000E+00  0.45593999997E+02  0.45594000000E+02  0.51100000000E-03 0.  1.
         11   -1    0    0    0    0 -0.00000000000E+00 -0.00000000000E+00 -0.45593999997E+02  0.45594000000E+02  0.51100000000E-03 0. -1.
    9900012    2    1    2    0    0 -0.38863411458E+02 -0.20597008706E+02  0.97217254328E+01  0.46142318040E+02  0.10000002545E+02 0.  0.
         12    1    1    2    0    0  0.38863411458E+02  0.20597008706E+02 -0.97217254328E+01  0.45045681960E+02  0.00000000000E+00 0. -1.
         11    1    3    3    0    0 -0.28305712360E+01 -0.44474582034E-02  0.22167242714E+01  0.35952774661E+01  0.51100000000E-03 0. -1.
        -11    1    3    3    0    0 -0.34634383623E+01 -0.12082576140E+01 -0.78121068654E+00  0.37504109307E+01  0.51100000000E-03 0.  1.
        -12    1    3    3    0    0 -0.32569401860E+02 -0.19384303634E+02  0.82862118480E+01  0.38796629643E+02  0.00000000000E+00 0.  1.
</event>
<event>
 7    1  0.1445801E-008  0.4614232E+02  0.7816164E-02  0.1320468E+00
        -11   -1    0    0    0    0  0.00000000000E+00  0.00000000000E+00  0.45593999997E+02  0.45594000000E+02  0.51100000000E-03 0.  1.
         11   -1    0    0    0    0 -0.00000000000E+00 -0.00000000000E+00 -0.45593999997E+02  0.45594000000E+02  0.51100000000E-03 0. -1.
    9900012    2    1    2    0    0 -0.14182213694E+02 -0.16382177401E+02  0.39491803130E+02  0.46142318341E+02  0.10000005287E+02 0.  0.
         12    1    1    2    0    0  0.14182213694E+02  0.16382177401E+02 -0.39491803130E+02  0.45045681659E+02  0.00000000000E+00 0. -1.
         11    1    3    3    0    0 -0.35341110623E+01  0.16367903070E+00  0.42723702604E+01  0.55470604583E+01  0.51100000000E-03 0. -1.
        -11    1    3    3    0    0 -0.10144214893E+02 -0.14894689404E+02  0.34003457044E+02  0.38483658342E+02  0.51100000000E-03 0.  1.
        -12    1    3    3    0    0 -0.50388773903E+00 -0.16511670283E+01  0.12159758257E+01  0.21115995401E+01  0.00000000000E+00 0.  1.
</event>
<event>
 7    1  0.1445801E-008  0.4614232E+02  0.7816164E-02  0.1320468E+00
        -11   -1    0    0    0    0  0.00000000000E+00  0.00000000000E+00  0.45593999997E+02  0.45594000000E+02  0.51100000000E-03 0.  1.
         11   -1    0    0    0    0 -0.00000000000E+00 -0.00000000000E+00 -0.45593999997E+02  0.45594000000E+02  0.51100000000E-03 0. -1.
    9900012    2    1    2    0    0 -0.18569534085E+02 -0.10103217663E+02  0.39777015311E+02  0.46142317073E+02  0.99999937279E+01 0.  0.
         12    1    1    2    0    0  0.18569534085E+02  0.10103217663E+02 -0.39777015311E+02  0.45045682927E+02  0.00000000000E+00 0. -1.
         11    1    3    3    0    0 -0.35274105774E+01 -0.23084707532E+01  0.24192204148E+01  0.48604825148E+01  0.51100000000E-03 0. -1.
        -11    1    3    3    0    0 -0.11888456411E+02 -0.38600559227E+01  0.25607865560E+02  0.28495582226E+02  0.51100000000E-03 0.  1.
        -12    1    3    3    0    0 -0.31536670965E+01 -0.39346909872E+01  0.11749929336E+02  0.12786252333E+02  0.00000000000E+00 0.  1.
</event>
<event>
 7    1  0.1445801E-008  0.4614232E+02  0.7816164E-02  0.1320468E+00
        -11   -1    0    0    0    0  0.00000000000E+00  0.00000000000E+00  0.45593999997E+02  0.45594000000E+02  0.51100000000E-03 0. -1.
         11   -1    0    0    0    0 -0.00000000000E+00 -0.00000000000E+00 -0.45593999997E+02  0.45594000000E+02  0.51100000000E-03 0.  1.
    9900012    2    1    2    0    0 -0.43406060535E+02  0.79942322240E+01 -0.90066411877E+01  0.46142318459E+02  0.10000006360E+02 0.  0.
         12    1    1    2    0    0  0.43406060535E+02 -0.79942322240E+01  0.90066411877E+01  0.45045681541E+02  0.00000000000E+00 0. -1.
         11    1    3    3    0    0 -0.23338246012E+01  0.19187103310E+01 -0.24986509992E+01  0.39206432738E+01  0.51100000000E-03 0. -1.
        -11    1    3    3    0    0 -0.16221885953E+02  0.28031344470E+01 -0.61718643518E+00  0.16473860081E+02  0.51100000000E-03 0.  1.
         12    1    3    3    0    0 -0.24850349981E+02  0.32723874460E+01 -0.58908037533E+01  0.25747815104E+02  0.00000000000E+00 0. -1.
</event>
<event>
 7    1  0.1445801E-008  0.4614232E+02  0.7816164E-02  0.1320468E+00
        -11   -1    0    0    0    0  0.00000000000E+00  0.00000000000E+00  0.45593999997E+02  0.45594000000E+02  0.51100000000E-03 0. -1.
         11   -1    0    0    0    0 -0.00000000000E+00 -0.00000000000E+00 -0.45593999997E+02  0.45594000000E+02  0.51100000000E-03 0.  1.
    9900012    2    1    2    0    0  0.29734115320E+02  0.30034189961E+02  0.15586639088E+02  0.46142317648E+02  0.99999989702E+01 0.  0.
         12    1    1    2    0    0 -0.29734115320E+02 -0.30034189961E+02 -0.15586639088E+02  0.45045682352E+02  0.00000000000E+00 0. -1.
         11    1    3    3    0    0  0.14851319805E+02  0.20452970089E+02  0.92031943079E+01  0.26899525481E+02  0.51100000000E-03 0. -1.
        -11    1    3    3    0    0  0.74752946132E+01  0.65178179856E+01  0.50053079974E+01  0.11109234414E+02  0.51100000000E-03 0.  1.
         12    1    3    3    0    0  0.74075009019E+01  0.30634018869E+01  0.13781367827E+01  0.81335577532E+01  0.00000000000E+00 0. -1.
</event>
<event>
 7    1  0.1445801E-008  0.4614232E+02  0.7816164E-02  0.1320468E+00
        -11   -1    0    0    0    0  0.00000000000E+00  0.00000000000E+00  0.45593999997E+02  0.45594000000E+02  0.51100000000E-03 0.  1.
         11   -1    0    0    0    0 -0.00000000000E+00 -0.00000000000E+00 -0.45593999997E+02  0.45594000000E+02  0.51100000000E-03 0. -1.
    9900012    2    1    2    0    0  0.44608839941E+01  0.30140359597E+02  0.33177896709E+02  0.46142316603E+02  0.99999894422E+01 0.  0.
         12    1    1    2    0    0 -0.44608839941E+01 -0.30140359597E+02 -0.33177896709E+02  0.45045683397E+02  0.00000000000E+00 0. -1.
         11    1    3    3    0    0 -0.22239789603E+01  0.35709221313E+01  0.26212644011E+01  0.49566717266E+01  0.51100000000E-03 0. -1.
        -11    1    3    3    0    0  0.47289575048E+01  0.11777687203E+02  0.14303501638E+02  0.19122424384E+02  0.51100000000E-03 0.  1.
        -12    1    3    3    0    0  0.19559054495E+01  0.14791750262E+02  0.16253130670E+02  0.22063220493E+02  0.00000000000E+00 0.  1.
</event>
<event>
 7    1  0.1445801E-008  0.4614232E+02  0.7816164E-02  0.1320468E+00
        -11   -1    0    0    0    0  0.00000000000E+00  0.00000000000E+00  0.45593999997E+02  0.45594000000E+02  0.51100000000E-03 0.  1.
         11   -1    0    0    0    0 -0.00000000000E+00 -0.00000000000E+00 -0.45593999997E+02  0.45594000000E+02  0.51100000000E-03 0. -1.
    9900012    2    1    2    0    0 -0.43418324765E+02 -0.96539781145E+01 -0.71248269865E+01  0.46142318981E+02  0.10000011127E+02 0.  0.
         12    1    1    2    0    0  0.43418324765E+02  0.96539781145E+01  0.71248269865E+01  0.45045681019E+02  0.00000000000E+00 0. -1.
         11    1    3    3    0    0 -0.29670597173E+02 -0.10254195515E+02 -0.55889604995E+01  0.31886193595E+02  0.51100000000E-03 0. -1.
        -11    1    3    3    0    0 -0.42450839210E+01  0.49151035170E+00  0.10634782702E+01  0.44037831707E+01  0.51100000000E-03 0.  1.
         12    1    3    3    0    0 -0.95026436708E+01  0.10870704857E+00 -0.25993447572E+01  0.98523422151E+01  0.00000000000E+00 0. -1.
</event>
<event>
 7    1  0.1445801E-008  0.4614232E+02  0.7816164E-02  0.1320468E+00
        -11   -1    0    0    0    0  0.00000000000E+00  0.00000000000E+00  0.45593999997E+02  0.45594000000E+02  0.51100000000E-03 0.  1.
         11   -1    0    0    0    0 -0.00000000000E+00 -0.00000000000E+00 -0.45593999997E+02  0.45594000000E+02  0.51100000000E-03 0. -1.
    9900012    2    1    2    0    0 -0.17506972197E+02  0.26061946178E+02  0.32301614330E+02  0.46142318715E+02  0.10000008701E+02 0.  0.
         12    1    1    2    0    0  0.17506972197E+02 -0.26061946178E+02 -0.32301614330E+02  0.45045681285E+02  0.00000000000E+00 0. -1.
         11    1    3    3    0    0 -0.36903540409E+01  0.44692287233E+01  0.14680913777E+01  0.59789640309E+01  0.51100000000E-03 0. -1.
        -11    1    3    3    0    0 -0.13851165854E+02  0.21389431875E+02  0.30298186985E+02  0.39589679543E+02  0.51100000000E-03 0.  1.
        -12    1    3    3    0    0  0.34547697989E-01  0.20328557932E+00  0.53533596691E+00  0.57367514123E+00  0.00000000000E+00 0.  1.
</event>
<event>
 7    1  0.1445801E-008  0.4614232E+02  0.7816164E-02  0.1320468E+00
        -11   -1    0    0    0    0  0.00000000000E+00  0.00000000000E+00  0.45593999997E+02  0.45594000000E+02  0.51100000000E-03 0. -1.
         11   -1    0    0    0    0 -0.00000000000E+00 -0.00000000000E+00 -0.45593999997E+02  0.45594000000E+02  0.51100000000E-03 0.  1.
    9900012    2    1    2    0    0 -0.10983997971E+02  0.34341301388E+02 -0.27002596213E+02  0.46142318801E+02  0.10000009481E+02 0.  0.
         12    1    1    2    0    0  0.10983997971E+02 -0.34341301388E+02  0.27002596213E+02  0.45045681199E+02  0.00000000000E+00 0. -1.
         11    1    3    3    0    0 -0.31627808966E+01  0.55559326609E+01 -0.39872212930E+01  0.75345540434E+01  0.51100000000E-03 0. -1.
        -11    1    3    3    0    0  0.51426394706E-01  0.52205222390E+01 -0.80772958295E+01  0.96176507163E+01  0.51100000000E-03 0.  1.
        -12    1    3    3    0    0 -0.78726434690E+01  0.23564846488E+02 -0.14938079091E+02  0.28990114041E+02  0.00000000000E+00 0.  1.
</event>
<event>
 7    1  0.1445801E-008  0.4614232E+02  0.7816164E-02  0.1320468E+00
        -11   -1    0    0    0    0  0.00000000000E+00  0.00000000000E+00  0.45593999997E+02  0.45594000000E+02  0.51100000000E-03 0.  1.
         11   -1    0    0    0    0 -0.00000000000E+00 -0.00000000000E+00 -0.45593999997E+02  0.45594000000E+02  0.51100000000E-03 0. -1.
    9900012    2    1    2    0    0  0.24269094467E+02 -0.36786084174E+02  0.93224751916E+01  0.46142317868E+02  0.10000000972E+02 0.  0.
         12    1    1    2    0    0 -0.24269094467E+02  0.36786084174E+02 -0.93224751916E+01  0.45045682132E+02  0.00000000000E+00 0. -1.
         11    1    3    3    0    0  0.35857340452E+01 -0.37766931892E+01  0.11592766223E+01  0.53352434468E+01  0.51100000000E-03 0. -1.
        -11    1    3    3    0    0  0.19433710584E+02 -0.32861109673E+02  0.90893445759E+01  0.39244589705E+02  0.51100000000E-03 0.  1.
        -12    1    3    3    0    0  0.12496498370E+01 -0.14828131148E+00 -0.92614600654E+00  0.15624847160E+01  0.00000000000E+00 0.  1.
</event>
<event>
 7    1  0.1445801E-008  0.4614232E+02  0.7816164E-02  0.1320468E+00
        -11   -1    0    0    0    0  0.00000000000E+00  0.00000000000E+00  0.45593999997E+02  0.45594000000E+02  0.51100000000E-03 0.  1.
         11   -1    0    0    0    0 -0.00000000000E+00 -0.00000000000E+00 -0.45593999997E+02  0.45594000000E+02  0.51100000000E-03 0. -1.
    9900012    2    1    2    0    0 -0.42499910357E+01  0.13786333150E+02  0.42673036079E+02  0.46142318589E+02  0.10000007552E+02 0.  0.
         12    1    1    2    0    0  0.42499910357E+01 -0.13786333150E+02 -0.42673036079E+02  0.45045681411E+02  0.00000000000E+00 0. -1.
         11    1    3    3    0    0 -0.38872565495E+01  0.56178969560E+01  0.27295949389E+02  0.28137881636E+02  0.51100000000E-03 0. -1.
        -11    1    3    3    0    0 -0.14867875455E+01  0.69401185111E+01  0.14449287219E+02  0.16098375183E+02  0.51100000000E-03 0.  1.
         12    1    3    3    0    0  0.11240530592E+01  0.12283176826E+01  0.92779947212E+00  0.19060617697E+01  0.00000000000E+00 0. -1.
</event>
<event>
 7    1  0.1445801E-008  0.4614232E+02  0.7816164E-02  0.1320468E+00
        -11   -1    0    0    0    0  0.00000000000E+00  0.00000000000E+00  0.45593999997E+02  0.45594000000E+02  0.51100000000E-03 0. -1.
         11   -1    0    0    0    0 -0.00000000000E+00 -0.00000000000E+00 -0.45593999997E+02  0.45594000000E+02  0.51100000000E-03 0.  1.
    9900012    2    1    2    0    0  0.17400820203E+02 -0.14148660463E+02 -0.39065846272E+02  0.46142317836E+02  0.10000000687E+02 0.  0.
         12    1    1    2    0    0 -0.17400820203E+02  0.14148660463E+02  0.39065846272E+02  0.45045682164E+02  0.00000000000E+00 0. -1.
         11    1    3    3    0    0  0.70955753636E+01 -0.12484028605E+01 -0.17335188779E+02  0.18772705445E+02  0.51100000000E-03 0. -1.
        -11    1    3    3    0    0  0.72190465066E+01 -0.87687673971E+01 -0.16435058240E+02  0.19977914149E+02  0.51100000000E-03 0.  1.
         12    1    3    3    0    0  0.30861983332E+01 -0.41314902050E+01 -0.52955992529E+01  0.73916982428E+01  0.00000000000E+00 0. -1.
</event>
<event>
 7    1  0.1445801E-008  0.4614232E+02  0.7816164E-02  0.1320468E+00
        -11   -1    0    0    0    0  0.00000000000E+00  0.00000000000E+00  0.45593999997E+02  0.45594000000E+02  0.51100000000E-03 0.  1.
         11   -1    0    0    0    0 -0.00000000000E+00 -0.00000000000E+00 -0.45593999997E+02  0.45594000000E+02  0.51100000000E-03 0. -1.
    9900012    2    1    2    0    0 -0.30654330640E+02  0.52318320611E+01  0.32589161243E+02  0.46142317807E+02  0.10000000416E+02 0.  0.
         12    1    1    2    0    0  0.30654330640E+02 -0.52318320611E+01 -0.32589161243E+02  0.45045682193E+02  0.00000000000E+00 0. -1.
         11    1    3    3    0    0 -0.16916641668E+02  0.39317801927E+01  0.20785552050E+02  0.27086358838E+02  0.51100000000E-03 0.  1.
        -11    1    3    3    0    0 -0.57474457875E+01 -0.73644960577E+00  0.17490218478E+01  0.60526497328E+01  0.51100000000E-03 0. -1.
         12    1    3    3    0    0 -0.79902431846E+01  0.20365014742E+01  0.10054587345E+02  0.13003309236E+02  0.00000000000E+00 0. -1.
</event>
<event>
 7    1  0.1445801E-008  0.4614232E+02  0.7816164E-02  0.1320468E+00
        -11   -1    0    0    0    0  0.00000000000E+00  0.00000000000E+00  0.45593999997E+02  0.45594000000E+02  0.51100000000E-03 0.  1.
         11   -1    0    0    0    0 -0.00000000000E+00 -0.00000000000E+00 -0.45593999997E+02  0.45594000000E+02  0.51100000000E-03 0. -1.
    9900012    2    1    2    0    0  0.60909008699E+00 -0.24508170821E+02  0.37790105100E+02  0.46142317952E+02  0.10000001740E+02 0.  0.
         12    1    1    2    0    0 -0.60909008699E+00  0.24508170821E+02 -0.37790105100E+02  0.45045682048E+02  0.00000000000E+00 0. -1.
         11    1    3    3    0    0  0.73267754803E+00  0.63816393237E+00  0.17427195146E+01  0.19952797202E+01  0.51100000000E-03 0. -1.
        -11    1    3    3    0    0  0.64945417337E+00 -0.21414021930E+02  0.28123607090E+02  0.35354199212E+02  0.51100000000E-03 0.  1.
         12    1    3    3    0    0 -0.77304163441E+00 -0.37323128240E+01  0.79237784953E+01  0.87928390198E+01  0.00000000000E+00 0. -1.
</event>
<event>
 7    1  0.1445801E-008  0.4614232E+02  0.7816164E-02  0.1320468E+00
        -11   -1    0    0    0    0  0.00000000000E+00  0.00000000000E+00  0.45593999997E+02  0.45594000000E+02  0.51100000000E-03 0.  1.
         11   -1    0    0    0    0 -0.00000000000E+00 -0.00000000000E+00 -0.45593999997E+02  0.45594000000E+02  0.51100000000E-03 0. -1.
    9900012    2    1    2    0    0 -0.42482762880E+01  0.29436296190E+01  0.44748193582E+02  0.46142316127E+02  0.99999851005E+01 0.  0.
         12    1    1    2    0    0  0.42482762880E+01 -0.29436296190E+01 -0.44748193582E+02  0.45045683873E+02  0.00000000000E+00 0. -1.
         11    1    3    3    0    0  0.18018904241E+01  0.20882471658E+01  0.46232444832E+01  0.53834909806E+01  0.51100000000E-03 0. -1.
        -11    1    3    3    0    0 -0.51651719331E+01  0.19461865017E+01  0.26965616402E+02  0.27524736351E+02  0.51100000000E-03 0.  1.
         12    1    3    3    0    0 -0.88499477899E+00 -0.10908040485E+01  0.13159332696E+02  0.13234088796E+02  0.00000000000E+00 0. -1.
</event>
<event>
 7    1  0.1445801E-008  0.4614231E+02  0.7816164E-02  0.1320468E+00
        -11   -1    0    0    0    0  0.00000000000E+00  0.00000000000E+00  0.45593999997E+02  0.45594000000E+02  0.51100000000E-03 0.  1.
         11   -1    0    0    0    0 -0.00000000000E+00 -0.00000000000E+00 -0.45593999997E+02  0.45594000000E+02  0.51100000000E-03 0. -1.
    9900012    2    1    2    0    0  0.31468188509E+02  0.31481311277E+00  0.32229921815E+02  0.46142313686E+02  0.99999628391E+01 0.  0.
         12    1    1    2    0    0 -0.31468188509E+02 -0.31481311277E+00 -0.32229921815E+02  0.45045686314E+02  0.00000000000E+00 0. -1.
         11    1    3    3    0    0  0.10875147185E+02 -0.16526939493E+01  0.78715976970E+01  0.13526354799E+02  0.51100000000E-03 0. -1.
        -11    1    3    3    0    0  0.70457418900E+01  0.16850133322E+01  0.13222381753E+02  0.15076907117E+02  0.51100000000E-03 0.  1.
        -12    1    3    3    0    0  0.13547299434E+02  0.28249372992E+00  0.11135942364E+02  0.17539051770E+02  0.00000000000E+00 0.  1.
</event>
<event>
 7    1  0.1445801E-008  0.4614231E+02  0.7816164E-02  0.1320468E+00
        -11   -1    0    0    0    0  0.00000000000E+00  0.00000000000E+00  0.45593999997E+02  0.45594000000E+02  0.51100000000E-03 0. -1.
         11   -1    0    0    0    0 -0.00000000000E+00 -0.00000000000E+00 -0.45593999997E+02  0.45594000000E+02  0.51100000000E-03 0.  1.
    9900012    2    1    2    0    0  0.44124509253E+02  0.87480391201E+01  0.23692602864E+01  0.46142313197E+02  0.99999583827E+01 0.  0.
         12    1    1    2    0    0 -0.44124509253E+02 -0.87480391201E+01 -0.23692602864E+01  0.45045686803E+02  0.00000000000E+00 0. -1.
         11    1    3    3    0    0  0.10738509694E+01 -0.94116866068E+00  0.72380486838E+00  0.16008897842E+01  0.51100000000E-03 0. -1.
        -11    1    3    3    0    0  0.41171257016E+02  0.10407419363E+02  0.12136008084E+01  0.42483639312E+02  0.51100000000E-03 0.  1.
        -12    1    3    3    0    0  0.18794012676E+01 -0.71821158213E+00  0.43185460962E+00  0.20577841007E+01  0.00000000000E+00 0.  1.
</event>
<event>
 7    1  0.1445801E-008  0.4614231E+02  0.7816164E-02  0.1320468E+00
        -11   -1    0    0    0    0  0.00000000000E+00  0.00000000000E+00  0.45593999997E+02  0.45594000000E+02  0.51100000000E-03 0.  1.
         11   -1    0    0    0    0 -0.00000000000E+00 -0.00000000000E+00 -0.45593999997E+02  0.45594000000E+02  0.51100000000E-03 0. -1.
    9900012    2    1    2    0    0 -0.13034774076E+02  0.10681982814E+02  0.41774447389E+02  0.46142306014E+02  0.99998928817E+01 0.  0.
         12    1    1    2    0    0  0.13034774076E+02 -0.10681982814E+02 -0.41774447389E+02  0.45045693986E+02  0.00000000000E+00 0. -1.
         11    1    3    3    0    0  0.54095838979E+00 -0.50017105271E+00  0.60327678506E+01  0.60775895931E+01  0.51100000000E-03 0. -1.
        -11    1    3    3    0    0 -0.13197457835E+02  0.96223805817E+01  0.30708360293E+02  0.34781697680E+02  0.51100000000E-03 0.  1.
         12    1    3    3    0    0 -0.37827463076E+00  0.15597732849E+01  0.50333192452E+01  0.52830187413E+01  0.00000000000E+00 0. -1.
</event>
<event>
 7    1  0.1445801E-008  0.4614231E+02  0.7816164E-02  0.1320468E+00
        -11   -1    0    0    0    0  0.00000000000E+00  0.00000000000E+00  0.45593999997E+02  0.45594000000E+02  0.51100000000E-03 0.  1.
         11   -1    0    0    0    0 -0.00000000000E+00 -0.00000000000E+00 -0.45593999997E+02  0.45594000000E+02  0.51100000000E-03 0. -1.
    9900012    2    1    2    0    0  0.17211751034E+02  0.25823777634E+01  0.41547573157E+02  0.46142313372E+02  0.99999599743E+01 0.  0.
         12    1    1    2    0    0 -0.17211751034E+02 -0.25823777634E+01 -0.41547573157E+02  0.45045686628E+02  0.00000000000E+00 0. -1.
         11    1    3    3    0    0  0.11267965437E+02  0.35861065678E+01  0.23849729633E+02  0.26620233080E+02  0.51100000000E-03 0. -1.
        -11    1    3    3    0    0  0.11048086914E+00  0.83108558614E+00  0.80897251645E+01  0.81330537175E+01  0.51100000000E-03 0.  1.
        -12    1    3    3    0    0  0.58333047283E+01 -0.18348143906E+01  0.96081183594E+01  0.11389026574E+02  0.00000000000E+00 0.  1.
</event>
<event>
 7    1  0.1445801E-008  0.4614232E+02  0.7816164E-02  0.1320468E+00
        -11   -1    0    0    0    0  0.00000000000E+00  0.00000000000E+00  0.45593999997E+02  0.45594000000E+02  0.51100000000E-03 0.  1.
         11   -1    0    0    0    0 -0.00000000000E+00 -0.00000000000E+00 -0.45593999997E+02  0.45594000000E+02  0.51100000000E-03 0. -1.
    9900012    2    1    2    0    0 -0.35058658126E+02 -0.23009456819E+02  0.16448976936E+02  0.46142318132E+02  0.10000003381E+02 0.  0.
         12    1    1    2    0    0  0.35058658126E+02  0.23009456819E+02 -0.16448976936E+02  0.45045681868E+02  0.00000000000E+00 0. -1.
         11    1    3    3    0    0 -0.10925157980E+02 -0.46797330603E+01  0.59559257449E+01  0.13294059957E+02  0.51100000000E-03 0. -1.
        -11    1    3    3    0    0 -0.24364750849E+02 -0.18282902433E+02  0.96208978620E+01  0.31944753579E+02  0.51100000000E-03 0.  1.
        -12    1    3    3    0    0  0.23125070276E+00 -0.46821325759E-01  0.87215332941E+00  0.90350459549E+00  0.00000000000E+00 0.  1.
</event>
<event>
 7    1  0.1445801E-008  0.4614232E+02  0.7816164E-02  0.1320468E+00
        -11   -1    0    0    0    0  0.00000000000E+00  0.00000000000E+00  0.45593999997E+02  0.45594000000E+02  0.51100000000E-03 0.  1.
         11   -1    0    0    0    0 -0.00000000000E+00 -0.00000000000E+00 -0.45593999997E+02  0.45594000000E+02  0.51100000000E-03 0. -1.
    9900012    2    1    2    0    0  0.31417295635E+02 -0.11790044459E+02  0.30050989212E+02  0.46142316899E+02  0.99999921413E+01 0.  0.
         12    1    1    2    0    0 -0.31417295635E+02  0.11790044459E+02 -0.30050989212E+02  0.45045683101E+02  0.00000000000E+00 0. -1.
         11    1    3    3    0    0  0.38208824888E+01 -0.19114831124E+01  0.91855236667E+01  0.10130486463E+02  0.51100000000E-03 0. -1.
        -11    1    3    3    0    0  0.12700647101E+02 -0.49604323708E+01  0.10508050541E+02  0.17214280483E+02  0.51100000000E-03 0.  1.
         12    1    3    3    0    0  0.14895766045E+02 -0.49181289759E+01  0.10357415004E+02  0.18797549954E+02  0.00000000000E+00 0. -1.
</event>
<event>
 7    1  0.1445801E-008  0.4614232E+02  0.7816164E-02  0.1320468E+00
        -11   -1    0    0    0    0  0.00000000000E+00  0.00000000000E+00  0.45593999997E+02  0.45594000000E+02  0.51100000000E-03 0.  1.
         11   -1    0    0    0    0 -0.00000000000E+00 -0.00000000000E+00 -0.45593999997E+02  0.45594000000E+02  0.51100000000E-03 0. -1.
    9900012    2    1    2    0    0  0.56715995531E+01 -0.43999931288E+02  0.78072005679E+01  0.46142319013E+02  0.10000011418E+02 0.  0.
         12    1    1    2    0    0 -0.56715995531E+01  0.43999931288E+02 -0.78072005679E+01  0.45045680987E+02  0.00000000000E+00 0. -1.
         11    1    3    3    0    0  0.11329256274E+01 -0.20088538940E+01  0.19471678642E+01  0.30183567379E+01  0.51100000000E-03 0. -1.
        -11    1    3    3    0    0  0.57590961131E+01 -0.34515390796E+02  0.33882714775E+01  0.35156219559E+02  0.51100000000E-03 0.  1.
         12    1    3    3    0    0 -0.12204221874E+01 -0.74756865983E+01  0.24717612262E+01  0.79677427161E+01  0.00000000000E+00 0. -1.
</event>
<event>
 7    1  0.1445801E-008  0.4614232E+02  0.7816164E-02  0.1320468E+00
        -11   -1    0    0    0    0  0.00000000000E+00  0.00000000000E+00  0.45593999997E+02  0.45594000000E+02  0.51100000000E-03 0.  1.
         11   -1    0    0    0    0 -0.00000000000E+00 -0.00000000000E+00 -0.45593999997E+02  0.45594000000E+02  0.51100000000E-03 0. -1.
    9900012    2    1    2    0    0  0.38594687955E+01 -0.38733662799E+02  0.22669833628E+02  0.46142317744E+02  0.99999998418E+01 0.  0.
         12    1    1    2    0    0 -0.38594687955E+01  0.38733662799E+02 -0.22669833628E+02  0.45045682256E+02  0.00000000000E+00 0. -1.
         11    1    3    3    0    0 -0.11904030067E+01 -0.25931875054E+02  0.12920969323E+02  0.28997080053E+02  0.51100000000E-03 0. -1.
        -11    1    3    3    0    0  0.17059766111E+01 -0.71951384099E+01  0.65369763938E+01  0.98697737345E+01  0.51100000000E-03 0.  1.
         12    1    3    3    0    0  0.33438951911E+01 -0.56066493356E+01  0.32118879111E+01  0.72754639560E+01  0.00000000000E+00 0. -1.
</event>
<event>
 7    1  0.1445801E-008  0.4614232E+02  0.7816164E-02  0.1320468E+00
        -11   -1    0    0    0    0  0.00000000000E+00  0.00000000000E+00  0.45593999997E+02  0.45594000000E+02  0.51100000000E-03 0. -1.
         11   -1    0    0    0    0 -0.00000000000E+00 -0.00000000000E+00 -0.45593999997E+02  0.45594000000E+02  0.51100000000E-03 0.  1.
    9900012    2    1    2    0    0  0.44430692149E+02 -0.70269635333E+01  0.23767356448E+01  0.46142317702E+02  0.99999994644E+01 0.  0.
         12    1    1    2    0    0 -0.44430692149E+02  0.70269635333E+01 -0.23767356448E+01  0.45045682298E+02  0.00000000000E+00 0. -1.
         11    1    3    3    0    0  0.20735749825E+02 -0.66617586294E+01 -0.19005324232E+01  0.21862350574E+02  0.51100000000E-03 0. -1.
        -11    1    3    3    0    0  0.16593545974E+02 -0.13469842420E+01  0.20549425862E+01  0.16774472386E+02  0.51100000000E-03 0.  1.
         12    1    3    3    0    0  0.71013963497E+01  0.98177933809E+00  0.22223254818E+01  0.75054947426E+01  0.00000000000E+00 0. -1.
</event>
<event>
 7    1  0.1445801E-008  0.4614232E+02  0.7816164E-02  0.1320468E+00
        -11   -1    0    0    0    0  0.00000000000E+00  0.00000000000E+00  0.45593999997E+02  0.45594000000E+02  0.51100000000E-03 0.  1.
         11   -1    0    0    0    0 -0.00000000000E+00 -0.00000000000E+00 -0.45593999997E+02  0.45594000000E+02  0.51100000000E-03 0. -1.
    9900012    2    1    2    0    0  0.14601796331E+02  0.41755863675E+02  0.85058113477E+01  0.46142318364E+02  0.10000005500E+02 0.  0.
         12    1    1    2    0    0 -0.14601796331E+02 -0.41755863675E+02 -0.85058113477E+01  0.45045681636E+02  0.00000000000E+00 0. -1.
         11    1    3    3    0    0  0.21287075313E+01  0.12348947999E+02 -0.15515318131E+01  0.12626763784E+02  0.51100000000E-03 0. -1.
        -11    1    3    3    0    0  0.10344899046E+02  0.25508345695E+02  0.84973898143E+01  0.28807954983E+02  0.51100000000E-03 0.  1.
         12    1    3    3    0    0  0.21281897543E+01  0.38985699811E+01  0.15599533465E+01  0.47075995976E+01  0.00000000000E+00 0. -1.
</event>
<event>
 7    1  0.1445801E-008  0.4614232E+02  0.7816164E-02  0.1320468E+00
        -11   -1    0    0    0    0  0.00000000000E+00  0.00000000000E+00  0.45593999997E+02  0.45594000000E+02  0.51100000000E-03 0. -1.
         11   -1    0    0    0    0 -0.00000000000E+00 -0.00000000000E+00 -0.45593999997E+02  0.45594000000E+02  0.51100000000E-03 0.  1.
    9900012    2    1    2    0    0  0.17949042012E+02 -0.28568206099E+01 -0.41216306424E+02  0.46142318205E+02  0.10000004051E+02 0.  0.
         12    1    1    2    0    0 -0.17949042012E+02  0.28568206099E+01  0.41216306424E+02  0.45045681795E+02  0.00000000000E+00 0. -1.
         11    1    3    3    0    0  0.59082121667E-01  0.13041303869E+01 -0.11529664767E+01  0.17417171759E+01  0.51100000000E-03 0. -1.
        -11    1    3    3    0    0  0.14960706037E+02 -0.19626283561E+01 -0.28176085581E+02  0.31961952915E+02  0.51100000000E-03 0.  1.
         12    1    3    3    0    0  0.29292538537E+01 -0.21983226407E+01 -0.11887254366E+02  0.12438648115E+02  0.00000000000E+00 0. -1.
</event>
<event>
 7    1  0.1445801E-008  0.4614232E+02  0.7816164E-02  0.1320468E+00
        -11   -1    0    0    0    0  0.00000000000E+00  0.00000000000E+00  0.45593999997E+02  0.45594000000E+02  0.51100000000E-03 0. -1.
         11   -1    0    0    0    0 -0.00000000000E+00 -0.00000000000E+00 -0.45593999997E+02  0.45594000000E+02  0.51100000000E-03 0.  1.
    9900012    2    1    2    0    0 -0.10742545564E+01 -0.33519809267E+02 -0.30072943420E+02  0.46142316943E+02  0.99999925400E+01 0.  0.
         12    1    1    2    0    0  0.10742545564E+01  0.33519809267E+02  0.30072943420E+02  0.45045683057E+02  0.00000000000E+00 0. -1.
         11    1    3    3    0    0  0.21289240568E+01 -0.16281840959E+02 -0.10885038058E+02  0.19700627310E+02  0.51100000000E-03 0. -1.
        -11    1    3    3    0    0 -0.28267240499E+01 -0.53169098496E+01 -0.44786681320E+01  0.75045564626E+01  0.51100000000E-03 0.  1.
         12    1    3    3    0    0 -0.37645456324E+00 -0.11921058459E+02 -0.14709237230E+02  0.18937133170E+02  0.00000000000E+00 0. -1.
</event>
<event>
 7    1  0.1445801E-008  0.4614232E+02  0.7816164E-02  0.1320468E+00
        -11   -1    0    0    0    0  0.00000000000E+00  0.00000000000E+00  0.45593999997E+02  0.45594000000E+02  0.51100000000E-03 0.  1.
         11   -1    0    0    0    0 -0.00000000000E+00 -0.00000000000E+00 -0.45593999997E+02  0.45594000000E+02  0.51100000000E-03 0. -1.
    9900012    2    1    2    0    0  0.99357356239E+01  0.32387678679E+02  0.29688935094E+02  0.46142318303E+02  0.10000004938E+02 0.  0.
         12    1    1    2    0    0 -0.99357356239E+01 -0.32387678679E+02 -0.29688935094E+02  0.45045681697E+02  0.00000000000E+00 0. -1.
         11    1    3    3    0    0  0.50914758988E+01  0.56270969877E+01  0.70684109808E+01  0.10370621071E+02  0.51100000000E-03 0. -1.
        -11    1    3    3    0    0  0.39920110696E+01  0.24891378581E+02  0.18849099454E+02  0.31477061974E+02  0.51100000000E-03 0.  1.
        -12    1    3    3    0    0  0.85224865540E+00  0.18692031097E+01  0.37714246593E+01  0.42946352577E+01  0.00000000000E+00 0.  1.
</event>
<event>
 7    1  0.1445801E-008  0.4614232E+02  0.7816164E-02  0.1320468E+00
        -11   -1    0    0    0    0  0.00000000000E+00  0.00000000000E+00  0.45593999997E+02  0.45594000000E+02  0.51100000000E-03 0.  1.
         11   -1    0    0    0    0 -0.00000000000E+00 -0.00000000000E+00 -0.45593999997E+02  0.45594000000E+02  0.51100000000E-03 0. -1.
    9900012    2    1    2    0    0 -0.40047561915E+02  0.10790505953E+02  0.17574732247E+02  0.46142318213E+02  0.10000004122E+02 0.  0.
         12    1    1    2    0    0  0.40047561915E+02 -0.10790505953E+02 -0.17574732247E+02  0.45045681787E+02  0.00000000000E+00 0. -1.
         11    1    3    3    0    0 -0.57503881023E+01  0.51731948401E+01  0.42719831660E+01  0.88362180039E+01  0.51100000000E-03 0. -1.
        -11    1    3    3    0    0 -0.23116414055E+02  0.27625854854E+01  0.81215685608E+01  0.24656852060E+02  0.51100000000E-03 0.  1.
        -12    1    3    3    0    0 -0.11180759758E+02  0.28547256273E+01  0.51811805200E+01  0.12649248150E+02  0.00000000000E+00 0.  1.
</event>
<event>
 7    1  0.1445801E-008  0.4614232E+02  0.7816164E-02  0.1320468E+00
        -11   -1    0    0    0    0  0.00000000000E+00  0.00000000000E+00  0.45593999997E+02  0.45594000000E+02  0.51100000000E-03 0.  1.
         11   -1    0    0    0    0 -0.00000000000E+00 -0.00000000000E+00 -0.45593999997E+02  0.45594000000E+02  0.51100000000E-03 0. -1.
    9900012    2    1    2    0    0  0.31324929249E+02 -0.11716647800E+02  0.30175858942E+02  0.46142317732E+02  0.99999997321E+01 0.  0.
         12    1    1    2    0    0 -0.31324929249E+02  0.11716647800E+02 -0.30175858942E+02  0.45045682268E+02  0.00000000000E+00 0. -1.
         11    1    3    3    0    0  0.13855607731E+02 -0.56041263701E+01  0.77937794209E+01  0.16856070001E+02  0.51100000000E-03 0. -1.
        -11    1    3    3    0    0  0.98602195728E+01 -0.28566731176E+01  0.15119124780E+02  0.18274913015E+02  0.51100000000E-03 0.  1.
         12    1    3    3    0    0  0.76091019447E+01 -0.32558483123E+01  0.72629547412E+01  0.11011334715E+02  0.00000000000E+00 0. -1.
</event>
<event>
 7    1  0.1445801E-008  0.4614232E+02  0.7816164E-02  0.1320468E+00
        -11   -1    0    0    0    0  0.00000000000E+00  0.00000000000E+00  0.45593999997E+02  0.45594000000E+02  0.51100000000E-03 0.  1.
         11   -1    0    0    0    0 -0.00000000000E+00 -0.00000000000E+00 -0.45593999997E+02  0.45594000000E+02  0.51100000000E-03 0. -1.
    9900012    2    1    2    0    0  0.12143114746E+02 -0.68788975233E+01  0.42829185670E+02  0.46142316388E+02  0.99999874817E+01 0.  0.
         12    1    1    2    0    0 -0.12143114746E+02  0.68788975233E+01 -0.42829185670E+02  0.45045683612E+02  0.00000000000E+00 0. -1.
         11    1    3    3    0    0  0.35335942051E+01 -0.30266500944E+01  0.21573953652E+02  0.22069942801E+02  0.51100000000E-03 0. -1.
        -11    1    3    3    0    0 -0.43609191760E+00  0.67905217889E+00  0.39082388191E+01  0.39906915379E+01  0.51100000000E-03 0.  1.
         12    1    3    3    0    0  0.90456124586E+01 -0.45312996078E+01  0.17346993200E+02  0.20081682050E+02  0.00000000000E+00 0. -1.
</event>
<event>
 7    1  0.1445801E-008  0.4614232E+02  0.7816164E-02  0.1320468E+00
        -11   -1    0    0    0    0  0.00000000000E+00  0.00000000000E+00  0.45593999997E+02  0.45594000000E+02  0.51100000000E-03 0.  1.
         11   -1    0    0    0    0 -0.00000000000E+00 -0.00000000000E+00 -0.45593999997E+02  0.45594000000E+02  0.51100000000E-03 0. -1.
    9900012    2    1    2    0    0  0.37608770641E+02  0.24673222397E+02 -0.24343192814E+01  0.46142318265E+02  0.10000004595E+02 0.  0.
         12    1    1    2    0    0 -0.37608770641E+02 -0.24673222397E+02  0.24343192814E+01  0.45045681735E+02  0.00000000000E+00 0. -1.
         11    1    3    3    0    0  0.21985009504E+02  0.14667785185E+02 -0.44275697196E+01  0.26797162891E+02  0.51100000000E-03 0. -1.
        -11    1    3    3    0    0  0.15511620431E+02  0.92872617200E+01  0.99025842789E+00  0.18106468752E+02  0.51100000000E-03 0.  1.
         12    1    3    3    0    0  0.11214070652E+00  0.71817549219E+00  0.10029920103E+01  0.12386866223E+01  0.00000000000E+00 0. -1.
</event>
<event>
 7    1  0.1445801E-008  0.4614232E+02  0.7816164E-02  0.1320468E+00
        -11   -1    0    0    0    0  0.00000000000E+00  0.00000000000E+00  0.45593999997E+02  0.45594000000E+02  0.51100000000E-03 0.  1.
         11   -1    0    0    0    0 -0.00000000000E+00 -0.00000000000E+00 -0.45593999997E+02  0.45594000000E+02  0.51100000000E-03 0. -1.
    9900012    2    1    2    0    0 -0.26315778985E+02 -0.33305486191E+02  0.15077724843E+02  0.46142318515E+02  0.10000006872E+02 0.  0.
         12    1    1    2    0    0  0.26315778985E+02  0.33305486191E+02 -0.15077724843E+02  0.45045681485E+02  0.00000000000E+00 0. -1.
         11    1    3    3    0    0 -0.10709672487E+01 -0.29563596962E+01 -0.37787339921E+00  0.31669894329E+01  0.51100000000E-03 0. -1.
        -11    1    3    3    0    0 -0.57375295968E+01 -0.11890957492E+02  0.41833686858E+01  0.13849718039E+02  0.51100000000E-03 0.  1.
         12    1    3    3    0    0 -0.19507282140E+02 -0.18458169003E+02  0.11272229557E+02  0.29125611043E+02  0.00000000000E+00 0. -1.
</event>
<event>
 7    1  0.1445801E-008  0.4614232E+02  0.7816164E-02  0.1320468E+00
        -11   -1    0    0    0    0  0.00000000000E+00  0.00000000000E+00  0.45593999997E+02  0.45594000000E+02  0.51100000000E-03 0.  1.
         11   -1    0    0    0    0 -0.00000000000E+00 -0.00000000000E+00 -0.45593999997E+02  0.45594000000E+02  0.51100000000E-03 0. -1.
    9900012    2    1    2    0    0  0.25283285034E+02  0.35863372776E+02  0.10182710239E+02  0.46142316558E+02  0.99999890254E+01 0.  0.
         12    1    1    2    0    0 -0.25283285034E+02 -0.35863372776E+02 -0.10182710239E+02  0.45045683442E+02  0.00000000000E+00 0. -1.
         11    1    3    3    0    0  0.13276830143E+02  0.25830808869E+02  0.85783270947E+01  0.30283536806E+02  0.51100000000E-03 0. -1.
        -11    1    3    3    0    0  0.14554074746E+01  0.18587692165E+01 -0.28905594632E+00  0.23784002015E+01  0.51100000000E-03 0.  1.
         12    1    3    3    0    0  0.10551047416E+02  0.81737946901E+01  0.18934390907E+01  0.13480379550E+02  0.00000000000E+00 0. -1.
</event>
<event>
 7    1  0.1445801E-008  0.4614232E+02  0.7816164E-02  0.1320468E+00
        -11   -1    0    0    0    0  0.00000000000E+00  0.00000000000E+00  0.45593999997E+02  0.45594000000E+02  0.51100000000E-03 0.  1.
         11   -1    0    0    0    0 -0.00000000000E+00 -0.00000000000E+00 -0.45593999997E+02  0.45594000000E+02  0.51100000000E-03 0. -1.
    9900012    2    1    2    0    0  0.18256580893E+02 -0.38459735237E+01  0.41000234719E+02  0.46142317573E+02  0.99999982869E+01 0.  0.
         12    1    1    2    0    0 -0.18256580893E+02  0.38459735237E+01 -0.41000234719E+02  0.45045682427E+02  0.00000000000E+00 0. -1.
         11    1    3    3    0    0 -0.30803113576E+00  0.80363660134E+00  0.62402784485E+01  0.62993484063E+01  0.51100000000E-03 0. -1.
        -11    1    3    3    0    0  0.82092390700E+01 -0.38460124225E+01  0.15274193515E+02  0.17761880685E+02  0.51100000000E-03 0.  1.
        -12    1    3    3    0    0  0.10355372959E+02 -0.80359770253E+00  0.19485762756E+02  0.22081088482E+02  0.00000000000E+00 0.  1.
</event>
<event>
 7    1  0.1445801E-008  0.4614232E+02  0.7816164E-02  0.1320468E+00
        -11   -1    0    0    0    0  0.00000000000E+00  0.00000000000E+00  0.45593999997E+02  0.45594000000E+02  0.51100000000E-03 0.  1.
         11   -1    0    0    0    0 -0.00000000000E+00 -0.00000000000E+00 -0.45593999997E+02  0.45594000000E+02  0.51100000000E-03 0. -1.
    9900012    2    1    2    0    0 -0.18236594277E+01 -0.81477936689E+01  0.44265124299E+02  0.46142317581E+02  0.99999983572E+01 0.  0.
         12    1    1    2    0    0  0.18236594277E+01  0.81477936689E+01 -0.44265124299E+02  0.45045682419E+02  0.00000000000E+00 0. -1.
         11    1    3    3    0    0 -0.24029864946E+01 -0.17169083181E+01  0.16192059885E+02  0.16459189586E+02  0.51100000000E-03 0. -1.
        -11    1    3    3    0    0  0.18442167550E+01  0.72006164441E+00  0.31226014683E+01  0.36973320654E+01  0.51100000000E-03 0.  1.
        -12    1    3    3    0    0 -0.12648896881E+01 -0.71509469952E+01  0.24950462946E+02  0.25985795929E+02  0.00000000000E+00 0.  1.
</event>
<event>
 7    1  0.1445801E-008  0.4614232E+02  0.7816164E-02  0.1320468E+00
        -11   -1    0    0    0    0  0.00000000000E+00  0.00000000000E+00  0.45593999997E+02  0.45594000000E+02  0.51100000000E-03 0.  1.
         11   -1    0    0    0    0 -0.00000000000E+00 -0.00000000000E+00 -0.45593999997E+02  0.45594000000E+02  0.51100000000E-03 0. -1.
    9900012    2    1    2    0    0  0.31636023723E+02 -0.15104792283E+02  0.28286401863E+02  0.46142320104E+02  0.10000021367E+02 0.  0.
         12    1    1    2    0    0 -0.31636023723E+02  0.15104792283E+02 -0.28286401863E+02  0.45045679896E+02  0.00000000000E+00 0. -1.
         11    1    3    3    0    0  0.72379152457E+01 -0.29042226724E+01  0.23957444013E+01  0.81585242497E+01  0.51100000000E-03 0. -1.
        -11    1    3    3    0    0  0.23630075981E+02 -0.10788666528E+02  0.23092438534E+02  0.34756819965E+02  0.51100000000E-03 0.  1.
        -12    1    3    3    0    0  0.76803249605E+00 -0.14119030826E+01  0.27982189273E+01  0.32269758901E+01  0.00000000000E+00 0.  1.
</event>
<event>
 7    1  0.1445801E-008  0.4614232E+02  0.7816164E-02  0.1320468E+00
        -11   -1    0    0    0    0  0.00000000000E+00  0.00000000000E+00  0.45593999997E+02  0.45594000000E+02  0.51100000000E-03 0.  1.
         11   -1    0    0    0    0 -0.00000000000E+00 -0.00000000000E+00 -0.45593999997E+02  0.45594000000E+02  0.51100000000E-03 0. -1.
    9900012    2    1    2    0    0 -0.12441921541E+02  0.66175842540E+01  0.42784572842E+02  0.46142317563E+02  0.99999981922E+01 0.  0.
         12    1    1    2    0    0  0.12441921541E+02 -0.66175842540E+01 -0.42784572842E+02  0.45045682437E+02  0.00000000000E+00 0. -1.
         11    1    3    3    0    0 -0.97300715499E+00  0.46141860568E+01  0.80626627507E+01  0.93404489605E+01  0.51100000000E-03 0. -1.
        -11    1    3    3    0    0 -0.86806650447E+01  0.89392826118E+00  0.20732399228E+02  0.22494119929E+02  0.51100000000E-03 0.  1.
         12    1    3    3    0    0 -0.27882493411E+01  0.11094699361E+01  0.13989510863E+02  0.14307748674E+02  0.00000000000E+00 0. -1.
</event>
<event>
 7    1  0.1445801E-008  0.4614232E+02  0.7816164E-02  0.1320468E+00
        -11   -1    0    0    0    0  0.00000000000E+00  0.00000000000E+00  0.45593999997E+02  0.45594000000E+02  0.51100000000E-03 0.  1.
         11   -1    0    0    0    0 -0.00000000000E+00 -0.00000000000E+00 -0.45593999997E+02  0.45594000000E+02  0.51100000000E-03 0. -1.
    9900012    2    1    2    0    0  0.34280058810E+02  0.19228141358E+02  0.22006128739E+02  0.46142317031E+02  0.99999933403E+01 0.  0.
         12    1    1    2    0    0 -0.34280058810E+02 -0.19228141358E+02 -0.22006128739E+02  0.45045682969E+02  0.00000000000E+00 0. -1.
         11    1    3    3    0    0  0.14577563364E+02  0.10521132984E+02  0.52736325365E+01  0.18735282044E+02  0.51100000000E-03 0. -1.
        -11    1    3    3    0    0  0.12564424138E+02  0.42764198233E+01  0.95062232781E+01  0.16325464823E+02  0.51100000000E-03 0.  1.
         12    1    3    3    0    0  0.71380713090E+01  0.44305885506E+01  0.72262729242E+01  0.11081570164E+02  0.00000000000E+00 0. -1.
</event>
<event>
 7    1  0.1445801E-008  0.4614232E+02  0.7816164E-02  0.1320468E+00
        -11   -1    0    0    0    0  0.00000000000E+00  0.00000000000E+00  0.45593999997E+02  0.45594000000E+02  0.51100000000E-03 0. -1.
         11   -1    0    0    0    0 -0.00000000000E+00 -0.00000000000E+00 -0.45593999997E+02  0.45594000000E+02  0.51100000000E-03 0.  1.
    9900012    2    1    2    0    0  0.27528809177E+02  0.16231767554E+02 -0.31745989725E+02  0.46142317895E+02  0.10000001224E+02 0.  0.
         12    1    1    2    0    0 -0.27528809177E+02 -0.16231767554E+02  0.31745989725E+02  0.45045682105E+02  0.00000000000E+00 0. -1.
         11    1    3    3    0    0  0.11495962042E+01  0.52906691145E-01 -0.36362730438E+01  0.38140336209E+01  0.51100000000E-03 0. -1.
        -11    1    3    3    0    0  0.27341194722E+01  0.44425465245E+01 -0.39412240851E+01  0.65379565968E+01  0.51100000000E-03 0.  1.
        -12    1    3    3    0    0  0.23645093501E+02  0.11736314338E+02 -0.24168492596E+02  0.35790327678E+02  0.00000000000E+00 0.  1.
</event>
<event>
 7    1  0.1445801E-008  0.4614232E+02  0.7816164E-02  0.1320468E+00
        -11   -1    0    0    0    0  0.00000000000E+00  0.00000000000E+00  0.45593999997E+02  0.45594000000E+02  0.51100000000E-03 0.  1.
         11   -1    0    0    0    0 -0.00000000000E+00 -0.00000000000E+00 -0.45593999997E+02  0.45594000000E+02  0.51100000000E-03 0. -1.
    9900012    2    1    2    0    0 -0.20074172590E+02 -0.30333621158E+02  0.26570898069E+02  0.46142316500E+02  0.99999885041E+01 0.  0.
         12    1    1    2    0    0  0.20074172590E+02  0.30333621158E+02 -0.26570898069E+02  0.45045683500E+02  0.00000000000E+00 0. -1.
         11    1    3    3    0    0 -0.10600613559E+02 -0.11682325582E+02  0.13679912777E+02  0.20880367637E+02  0.51100000000E-03 0. -1.
        -11    1    3    3    0    0 -0.10155453109E+02 -0.18318140216E+02  0.12636073457E+02  0.24461354041E+02  0.51100000000E-03 0.  1.
        -12    1    3    3    0    0  0.68189407717E+00 -0.33315535962E+00  0.25491183529E+00  0.80059482254E+00  0.00000000000E+00 0.  1.
</event>
<event>
 7    1  0.1445801E-008  0.4614232E+02  0.7816164E-02  0.1320468E+00
        -11   -1    0    0    0    0  0.00000000000E+00  0.00000000000E+00  0.45593999997E+02  0.45594000000E+02  0.51100000000E-03 0.  1.
         11   -1    0    0    0    0 -0.00000000000E+00 -0.00000000000E+00 -0.45593999997E+02  0.45594000000E+02  0.51100000000E-03 0. -1.
    9900012    2    1    2    0    0  0.43407220750E+02 -0.78552513040E+01  0.91226055292E+01  0.46142315213E+02  0.99999767667E+01 0.  0.
         12    1    1    2    0    0 -0.43407220750E+02  0.78552513040E+01 -0.91226055292E+01  0.45045684787E+02  0.00000000000E+00 0. -1.
         11    1    3    3    0    0  0.21958419629E+02 -0.53208014048E+01 -0.15206314192E+00  0.22594385224E+02  0.51100000000E-03 0. -1.
        -11    1    3    3    0    0  0.58074194652E+01 -0.11099640294E+01  0.20283431898E+01  0.62507853385E+01  0.51100000000E-03 0.  1.
         12    1    3    3    0    0  0.15641381656E+02 -0.14244858698E+01  0.72463254814E+01  0.17297144651E+02  0.00000000000E+00 0. -1.
</event>
<event>
 7    1  0.1445801E-008  0.4614232E+02  0.7816164E-02  0.1320468E+00
        -11   -1    0    0    0    0  0.00000000000E+00  0.00000000000E+00  0.45593999997E+02  0.45594000000E+02  0.51100000000E-03 0.  1.
         11   -1    0    0    0    0 -0.00000000000E+00 -0.00000000000E+00 -0.45593999997E+02  0.45594000000E+02  0.51100000000E-03 0. -1.
    9900012    2    1    2    0    0 -0.23673784554E+02  0.13909808798E+02  0.35709699912E+02  0.46142317369E+02  0.99999964209E+01 0.  0.
         12    1    1    2    0    0  0.23673784554E+02 -0.13909808798E+02 -0.35709699912E+02  0.45045682631E+02  0.00000000000E+00 0. -1.
         11    1    3    3    0    0 -0.39411584636E+01  0.39078084318E+01  0.45977754574E+01  0.72071656143E+01  0.51100000000E-03 0. -1.
        -11    1    3    3    0    0 -0.14810614064E+02  0.37425800482E+01  0.22607039147E+02  0.27284417048E+02  0.51100000000E-03 0.  1.
        -12    1    3    3    0    0 -0.49220120260E+01  0.62594203180E+01  0.85048853076E+01  0.11650734706E+02  0.00000000000E+00 0.  1.
</event>
<event>
 7    1  0.1445801E-008  0.4614232E+02  0.7816164E-02  0.1320468E+00
        -11   -1    0    0    0    0  0.00000000000E+00  0.00000000000E+00  0.45593999997E+02  0.45594000000E+02  0.51100000000E-03 0. -1.
         11   -1    0    0    0    0 -0.00000000000E+00 -0.00000000000E+00 -0.45593999997E+02  0.45594000000E+02  0.51100000000E-03 0.  1.
    9900012    2    1    2    0    0  0.22752677151E+02 -0.86690845257E+01 -0.37898234465E+02  0.46142317415E+02  0.99999968404E+01 0.  0.
         12    1    1    2    0    0 -0.22752677151E+02  0.86690845257E+01  0.37898234465E+02  0.45045682585E+02  0.00000000000E+00 0. -1.
         11    1    3    3    0    0  0.68427898971E+01  0.11775684173E+00 -0.12244440911E+02  0.14027258240E+02  0.51100000000E-03 0. -1.
        -11    1    3    3    0    0  0.10306176649E+02 -0.74056738271E+01 -0.21634079930E+02  0.25081760238E+02  0.51100000000E-03 0.  1.
         12    1    3    3    0    0  0.56037106043E+01 -0.13811675404E+01 -0.40197136232E+01  0.70332989361E+01  0.00000000000E+00 0. -1.
</event>
<event>
 7    1  0.1445801E-008  0.4614231E+02  0.7816164E-02  0.1320468E+00
        -11   -1    0    0    0    0  0.00000000000E+00  0.00000000000E+00  0.45593999997E+02  0.45594000000E+02  0.51100000000E-03 0. -1.
         11   -1    0    0    0    0 -0.00000000000E+00 -0.00000000000E+00 -0.45593999997E+02  0.45594000000E+02  0.51100000000E-03 0.  1.
    9900012    2    1    2    0    0 -0.30505718771E+02  0.31781605033E+02 -0.94045008911E+01  0.46142312824E+02  0.99999549756E+01 0.  0.
         12    1    1    2    0    0  0.30505718771E+02 -0.31781605033E+02  0.94045008911E+01  0.45045687176E+02  0.00000000000E+00 0. -1.
         11    1    3    3    0    0 -0.13583100582E+02  0.13397466683E+02 -0.28624027858E+01  0.19292124946E+02  0.51100000000E-03 0. -1.
        -11    1    3    3    0    0 -0.14470829905E+02  0.11935444716E+02 -0.26936358825E+01  0.18950341243E+02  0.51100000000E-03 0.  1.
         12    1    3    3    0    0 -0.24517882834E+01  0.64486936338E+01 -0.38484622228E+01  0.78998466346E+01  0.00000000000E+00 0. -1.
</event>
<event>
 7    1  0.1445801E-008  0.4614232E+02  0.7816164E-02  0.1320468E+00
        -11   -1    0    0    0    0  0.00000000000E+00  0.00000000000E+00  0.45593999997E+02  0.45594000000E+02  0.51100000000E-03 0.  1.
         11   -1    0    0    0    0 -0.00000000000E+00 -0.00000000000E+00 -0.45593999997E+02  0.45594000000E+02  0.51100000000E-03 0. -1.
    9900012    2    1    2    0    0 -0.11346283943E+02 -0.43418805181E+02  0.38964973384E+01  0.46142317697E+02  0.99999994140E+01 0.  0.
         12    1    1    2    0    0  0.11346283943E+02  0.43418805181E+02 -0.38964973384E+01  0.45045682303E+02  0.00000000000E+00 0. -1.
         11    1    3    3    0    0  0.75597117095E+00 -0.20650559722E+01 -0.25925563596E+00  0.22143085435E+01  0.51100000000E-03 0. -1.
        -11    1    3    3    0    0 -0.10345197040E+02 -0.22543648138E+02  0.32289554652E+01  0.25013302997E+02  0.51100000000E-03 0.  1.
        -12    1    3    3    0    0 -0.17570580746E+01 -0.18810101070E+02  0.92679750921E+00  0.18914706156E+02  0.00000000000E+00 0.  1.
</event>
<event>
 7    1  0.1445801E-008  0.4614232E+02  0.7816164E-02  0.1320468E+00
        -11   -1    0    0    0    0  0.00000000000E+00  0.00000000000E+00  0.45593999997E+02  0.45594000000E+02  0.51100000000E-03 0. -1.
         11   -1    0    0    0    0 -0.00000000000E+00 -0.00000000000E+00 -0.45593999997E+02  0.45594000000E+02  0.51100000000E-03 0.  1.
    9900012    2    1    2    0    0  0.31936389234E+02 -0.27480725122E+01 -0.31648516617E+02  0.46142318033E+02  0.10000002477E+02 0.  0.
         12    1    1    2    0    0 -0.31936389234E+02  0.27480725122E+01  0.31648516617E+02  0.45045681967E+02  0.00000000000E+00 0. -1.
         11    1    3    3    0    0  0.24304780064E+01  0.16831810401E+01 -0.22179580058E+01  0.36958976893E+01  0.51100000000E-03 0. -1.
        -11    1    3    3    0    0  0.29085263529E+01  0.41045273094E+00 -0.59626725943E+01  0.66469136986E+01  0.51100000000E-03 0.  1.
         12    1    3    3    0    0  0.26597384874E+02 -0.48417062833E+01 -0.23467886017E+02  0.35799506645E+02  0.00000000000E+00 0. -1.
</event>
<event>
 7    1  0.1445801E-008  0.4614232E+02  0.7816164E-02  0.1320468E+00
        -11   -1    0    0    0    0  0.00000000000E+00  0.00000000000E+00  0.45593999997E+02  0.45594000000E+02  0.51100000000E-03 0.  1.
         11   -1    0    0    0    0 -0.00000000000E+00 -0.00000000000E+00 -0.45593999997E+02  0.45594000000E+02  0.51100000000E-03 0. -1.
    9900012    2    1    2    0    0  0.31331826049E+02 -0.14609073519E+02  0.28879147935E+02  0.46142317209E+02  0.99999949661E+01 0.  0.
         12    1    1    2    0    0 -0.31331826049E+02  0.14609073519E+02 -0.28879147935E+02  0.45045682791E+02  0.00000000000E+00 0. -1.
         11    1    3    3    0    0  0.17554788827E+02 -0.87450482791E+01  0.20480764738E+02  0.28356801736E+02  0.51100000000E-03 0.  1.
        -11    1    3    3    0    0  0.98279400190E+01 -0.18616812179E+01  0.60659082115E+01  0.11698269302E+02  0.51100000000E-03 0. -1.
         12    1    3    3    0    0  0.39490972028E+01 -0.40023440223E+01  0.23324749854E+01  0.60872461711E+01  0.00000000000E+00 0. -1.
</event>
<event>
 7    1  0.1445801E-008  0.4614232E+02  0.7816164E-02  0.1320468E+00
        -11   -1    0    0    0    0  0.00000000000E+00  0.00000000000E+00  0.45593999997E+02  0.45594000000E+02  0.51100000000E-03 0.  1.
         11   -1    0    0    0    0 -0.00000000000E+00 -0.00000000000E+00 -0.45593999997E+02  0.45594000000E+02  0.51100000000E-03 0. -1.
    9900012    2    1    2    0    0 -0.13290868620E+02  0.31085673268E+02  0.29768225961E+02  0.46142317098E+02  0.99999939519E+01 0.  0.
         12    1    1    2    0    0  0.13290868620E+02 -0.31085673268E+02 -0.29768225961E+02  0.45045682902E+02  0.00000000000E+00 0. -1.
         11    1    3    3    0    0 -0.28755152939E+01  0.29738794164E+01  0.26176206901E+01  0.48953534425E+01  0.51100000000E-03 0. -1.
        -11    1    3    3    0    0 -0.10188387578E+02  0.20050950698E+02  0.16531304793E+02  0.27912862694E+02  0.51100000000E-03 0.  1.
        -12    1    3    3    0    0 -0.22696574836E+00  0.80608431535E+01  0.10619300479E+02  0.13334100962E+02  0.00000000000E+00 0.  1.
</event>
<event>
 7    1  0.1445801E-008  0.4614232E+02  0.7816164E-02  0.1320468E+00
        -11   -1    0    0    0    0  0.00000000000E+00  0.00000000000E+00  0.45593999997E+02  0.45594000000E+02  0.51100000000E-03 0.  1.
         11   -1    0    0    0    0 -0.00000000000E+00 -0.00000000000E+00 -0.45593999997E+02  0.45594000000E+02  0.51100000000E-03 0. -1.
    9900012    2    1    2    0    0 -0.18568730429E+02  0.17151210903E+02  0.37284737834E+02  0.46142318070E+02  0.10000002819E+02 0.  0.
         12    1    1    2    0    0  0.18568730429E+02 -0.17151210903E+02 -0.37284737834E+02  0.45045681930E+02  0.00000000000E+00 0. -1.
         11    1    3    3    0    0 -0.44185501417E-01 -0.74612536900E-01 -0.40043775536E+00  0.40971947262E+00  0.51100000000E-03 0.  1.
        -11    1    3    3    0    0 -0.12310163742E+02  0.13863002988E+02  0.23959022873E+02  0.30294517003E+02  0.51100000000E-03 0. -1.
        -12    1    3    3    0    0 -0.62143811860E+01  0.33628204513E+01  0.13726152717E+02  0.15438081594E+02  0.00000000000E+00 0.  1.
</event>
<event>
 7    1  0.1445801E-008  0.4614232E+02  0.7816164E-02  0.1320468E+00
        -11   -1    0    0    0    0  0.00000000000E+00  0.00000000000E+00  0.45593999997E+02  0.45594000000E+02  0.51100000000E-03 0.  1.
         11   -1    0    0    0    0 -0.00000000000E+00 -0.00000000000E+00 -0.45593999997E+02  0.45594000000E+02  0.51100000000E-03 0. -1.
    9900012    2    1    2    0    0 -0.13131421915E+02 -0.41384429812E+02  0.12000340604E+02  0.46142318220E+02  0.10000004185E+02 0.  0.
         12    1    1    2    0    0  0.13131421915E+02  0.41384429812E+02 -0.12000340604E+02  0.45045681780E+02  0.00000000000E+00 0. -1.
         11    1    3    3    0    0 -0.58816892982E+01 -0.18374889179E+02  0.86516780875E+01  0.21144322059E+02  0.51100000000E-03 0. -1.
        -11    1    3    3    0    0 -0.33955142239E+01 -0.14594839816E+02  0.45613866051E+01  0.15663496229E+02  0.51100000000E-03 0.  1.
         12    1    3    3    0    0 -0.38542183930E+01 -0.84147008171E+01 -0.12127240885E+01  0.93344999319E+01  0.00000000000E+00 0. -1.
</event>
<event>
 7    1  0.1478406E-008  0.4614232E+02  0.7816164E-02  0.1320468E+00
        -11   -1    0    0    0    0  0.00000000000E+00  0.00000000000E+00  0.45593999997E+02  0.45594000000E+02  0.51100000000E-03 0.  1.
         11   -1    0    0    0    0 -0.00000000000E+00 -0.00000000000E+00 -0.45593999997E+02  0.45594000000E+02  0.51100000000E-03 0. -1.
    9900012    2    1    2    0    0  0.16160609558E+02 -0.40141322502E+02  0.12514879086E+02  0.46142320163E+02  0.10000021900E+02 0.  0.
         12    1    1    2    0    0 -0.16160609558E+02  0.40141322502E+02 -0.12514879086E+02  0.45045679837E+02  0.00000000000E+00 0. -1.
         11    1    3    3    0    0  0.50508462631E+01 -0.10072553847E+02  0.72051376503E+01  0.13374655054E+02  0.51100000000E-03 0. -1.
        -11    1    3    3    0    0  0.10090479986E+02 -0.22725365740E+02  0.48963655991E+01  0.25342344618E+02  0.51100000000E-03 0.  1.
         12    1    3    3    0    0  0.10192833086E+01 -0.73434029139E+01  0.41337583706E+00  0.74253204915E+01  0.00000000000E+00 0. -1.
</event>
<event>
 7    1  0.1445801E-008  0.4614232E+02  0.7816164E-02  0.1320468E+00
        -11   -1    0    0    0    0  0.00000000000E+00  0.00000000000E+00  0.45593999997E+02  0.45594000000E+02  0.51100000000E-03 0. -1.
         11   -1    0    0    0    0 -0.00000000000E+00 -0.00000000000E+00 -0.45593999997E+02  0.45594000000E+02  0.51100000000E-03 0.  1.
    9900012    2    1    2    0    0  0.63587920689E+01  0.66255642698E+01 -0.44099672844E+02  0.46142317817E+02  0.10000000505E+02 0.  0.
         12    1    1    2    0    0 -0.63587920689E+01 -0.66255642698E+01  0.44099672844E+02  0.45045682183E+02  0.00000000000E+00 0. -1.
         11    1    3    3    0    0  0.30333080944E+01 -0.15613231296E+00 -0.40622978175E+01  0.50722380774E+01  0.51100000000E-03 0. -1.
        -11    1    3    3    0    0 -0.10362114601E+01  0.27055373113E+01 -0.87174482910E+01  0.91862708049E+01  0.51100000000E-03 0.  1.
        -12    1    3    3    0    0  0.43616954345E+01  0.40761592715E+01 -0.31319926735E+02  0.31883808934E+02  0.00000000000E+00 0.  1.
</event>
<event>
 7    1  0.1445801E-008  0.4614232E+02  0.7816164E-02  0.1320468E+00
        -11   -1    0    0    0    0  0.00000000000E+00  0.00000000000E+00  0.45593999997E+02  0.45594000000E+02  0.51100000000E-03 0.  1.
         11   -1    0    0    0    0 -0.00000000000E+00 -0.00000000000E+00 -0.45593999997E+02  0.45594000000E+02  0.51100000000E-03 0. -1.
    9900012    2    1    2    0    0  0.25064904726E+02  0.17450167789E+02  0.33111262404E+02  0.46142317601E+02  0.99999985417E+01 0.  0.
         12    1    1    2    0    0 -0.25064904726E+02 -0.17450167789E+02 -0.33111262404E+02  0.45045682399E+02  0.00000000000E+00 0. -1.
         11    1    3    3    0    0  0.12625894502E+01 -0.60871499193E+00  0.97874099786E+00  0.17095614242E+01  0.51100000000E-03 0. -1.
        -11    1    3    3    0    0  0.23647849545E+02  0.15844174605E+02  0.29969987896E+02  0.41333507373E+02  0.51100000000E-03 0.  1.
        -12    1    3    3    0    0  0.15446573062E+00  0.22147081753E+01  0.21625335104E+01  0.30992488037E+01  0.00000000000E+00 0.  1.
</event>
<event>
 7    1  0.1445801E-008  0.4614232E+02  0.7816164E-02  0.1320468E+00
        -11   -1    0    0    0    0  0.00000000000E+00  0.00000000000E+00  0.45593999997E+02  0.45594000000E+02  0.51100000000E-03 0.  1.
         11   -1    0    0    0    0 -0.00000000000E+00 -0.00000000000E+00 -0.45593999997E+02  0.45594000000E+02  0.51100000000E-03 0. -1.
    9900012    2    1    2    0    0  0.21901487508E+02  0.17216050065E+02  0.35398389229E+02  0.46142317689E+02  0.99999993399E+01 0.  0.
         12    1    1    2    0    0 -0.21901487508E+02 -0.17216050065E+02 -0.35398389229E+02  0.45045682311E+02  0.00000000000E+00 0. -1.
         11    1    3    3    0    0  0.89777092837E+01  0.15813551934E+01  0.12193487184E+02  0.15224358055E+02  0.51100000000E-03 0. -1.
        -11    1    3    3    0    0  0.11364834476E+02  0.12350996738E+02  0.18649713471E+02  0.25090205179E+02  0.51100000000E-03 0.  1.
         12    1    3    3    0    0  0.15589437481E+01  0.32836981339E+01  0.45551885737E+01  0.58277544548E+01  0.00000000000E+00 0. -1.
</event>
<event>
 7    1  0.1445801E-008  0.4614232E+02  0.7816164E-02  0.1320468E+00
        -11   -1    0    0    0    0  0.00000000000E+00  0.00000000000E+00  0.45593999997E+02  0.45594000000E+02  0.51100000000E-03 0. -1.
         11   -1    0    0    0    0 -0.00000000000E+00 -0.00000000000E+00 -0.45593999997E+02  0.45594000000E+02  0.51100000000E-03 0.  1.
    9900012    2    1    2    0    0  0.41681410114E+02  0.17076219651E+02 -0.41982048543E+00  0.46142317899E+02  0.10000001256E+02 0.  0.
         12    1    1    2    0    0 -0.41681410114E+02 -0.17076219651E+02  0.41982048543E+00  0.45045682101E+02  0.00000000000E+00 0. -1.
         11    1    3    3    0    0  0.15879403535E+02  0.30602821821E+01  0.18637654500E+01  0.16278648764E+02  0.51100000000E-03 0.  1.
        -11    1    3    3    0    0  0.17921289444E+02  0.99533584432E+01 -0.38553507427E+01  0.20859187167E+02  0.51100000000E-03 0. -1.
        -12    1    3    3    0    0  0.78807171350E+01  0.40625790262E+01  0.15717648072E+01  0.90044819682E+01  0.00000000000E+00 0.  1.
</event>
<event>
 7    1  0.1445801E-008  0.4614232E+02  0.7816164E-02  0.1320468E+00
        -11   -1    0    0    0    0  0.00000000000E+00  0.00000000000E+00  0.45593999997E+02  0.45594000000E+02  0.51100000000E-03 0. -1.
         11   -1    0    0    0    0 -0.00000000000E+00 -0.00000000000E+00 -0.45593999997E+02  0.45594000000E+02  0.51100000000E-03 0.  1.
    9900012    2    1    2    0    0  0.44821709267E+02 -0.44386322302E+01 -0.65299151684E+00  0.46142317903E+02  0.10000001295E+02 0.  0.
         12    1    1    2    0    0 -0.44821709267E+02  0.44386322302E+01  0.65299151684E+00  0.45045682097E+02  0.00000000000E+00 0. -1.
         11    1    3    3    0    0 -0.26161149006E+00  0.41933233021E+00  0.42348405946E+00  0.65086034187E+00  0.51100000000E-03 0. -1.
        -11    1    3    3    0    0  0.28195334358E+02 -0.28653877726E+01  0.10116035755E+01  0.28358608371E+02  0.51100000000E-03 0.  1.
         12    1    3    3    0    0  0.16887986398E+02 -0.19925767878E+01 -0.20880791518E+01  0.17132849191E+02  0.00000000000E+00 0. -1.
</event>
<event>
 7    1  0.1445801E-008  0.4614232E+02  0.7816164E-02  0.1320468E+00
        -11   -1    0    0    0    0  0.00000000000E+00  0.00000000000E+00  0.45593999997E+02  0.45594000000E+02  0.51100000000E-03 0.  1.
         11   -1    0    0    0    0 -0.00000000000E+00 -0.00000000000E+00 -0.45593999997E+02  0.45594000000E+02  0.51100000000E-03 0. -1.
    9900012    2    1    2    0    0  0.39780132658E+02 -0.50360967023E+01  0.20525407452E+02  0.46142316795E+02  0.99999911906E+01 0.  0.
         12    1    1    2    0    0 -0.39780132658E+02  0.50360967023E+01 -0.20525407452E+02  0.45045683205E+02  0.00000000000E+00 0. -1.
         11    1    3    3    0    0  0.46575963550E+01 -0.14678881387E+01  0.10290784890E+01  0.49906815358E+01  0.51100000000E-03 0. -1.
        -11    1    3    3    0    0  0.57228972919E+01  0.22167751825E+01  0.47231595348E+01  0.77442805913E+01  0.51100000000E-03 0.  1.
        -12    1    3    3    0    0  0.29399639012E+02 -0.57849837461E+01  0.14773169428E+02  0.33407354668E+02  0.00000000000E+00 0.  1.
</event>
<event>
 7    1  0.1445801E-008  0.4614232E+02  0.7816164E-02  0.1320468E+00
        -11   -1    0    0    0    0  0.00000000000E+00  0.00000000000E+00  0.45593999997E+02  0.45594000000E+02  0.51100000000E-03 0.  1.
         11   -1    0    0    0    0 -0.00000000000E+00 -0.00000000000E+00 -0.45593999997E+02  0.45594000000E+02  0.51100000000E-03 0. -1.
    9900012    2    1    2    0    0 -0.31768587475E+02 -0.68988677741E+00  0.31927956457E+02  0.46142317660E+02  0.99999990783E+01 0.  0.
         12    1    1    2    0    0  0.31768587475E+02  0.68988677741E+00 -0.31927956457E+02  0.45045682340E+02  0.00000000000E+00 0. -1.
         11    1    3    3    0    0 -0.27824564596E+01  0.15373848249E+01  0.18676200932E+01  0.36869528236E+01  0.51100000000E-03 0. -1.
        -11    1    3    3    0    0 -0.25672392613E+02 -0.33662854448E+01  0.23261244705E+02  0.34806452357E+02  0.51100000000E-03 0.  1.
        -12    1    3    3    0    0 -0.33137384023E+01  0.11390138424E+01  0.67990916588E+01  0.76489124794E+01  0.00000000000E+00 0.  1.
</event>
<event>
 7    1  0.1445801E-008  0.4614232E+02  0.7816164E-02  0.1320468E+00
        -11   -1    0    0    0    0  0.00000000000E+00  0.00000000000E+00  0.45593999997E+02  0.45594000000E+02  0.51100000000E-03 0.  1.
         11   -1    0    0    0    0 -0.00000000000E+00 -0.00000000000E+00 -0.45593999997E+02  0.45594000000E+02  0.51100000000E-03 0. -1.
    9900012    2    1    2    0    0 -0.12666281246E+02  0.18413072179E+02  0.39110582224E+02  0.46142317082E+02  0.99999938063E+01 0.  0.
         12    1    1    2    0    0  0.12666281246E+02 -0.18413072179E+02 -0.39110582224E+02  0.45045682918E+02  0.00000000000E+00 0. -1.
         11    1    3    3    0    0 -0.64614244380E+01  0.10959503762E+02  0.14935288444E+02  0.19619469148E+02  0.51100000000E-03 0.  1.
        -11    1    3    3    0    0 -0.38156658546E+01  0.56303561757E+01  0.21315235960E+02  0.22374081006E+02  0.51100000000E-03 0. -1.
         12    1    3    3    0    0 -0.23891909538E+01  0.18232122411E+01  0.28600578199E+01  0.41487669280E+01  0.00000000000E+00 0. -1.
</event>
<event>
 7    1  0.1445801E-008  0.4614232E+02  0.7816164E-02  0.1320468E+00
        -11   -1    0    0    0    0  0.00000000000E+00  0.00000000000E+00  0.45593999997E+02  0.45594000000E+02  0.51100000000E-03 0.  1.
         11   -1    0    0    0    0 -0.00000000000E+00 -0.00000000000E+00 -0.45593999997E+02  0.45594000000E+02  0.51100000000E-03 0. -1.
    9900012    2    1    2    0    0 -0.34637580266E+02  0.90333070832E+01  0.27345036335E+02  0.46142316347E+02  0.99999871068E+01 0.  0.
         12    1    1    2    0    0  0.34637580266E+02 -0.90333070832E+01 -0.27345036335E+02  0.45045683653E+02  0.00000000000E+00 0. -1.
         11    1    3    3    0    0  0.19525367794E+00  0.71636977048E+00  0.45354366491E+00  0.87006422976E+00  0.51100000000E-03 0. -1.
        -11    1    3    3    0    0 -0.10442649389E+02  0.56372863487E+01  0.94007037488E+01  0.15139390836E+02  0.51100000000E-03 0.  1.
         12    1    3    3    0    0 -0.24390184555E+02  0.26796509639E+01  0.17490788922E+02  0.30132861282E+02  0.00000000000E+00 0. -1.
</event>
<event>
 7    1  0.1445801E-008  0.4614232E+02  0.7816164E-02  0.1320468E+00
        -11   -1    0    0    0    0  0.00000000000E+00  0.00000000000E+00  0.45593999997E+02  0.45594000000E+02  0.51100000000E-03 0. -1.
         11   -1    0    0    0    0 -0.00000000000E+00 -0.00000000000E+00 -0.45593999997E+02  0.45594000000E+02  0.51100000000E-03 0.  1.
    9900012    2    1    2    0    0  0.26862086962E+02 -0.14817200195E+02 -0.32984727223E+02  0.46142319102E+02  0.10000012227E+02 0.  0.
         12    1    1    2    0    0 -0.26862086962E+02  0.14817200195E+02  0.32984727223E+02  0.45045680898E+02  0.00000000000E+00 0. -1.
         11    1    3    3    0    0  0.77639711445E+01 -0.48968718934E+00 -0.98722184646E+01  0.12568999131E+02  0.51100000000E-03 0. -1.
        -11    1    3    3    0    0  0.35929928760E+01 -0.76786855216E+00 -0.45233753820E+01  0.58275333571E+01  0.51100000000E-03 0.  1.
         12    1    3    3    0    0  0.15505122941E+02 -0.13559644454E+02 -0.18589133377E+02  0.27745786614E+02  0.00000000000E+00 0. -1.
</event>
<event>
 7    1  0.1445801E-008  0.4614232E+02  0.7816164E-02  0.1320468E+00
        -11   -1    0    0    0    0  0.00000000000E+00  0.00000000000E+00  0.45593999997E+02  0.45594000000E+02  0.51100000000E-03 0.  1.
         11   -1    0    0    0    0 -0.00000000000E+00 -0.00000000000E+00 -0.45593999997E+02  0.45594000000E+02  0.51100000000E-03 0. -1.
    9900012    2    1    2    0    0 -0.27282419811E+02  0.30941604653E+02  0.18094194806E+02  0.46142320796E+02  0.10000027677E+02 0.  0.
         12    1    1    2    0    0  0.27282419811E+02 -0.30941604653E+02 -0.18094194806E+02  0.45045679204E+02  0.00000000000E+00 0. -1.
         11    1    3    3    0    0 -0.79989752133E+01  0.94512247057E+01  0.10620638977E+01  0.12427277774E+02  0.51100000000E-03 0. -1.
        -11    1    3    3    0    0 -0.18876330898E+02  0.20453316763E+02  0.15619262665E+02  0.31915754750E+02  0.51100000000E-03 0.  1.
         12    1    3    3    0    0 -0.40711369907E+00  0.10370631844E+01  0.14128682435E+01  0.17992882720E+01  0.00000000000E+00 0. -1.
</event>
<event>
 7    1  0.1445801E-008  0.4614232E+02  0.7816164E-02  0.1320468E+00
        -11   -1    0    0    0    0  0.00000000000E+00  0.00000000000E+00  0.45593999997E+02  0.45594000000E+02  0.51100000000E-03 0.  1.
         11   -1    0    0    0    0 -0.00000000000E+00 -0.00000000000E+00 -0.45593999997E+02  0.45594000000E+02  0.51100000000E-03 0. -1.
    9900012    2    1    2    0    0 -0.15770562769E+02  0.20316329191E+01  0.42145882924E+02  0.46142316191E+02  0.99999856868E+01 0.  0.
         12    1    1    2    0    0  0.15770562769E+02 -0.20316329191E+01 -0.42145882924E+02  0.45045683809E+02  0.00000000000E+00 0. -1.
         11    1    3    3    0    0  0.31357546693E+00 -0.19767373977E+00  0.46672218918E+00  0.59601538894E+00  0.51100000000E-03 0. -1.
        -11    1    3    3    0    0 -0.11824229335E+02 -0.21305094058E+01  0.31049008153E+02  0.33292527349E+02  0.51100000000E-03 0.  1.
        -12    1    3    3    0    0 -0.42599089010E+01  0.43598160647E+01  0.10630152581E+02  0.12253773454E+02  0.00000000000E+00 0.  1.
</event>
<event>
 7    1  0.1445801E-008  0.4614232E+02  0.7816164E-02  0.1320468E+00
        -11   -1    0    0    0    0  0.00000000000E+00  0.00000000000E+00  0.45593999997E+02  0.45594000000E+02  0.51100000000E-03 0.  1.
         11   -1    0    0    0    0 -0.00000000000E+00 -0.00000000000E+00 -0.45593999997E+02  0.45594000000E+02  0.51100000000E-03 0. -1.
    9900012    2    1    2    0    0 -0.12996369009E+02 -0.34940044797E+02  0.25286387555E+02  0.46142315041E+02  0.99999751979E+01 0.  0.
         12    1    1    2    0    0  0.12996369009E+02  0.34940044797E+02 -0.25286387555E+02  0.45045684959E+02  0.00000000000E+00 0. -1.
         11    1    3    3    0    0 -0.61203485692E-01 -0.45603964685E+00  0.10787782731E+01  0.11728089571E+01  0.51100000000E-03 0. -1.
        -11    1    3    3    0    0 -0.12433165679E+02 -0.34081238716E+02  0.24917480827E+02  0.44011308686E+02  0.51100000000E-03 0.  1.
        -12    1    3    3    0    0 -0.50199984481E+00 -0.40276643368E+00 -0.70987154471E+00  0.95819739839E+00  0.00000000000E+00 0.  1.
</event>
<event>
 7    1  0.1445801E-008  0.4614232E+02  0.7816164E-02  0.1320468E+00
        -11   -1    0    0    0    0  0.00000000000E+00  0.00000000000E+00  0.45593999997E+02  0.45594000000E+02  0.51100000000E-03 0.  1.
         11   -1    0    0    0    0 -0.00000000000E+00 -0.00000000000E+00 -0.45593999997E+02  0.45594000000E+02  0.51100000000E-03 0. -1.
    9900012    2    1    2    0    0  0.18601571046E+02 -0.38752678393E+02  0.13465697643E+02  0.46142317176E+02  0.99999946673E+01 0.  0.
         12    1    1    2    0    0 -0.18601571046E+02  0.38752678393E+02 -0.13465697643E+02  0.45045682824E+02  0.00000000000E+00 0. -1.
         11    1    3    3    0    0  0.24200628767E+01 -0.84806630160E+01  0.58070499726E+01  0.10559364525E+02  0.51100000000E-03 0. -1.
        -11    1    3    3    0    0  0.13552533346E+02 -0.27296161328E+02  0.82401842724E+01  0.31569799183E+02  0.51100000000E-03 0.  1.
         12    1    3    3    0    0  0.26289748236E+01 -0.29758540495E+01 -0.58153660204E+00  0.40131534691E+01  0.00000000000E+00 0. -1.
</event>
<event>
 7    1  0.1445801E-008  0.4614232E+02  0.7816164E-02  0.1320468E+00
        -11   -1    0    0    0    0  0.00000000000E+00  0.00000000000E+00  0.45593999997E+02  0.45594000000E+02  0.51100000000E-03 0.  1.
         11   -1    0    0    0    0 -0.00000000000E+00 -0.00000000000E+00 -0.45593999997E+02  0.45594000000E+02  0.51100000000E-03 0. -1.
    9900012    2    1    2    0    0 -0.26760158453E+02  0.26748768218E+02  0.24444036502E+02  0.46142316498E+02  0.99999884815E+01 0.  0.
         12    1    1    2    0    0  0.26760158453E+02 -0.26748768218E+02 -0.24444036502E+02  0.45045683502E+02  0.00000000000E+00 0. -1.
         11    1    3    3    0    0 -0.12966909021E+02  0.12079208446E+02  0.98878256570E+01  0.20293277279E+02  0.51100000000E-03 0. -1.
        -11    1    3    3    0    0 -0.96113180720E+01  0.10927759032E+02  0.14026928158E+02  0.20212571988E+02  0.51100000000E-03 0.  1.
        -12    1    3    3    0    0 -0.41819313609E+01  0.37418007407E+01  0.52928268682E+00  0.56364672316E+01  0.00000000000E+00 0.  1.
</event>
<event>
 7    1  0.1445801E-008  0.4614232E+02  0.7816164E-02  0.1320468E+00
        -11   -1    0    0    0    0  0.00000000000E+00  0.00000000000E+00  0.45593999997E+02  0.45594000000E+02  0.51100000000E-03 0.  1.
         11   -1    0    0    0    0 -0.00000000000E+00 -0.00000000000E+00 -0.45593999997E+02  0.45594000000E+02  0.51100000000E-03 0. -1.
    9900012    2    1    2    0    0 -0.21471477615E+02  0.29100945963E+02  0.26855617130E+02  0.46142316762E+02  0.99999908937E+01 0.  0.
         12    1    1    2    0    0  0.21471477615E+02 -0.29100945963E+02 -0.26855617130E+02  0.45045683238E+02  0.00000000000E+00 0. -1.
         11    1    3    3    0    0 -0.19690835833E+02  0.20695828195E+02  0.22157692058E+02  0.36152588263E+02  0.51100000000E-03 0. -1.
        -11    1    3    3    0    0 -0.19757502598E+01  0.46850029804E+01  0.28979367928E+01  0.58524251325E+01  0.51100000000E-03 0.  1.
         12    1    3    3    0    0  0.19510847786E+00  0.37201147873E+01  0.17999882792E+01  0.41373033674E+01  0.00000000000E+00 0. -1.
</event>
<event>
 7    1  0.1445801E-008  0.4614232E+02  0.7816164E-02  0.1320468E+00
        -11   -1    0    0    0    0  0.00000000000E+00  0.00000000000E+00  0.45593999997E+02  0.45594000000E+02  0.51100000000E-03 0.  1.
         11   -1    0    0    0    0 -0.00000000000E+00 -0.00000000000E+00 -0.45593999997E+02  0.45594000000E+02  0.51100000000E-03 0. -1.
    9900012    2    1    2    0    0 -0.15778783329E+02 -0.27720988488E+02  0.31807077611E+02  0.46142318828E+02  0.10000009730E+02 0.  0.
         12    1    1    2    0    0  0.15778783329E+02  0.27720988488E+02 -0.31807077611E+02  0.45045681172E+02  0.00000000000E+00 0. -1.
         11    1    3    3    0    0 -0.11267613830E+02 -0.12623638806E+02  0.21055423891E+02  0.27011965009E+02  0.51100000000E-03 0. -1.
        -11    1    3    3    0    0 -0.59304633350E+00 -0.29533730477E+01  0.26755923347E+01  0.40290086765E+01  0.51100000000E-03 0.  1.
         12    1    3    3    0    0 -0.39181231650E+01 -0.12143976635E+02  0.80760613848E+01  0.15101345143E+02  0.00000000000E+00 0. -1.
</event>
<event>
 7    1  0.1445801E-008  0.4614232E+02  0.7816164E-02  0.1320468E+00
        -11   -1    0    0    0    0  0.00000000000E+00  0.00000000000E+00  0.45593999997E+02  0.45594000000E+02  0.51100000000E-03 0.  1.
         11   -1    0    0    0    0 -0.00000000000E+00 -0.00000000000E+00 -0.45593999997E+02  0.45594000000E+02  0.51100000000E-03 0. -1.
    9900012    2    1    2    0    0 -0.29056315455E+02  0.14818981532E+02  0.31068341051E+02  0.46142317664E+02  0.99999991188E+01 0.  0.
         12    1    1    2    0    0  0.29056315455E+02 -0.14818981532E+02 -0.31068341051E+02  0.45045682336E+02  0.00000000000E+00 0. -1.
         11    1    3    3    0    0 -0.56150802375E+01  0.58129113621E+01  0.69121591049E+01  0.10634707722E+02  0.51100000000E-03 0. -1.
        -11    1    3    3    0    0 -0.14689220403E+02  0.82178761398E+01  0.12785309599E+02  0.21136954040E+02  0.51100000000E-03 0.  1.
         12    1    3    3    0    0 -0.87520148138E+01  0.78819402972E+00  0.11370872347E+02  0.14370655902E+02  0.00000000000E+00 0. -1.
</event>
<event>
 7    1  0.1445801E-008  0.4614232E+02  0.7816164E-02  0.1320468E+00
        -11   -1    0    0    0    0  0.00000000000E+00  0.00000000000E+00  0.45593999997E+02  0.45594000000E+02  0.51100000000E-03 0.  1.
         11   -1    0    0    0    0 -0.00000000000E+00 -0.00000000000E+00 -0.45593999997E+02  0.45594000000E+02  0.51100000000E-03 0. -1.
    9900012    2    1    2    0    0 -0.11715628230E+02  0.21234197469E+02  0.37960064403E+02  0.46142316784E+02  0.99999910875E+01 0.  0.
         12    1    1    2    0    0  0.11715628230E+02 -0.21234197469E+02 -0.37960064403E+02  0.45045683216E+02  0.00000000000E+00 0. -1.
         11    1    3    3    0    0  0.85015146612E+00  0.43356685950E+00  0.50325582194E+00  0.10788903653E+01  0.51100000000E-03 0. -1.
        -11    1    3    3    0    0 -0.60823702736E+01  0.97583104773E+01  0.12315866222E+02  0.16849344574E+02  0.51100000000E-03 0.  1.
        -12    1    3    3    0    0 -0.64834094222E+01  0.11042320132E+02  0.25140942358E+02  0.28214081844E+02  0.00000000000E+00 0.  1.
</event>
<event>
 7    1  0.1445801E-008  0.4614232E+02  0.7816164E-02  0.1320468E+00
        -11   -1    0    0    0    0  0.00000000000E+00  0.00000000000E+00  0.45593999997E+02  0.45594000000E+02  0.51100000000E-03 0.  1.
         11   -1    0    0    0    0 -0.00000000000E+00 -0.00000000000E+00 -0.45593999997E+02  0.45594000000E+02  0.51100000000E-03 0. -1.
    9900012    2    1    2    0    0 -0.21490464663E+02 -0.12046285730E+02  0.37711542661E+02  0.46142317397E+02  0.99999966815E+01 0.  0.
         12    1    1    2    0    0  0.21490464663E+02  0.12046285730E+02 -0.37711542661E+02  0.45045682603E+02  0.00000000000E+00 0. -1.
         11    1    3    3    0    0 -0.26651731993E+01 -0.19774531931E+00  0.21425823739E+01  0.34253336894E+01  0.51100000000E-03 0. -1.
        -11    1    3    3    0    0 -0.14827353863E+02 -0.10558445551E+02  0.22226902212E+02  0.28729190333E+02  0.51100000000E-03 0.  1.
        -12    1    3    3    0    0 -0.39979376000E+01 -0.12900948604E+01  0.13342058075E+02  0.13987793374E+02  0.00000000000E+00 0.  1.
</event>
<event>
 7    1  0.1445801E-008  0.4614232E+02  0.7816164E-02  0.1320468E+00
        -11   -1    0    0    0    0  0.00000000000E+00  0.00000000000E+00  0.45593999997E+02  0.45594000000E+02  0.51100000000E-03 0.  1.
         11   -1    0    0    0    0 -0.00000000000E+00 -0.00000000000E+00 -0.45593999997E+02  0.45594000000E+02  0.51100000000E-03 0. -1.
    9900012    2    1    2    0    0  0.16507547734E+01  0.31926669681E+02  0.31734464797E+02  0.46142317807E+02  0.10000000419E+02 0.  0.
         12    1    1    2    0    0 -0.16507547734E+01 -0.31926669681E+02 -0.31734464797E+02  0.45045682193E+02  0.00000000000E+00 0. -1.
         11    1    3    3    0    0 -0.33441980774E+01  0.81030307342E+01  0.81644421950E+01  0.11979185468E+02  0.51100000000E-03 0.  1.
        -11    1    3    3    0    0  0.51707565450E+01  0.18087045507E+02  0.19711348593E+02  0.27247297151E+02  0.51100000000E-03 0. -1.
        -12    1    3    3    0    0 -0.17580369414E+00  0.57365934405E+01  0.38586740090E+01  0.69158351880E+01  0.00000000000E+00 0.  1.
</event>
<event>
 7    1  0.1445801E-008  0.4614232E+02  0.7816164E-02  0.1320468E+00
        -11   -1    0    0    0    0  0.00000000000E+00  0.00000000000E+00  0.45593999997E+02  0.45594000000E+02  0.51100000000E-03 0. -1.
         11   -1    0    0    0    0 -0.00000000000E+00 -0.00000000000E+00 -0.45593999997E+02  0.45594000000E+02  0.51100000000E-03 0.  1.
    9900012    2    1    2    0    0  0.42553469900E+02 -0.11874120089E+02 -0.87932317479E+01  0.46142318154E+02  0.10000003584E+02 0.  0.
         12    1    1    2    0    0 -0.42553469900E+02  0.11874120089E+02  0.87932317479E+01  0.45045681846E+02  0.00000000000E+00 0. -1.
         11    1    3    3    0    0  0.10077898714E+02  0.98338346309E+00 -0.15413718151E+01  0.10242407571E+02  0.51100000000E-03 0. -1.
        -11    1    3    3    0    0  0.31523505229E+02 -0.12342547916E+02 -0.77165531380E+01  0.34721968025E+02  0.51100000000E-03 0.  1.
         12    1    3    3    0    0  0.95206595686E+00 -0.51495563645E+00  0.46469320518E+00  0.11779425575E+01  0.00000000000E+00 0. -1.
</event>
<event>
 7    1  0.1445801E-008  0.4614231E+02  0.7816164E-02  0.1320468E+00
        -11   -1    0    0    0    0  0.00000000000E+00  0.00000000000E+00  0.45593999997E+02  0.45594000000E+02  0.51100000000E-03 0. -1.
         11   -1    0    0    0    0 -0.00000000000E+00 -0.00000000000E+00 -0.45593999997E+02  0.45594000000E+02  0.51100000000E-03 0.  1.
    9900012    2    1    2    0    0  0.13227248216E+02  0.12001492327E+02 -0.41353571676E+02  0.46142314260E+02  0.99999680733E+01 0.  0.
         12    1    1    2    0    0 -0.13227248216E+02 -0.12001492327E+02  0.41353571676E+02  0.45045685740E+02  0.00000000000E+00 0. -1.
         11    1    3    3    0    0  0.15282735960E+01  0.31822464494E+01 -0.12925132731E+02  0.13398558468E+02  0.51100000000E-03 0. -1.
        -11    1    3    3    0    0  0.75534171509E+01  0.93126008800E+01 -0.22456113575E+02  0.25456937815E+02  0.51100000000E-03 0.  1.
        -12    1    3    3    0    0  0.41455574695E+01 -0.49335500264E+00 -0.59723253701E+01  0.72868179762E+01  0.00000000000E+00 0.  1.
</event>
<event>
 7    1  0.1445801E-008  0.4614232E+02  0.7816164E-02  0.1320468E+00
        -11   -1    0    0    0    0  0.00000000000E+00  0.00000000000E+00  0.45593999997E+02  0.45594000000E+02  0.51100000000E-03 0.  1.
         11   -1    0    0    0    0 -0.00000000000E+00 -0.00000000000E+00 -0.45593999997E+02  0.45594000000E+02  0.51100000000E-03 0. -1.
    9900012    2    1    2    0    0  0.32637731942E+02  0.15339919910E+02  0.26992198742E+02  0.46142317831E+02  0.10000000637E+02 0.  0.
         12    1    1    2    0    0 -0.32637731942E+02 -0.15339919910E+02 -0.26992198742E+02  0.45045682169E+02  0.00000000000E+00 0. -1.
         11    1    3    3    0    0  0.15759539423E+01  0.25652396090E+01  0.16107791078E+01  0.34144830758E+01  0.51100000000E-03 0. -1.
        -11    1    3    3    0    0  0.17123958541E+02  0.36357402909E+01  0.15297814538E+02  0.23248047089E+02  0.51100000000E-03 0.  1.
        -12    1    3    3    0    0  0.13937819459E+02  0.91389400101E+01  0.10083605096E+02  0.19479787666E+02  0.00000000000E+00 0.  1.
</event>
<event>
 7    1  0.1445801E-008  0.4614232E+02  0.7816164E-02  0.1320468E+00
        -11   -1    0    0    0    0  0.00000000000E+00  0.00000000000E+00  0.45593999997E+02  0.45594000000E+02  0.51100000000E-03 0.  1.
         11   -1    0    0    0    0 -0.00000000000E+00 -0.00000000000E+00 -0.45593999997E+02  0.45594000000E+02  0.51100000000E-03 0. -1.
    9900012    2    1    2    0    0  0.18235172938E+02 -0.24769075287E+02  0.32910255844E+02  0.46142316939E+02  0.99999925077E+01 0.  0.
         12    1    1    2    0    0 -0.18235172938E+02  0.24769075287E+02 -0.32910255844E+02  0.45045683061E+02  0.00000000000E+00 0. -1.
         11    1    3    3    0    0  0.17884629976E+01  0.67644942504E+00  0.19421499144E+01  0.27254596437E+01  0.51100000000E-03 0. -1.
        -11    1    3    3    0    0  0.14650543820E+02 -0.23990354300E+02  0.28334935545E+02  0.39912956621E+02  0.51100000000E-03 0.  1.
         12    1    3    3    0    0  0.17961661202E+01 -0.14551704122E+01  0.26331703850E+01  0.35039006745E+01  0.00000000000E+00 0. -1.
</event>
<event>
 7    1  0.1445801E-008  0.4614232E+02  0.7816164E-02  0.1320468E+00
        -11   -1    0    0    0    0  0.00000000000E+00  0.00000000000E+00  0.45593999997E+02  0.45594000000E+02  0.51100000000E-03 0.  1.
         11   -1    0    0    0    0 -0.00000000000E+00 -0.00000000000E+00 -0.45593999997E+02  0.45594000000E+02  0.51100000000E-03 0. -1.
    9900012    2    1    2    0    0 -0.40497085208E+02  0.52023241053E+01  0.19027230941E+02  0.46142316480E+02  0.99999883212E+01 0.  0.
         12    1    1    2    0    0  0.40497085208E+02 -0.52023241053E+01 -0.19027230941E+02  0.45045683520E+02  0.00000000000E+00 0. -1.
         11    1    3    3    0    0 -0.61162605846E+01 -0.13181689180E+01  0.40749762497E+00  0.62699495541E+01  0.51100000000E-03 0. -1.
        -11    1    3    3    0    0 -0.18723837856E+02  0.24834694572E+01  0.12142503577E+02  0.22454178185E+02  0.51100000000E-03 0.  1.
        -12    1    3    3    0    0 -0.15656986768E+02  0.40370235661E+01  0.64772297384E+01  0.17418188741E+02  0.00000000000E+00 0.  1.
</event>
<event>
 7    1  0.1445801E-008  0.4614232E+02  0.7816164E-02  0.1320468E+00
        -11   -1    0    0    0    0  0.00000000000E+00  0.00000000000E+00  0.45593999997E+02  0.45594000000E+02  0.51100000000E-03 0. -1.
         11   -1    0    0    0    0 -0.00000000000E+00 -0.00000000000E+00 -0.45593999997E+02  0.45594000000E+02  0.51100000000E-03 0.  1.
    9900012    2    1    2    0    0 -0.12125681688E+02 -0.41528900741E+02 -0.12547178518E+02  0.46142318276E+02  0.10000004696E+02 0.  0.
         12    1    1    2    0    0  0.12125681688E+02  0.41528900741E+02  0.12547178518E+02  0.45045681724E+02  0.00000000000E+00 0. -1.
         11    1    3    3    0    0 -0.26735078793E+00 -0.27033991410E+00  0.49065759675E+00  0.62072961210E+00  0.51100000000E-03 0. -1.
        -11    1    3    3    0    0 -0.15370366994E+01 -0.37951756569E+01  0.98195156590E+00  0.42107088739E+01  0.51100000000E-03 0.  1.
        -12    1    3    3    0    0 -0.10321294201E+02 -0.37463385170E+02 -0.14019787681E+02  0.41310879790E+02  0.00000000000E+00 0.  1.
</event>
<event>
 7    1  0.1445801E-008  0.4614232E+02  0.7816164E-02  0.1320468E+00
        -11   -1    0    0    0    0  0.00000000000E+00  0.00000000000E+00  0.45593999997E+02  0.45594000000E+02  0.51100000000E-03 0. -1.
         11   -1    0    0    0    0 -0.00000000000E+00 -0.00000000000E+00 -0.45593999997E+02  0.45594000000E+02  0.51100000000E-03 0.  1.
    9900012    2    1    2    0    0  0.29354606252E+02 -0.34167120913E+02  0.16901008003E+00  0.46142316255E+02  0.99999862620E+01 0.  0.
         12    1    1    2    0    0 -0.29354606252E+02  0.34167120913E+02 -0.16901008003E+00  0.45045683745E+02  0.00000000000E+00 0. -1.
         11    1    3    3    0    0  0.28589556804E+01 -0.80907240233E+01  0.12766475712E+00  0.85819427495E+01  0.51100000000E-03 0. -1.
        -11    1    3    3    0    0  0.16122560182E+02 -0.19316756997E+02  0.57743985937E+00  0.25167587980E+02  0.51100000000E-03 0.  1.
         12    1    3    3    0    0  0.10373090389E+02 -0.67596398929E+01 -0.53609453645E+00  0.12392785525E+02  0.00000000000E+00 0. -1.
</event>
<event>
 7    1  0.1445801E-008  0.4614232E+02  0.7816164E-02  0.1320468E+00
        -11   -1    0    0    0    0  0.00000000000E+00  0.00000000000E+00  0.45593999997E+02  0.45594000000E+02  0.51100000000E-03 0. -1.
         11   -1    0    0    0    0 -0.00000000000E+00 -0.00000000000E+00 -0.45593999997E+02  0.45594000000E+02  0.51100000000E-03 0.  1.
    9900012    2    1    2    0    0 -0.18625877675E+02  0.39259075720E+02  0.11870769622E+02  0.46142317444E+02  0.99999971090E+01 0.  0.
         12    1    1    2    0    0  0.18625877675E+02 -0.39259075720E+02 -0.11870769622E+02  0.45045682556E+02  0.00000000000E+00 0. -1.
         11    1    3    3    0    0 -0.95967891989E+00  0.18701358938E+01 -0.10282996944E+01  0.23400411136E+01  0.51100000000E-03 0. -1.
        -11    1    3    3    0    0 -0.16888881272E+02  0.30051333372E+02  0.10974666087E+02  0.36176791511E+02  0.51100000000E-03 0.  1.
        -12    1    3    3    0    0 -0.77731748261E+00  0.73376064540E+01  0.19244032287E+01  0.76254848193E+01  0.00000000000E+00 0.  1.
</event>
<event>
 7    1  0.1445801E-008  0.4614232E+02  0.7816164E-02  0.1320468E+00
        -11   -1    0    0    0    0  0.00000000000E+00  0.00000000000E+00  0.45593999997E+02  0.45594000000E+02  0.51100000000E-03 0. -1.
         11   -1    0    0    0    0 -0.00000000000E+00 -0.00000000000E+00 -0.45593999997E+02  0.45594000000E+02  0.51100000000E-03 0.  1.
    9900012    2    1    2    0    0 -0.35038618306E+00 -0.14531784877E+02 -0.42635875612E+02  0.46142318394E+02  0.10000005769E+02 0.  0.
         12    1    1    2    0    0  0.35038618306E+00  0.14531784877E+02  0.42635875612E+02  0.45045681606E+02  0.00000000000E+00 0. -1.
         11    1    3    3    0    0 -0.13204679383E+01  0.69090006225E+00 -0.65488212303E+01  0.67162517999E+01  0.51100000000E-03 0. -1.
        -11    1    3    3    0    0  0.22811630723E+01 -0.12008816951E+02 -0.25374892805E+02  0.28165592034E+02  0.51100000000E-03 0.  1.
         12    1    3    3    0    0 -0.13110813170E+01 -0.32138679888E+01 -0.10712161577E+02  0.11260474560E+02  0.00000000000E+00 0. -1.
</event>
<event>
 7    1  0.1445801E-008  0.4614232E+02  0.7816164E-02  0.1320468E+00
        -11   -1    0    0    0    0  0.00000000000E+00  0.00000000000E+00  0.45593999997E+02  0.45594000000E+02  0.51100000000E-03 0. -1.
         11   -1    0    0    0    0 -0.00000000000E+00 -0.00000000000E+00 -0.45593999997E+02  0.45594000000E+02  0.51100000000E-03 0.  1.
    9900012    2    1    2    0    0 -0.35572402421E+02  0.10353729641E+02 -0.25622609111E+02  0.46142316199E+02  0.99999857549E+01 0.  0.
         12    1    1    2    0    0  0.35572402421E+02 -0.10353729641E+02  0.25622609111E+02  0.45045683801E+02  0.00000000000E+00 0. -1.
         11    1    3    3    0    0 -0.31558352545E+02  0.11900569779E+02 -0.22203931567E+02  0.40380289173E+02  0.51100000000E-03 0. -1.
        -11    1    3    3    0    0 -0.38413689533E+01 -0.18211802198E+01 -0.28853224438E+01  0.51378885444E+01  0.51100000000E-03 0.  1.
         12    1    3    3    0    0 -0.17268092265E+00  0.27434008153E+00 -0.53335509998E+00  0.62413848147E+00  0.00000000000E+00 0. -1.
</event>
<event>
 7    1  0.1445801E-008  0.4614232E+02  0.7816164E-02  0.1320468E+00
        -11   -1    0    0    0    0  0.00000000000E+00  0.00000000000E+00  0.45593999997E+02  0.45594000000E+02  0.51100000000E-03 0.  1.
         11   -1    0    0    0    0 -0.00000000000E+00 -0.00000000000E+00 -0.45593999997E+02  0.45594000000E+02  0.51100000000E-03 0. -1.
    9900012    2    1    2    0    0 -0.12602750615E+02  0.22988808560E+02  0.36630569378E+02  0.46142320351E+02  0.10000023620E+02 0.  0.
         12    1    1    2    0    0  0.12602750615E+02 -0.22988808560E+02 -0.36630569378E+02  0.45045679649E+02  0.00000000000E+00 0. -1.
         11    1    3    3    0    0 -0.18615182713E+01  0.19152868922E+01  0.40335498066E+00  0.27011607977E+01  0.51100000000E-03 0. -1.
        -11    1    3    3    0    0 -0.93162424554E+01  0.15640334228E+02  0.25488113232E+02  0.31321818987E+02  0.51100000000E-03 0.  1.
        -12    1    3    3    0    0 -0.14249898880E+01  0.54331874395E+01  0.10739101165E+02  0.12119340567E+02  0.00000000000E+00 0.  1.
</event>
<event>
 7    1  0.1445801E-008  0.4614232E+02  0.7816164E-02  0.1320468E+00
        -11   -1    0    0    0    0  0.00000000000E+00  0.00000000000E+00  0.45593999997E+02  0.45594000000E+02  0.51100000000E-03 0.  1.
         11   -1    0    0    0    0 -0.00000000000E+00 -0.00000000000E+00 -0.45593999997E+02  0.45594000000E+02  0.51100000000E-03 0. -1.
    9900012    2    1    2    0    0  0.22881758844E+02  0.16363747258E+02  0.35181904006E+02  0.46142317836E+02  0.10000000685E+02 0.  0.
         12    1    1    2    0    0 -0.22881758844E+02 -0.16363747258E+02 -0.35181904006E+02  0.45045682164E+02  0.00000000000E+00 0. -1.
         11    1    3    3    0    0  0.52982826420E+01  0.48306571131E+01  0.13593221851E+02  0.15368237623E+02  0.51100000000E-03 0. -1.
        -11    1    3    3    0    0  0.16662491029E+02  0.12007057655E+02  0.21502172954E+02  0.29734684845E+02  0.51100000000E-03 0.  1.
         12    1    3    3    0    0  0.92098517280E+00 -0.47396751012E+00  0.86509201024E-01  0.10393953680E+01  0.00000000000E+00 0. -1.
</event>
<event>
 7    1  0.1445801E-008  0.4614232E+02  0.7816164E-02  0.1320468E+00
        -11   -1    0    0    0    0  0.00000000000E+00  0.00000000000E+00  0.45593999997E+02  0.45594000000E+02  0.51100000000E-03 0.  1.
         11   -1    0    0    0    0 -0.00000000000E+00 -0.00000000000E+00 -0.45593999997E+02  0.45594000000E+02  0.51100000000E-03 0. -1.
    9900012    2    1    2    0    0 -0.51387419213E+01  0.32794152036E+02  0.30450784033E+02  0.46142319580E+02  0.10000016585E+02 0.  0.
         12    1    1    2    0    0  0.51387419213E+01 -0.32794152036E+02 -0.30450784033E+02  0.45045680420E+02  0.00000000000E+00 0. -1.
         11    1    3    3    0    0 -0.32947415110E+01  0.14923377090E+02  0.18989997418E+02  0.24375859115E+02  0.51100000000E-03 0. -1.
        -11    1    3    3    0    0 -0.31650449526E+01  0.11654456661E+02  0.65759679989E+01  0.13750899061E+02  0.51100000000E-03 0.  1.
        -12    1    3    3    0    0  0.13210445423E+01  0.62163182850E+01  0.48848186162E+01  0.80155614037E+01  0.00000000000E+00 0.  1.
</event>
<event>
 7    1  0.1445801E-008  0.4614232E+02  0.7816164E-02  0.1320468E+00
        -11   -1    0    0    0    0  0.00000000000E+00  0.00000000000E+00  0.45593999997E+02  0.45594000000E+02  0.51100000000E-03 0.  1.
         11   -1    0    0    0    0 -0.00000000000E+00 -0.00000000000E+00 -0.45593999997E+02  0.45594000000E+02  0.51100000000E-03 0. -1.
    9900012    2    1    2    0    0 -0.13473351325E+02  0.14882239206E+02  0.40324945889E+02  0.46142317625E+02  0.99999987578E+01 0.  0.
         12    1    1    2    0    0  0.13473351325E+02 -0.14882239206E+02 -0.40324945889E+02  0.45045682375E+02  0.00000000000E+00 0. -1.
         11    1    3    3    0    0  0.13036216631E+01  0.33747532775E+01  0.59126213068E+01  0.69316289646E+01  0.51100000000E-03 0. -1.
        -11    1    3    3    0    0 -0.11744046185E+02  0.98905677741E+01  0.28442551991E+02  0.32322201592E+02  0.51100000000E-03 0.  1.
         12    1    3    3    0    0 -0.30329268034E+01  0.16169181546E+01  0.59697725905E+01  0.68884870687E+01  0.00000000000E+00 0. -1.
</event>
<event>
 7    1  0.1445801E-008  0.4614232E+02  0.7816164E-02  0.1320468E+00
        -11   -1    0    0    0    0  0.00000000000E+00  0.00000000000E+00  0.45593999997E+02  0.45594000000E+02  0.51100000000E-03 0.  1.
         11   -1    0    0    0    0 -0.00000000000E+00 -0.00000000000E+00 -0.45593999997E+02  0.45594000000E+02  0.51100000000E-03 0. -1.
    9900012    2    1    2    0    0 -0.11769109101E+01 -0.15175207302E+02  0.42396244078E+02  0.46142317100E+02  0.99999939755E+01 0.  0.
         12    1    1    2    0    0  0.11769109101E+01  0.15175207302E+02 -0.42396244078E+02  0.45045682900E+02  0.00000000000E+00 0. -1.
         11    1    3    3    0    0 -0.13869753914E+01 -0.43187526604E+01  0.23698405183E+02  0.24128608202E+02  0.51100000000E-03 0. -1.
        -11    1    3    3    0    0 -0.16497020174E+01 -0.70446259939E+01  0.13387115449E+02  0.15217198574E+02  0.51100000000E-03 0.  1.
         12    1    3    3    0    0  0.18597664987E+01 -0.38118286476E+01  0.53107234468E+01  0.67965103249E+01  0.00000000000E+00 0. -1.
</event>
<event>
 7    1  0.1445801E-008  0.4614231E+02  0.7816164E-02  0.1320468E+00
        -11   -1    0    0    0    0  0.00000000000E+00  0.00000000000E+00  0.45593999997E+02  0.45594000000E+02  0.51100000000E-03 0. -1.
         11   -1    0    0    0    0 -0.00000000000E+00 -0.00000000000E+00 -0.45593999997E+02  0.45594000000E+02  0.51100000000E-03 0.  1.
    9900012    2    1    2    0    0 -0.67736281244E+01 -0.24886296599E+02 -0.36931076344E+02  0.46142309903E+02  0.99999283408E+01 0.  0.
         12    1    1    2    0    0  0.67736281244E+01  0.24886296599E+02  0.36931076344E+02  0.45045690097E+02  0.00000000000E+00 0. -1.
         11    1    3    3    0    0 -0.50022507353E+01 -0.13485727080E+02 -0.21568405255E+02  0.25924572374E+02  0.51100000000E-03 0.  1.
        -11    1    3    3    0    0 -0.94795301570E+00 -0.11708330955E+02 -0.12202862204E+02  0.16937930065E+02  0.51100000000E-03 0. -1.
         12    1    3    3    0    0 -0.82342437337E+00  0.30776143596E+00 -0.31598088862E+01  0.32798074635E+01  0.00000000000E+00 0. -1.
</event>
<event>
 7    1  0.1445801E-008  0.4614232E+02  0.7816164E-02  0.1320468E+00
        -11   -1    0    0    0    0  0.00000000000E+00  0.00000000000E+00  0.45593999997E+02  0.45594000000E+02  0.51100000000E-03 0.  1.
         11   -1    0    0    0    0 -0.00000000000E+00 -0.00000000000E+00 -0.45593999997E+02  0.45594000000E+02  0.51100000000E-03 0. -1.
    9900012    2    1    2    0    0 -0.17198395287E+02 -0.34448155618E+01  0.41490504799E+02  0.46142317153E+02  0.99999944547E+01 0.  0.
         12    1    1    2    0    0  0.17198395287E+02  0.34448155618E+01 -0.41490504799E+02  0.45045682847E+02  0.00000000000E+00 0. -1.
         11    1    3    3    0    0 -0.45035320348E+00 -0.30148504703E+01  0.38319514038E+01  0.48965286875E+01  0.51100000000E-03 0. -1.
        -11    1    3    3    0    0 -0.13705727646E+02 -0.25322801041E+00  0.29273353435E+02  0.32323989796E+02  0.51100000000E-03 0.  1.
         12    1    3    3    0    0 -0.30423144372E+01 -0.17673708118E+00  0.83851999598E+01  0.89217986693E+01  0.00000000000E+00 0. -1.
</event>
<event>
 7    1  0.1445801E-008  0.4614232E+02  0.7816164E-02  0.1320468E+00
        -11   -1    0    0    0    0  0.00000000000E+00  0.00000000000E+00  0.45593999997E+02  0.45594000000E+02  0.51100000000E-03 0.  1.
         11   -1    0    0    0    0 -0.00000000000E+00 -0.00000000000E+00 -0.45593999997E+02  0.45594000000E+02  0.51100000000E-03 0. -1.
    9900012    2    1    2    0    0 -0.14389390706E+02  0.30000470970E+02  0.30364958435E+02  0.46142317365E+02  0.99999963853E+01 0.  0.
         12    1    1    2    0    0  0.14389390706E+02 -0.30000470970E+02 -0.30364958435E+02  0.45045682635E+02  0.00000000000E+00 0. -1.
         11    1    3    3    0    0 -0.51817195247E+01  0.17379057324E+02  0.20279729803E+02  0.27205684918E+02  0.51100000000E-03 0. -1.
        -11    1    3    3    0    0 -0.84220244052E+01  0.10423850354E+02  0.97641148690E+01  0.16580865198E+02  0.51100000000E-03 0.  1.
         12    1    3    3    0    0 -0.78564677614E+00  0.21975632928E+01  0.32111376272E+00  0.23557672489E+01  0.00000000000E+00 0. -1.
</event>
<event>
 7    1  0.1445801E-008  0.4614232E+02  0.7816164E-02  0.1320468E+00
        -11   -1    0    0    0    0  0.00000000000E+00  0.00000000000E+00  0.45593999997E+02  0.45594000000E+02  0.51100000000E-03 0.  1.
         11   -1    0    0    0    0 -0.00000000000E+00 -0.00000000000E+00 -0.45593999997E+02  0.45594000000E+02  0.51100000000E-03 0. -1.
    9900012    2    1    2    0    0  0.27274700267E+02  0.34811610239E+02  0.85648057865E+01  0.46142318961E+02  0.10000010938E+02 0.  0.
         12    1    1    2    0    0 -0.27274700267E+02 -0.34811610239E+02 -0.85648057865E+01  0.45045681039E+02  0.00000000000E+00 0. -1.
         11    1    3    3    0    0  0.11967752459E+02  0.12488296307E+02  0.25592405235E+01  0.17485261104E+02  0.51100000000E-03 0. -1.
        -11    1    3    3    0    0  0.22211796373E+01  0.35375661879E+01  0.38172532138E+01  0.56585718935E+01  0.51100000000E-03 0.  1.
        -12    1    3    3    0    0  0.13085768171E+02  0.18785747745E+02  0.21883120492E+01  0.22998485963E+02  0.00000000000E+00 0.  1.
</event>
<event>
 7    1  0.1445801E-008  0.4614232E+02  0.7816164E-02  0.1320468E+00
        -11   -1    0    0    0    0  0.00000000000E+00  0.00000000000E+00  0.45593999997E+02  0.45594000000E+02  0.51100000000E-03 0. -1.
         11   -1    0    0    0    0 -0.00000000000E+00 -0.00000000000E+00 -0.45593999997E+02  0.45594000000E+02  0.51100000000E-03 0.  1.
    9900012    2    1    2    0    0  0.36086114846E+02  0.20286829605E+02 -0.17758106713E+02  0.46142317697E+02  0.99999994133E+01 0.  0.
         12    1    1    2    0    0 -0.36086114846E+02 -0.20286829605E+02  0.17758106713E+02  0.45045682303E+02  0.00000000000E+00 0. -1.
         11    1    3    3    0    0  0.95843996181E+01  0.10127471632E+02 -0.75275662956E+01  0.15845840220E+02  0.51100000000E-03 0. -1.
        -11    1    3    3    0    0  0.18278931435E+02  0.57195566606E+01 -0.63519865135E+01  0.20178711449E+02  0.51100000000E-03 0.  1.
         12    1    3    3    0    0  0.82227837932E+01  0.44398013124E+01 -0.38785539043E+01  0.10117766028E+02  0.00000000000E+00 0. -1.
</event>
<event>
 7    1  0.1445801E-008  0.4614232E+02  0.7816164E-02  0.1320468E+00
        -11   -1    0    0    0    0  0.00000000000E+00  0.00000000000E+00  0.45593999997E+02  0.45594000000E+02  0.51100000000E-03 0.  1.
         11   -1    0    0    0    0 -0.00000000000E+00 -0.00000000000E+00 -0.45593999997E+02  0.45594000000E+02  0.51100000000E-03 0. -1.
    9900012    2    1    2    0    0 -0.35090731325E+02  0.18423212027E+02  0.21408860370E+02  0.46142317980E+02  0.10000001999E+02 0.  0.
         12    1    1    2    0    0  0.35090731325E+02 -0.18423212027E+02 -0.21408860370E+02  0.45045682020E+02  0.00000000000E+00 0. -1.
         11    1    3    3    0    0 -0.28124770740E+01  0.31707233636E+01  0.42424476295E+01  0.59968221660E+01  0.51100000000E-03 0. -1.
        -11    1    3    3    0    0 -0.22820365306E+02  0.13722767349E+02  0.13787642066E+02  0.29986371745E+02  0.51100000000E-03 0.  1.
         12    1    3    3    0    0 -0.94578889449E+01  0.15297213138E+01  0.33787706747E+01  0.10159124070E+02  0.00000000000E+00 0. -1.
</event>
<event>
 7    1  0.1445801E-008  0.4614232E+02  0.7816164E-02  0.1320468E+00
        -11   -1    0    0    0    0  0.00000000000E+00  0.00000000000E+00  0.45593999997E+02  0.45594000000E+02  0.51100000000E-03 0.  1.
         11   -1    0    0    0    0 -0.00000000000E+00 -0.00000000000E+00 -0.45593999997E+02  0.45594000000E+02  0.51100000000E-03 0. -1.
    9900012    2    1    2    0    0  0.38330771968E+02  0.22745345492E+02  0.65203256587E+01  0.46142317988E+02  0.10000002069E+02 0.  0.
         12    1    1    2    0    0 -0.38330771968E+02 -0.22745345492E+02 -0.65203256587E+01  0.45045682012E+02  0.00000000000E+00 0. -1.
         11    1    3    3    0    0  0.74362856825E+01  0.12257971642E+01 -0.24241884073E+00  0.75405364925E+01  0.51100000000E-03 0. -1.
        -11    1    3    3    0    0  0.17198249447E+02  0.90581378532E+01  0.24729282625E+01  0.19594515046E+02  0.51100000000E-03 0.  1.
        -12    1    3    3    0    0  0.13696236838E+02  0.12461410475E+02  0.42898162370E+01  0.19007266450E+02  0.00000000000E+00 0.  1.
</event>
<event>
 7    1  0.1445801E-008  0.4614232E+02  0.7816164E-02  0.1320468E+00
        -11   -1    0    0    0    0  0.00000000000E+00  0.00000000000E+00  0.45593999997E+02  0.45594000000E+02  0.51100000000E-03 0.  1.
         11   -1    0    0    0    0 -0.00000000000E+00 -0.00000000000E+00 -0.45593999997E+02  0.45594000000E+02  0.51100000000E-03 0. -1.
    9900012    2    1    2    0    0  0.25267066418E+01 -0.26221893298E+02  0.36539587558E+02  0.46142318814E+02  0.10000009601E+02 0.  0.
         12    1    1    2    0    0 -0.25267066418E+01  0.26221893298E+02 -0.36539587558E+02  0.45045681186E+02  0.00000000000E+00 0. -1.
         11    1    3    3    0    0  0.38077937354E+01 -0.82088986066E+01  0.15907206807E+02  0.18300943640E+02  0.51100000000E-03 0. -1.
        -11    1    3    3    0    0 -0.16738309570E+01 -0.17623832468E+02  0.18368037757E+02  0.25510507487E+02  0.51100000000E-03 0.  1.
         12    1    3    3    0    0  0.39274386342E+00 -0.38916222367E+00  0.22643429940E+01  0.23308676867E+01  0.00000000000E+00 0. -1.
</event>
<event>
 7    1  0.1445801E-008  0.4614232E+02  0.7816164E-02  0.1320468E+00
        -11   -1    0    0    0    0  0.00000000000E+00  0.00000000000E+00  0.45593999997E+02  0.45594000000E+02  0.51100000000E-03 0.  1.
         11   -1    0    0    0    0 -0.00000000000E+00 -0.00000000000E+00 -0.45593999997E+02  0.45594000000E+02  0.51100000000E-03 0. -1.
    9900012    2    1    2    0    0 -0.20776442760E+02  0.39745791325E+02  0.42100959874E+01  0.46142318630E+02  0.10000007927E+02 0.  0.
         12    1    1    2    0    0  0.20776442760E+02 -0.39745791325E+02 -0.42100959874E+01  0.45045681370E+02  0.00000000000E+00 0. -1.
         11    1    3    3    0    0 -0.48582804259E+01  0.73343372205E+01 -0.28569343744E+01  0.92497278577E+01  0.51100000000E-03 0. -1.
        -11    1    3    3    0    0 -0.10297733125E+02  0.23521647736E+02  0.54917511921E+01  0.26257771253E+02  0.51100000000E-03 0.  1.
         12    1    3    3    0    0 -0.56204292090E+01  0.88898063682E+01  0.15752791696E+01  0.10634819520E+02  0.00000000000E+00 0. -1.
</event>
<event>
 7    1  0.1445801E-008  0.4614232E+02  0.7816164E-02  0.1320468E+00
        -11   -1    0    0    0    0  0.00000000000E+00  0.00000000000E+00  0.45593999997E+02  0.45594000000E+02  0.51100000000E-03 0.  1.
         11   -1    0    0    0    0 -0.00000000000E+00 -0.00000000000E+00 -0.45593999997E+02  0.45594000000E+02  0.51100000000E-03 0. -1.
    9900012    2    1    2    0    0 -0.40583584025E+02 -0.19546975088E+02  0.43350712304E-01  0.46142318668E+02  0.10000008265E+02 0.  0.
         12    1    1    2    0    0  0.40583584025E+02  0.19546975088E+02 -0.43350712304E-01  0.45045681332E+02  0.00000000000E+00 0. -1.
         11    1    3    3    0    0  0.94986379265E-01 -0.11382876307E+01  0.87326018767E+00  0.14378124909E+01  0.51100000000E-03 0. -1.
        -11    1    3    3    0    0 -0.38331598544E+02 -0.16969844404E+02 -0.42641034516E+00  0.41922176614E+02  0.51100000000E-03 0.  1.
        -12    1    3    3    0    0 -0.23469718607E+01 -0.14388430529E+01 -0.40349913020E+00  0.27823295624E+01  0.00000000000E+00 0.  1.
</event>
<event>
 7    1  0.1445801E-008  0.4614232E+02  0.7816164E-02  0.1320468E+00
        -11   -1    0    0    0    0  0.00000000000E+00  0.00000000000E+00  0.45593999997E+02  0.45594000000E+02  0.51100000000E-03 0.  1.
         11   -1    0    0    0    0 -0.00000000000E+00 -0.00000000000E+00 -0.45593999997E+02  0.45594000000E+02  0.51100000000E-03 0. -1.
    9900012    2    1    2    0    0  0.29893064566E+01  0.86666117698E+01  0.44102918444E+02  0.46142317322E+02  0.99999959952E+01 0.  0.
         12    1    1    2    0    0 -0.29893064566E+01 -0.86666117698E+01 -0.44102918444E+02  0.45045682678E+02  0.00000000000E+00 0. -1.
         11    1    3    3    0    0  0.46202043169E+01  0.36211855686E+01  0.13597157779E+02  0.14810198270E+02  0.51100000000E-03 0. -1.
        -11    1    3    3    0    0 -0.20819840339E+01  0.32488018379E+01  0.27716354003E+02  0.27983667565E+02  0.51100000000E-03 0.  1.
         12    1    3    3    0    0  0.45108617361E+00  0.17966243633E+01  0.27894066616E+01  0.33484514873E+01  0.00000000000E+00 0. -1.
</event>
<event>
 7    1  0.1445801E-008  0.4614232E+02  0.7816164E-02  0.1320468E+00
        -11   -1    0    0    0    0  0.00000000000E+00  0.00000000000E+00  0.45593999997E+02  0.45594000000E+02  0.51100000000E-03 0.  1.
         11   -1    0    0    0    0 -0.00000000000E+00 -0.00000000000E+00 -0.45593999997E+02  0.45594000000E+02  0.51100000000E-03 0. -1.
    9900012    2    1    2    0    0  0.32654424287E+02  0.93254250415E+00  0.31015035691E+02  0.46142317633E+02  0.99999988283E+01 0.  0.
         12    1    1    2    0    0 -0.32654424287E+02 -0.93254250415E+00 -0.31015035691E+02  0.45045682367E+02  0.00000000000E+00 0. -1.
         11    1    3    3    0    0  0.15866969791E+01 -0.16814175268E+01  0.43433218675E+01  0.49202863035E+01  0.51100000000E-03 0. -1.
        -11    1    3    3    0    0  0.18572363370E+02  0.33177886024E+01  0.17152420146E+02  0.25497959123E+02  0.51100000000E-03 0.  1.
         12    1    3    3    0    0  0.12495363938E+02 -0.70382857143E+00  0.95192936779E+01  0.15724072206E+02  0.00000000000E+00 0. -1.
</event>
<event>
 7    1  0.1445801E-008  0.4614232E+02  0.7816164E-02  0.1320468E+00
        -11   -1    0    0    0    0  0.00000000000E+00  0.00000000000E+00  0.45593999997E+02  0.45594000000E+02  0.51100000000E-03 0. -1.
         11   -1    0    0    0    0 -0.00000000000E+00 -0.00000000000E+00 -0.45593999997E+02  0.45594000000E+02  0.51100000000E-03 0.  1.
    9900012    2    1    2    0    0  0.16684842167E+02  0.29765651997E+02 -0.29406384440E+02  0.46142318268E+02  0.10000004620E+02 0.  0.
         12    1    1    2    0    0 -0.16684842167E+02 -0.29765651997E+02  0.29406384440E+02  0.45045681732E+02  0.00000000000E+00 0. -1.
         11    1    3    3    0    0  0.81143572808E+01  0.69793259787E+01 -0.11877086543E+02  0.15988088385E+02  0.51100000000E-03 0. -1.
        -11    1    3    3    0    0  0.63543962235E+01  0.12613450272E+02 -0.99858173400E+01  0.17297226001E+02  0.51100000000E-03 0.  1.
        -12    1    3    3    0    0  0.22160886626E+01  0.10172875745E+02 -0.75434805565E+01  0.12857003881E+02  0.00000000000E+00 0.  1.
</event>
<event>
 7    1  0.1445801E-008  0.4614232E+02  0.7816164E-02  0.1320468E+00
        -11   -1    0    0    0    0  0.00000000000E+00  0.00000000000E+00  0.45593999997E+02  0.45594000000E+02  0.51100000000E-03 0.  1.
         11   -1    0    0    0    0 -0.00000000000E+00 -0.00000000000E+00 -0.45593999997E+02  0.45594000000E+02  0.51100000000E-03 0. -1.
    9900012    2    1    2    0    0 -0.37389674283E+02 -0.20219847168E+02  0.14909173303E+02  0.46142318619E+02  0.10000007826E+02 0.  0.
         12    1    1    2    0    0  0.37389674283E+02  0.20219847168E+02 -0.14909173303E+02  0.45045681381E+02  0.00000000000E+00 0. -1.
         11    1    3    3    0    0 -0.18247138412E+02 -0.89920080516E+01  0.10853716399E+02  0.23056830419E+02  0.51100000000E-03 0.  1.
        -11    1    3    3    0    0 -0.18137888173E+02 -0.98869934693E+01  0.25161323967E+01  0.20810251073E+02  0.51100000000E-03 0. -1.
        -12    1    3    3    0    0 -0.10046476977E+01 -0.13408456474E+01  0.15393245075E+01  0.22752371274E+01  0.00000000000E+00 0.  1.
</event>
<event>
 7    1  0.1445801E-008  0.4614232E+02  0.7816164E-02  0.1320468E+00
        -11   -1    0    0    0    0  0.00000000000E+00  0.00000000000E+00  0.45593999997E+02  0.45594000000E+02  0.51100000000E-03 0.  1.
         11   -1    0    0    0    0 -0.00000000000E+00 -0.00000000000E+00 -0.45593999997E+02  0.45594000000E+02  0.51100000000E-03 0. -1.
    9900012    2    1    2    0    0  0.16726558806E+02  0.30019772582E+02  0.29122997734E+02  0.46142317495E+02  0.99999975749E+01 0.  0.
         12    1    1    2    0    0 -0.16726558806E+02 -0.30019772582E+02 -0.29122997734E+02  0.45045682505E+02  0.00000000000E+00 0. -1.
         11    1    3    3    0    0 -0.20104458966E+00 -0.45503151457E+00  0.54178902601E+00  0.73553260710E+00  0.51100000000E-03 0. -1.
        -11    1    3    3    0    0  0.70777661117E+01  0.94002425884E+01  0.12235581953E+02  0.16975535333E+02  0.51100000000E-03 0.  1.
         12    1    3    3    0    0  0.98498372835E+01  0.21074561508E+02  0.16345626755E+02  0.28431249555E+02  0.00000000000E+00 0. -1.
</event>
<event>
 7    1  0.1445801E-008  0.4614232E+02  0.7816164E-02  0.1320468E+00
        -11   -1    0    0    0    0  0.00000000000E+00  0.00000000000E+00  0.45593999997E+02  0.45594000000E+02  0.51100000000E-03 0.  1.
         11   -1    0    0    0    0 -0.00000000000E+00 -0.00000000000E+00 -0.45593999997E+02  0.45594000000E+02  0.51100000000E-03 0. -1.
    9900012    2    1    2    0    0 -0.63856796280E+01 -0.27406145812E+02  0.35174418068E+02  0.46142318531E+02  0.10000007020E+02 0.  0.
         12    1    1    2    0    0  0.63856796280E+01  0.27406145812E+02 -0.35174418068E+02  0.45045681469E+02  0.00000000000E+00 0. -1.
         11    1    3    3    0    0 -0.41839922648E+01 -0.91050112495E+01  0.13879425729E+02  0.17118571201E+02  0.51100000000E-03 0. -1.
        -11    1    3    3    0    0 -0.30819256896E+01 -0.16335899730E+02  0.21099312420E+02  0.26861512817E+02  0.51100000000E-03 0.  1.
         12    1    3    3    0    0  0.88023832638E+00 -0.19652348330E+01  0.19567991858E+00  0.21622345133E+01  0.00000000000E+00 0. -1.
</event>
<event>
 7    1  0.1445801E-008  0.4614232E+02  0.7816164E-02  0.1320468E+00
        -11   -1    0    0    0    0  0.00000000000E+00  0.00000000000E+00  0.45593999997E+02  0.45594000000E+02  0.51100000000E-03 0. -1.
         11   -1    0    0    0    0 -0.00000000000E+00 -0.00000000000E+00 -0.45593999997E+02  0.45594000000E+02  0.51100000000E-03 0.  1.
    9900012    2    1    2    0    0  0.15165077777E+02 -0.42407343506E+02  0.86662174882E+00  0.46142318737E+02  0.10000008901E+02 0.  0.
         12    1    1    2    0    0 -0.15165077777E+02  0.42407343506E+02 -0.86662174882E+00  0.45045681263E+02  0.00000000000E+00 0. -1.
         11    1    3    3    0    0  0.11008087807E+01 -0.29974490021E+01  0.13728298209E+01  0.34757937900E+01  0.51100000000E-03 0. -1.
        -11    1    3    3    0    0  0.20342492790E+01 -0.53618475128E+01 -0.29955687724E+01  0.64700086098E+01  0.51100000000E-03 0.  1.
        -12    1    3    3    0    0  0.12030019717E+02 -0.34048046991E+02  0.24893607003E+01  0.36196516337E+02  0.00000000000E+00 0.  1.
</event>
<event>
 7    1  0.1445801E-008  0.4614231E+02  0.7816164E-02  0.1320468E+00
        -11   -1    0    0    0    0  0.00000000000E+00  0.00000000000E+00  0.45593999997E+02  0.45594000000E+02  0.51100000000E-03 0.  1.
         11   -1    0    0    0    0 -0.00000000000E+00 -0.00000000000E+00 -0.45593999997E+02  0.45594000000E+02  0.51100000000E-03 0. -1.
    9900012    2    1    2    0    0 -0.27297295315E+02 -0.32164160486E+02 -0.15793613778E+02  0.46142314441E+02  0.99999697246E+01 0.  0.
         12    1    1    2    0    0  0.27297295315E+02  0.32164160486E+02  0.15793613778E+02  0.45045685559E+02  0.00000000000E+00 0. -1.
         11    1    3    3    0    0 -0.16829841304E+01 -0.24927559709E+01 -0.25727592044E+01  0.39579487236E+01  0.51100000000E-03 0. -1.
        -11    1    3    3    0    0 -0.48635661035E+01 -0.35893037497E+01 -0.50280527806E+01  0.78624863546E+01  0.51100000000E-03 0.  1.
        -12    1    3    3    0    0 -0.20750745081E+02 -0.26082100765E+02 -0.81928017934E+01  0.34321879363E+02  0.00000000000E+00 0.  1.
</event>
<event>
 7    1  0.1445801E-008  0.4614232E+02  0.7816164E-02  0.1320468E+00
        -11   -1    0    0    0    0  0.00000000000E+00  0.00000000000E+00  0.45593999997E+02  0.45594000000E+02  0.51100000000E-03 0.  1.
         11   -1    0    0    0    0 -0.00000000000E+00 -0.00000000000E+00 -0.45593999997E+02  0.45594000000E+02  0.51100000000E-03 0. -1.
    9900012    2    1    2    0    0 -0.63324668407E+01  0.30200414770E+02  0.32816889493E+02  0.46142318470E+02  0.10000006461E+02 0.  0.
         12    1    1    2    0    0  0.63324668407E+01 -0.30200414770E+02 -0.32816889493E+02  0.45045681530E+02  0.00000000000E+00 0. -1.
         11    1    3    3    0    0 -0.73374335300E+01  0.19545661013E+02  0.26191035663E+02  0.33493897125E+02  0.51100000000E-03 0. -1.
        -11    1    3    3    0    0  0.30366824687E+00  0.22094285861E+01  0.19896355861E+01  0.29887186398E+01  0.51100000000E-03 0.  1.
         12    1    3    3    0    0  0.70129844244E+00  0.84453251709E+01  0.46362182432E+01  0.96597027048E+01  0.00000000000E+00 0. -1.
</event>
<event>
 7    1  0.1445801E-008  0.4614232E+02  0.7816164E-02  0.1320468E+00
        -11   -1    0    0    0    0  0.00000000000E+00  0.00000000000E+00  0.45593999997E+02  0.45594000000E+02  0.51100000000E-03 0.  1.
         11   -1    0    0    0    0 -0.00000000000E+00 -0.00000000000E+00 -0.45593999997E+02  0.45594000000E+02  0.51100000000E-03 0. -1.
    9900012    2    1    2    0    0 -0.42453282123E+02  0.14961117154E+02  0.17312725190E+01  0.46142317698E+02  0.99999994214E+01 0.  0.
         12    1    1    2    0    0  0.42453282123E+02 -0.14961117154E+02 -0.17312725190E+01  0.45045682302E+02  0.00000000000E+00 0. -1.
         11    1    3    3    0    0 -0.92657080212E+01  0.47484626837E+01 -0.10668976030E+01  0.10466112638E+02  0.51100000000E-03 0. -1.
        -11    1    3    3    0    0 -0.31288505396E+02  0.81541398175E+01  0.40912695791E+01  0.32591395384E+02  0.51100000000E-03 0.  1.
        -12    1    3    3    0    0 -0.18990687065E+01  0.20585146530E+01 -0.12930994571E+01  0.30848096755E+01  0.00000000000E+00 0.  1.
</event>
<event>
 7    1  0.1445801E-008  0.4614232E+02  0.7816164E-02  0.1320468E+00
        -11   -1    0    0    0    0  0.00000000000E+00  0.00000000000E+00  0.45593999997E+02  0.45594000000E+02  0.51100000000E-03 0.  1.
         11   -1    0    0    0    0 -0.00000000000E+00 -0.00000000000E+00 -0.45593999997E+02  0.45594000000E+02  0.51100000000E-03 0. -1.
    9900012    2    1    2    0    0  0.83159935856E+01  0.40957880546E+02  0.16805046526E+02  0.46142319665E+02  0.10000017361E+02 0.  0.
         12    1    1    2    0    0 -0.83159935856E+01 -0.40957880546E+02 -0.16805046526E+02  0.45045680335E+02  0.00000000000E+00 0. -1.
         11    1    3    3    0    0  0.27673194912E+01  0.79834105331E+01  0.60776289910E+01  0.10408192702E+02  0.51100000000E-03 0. -1.
        -11    1    3    3    0    0 -0.13903043108E+01  0.96581422499E+01  0.29313722286E+01  0.10188503384E+02  0.51100000000E-03 0.  1.
        -12    1    3    3    0    0  0.69389784052E+01  0.23316327763E+02  0.77960453064E+01  0.25545623579E+02  0.00000000000E+00 0.  1.
</event>
<event>
 7    1  0.1445801E-008  0.4614232E+02  0.7816164E-02  0.1320468E+00
        -11   -1    0    0    0    0  0.00000000000E+00  0.00000000000E+00  0.45593999997E+02  0.45594000000E+02  0.51100000000E-03 0.  1.
         11   -1    0    0    0    0 -0.00000000000E+00 -0.00000000000E+00 -0.45593999997E+02  0.45594000000E+02  0.51100000000E-03 0. -1.
    9900012    2    1    2    0    0 -0.58123685437E+01 -0.43970047068E+02  0.78717712362E+01  0.46142318191E+02  0.10000003923E+02 0.  0.
         12    1    1    2    0    0  0.58123685437E+01  0.43970047068E+02 -0.78717712362E+01  0.45045681809E+02  0.00000000000E+00 0. -1.
         11    1    3    3    0    0 -0.83278517162E+00 -0.18844191974E+00 -0.46486662157E+00  0.97218451755E+00  0.51100000000E-03 0. -1.
        -11    1    3    3    0    0 -0.61240820884E+01 -0.35070824683E+02  0.63659110418E+01  0.36166171335E+02  0.51100000000E-03 0.  1.
        -12    1    3    3    0    0  0.11444987163E+01 -0.87107804646E+01  0.19707268161E+01  0.90039623388E+01  0.00000000000E+00 0.  1.
</event>
<event>
 7    1  0.1445801E-008  0.4614232E+02  0.7816164E-02  0.1320468E+00
        -11   -1    0    0    0    0  0.00000000000E+00  0.00000000000E+00  0.45593999997E+02  0.45594000000E+02  0.51100000000E-03 0.  1.
         11   -1    0    0    0    0 -0.00000000000E+00 -0.00000000000E+00 -0.45593999997E+02  0.45594000000E+02  0.51100000000E-03 0. -1.
    9900012    2    1    2    0    0 -0.14105878162E+02 -0.28360466168E+01  0.42685994167E+02  0.46142322548E+02  0.10000043649E+02 0.  0.
         12    1    1    2    0    0  0.14105878162E+02  0.28360466168E+01 -0.42685994167E+02  0.45045677452E+02  0.00000000000E+00 0. -1.
         11    1    3    3    0    0 -0.90761445628E+01 -0.89866743279E+00  0.30628827389E+02  0.31957926572E+02  0.51100000000E-03 0. -1.
        -11    1    3    3    0    0 -0.22056749508E+01 -0.26262913548E+01  0.10134794513E+02  0.10699367661E+02  0.51100000000E-03 0.  1.
         12    1    3    3    0    0 -0.28240586486E+01  0.68891217076E+00  0.19223722641E+01  0.34850283143E+01  0.00000000000E+00 0. -1.
</event>
<event>
 7    1  0.1445801E-008  0.4614232E+02  0.7816164E-02  0.1320468E+00
        -11   -1    0    0    0    0  0.00000000000E+00  0.00000000000E+00  0.45593999997E+02  0.45594000000E+02  0.51100000000E-03 0.  1.
         11   -1    0    0    0    0 -0.00000000000E+00 -0.00000000000E+00 -0.45593999997E+02  0.45594000000E+02  0.51100000000E-03 0. -1.
    9900012    2    1    2    0    0 -0.83085052457E+01 -0.25311538788E+02  0.36323659600E+02  0.46142317611E+02  0.99999986286E+01 0.  0.
         12    1    1    2    0    0  0.83085052457E+01  0.25311538788E+02 -0.36323659600E+02  0.45045682389E+02  0.00000000000E+00 0. -1.
         11    1    3    3    0    0 -0.48230517891E-01 -0.13857005066E+02  0.18361882522E+02  0.23003861537E+02  0.51100000000E-03 0. -1.
        -11    1    3    3    0    0 -0.68482058442E+01 -0.10974152025E+02  0.14893063499E+02  0.19726461330E+02  0.51100000000E-03 0.  1.
         12    1    3    3    0    0 -0.14120688836E+01 -0.48038169616E+00  0.30687135786E+01  0.34119947440E+01  0.00000000000E+00 0. -1.
</event>
<event>
 7    1  0.1445801E-008  0.4614232E+02  0.7816164E-02  0.1320468E+00
        -11   -1    0    0    0    0  0.00000000000E+00  0.00000000000E+00  0.45593999997E+02  0.45594000000E+02  0.51100000000E-03 0.  1.
         11   -1    0    0    0    0 -0.00000000000E+00 -0.00000000000E+00 -0.45593999997E+02  0.45594000000E+02  0.51100000000E-03 0. -1.
    9900012    2    1    2    0    0 -0.82256838460E+01  0.29420333828E+02  0.33104313099E+02  0.46142318042E+02  0.10000002563E+02 0.  0.
         12    1    1    2    0    0  0.82256838460E+01 -0.29420333828E+02 -0.33104313099E+02  0.45045681958E+02  0.00000000000E+00 0. -1.
         11    1    3    3    0    0 -0.30827420050E+01  0.51737313864E+01  0.44341995845E+01  0.74788315226E+01  0.51100000000E-03 0. -1.
        -11    1    3    3    0    0 -0.67614992488E+01  0.14701503742E+02  0.16476543799E+02  0.23093907859E+02  0.51100000000E-03 0.  1.
         12    1    3    3    0    0  0.16185574078E+01  0.95450987001E+01  0.12193569715E+02  0.15569578661E+02  0.00000000000E+00 0. -1.
</event>
<event>
 7    1  0.1445801E-008  0.4614232E+02  0.7816164E-02  0.1320468E+00
        -11   -1    0    0    0    0  0.00000000000E+00  0.00000000000E+00  0.45593999997E+02  0.45594000000E+02  0.51100000000E-03 0.  1.
         11   -1    0    0    0    0 -0.00000000000E+00 -0.00000000000E+00 -0.45593999997E+02  0.45594000000E+02  0.51100000000E-03 0. -1.
    9900012    2    1    2    0    0  0.36809601694E+02 -0.23483043040E+02  0.11077619288E+02  0.46142315008E+02  0.99999748920E+01 0.  0.
         12    1    1    2    0    0 -0.36809601694E+02  0.23483043040E+02 -0.11077619288E+02  0.45045684992E+02  0.00000000000E+00 0. -1.
         11    1    3    3    0    0  0.74771816015E+00 -0.28929228402E+01  0.12505333770E+01  0.32391231830E+01  0.51100000000E-03 0. -1.
        -11    1    3    3    0    0  0.28910359279E+02 -0.15227861814E+02  0.91828030043E+01  0.33941427789E+02  0.51100000000E-03 0.  1.
         12    1    3    3    0    0  0.71515242552E+01 -0.53622583855E+01  0.64428290716E+00  0.89617640357E+01  0.00000000000E+00 0. -1.
</event>
<event>
 7    1  0.1445801E-008  0.4614232E+02  0.7816164E-02  0.1320468E+00
        -11   -1    0    0    0    0  0.00000000000E+00  0.00000000000E+00  0.45593999997E+02  0.45594000000E+02  0.51100000000E-03 0. -1.
         11   -1    0    0    0    0 -0.00000000000E+00 -0.00000000000E+00 -0.45593999997E+02  0.45594000000E+02  0.51100000000E-03 0.  1.
    9900012    2    1    2    0    0 -0.14503874092E+02 -0.11128927517E+02 -0.41169139929E+02  0.46142317922E+02  0.10000001466E+02 0.  0.
         12    1    1    2    0    0  0.14503874092E+02  0.11128927517E+02  0.41169139929E+02  0.45045682078E+02  0.00000000000E+00 0. -1.
         11    1    3    3    0    0 -0.62516477451E+01 -0.40154840374E+01 -0.24461801243E+02  0.25565346309E+02  0.51100000000E-03 0. -1.
        -11    1    3    3    0    0 -0.37863825367E+01 -0.39119905282E+00 -0.68569174099E+01  0.78426427970E+01  0.51100000000E-03 0.  1.
         12    1    3    3    0    0 -0.44658438100E+01 -0.67222444266E+01 -0.98504212761E+01  0.12734328816E+02  0.00000000000E+00 0. -1.
</event>
<event>
 7    1  0.1445801E-008  0.4614232E+02  0.7816164E-02  0.1320468E+00
        -11   -1    0    0    0    0  0.00000000000E+00  0.00000000000E+00  0.45593999997E+02  0.45594000000E+02  0.51100000000E-03 0. -1.
         11   -1    0    0    0    0 -0.00000000000E+00 -0.00000000000E+00 -0.45593999997E+02  0.45594000000E+02  0.51100000000E-03 0.  1.
    9900012    2    1    2    0    0  0.37782879627E+02 -0.22842044420E+02  0.89335673157E+01  0.46142316398E+02  0.99999875685E+01 0.  0.
         12    1    1    2    0    0 -0.37782879627E+02  0.22842044420E+02 -0.89335673157E+01  0.45045683602E+02  0.00000000000E+00 0. -1.
         11    1    3    3    0    0  0.82657613091E+01 -0.28613667808E+01  0.42952632120E+01  0.97447173481E+01  0.51100000000E-03 0. -1.
        -11    1    3    3    0    0  0.18017338223E+02 -0.15458691019E+02  0.28008318327E+01  0.23904816750E+02  0.51100000000E-03 0.  1.
        -12    1    3    3    0    0  0.11499780095E+02 -0.45219866204E+01  0.18374722710E+01  0.12492782299E+02  0.00000000000E+00 0.  1.
</event>
<event>
 7    1  0.1445801E-008  0.4614232E+02  0.7816164E-02  0.1320468E+00
        -11   -1    0    0    0    0  0.00000000000E+00  0.00000000000E+00  0.45593999997E+02  0.45594000000E+02  0.51100000000E-03 0.  1.
         11   -1    0    0    0    0 -0.00000000000E+00 -0.00000000000E+00 -0.45593999997E+02  0.45594000000E+02  0.51100000000E-03 0. -1.
    9900012    2    1    2    0    0 -0.26198347858E+02  0.13998164374E+02  0.33864603651E+02  0.46142318556E+02  0.10000007247E+02 0.  0.
         12    1    1    2    0    0  0.26198347858E+02 -0.13998164374E+02 -0.33864603651E+02  0.45045681444E+02  0.00000000000E+00 0. -1.
         11    1    3    3    0    0 -0.15167425667E+02  0.46693802732E+01  0.21661498686E+02  0.26852829256E+02  0.51100000000E-03 0. -1.
        -11    1    3    3    0    0 -0.11220995583E+02  0.94121630290E+01  0.11700452532E+02  0.18745670019E+02  0.51100000000E-03 0.  1.
        -12    1    3    3    0    0  0.19007339246E+00 -0.83378928350E-01  0.50265243369E+00  0.54381928001E+00  0.00000000000E+00 0.  1.
</event>
<event>
 7    1  0.1445801E-008  0.4614232E+02  0.7816164E-02  0.1320468E+00
        -11   -1    0    0    0    0  0.00000000000E+00  0.00000000000E+00  0.45593999997E+02  0.45594000000E+02  0.51100000000E-03 0.  1.
         11   -1    0    0    0    0 -0.00000000000E+00 -0.00000000000E+00 -0.45593999997E+02  0.45594000000E+02  0.51100000000E-03 0. -1.
    9900012    2    1    2    0    0 -0.39547180230E+02 -0.43538067022E+01  0.21122933693E+02  0.46142318467E+02  0.10000006436E+02 0.  0.
         12    1    1    2    0    0  0.39547180230E+02  0.43538067022E+01 -0.21122933693E+02  0.45045681533E+02  0.00000000000E+00 0. -1.
         11    1    3    3    0    0 -0.57043809529E+01 -0.35436647899E+01  0.39276596943E+01  0.77797193480E+01  0.51100000000E-03 0. -1.
        -11    1    3    3    0    0 -0.14061613042E+02 -0.30387315531E+01  0.71122586753E+01  0.16048273257E+02  0.51100000000E-03 0.  1.
         12    1    3    3    0    0 -0.19781186235E+02  0.22285896409E+01  0.10083015324E+02  0.22314325862E+02  0.00000000000E+00 0. -1.
</event>
<event>
 7    1  0.1445801E-008  0.4614232E+02  0.7816164E-02  0.1320468E+00
        -11   -1    0    0    0    0  0.00000000000E+00  0.00000000000E+00  0.45593999997E+02  0.45594000000E+02  0.51100000000E-03 0.  1.
         11   -1    0    0    0    0 -0.00000000000E+00 -0.00000000000E+00 -0.45593999997E+02  0.45594000000E+02  0.51100000000E-03 0. -1.
    9900012    2    1    2    0    0  0.36133283840E+02 -0.55142468220E+01  0.26326647572E+02  0.46142317727E+02  0.99999996905E+01 0.  0.
         12    1    1    2    0    0 -0.36133283840E+02  0.55142468220E+01 -0.26326647572E+02  0.45045682273E+02  0.00000000000E+00 0. -1.
         11    1    3    3    0    0  0.12849319802E+02 -0.26890485776E+01  0.14199525993E+02  0.19338111084E+02  0.51100000000E-03 0. -1.
        -11    1    3    3    0    0  0.15586395955E+02  0.39935588444E-01  0.67377690580E+01  0.16980425962E+02  0.51100000000E-03 0.  1.
         12    1    3    3    0    0  0.76975680829E+01 -0.28651338328E+01  0.53893525209E+01  0.98237806809E+01  0.00000000000E+00 0. -1.
</event>
<event>
 7    1  0.1445801E-008  0.4614232E+02  0.7816164E-02  0.1320468E+00
        -11   -1    0    0    0    0  0.00000000000E+00  0.00000000000E+00  0.45593999997E+02  0.45594000000E+02  0.51100000000E-03 0. -1.
         11   -1    0    0    0    0 -0.00000000000E+00 -0.00000000000E+00 -0.45593999997E+02  0.45594000000E+02  0.51100000000E-03 0.  1.
    9900012    2    1    2    0    0  0.18202785058E+02  0.39191254275E+02  0.12720759876E+02  0.46142317328E+02  0.99999960545E+01 0.  0.
         12    1    1    2    0    0 -0.18202785058E+02 -0.39191254275E+02 -0.12720759876E+02  0.45045682672E+02  0.00000000000E+00 0. -1.
         11    1    3    3    0    0  0.11458542384E+01  0.19727373233E+01  0.21906258713E+01  0.31628336111E+01  0.51100000000E-03 0. -1.
        -11    1    3    3    0    0  0.67666889644E+01  0.79752079637E+01  0.80996502032E+00  0.10490379650E+02  0.51100000000E-03 0.  1.
        -12    1    3    3    0    0  0.10290241855E+02  0.29243308988E+02  0.97201689848E+01  0.32489104067E+02  0.00000000000E+00 0.  1.
</event>
<event>
 7    1  0.1445801E-008  0.4614232E+02  0.7816164E-02  0.1320468E+00
        -11   -1    0    0    0    0  0.00000000000E+00  0.00000000000E+00  0.45593999997E+02  0.45594000000E+02  0.51100000000E-03 0. -1.
         11   -1    0    0    0    0 -0.00000000000E+00 -0.00000000000E+00 -0.45593999997E+02  0.45594000000E+02  0.51100000000E-03 0.  1.
    9900012    2    1    2    0    0  0.66128526455E+01  0.41959824659E+02 -0.14991890167E+02  0.46142317895E+02  0.10000001219E+02 0.  0.
         12    1    1    2    0    0 -0.66128526455E+01 -0.41959824659E+02  0.14991890167E+02  0.45045682105E+02  0.00000000000E+00 0. -1.
         11    1    3    3    0    0  0.38183455612E+01  0.30402820347E+02 -0.12318473098E+02  0.33025081796E+02  0.51100000000E-03 0. -1.
        -11    1    3    3    0    0  0.11808016290E+01  0.10316151131E+02 -0.90874347707E+00  0.10423199202E+02  0.51100000000E-03 0.  1.
         12    1    3    3    0    0  0.16137054552E+01  0.12408531807E+01 -0.17646735926E+01  0.26940368966E+01  0.00000000000E+00 0. -1.
</event>
<event>
 7    1  0.1445801E-008  0.4614232E+02  0.7816164E-02  0.1320468E+00
        -11   -1    0    0    0    0  0.00000000000E+00  0.00000000000E+00  0.45593999997E+02  0.45594000000E+02  0.51100000000E-03 0.  1.
         11   -1    0    0    0    0 -0.00000000000E+00 -0.00000000000E+00 -0.45593999997E+02  0.45594000000E+02  0.51100000000E-03 0. -1.
    9900012    2    1    2    0    0  0.30718487829E+02 -0.74940795678E+01  0.32083122180E+02  0.46142318166E+02  0.10000003693E+02 0.  0.
         12    1    1    2    0    0 -0.30718487829E+02  0.74940795678E+01 -0.32083122180E+02  0.45045681834E+02  0.00000000000E+00 0. -1.
         11    1    3    3    0    0  0.70511192594E+01  0.30009117937E+00  0.32120306722E+01  0.77540620856E+01  0.51100000000E-03 0. -1.
        -11    1    3    3    0    0  0.19068372456E+02 -0.71015744857E+01  0.25603160795E+02  0.32704082792E+02  0.51100000000E-03 0.  1.
        -12    1    3    3    0    0  0.45989961130E+01 -0.69259626147E+00  0.32679307128E+01  0.56841732884E+01  0.00000000000E+00 0.  1.
</event>
<event>
 7    1  0.1445801E-008  0.4614233E+02  0.7816164E-02  0.1320468E+00
        -11   -1    0    0    0    0  0.00000000000E+00  0.00000000000E+00  0.45593999997E+02  0.45594000000E+02  0.51100000000E-03 0. -1.
         11   -1    0    0    0    0 -0.00000000000E+00 -0.00000000000E+00 -0.45593999997E+02  0.45594000000E+02  0.51100000000E-03 0.  1.
    9900012    2    1    2    0    0 -0.28216049348E+02  0.15133290505E+02 -0.31685182254E+02  0.46142326547E+02  0.10000080119E+02 0.  0.
         12    1    1    2    0    0  0.28216049348E+02 -0.15133290505E+02  0.31685182254E+02  0.45045673453E+02  0.00000000000E+00 0. -1.
         11    1    3    3    0    0 -0.29070789107E+00 -0.25315595493E+00  0.53876524990E+00  0.66247058129E+00  0.51100000000E-03 0. -1.
        -11    1    3    3    0    0 -0.19123777838E+02  0.85701837994E+01 -0.21443825782E+02  0.29983405303E+02  0.51100000000E-03 0.  1.
         12    1    3    3    0    0 -0.88015636193E+01  0.68162626610E+01 -0.10780121722E+02  0.15496450663E+02  0.00000000000E+00 0. -1.
</event>
<event>
 7    1  0.1445801E-008  0.4614232E+02  0.7816164E-02  0.1320468E+00
        -11   -1    0    0    0    0  0.00000000000E+00  0.00000000000E+00  0.45593999997E+02  0.45594000000E+02  0.51100000000E-03 0.  1.
         11   -1    0    0    0    0 -0.00000000000E+00 -0.00000000000E+00 -0.45593999997E+02  0.45594000000E+02  0.51100000000E-03 0. -1.
    9900012    2    1    2    0    0  0.74988068894E+01 -0.31726377250E+02  0.31085664042E+02  0.46142316221E+02  0.99999859596E+01 0.  0.
         12    1    1    2    0    0 -0.74988068894E+01  0.31726377250E+02 -0.31085664042E+02  0.45045683779E+02  0.00000000000E+00 0. -1.
         11    1    3    3    0    0  0.24417041811E+01 -0.11070208719E+01  0.33846588442E+01  0.43177922914E+01  0.51100000000E-03 0. -1.
        -11    1    3    3    0    0  0.15559782329E+01 -0.16831394411E+02  0.12633463562E+02  0.21102637463E+02  0.51100000000E-03 0.  1.
         12    1    3    3    0    0  0.35011244753E+01 -0.13787961967E+02  0.15067541635E+02  0.20721886467E+02  0.00000000000E+00 0. -1.
</event>
<event>
 7    1  0.1445801E-008  0.4614232E+02  0.7816164E-02  0.1320468E+00
        -11   -1    0    0    0    0  0.00000000000E+00  0.00000000000E+00  0.45593999997E+02  0.45594000000E+02  0.51100000000E-03 0.  1.
         11   -1    0    0    0    0 -0.00000000000E+00 -0.00000000000E+00 -0.45593999997E+02  0.45594000000E+02  0.51100000000E-03 0. -1.
    9900012    2    1    2    0    0 -0.22421284266E+02  0.14970984419E+02  0.36086963654E+02  0.46142319759E+02  0.10000018219E+02 0.  0.
         12    1    1    2    0    0  0.22421284266E+02 -0.14970984419E+02 -0.36086963654E+02  0.45045680241E+02  0.00000000000E+00 0. -1.
         11    1    3    3    0    0 -0.17328130655E+02  0.12752399130E+02  0.28989562224E+02  0.36101004332E+02  0.51100000000E-03 0. -1.
        -11    1    3    3    0    0 -0.34952910313E+01  0.34250637575E+01  0.60509060774E+01  0.77821324684E+01  0.51100000000E-03 0.  1.
         12    1    3    3    0    0 -0.15978625797E+01 -0.12064784686E+01  0.10464953526E+01  0.22591829589E+01  0.00000000000E+00 0. -1.
</event>
<event>
 7    1  0.1445801E-008  0.4614232E+02  0.7816164E-02  0.1320468E+00
        -11   -1    0    0    0    0  0.00000000000E+00  0.00000000000E+00  0.45593999997E+02  0.45594000000E+02  0.51100000000E-03 0. -1.
         11   -1    0    0    0    0 -0.00000000000E+00 -0.00000000000E+00 -0.45593999997E+02  0.45594000000E+02  0.51100000000E-03 0.  1.
    9900012    2    1    2    0    0  0.72406681351E-01  0.39992786480E+02  0.20728848305E+02  0.46142319128E+02  0.10000012467E+02 0.  0.
         12    1    1    2    0    0 -0.72406681351E-01 -0.39992786480E+02 -0.20728848305E+02  0.45045680872E+02  0.00000000000E+00 0. -1.
         11    1    3    3    0    0 -0.34819288922E+01  0.16746315649E+02  0.59124566928E+01  0.18097515328E+02  0.51100000000E-03 0. -1.
        -11    1    3    3    0    0  0.27015814401E+01  0.64547529240E+01  0.42503257184E+01  0.81870413802E+01  0.51100000000E-03 0.  1.
        -12    1    3    3    0    0  0.85275413351E+00  0.16791717906E+02  0.10566065894E+02  0.19857762420E+02  0.00000000000E+00 0.  1.
</event>
<event>
 7    1  0.1445801E-008  0.4614232E+02  0.7816164E-02  0.1320468E+00
        -11   -1    0    0    0    0  0.00000000000E+00  0.00000000000E+00  0.45593999997E+02  0.45594000000E+02  0.51100000000E-03 0.  1.
         11   -1    0    0    0    0 -0.00000000000E+00 -0.00000000000E+00 -0.45593999997E+02  0.45594000000E+02  0.51100000000E-03 0. -1.
    9900012    2    1    2    0    0 -0.56239843072E+01  0.11329080518E+01  0.44678862873E+02  0.46142317989E+02  0.10000002082E+02 0.  0.
         12    1    1    2    0    0  0.56239843072E+01 -0.11329080518E+01 -0.44678862873E+02  0.45045682011E+02  0.00000000000E+00 0. -1.
         11    1    3    3    0    0 -0.28635548681E+01 -0.22111643735E+01  0.31775716176E+02  0.31981015199E+02  0.51100000000E-03 0. -1.
        -11    1    3    3    0    0 -0.23286763085E+01  0.34432310107E+01  0.13048877599E+02  0.13694954545E+02  0.51100000000E-03 0.  1.
         12    1    3    3    0    0 -0.43175313061E+00 -0.99158585348E-01 -0.14573090132E+00  0.46634824588E+00  0.00000000000E+00 0. -1.
</event>
<event>
 7    1  0.1445801E-008  0.4614232E+02  0.7816164E-02  0.1320468E+00
        -11   -1    0    0    0    0  0.00000000000E+00  0.00000000000E+00  0.45593999997E+02  0.45594000000E+02  0.51100000000E-03 0.  1.
         11   -1    0    0    0    0 -0.00000000000E+00 -0.00000000000E+00 -0.45593999997E+02  0.45594000000E+02  0.51100000000E-03 0. -1.
    9900012    2    1    2    0    0 -0.37542472556E+02 -0.98247598539E+01 -0.22872479748E+02  0.46142317836E+02  0.10000000681E+02 0.  0.
         12    1    1    2    0    0  0.37542472556E+02  0.98247598539E+01  0.22872479748E+02  0.45045682164E+02  0.00000000000E+00 0. -1.
         11    1    3    3    0    0 -0.63346683329E+01 -0.58417793956E-01 -0.30414155249E+01  0.70272074242E+01  0.51100000000E-03 0. -1.
        -11    1    3    3    0    0 -0.15708011153E+02 -0.18660388909E+01 -0.61069501836E+01  0.16956372146E+02  0.51100000000E-03 0.  1.
        -12    1    3    3    0    0 -0.15499793070E+02 -0.79003031690E+01 -0.13724114039E+02  0.22158738266E+02  0.00000000000E+00 0.  1.
</event>
<event>
 7    1  0.1445801E-008  0.4614232E+02  0.7816164E-02  0.1320468E+00
        -11   -1    0    0    0    0  0.00000000000E+00  0.00000000000E+00  0.45593999997E+02  0.45594000000E+02  0.51100000000E-03 0. -1.
         11   -1    0    0    0    0 -0.00000000000E+00 -0.00000000000E+00 -0.45593999997E+02  0.45594000000E+02  0.51100000000E-03 0.  1.
    9900012    2    1    2    0    0 -0.28267488008E+02  0.23433209840E+02 -0.26094967635E+02  0.46142317215E+02  0.99999950180E+01 0.  0.
         12    1    1    2    0    0  0.28267488008E+02 -0.23433209840E+02  0.26094967635E+02  0.45045682785E+02  0.00000000000E+00 0. -1.
         11    1    3    3    0    0 -0.75430124331E+01  0.30029840004E+01 -0.23057267984E+01  0.84398652716E+01  0.51100000000E-03 0. -1.
        -11    1    3    3    0    0 -0.14892809594E+02  0.13384463026E+02 -0.17600510899E+02  0.26659287542E+02  0.51100000000E-03 0.  1.
         12    1    3    3    0    0 -0.58316659815E+01  0.70457628135E+01 -0.61887299378E+01  0.11043164401E+02  0.00000000000E+00 0. -1.
</event>
<event>
 7    1  0.1445801E-008  0.4614232E+02  0.7816164E-02  0.1320468E+00
        -11   -1    0    0    0    0  0.00000000000E+00  0.00000000000E+00  0.45593999997E+02  0.45594000000E+02  0.51100000000E-03 0. -1.
         11   -1    0    0    0    0 -0.00000000000E+00 -0.00000000000E+00 -0.45593999997E+02  0.45594000000E+02  0.51100000000E-03 0.  1.
    9900012    2    1    2    0    0 -0.41888181687E+02  0.96316096201E+01 -0.13480572609E+02  0.46142317557E+02  0.99999981349E+01 0.  0.
         12    1    1    2    0    0  0.41888181687E+02 -0.96316096201E+01  0.13480572609E+02  0.45045682443E+02  0.00000000000E+00 0. -1.
         11    1    3    3    0    0 -0.21674428833E+01  0.22731175284E+01 -0.43407017463E-01  0.31411393443E+01  0.51100000000E-03 0. -1.
        -11    1    3    3    0    0 -0.19574540120E+02  0.13057991831E+01 -0.85781106387E+01  0.21411485582E+02  0.51100000000E-03 0.  1.
        -12    1    3    3    0    0 -0.20146198684E+02  0.60526929086E+01 -0.48590549528E+01  0.21589692630E+02  0.00000000000E+00 0.  1.
</event>
<event>
 7    1  0.1445801E-008  0.4614232E+02  0.7816164E-02  0.1320468E+00
        -11   -1    0    0    0    0  0.00000000000E+00  0.00000000000E+00  0.45593999997E+02  0.45594000000E+02  0.51100000000E-03 0.  1.
         11   -1    0    0    0    0 -0.00000000000E+00 -0.00000000000E+00 -0.45593999997E+02  0.45594000000E+02  0.51100000000E-03 0. -1.
    9900012    2    1    2    0    0  0.24351098489E+02 -0.32180538185E+02  0.20013756718E+02  0.46142317704E+02  0.99999994829E+01 0.  0.
         12    1    1    2    0    0 -0.24351098489E+02  0.32180538185E+02 -0.20013756718E+02  0.45045682296E+02  0.00000000000E+00 0. -1.
         11    1    3    3    0    0  0.19892720802E+01 -0.20138342359E+01 -0.86735726464E+00  0.29605811295E+01  0.51100000000E-03 0. -1.
        -11    1    3    3    0    0  0.10372121467E+02 -0.17596255380E+02  0.11348915927E+02  0.23366792678E+02  0.51100000000E-03 0.  1.
         12    1    3    3    0    0  0.11989704942E+02 -0.12570448570E+02  0.95321980560E+01  0.19814943897E+02  0.00000000000E+00 0. -1.
</event>
<event>
 7    1  0.1445801E-008  0.4614232E+02  0.7816164E-02  0.1320468E+00
        -11   -1    0    0    0    0  0.00000000000E+00  0.00000000000E+00  0.45593999997E+02  0.45594000000E+02  0.51100000000E-03 0.  1.
         11   -1    0    0    0    0 -0.00000000000E+00 -0.00000000000E+00 -0.45593999997E+02  0.45594000000E+02  0.51100000000E-03 0. -1.
    9900012    2    1    2    0    0  0.15441674087E+02 -0.16863915320E+02  0.38810779880E+02  0.46142316817E+02  0.99999913934E+01 0.  0.
         12    1    1    2    0    0 -0.15441674087E+02  0.16863915320E+02 -0.38810779880E+02  0.45045683183E+02  0.00000000000E+00 0. -1.
         11    1    3    3    0    0  0.47512383318E+01 -0.54519506026E+01  0.64857562012E+01  0.97140653087E+01  0.51100000000E-03 0. -1.
        -11    1    3    3    0    0  0.31197450504E+01 -0.28734708072E+00  0.85989944652E+01  0.91519442524E+01  0.51100000000E-03 0.  1.
        -12    1    3    3    0    0  0.75706907051E+01 -0.11124617636E+02  0.23726029213E+02  0.27276307256E+02  0.00000000000E+00 0.  1.
</event>
<event>
 7    1  0.1445801E-008  0.4614232E+02  0.7816164E-02  0.1320468E+00
        -11   -1    0    0    0    0  0.00000000000E+00  0.00000000000E+00  0.45593999997E+02  0.45594000000E+02  0.51100000000E-03 0.  1.
         11   -1    0    0    0    0 -0.00000000000E+00 -0.00000000000E+00 -0.45593999997E+02  0.45594000000E+02  0.51100000000E-03 0. -1.
    9900012    2    1    2    0    0  0.31834954997E+02  0.67668951175E+00  0.31862066034E+02  0.46142317406E+02  0.99999967652E+01 0.  0.
         12    1    1    2    0    0 -0.31834954997E+02 -0.67668951175E+00 -0.31862066034E+02  0.45045682594E+02  0.00000000000E+00 0. -1.
         11    1    3    3    0    0  0.48980500568E+01 -0.32691714107E+01  0.64765848182E+01  0.87535436962E+01  0.51100000000E-03 0. -1.
        -11    1    3    3    0    0  0.22082656276E+02  0.45103854678E+01  0.20244320218E+02  0.30295540705E+02  0.51100000000E-03 0.  1.
        -12    1    3    3    0    0  0.48542486646E+01 -0.56452454529E+00  0.51411609975E+01  0.70932330049E+01  0.00000000000E+00 0.  1.
</event>
<event>
 7    1  0.1445801E-008  0.4614232E+02  0.7816164E-02  0.1320468E+00
        -11   -1    0    0    0    0  0.00000000000E+00  0.00000000000E+00  0.45593999997E+02  0.45594000000E+02  0.51100000000E-03 0. -1.
         11   -1    0    0    0    0 -0.00000000000E+00 -0.00000000000E+00 -0.45593999997E+02  0.45594000000E+02  0.51100000000E-03 0.  1.
    9900012    2    1    2    0    0 -0.24459212029E+02  0.30385111181E+02 -0.22530101935E+02  0.46142317324E+02  0.99999960180E+01 0.  0.
         12    1    1    2    0    0  0.24459212029E+02 -0.30385111181E+02  0.22530101935E+02  0.45045682676E+02  0.00000000000E+00 0. -1.
         11    1    3    3    0    0 -0.18266780071E+01  0.33987422051E+01 -0.50658358589E+00  0.38916356855E+01  0.51100000000E-03 0. -1.
        -11    1    3    3    0    0 -0.20821315138E+02  0.21850120321E+02 -0.16113994398E+02  0.34214262200E+02  0.51100000000E-03 0.  1.
        -12    1    3    3    0    0 -0.18112188834E+01  0.51362486542E+01 -0.59095239506E+01  0.80364194393E+01  0.00000000000E+00 0.  1.
</event>
<event>
 7    1  0.1445801E-008  0.4614232E+02  0.7816164E-02  0.1320468E+00
        -11   -1    0    0    0    0  0.00000000000E+00  0.00000000000E+00  0.45593999997E+02  0.45594000000E+02  0.51100000000E-03 0. -1.
         11   -1    0    0    0    0 -0.00000000000E+00 -0.00000000000E+00 -0.45593999997E+02  0.45594000000E+02  0.51100000000E-03 0.  1.
    9900012    2    1    2    0    0  0.35055102942E+02 -0.18641857172E+02 -0.21277555382E+02  0.46142318252E+02  0.10000004476E+02 0.  0.
         12    1    1    2    0    0 -0.35055102942E+02  0.18641857172E+02  0.21277555382E+02  0.45045681748E+02  0.00000000000E+00 0. -1.
         11    1    3    3    0    0  0.11811448908E+02 -0.38833945365E+01 -0.90198043914E+01  0.15360597318E+02  0.51100000000E-03 0. -1.
        -11    1    3    3    0    0  0.90826190450E+01 -0.63019920266E+01 -0.16654073183E+01  0.11179564125E+02  0.51100000000E-03 0.  1.
        -12    1    3    3    0    0  0.14161034989E+02 -0.84564706092E+01 -0.10592343672E+02  0.19602156810E+02  0.00000000000E+00 0.  1.
</event>
<event>
 7    1  0.1445801E-008  0.4614232E+02  0.7816164E-02  0.1320468E+00
        -11   -1    0    0    0    0  0.00000000000E+00  0.00000000000E+00  0.45593999997E+02  0.45594000000E+02  0.51100000000E-03 0.  1.
         11   -1    0    0    0    0 -0.00000000000E+00 -0.00000000000E+00 -0.45593999997E+02  0.45594000000E+02  0.51100000000E-03 0. -1.
    9900012    2    1    2    0    0 -0.38152243835E+01 -0.88673732737E+01  0.43999173268E+02  0.46142317698E+02  0.99999994200E+01 0.  0.
         12    1    1    2    0    0  0.38152243835E+01  0.88673732737E+01 -0.43999173268E+02  0.45045682302E+02  0.00000000000E+00 0. -1.
         11    1    3    3    0    0 -0.55019929006E+00  0.17812519231E+01  0.46046900182E+01  0.49677709384E+01  0.51100000000E-03 0. -1.
        -11    1    3    3    0    0 -0.71641769810E+00 -0.73110119587E+01  0.19409942447E+02  0.20753554304E+02  0.51100000000E-03 0.  1.
        -12    1    3    3    0    0 -0.25486073953E+01 -0.33376132380E+01  0.19984540802E+02  0.20420992455E+02  0.00000000000E+00 0.  1.
</event>
<event>
 7    1  0.1445801E-008  0.4614232E+02  0.7816164E-02  0.1320468E+00
        -11   -1    0    0    0    0  0.00000000000E+00  0.00000000000E+00  0.45593999997E+02  0.45594000000E+02  0.51100000000E-03 0.  1.
         11   -1    0    0    0    0 -0.00000000000E+00 -0.00000000000E+00 -0.45593999997E+02  0.45594000000E+02  0.51100000000E-03 0. -1.
    9900012    2    1    2    0    0 -0.42666360059E+02 -0.11572830415E+02  0.86466638648E+01  0.46142317849E+02  0.10000000799E+02 0.  0.
         12    1    1    2    0    0  0.42666360059E+02  0.11572830415E+02 -0.86466638648E+01  0.45045682151E+02  0.00000000000E+00 0. -1.
         11    1    3    3    0    0 -0.18864478374E+02 -0.59216978587E+01  0.81943060004E+00  0.19789050422E+02  0.51100000000E-03 0. -1.
        -11    1    3    3    0    0 -0.18121336430E+02 -0.17993101077E+01  0.46766922729E+01  0.18801377655E+02  0.51100000000E-03 0.  1.
        -12    1    3    3    0    0 -0.56805452554E+01 -0.38518224485E+01  0.31505409919E+01  0.75518897711E+01  0.00000000000E+00 0.  1.
</event>
<event>
 7    1  0.1445801E-008  0.4614232E+02  0.7816164E-02  0.1320468E+00
        -11   -1    0    0    0    0  0.00000000000E+00  0.00000000000E+00  0.45593999997E+02  0.45594000000E+02  0.51100000000E-03 0.  1.
         11   -1    0    0    0    0 -0.00000000000E+00 -0.00000000000E+00 -0.45593999997E+02  0.45594000000E+02  0.51100000000E-03 0. -1.
    9900012    2    1    2    0    0 -0.12453087937E+02  0.24910632267E+01  0.43218384069E+02  0.46142317446E+02  0.99999971293E+01 0.  0.
         12    1    1    2    0    0  0.12453087937E+02 -0.24910632267E+01 -0.43218384069E+02  0.45045682554E+02  0.00000000000E+00 0. -1.
         11    1    3    3    0    0 -0.16603380417E+01 -0.23986949288E+01  0.10021459374E+02  0.10437437809E+02  0.51100000000E-03 0. -1.
        -11    1    3    3    0    0 -0.30524857896E+01  0.13282714192E+01  0.35881576308E+01  0.48945735160E+01  0.51100000000E-03 0.  1.
        -12    1    3    3    0    0 -0.77402641058E+01  0.35614867363E+01  0.29608767064E+02  0.30810306121E+02  0.00000000000E+00 0.  1.
</event>
<event>
 7    1  0.1445801E-008  0.4614232E+02  0.7816164E-02  0.1320468E+00
        -11   -1    0    0    0    0  0.00000000000E+00  0.00000000000E+00  0.45593999997E+02  0.45594000000E+02  0.51100000000E-03 0. -1.
         11   -1    0    0    0    0 -0.00000000000E+00 -0.00000000000E+00 -0.45593999997E+02  0.45594000000E+02  0.51100000000E-03 0.  1.
    9900012    2    1    2    0    0  0.35148726227E+02 -0.17073968895E+02 -0.22408931235E+02  0.46142316874E+02  0.99999919120E+01 0.  0.
         12    1    1    2    0    0 -0.35148726227E+02  0.17073968895E+02  0.22408931235E+02  0.45045683126E+02  0.00000000000E+00 0. -1.
         11    1    3    3    0    0  0.15137037250E+02 -0.76221619973E+01 -0.13431198246E+02  0.21624623391E+02  0.51100000000E-03 0. -1.
        -11    1    3    3    0    0  0.60010819748E+01 -0.11197750972E+01 -0.45083621104E+00  0.61212853787E+01  0.51100000000E-03 0.  1.
        -12    1    3    3    0    0  0.14010607002E+02 -0.83320318001E+01 -0.85268967777E+01  0.18396408104E+02  0.00000000000E+00 0.  1.
</event>
<event>
 7    1  0.1445801E-008  0.4614232E+02  0.7816164E-02  0.1320468E+00
        -11   -1    0    0    0    0  0.00000000000E+00  0.00000000000E+00  0.45593999997E+02  0.45594000000E+02  0.51100000000E-03 0.  1.
         11   -1    0    0    0    0 -0.00000000000E+00 -0.00000000000E+00 -0.45593999997E+02  0.45594000000E+02  0.51100000000E-03 0. -1.
    9900012    2    1    2    0    0 -0.29135631828E+01  0.38812461822E+02  0.22676361611E+02  0.46142318531E+02  0.10000007017E+02 0.  0.
         12    1    1    2    0    0  0.29135631828E+01 -0.38812461822E+02 -0.22676361611E+02  0.45045681469E+02  0.00000000000E+00 0. -1.
         11    1    3    3    0    0  0.21366499966E+01  0.95337592393E+01  0.57385147690E+01  0.11330860093E+02  0.51100000000E-03 0. -1.
        -11    1    3    3    0    0 -0.33839254564E+01  0.65560619111E+01  0.22887101755E+01  0.77247067132E+01  0.51100000000E-03 0.  1.
        -12    1    3    3    0    0 -0.16662877229E+01  0.22722640672E+02  0.14649136666E+02  0.27086751724E+02  0.00000000000E+00 0.  1.
</event>
<event>
 7    1  0.1445801E-008  0.4614232E+02  0.7816164E-02  0.1320468E+00
        -11   -1    0    0    0    0  0.00000000000E+00  0.00000000000E+00  0.45593999997E+02  0.45594000000E+02  0.51100000000E-03 0.  1.
         11   -1    0    0    0    0 -0.00000000000E+00 -0.00000000000E+00 -0.45593999997E+02  0.45594000000E+02  0.51100000000E-03 0. -1.
    9900012    2    1    2    0    0  0.80001803140E+01  0.24797472179E+02  0.36745014142E+02  0.46142316790E+02  0.99999911483E+01 0.  0.
         12    1    1    2    0    0 -0.80001803140E+01 -0.24797472179E+02 -0.36745014142E+02  0.45045683210E+02  0.00000000000E+00 0. -1.
         11    1    3    3    0    0  0.19384953665E+01  0.98498321076E+01  0.21532526542E+02  0.23757665213E+02  0.51100000000E-03 0. -1.
        -11    1    3    3    0    0  0.54129983821E+01  0.12079494857E+02  0.10808322963E+02  0.17089019662E+02  0.51100000000E-03 0.  1.
        -12    1    3    3    0    0  0.64868656535E+00  0.28681452148E+01  0.44041646361E+01  0.52956319147E+01  0.00000000000E+00 0.  1.
</event>
<event>
 7    1  0.1445801E-008  0.4614232E+02  0.7816164E-02  0.1320468E+00
        -11   -1    0    0    0    0  0.00000000000E+00  0.00000000000E+00  0.45593999997E+02  0.45594000000E+02  0.51100000000E-03 0. -1.
         11   -1    0    0    0    0 -0.00000000000E+00 -0.00000000000E+00 -0.45593999997E+02  0.45594000000E+02  0.51100000000E-03 0.  1.
    9900012    2    1    2    0    0  0.10886649903E+02  0.34983934930E+02 -0.26205317827E+02  0.46142317281E+02  0.99999956181E+01 0.  0.
         12    1    1    2    0    0 -0.10886649903E+02 -0.34983934930E+02  0.26205317827E+02  0.45045682719E+02  0.00000000000E+00 0. -1.
         11    1    3    3    0    0  0.10562937903E+01  0.10575198184E+01 -0.28860428983E+01  0.32501305528E+01  0.51100000000E-03 0. -1.
        -11    1    3    3    0    0 -0.23743672504E+00  0.77105753240E+01 -0.32266849762E+01  0.83618684648E+01  0.51100000000E-03 0.  1.
        -12    1    3    3    0    0  0.10067792837E+02  0.26215839787E+02 -0.20092589952E+02  0.34530318263E+02  0.00000000000E+00 0.  1.
</event>
<event>
 7    1  0.1445801E-008  0.4614232E+02  0.7816164E-02  0.1320468E+00
        -11   -1    0    0    0    0  0.00000000000E+00  0.00000000000E+00  0.45593999997E+02  0.45594000000E+02  0.51100000000E-03 0. -1.
         11   -1    0    0    0    0 -0.00000000000E+00 -0.00000000000E+00 -0.45593999997E+02  0.45594000000E+02  0.51100000000E-03 0.  1.
    9900012    2    1    2    0    0  0.41609562089E+02  0.17125384154E+02 -0.21163737233E+01  0.46142317883E+02  0.10000001109E+02 0.  0.
         12    1    1    2    0    0 -0.41609562089E+02 -0.17125384154E+02  0.21163737233E+01  0.45045682117E+02  0.00000000000E+00 0. -1.
         11    1    3    3    0    0  0.15623024520E+02  0.20618351266E+01 -0.61225463403E+00  0.15770380948E+02  0.51100000000E-03 0. -1.
        -11    1    3    3    0    0  0.16990108903E+02  0.97063739679E+01 -0.29967589267E+01  0.19795405035E+02  0.51100000000E-03 0.  1.
        -12    1    3    3    0    0  0.89964286654E+01  0.53571750593E+01  0.14926398374E+01  0.10576531900E+02  0.00000000000E+00 0.  1.
</event>
<event>
 7    1  0.1445801E-008  0.4614232E+02  0.7816164E-02  0.1320468E+00
        -11   -1    0    0    0    0  0.00000000000E+00  0.00000000000E+00  0.45593999997E+02  0.45594000000E+02  0.51100000000E-03 0.  1.
         11   -1    0    0    0    0 -0.00000000000E+00 -0.00000000000E+00 -0.45593999997E+02  0.45594000000E+02  0.51100000000E-03 0. -1.
    9900012    2    1    2    0    0  0.16912425065E+02 -0.22108882669E+02  0.35415824859E+02  0.46142318022E+02  0.10000002375E+02 0.  0.
         12    1    1    2    0    0 -0.16912425065E+02  0.22108882669E+02 -0.35415824859E+02  0.45045681978E+02  0.00000000000E+00 0. -1.
         11    1    3    3    0    0  0.25290160344E+01 -0.47264180145E+00  0.71018910445E+01  0.75535534051E+01  0.51100000000E-03 0. -1.
        -11    1    3    3    0    0  0.12550787329E+02 -0.18910026097E+02  0.22801111718E+02  0.32171447674E+02  0.51100000000E-03 0.  1.
         12    1    3    3    0    0  0.18326217013E+01 -0.27262147702E+01  0.55128220969E+01  0.64173169429E+01  0.00000000000E+00 0. -1.
</event>
<event>
 7    1  0.1445801E-008  0.4614232E+02  0.7816164E-02  0.1320468E+00
        -11   -1    0    0    0    0  0.00000000000E+00  0.00000000000E+00  0.45593999997E+02  0.45594000000E+02  0.51100000000E-03 0.  1.
         11   -1    0    0    0    0 -0.00000000000E+00 -0.00000000000E+00 -0.45593999997E+02  0.45594000000E+02  0.51100000000E-03 0. -1.
    9900012    2    1    2    0    0 -0.82132711144E+01  0.44027972007E+02  0.48159394984E+01  0.46142318579E+02  0.10000007454E+02 0.  0.
         12    1    1    2    0    0  0.82132711144E+01 -0.44027972007E+02 -0.48159394984E+01  0.45045681421E+02  0.00000000000E+00 0. -1.
         11    1    3    3    0    0 -0.31609892109E+01  0.97452385633E+01  0.82790056768E+00  0.10278470074E+02  0.51100000000E-03 0. -1.
        -11    1    3    3    0    0 -0.34716340807E+01  0.42198766321E+01  0.14451397965E+01  0.56522589531E+01  0.51100000000E-03 0.  1.
        -12    1    3    3    0    0 -0.15806478228E+01  0.30062856812E+02  0.25428991342E+01  0.30211589552E+02  0.00000000000E+00 0.  1.
</event>
<event>
 7    1  0.1445801E-008  0.4614232E+02  0.7816164E-02  0.1320468E+00
        -11   -1    0    0    0    0  0.00000000000E+00  0.00000000000E+00  0.45593999997E+02  0.45594000000E+02  0.51100000000E-03 0.  1.
         11   -1    0    0    0    0 -0.00000000000E+00 -0.00000000000E+00 -0.45593999997E+02  0.45594000000E+02  0.51100000000E-03 0. -1.
    9900012    2    1    2    0    0 -0.41213942385E+02  0.16630513623E+02  0.73451018033E+01  0.46142317068E+02  0.99999936820E+01 0.  0.
         12    1    1    2    0    0  0.41213942385E+02 -0.16630513623E+02 -0.73451018033E+01  0.45045682932E+02  0.00000000000E+00 0. -1.
         11    1    3    3    0    0 -0.95724372932E+01  0.36170905972E+01  0.33087415803E+01  0.10754658118E+02  0.51100000000E-03 0. -1.
        -11    1    3    3    0    0 -0.13403627098E+02  0.29197721332E+01 -0.15556874808E+01  0.13805884705E+02  0.51100000000E-03 0.  1.
        -12    1    3    3    0    0 -0.18237877994E+02  0.10093650893E+02  0.55920477038E+01  0.21581774246E+02  0.00000000000E+00 0.  1.
</event>
<event>
 7    1  0.1445801E-008  0.4614232E+02  0.7816164E-02  0.1320468E+00
        -11   -1    0    0    0    0  0.00000000000E+00  0.00000000000E+00  0.45593999997E+02  0.45594000000E+02  0.51100000000E-03 0.  1.
         11   -1    0    0    0    0 -0.00000000000E+00 -0.00000000000E+00 -0.45593999997E+02  0.45594000000E+02  0.51100000000E-03 0. -1.
    9900012    2    1    2    0    0 -0.33263730395E+02 -0.24171316964E+02 -0.18395249834E+02  0.46142317187E+02  0.99999947674E+01 0.  0.
         12    1    1    2    0    0  0.33263730395E+02  0.24171316964E+02  0.18395249834E+02  0.45045682813E+02  0.00000000000E+00 0. -1.
         11    1    3    3    0    0 -0.19012109166E+02 -0.11466025631E+02 -0.12771544151E+02  0.25613324247E+02  0.51100000000E-03 0. -1.
        -11    1    3    3    0    0  0.39397928900E+00 -0.26706213456E+00 -0.38719929983E+00  0.61356778174E+00  0.51100000000E-03 0.  1.
        -12    1    3    3    0    0 -0.14645600518E+02 -0.12438229199E+02 -0.52365063828E+01  0.19915425159E+02  0.00000000000E+00 0.  1.
</event>
<event>
 7    1  0.1445801E-008  0.4614233E+02  0.7816164E-02  0.1320468E+00
        -11   -1    0    0    0    0  0.00000000000E+00  0.00000000000E+00  0.45593999997E+02  0.45594000000E+02  0.51100000000E-03 0.  1.
         11   -1    0    0    0    0 -0.00000000000E+00 -0.00000000000E+00 -0.45593999997E+02  0.45594000000E+02  0.51100000000E-03 0. -1.
    9900012    2    1    2    0    0  0.44955596336E+02  0.28467652020E+01 -0.52204610243E-01  0.46142329405E+02  0.10000106178E+02 0.  0.
         12    1    1    2    0    0 -0.44955596336E+02 -0.28467652020E+01  0.52204610243E-01  0.45045670595E+02  0.00000000000E+00 0. -1.
         11    1    3    3    0    0  0.11891861275E+02  0.17789428177E+01  0.37665194523E+00  0.12030081841E+02  0.51100000000E-03 0. -1.
        -11    1    3    3    0    0  0.11673162401E+02 -0.19332295286E+01  0.30862236145E+01  0.12228036364E+02  0.51100000000E-03 0.  1.
        -12    1    3    3    0    0  0.21390572659E+02  0.30010519129E+01 -0.35150801700E+01  0.21884211200E+02  0.00000000000E+00 0.  1.
</event>
<event>
 7    1  0.1445801E-008  0.4614232E+02  0.7816164E-02  0.1320468E+00
        -11   -1    0    0    0    0  0.00000000000E+00  0.00000000000E+00  0.45593999997E+02  0.45594000000E+02  0.51100000000E-03 0.  1.
         11   -1    0    0    0    0 -0.00000000000E+00 -0.00000000000E+00 -0.45593999997E+02  0.45594000000E+02  0.51100000000E-03 0. -1.
    9900012    2    1    2    0    0 -0.22909847641E+00  0.24932482555E+02  0.37515761658E+02  0.46142317130E+02  0.99999942472E+01 0.  0.
         12    1    1    2    0    0  0.22909847641E+00 -0.24932482555E+02 -0.37515761658E+02  0.45045682870E+02  0.00000000000E+00 0. -1.
         11    1    3    3    0    0 -0.12655119261E+01  0.14000398986E+02  0.27934604258E+02  0.31272268985E+02  0.51100000000E-03 0. -1.
        -11    1    3    3    0    0  0.19091188642E+00  0.96742708379E+01  0.90919320714E+01  0.13277469361E+02  0.51100000000E-03 0.  1.
         12    1    3    3    0    0  0.84550156325E+00  0.12578127309E+01  0.48922532872E+00  0.15925787835E+01  0.00000000000E+00 0. -1.
</event>
<event>
 7    1  0.1445801E-008  0.4614232E+02  0.7816164E-02  0.1320468E+00
        -11   -1    0    0    0    0  0.00000000000E+00  0.00000000000E+00  0.45593999997E+02  0.45594000000E+02  0.51100000000E-03 0.  1.
         11   -1    0    0    0    0 -0.00000000000E+00 -0.00000000000E+00 -0.45593999997E+02  0.45594000000E+02  0.51100000000E-03 0. -1.
    9900012    2    1    2    0    0 -0.17947582600E+02  0.40799525599E+02 -0.65112537460E+01  0.46142318346E+02  0.10000005335E+02 0.  0.
         12    1    1    2    0    0  0.17947582600E+02 -0.40799525599E+02  0.65112537460E+01  0.45045681654E+02  0.00000000000E+00 0. -1.
         11    1    3    3    0    0 -0.79617539767E+01  0.99339804373E+01 -0.42308813814E+01  0.13415433323E+02  0.51100000000E-03 0. -1.
        -11    1    3    3    0    0 -0.83522313398E+01  0.23567942092E+02 -0.31353314177E+01  0.25199959646E+02  0.51100000000E-03 0.  1.
        -12    1    3    3    0    0 -0.16335972834E+01  0.72976030703E+01  0.85495905305E+00  0.75269253775E+01  0.00000000000E+00 0.  1.
</event>
<event>
 7    1  0.1445801E-008  0.4614232E+02  0.7816164E-02  0.1320468E+00
        -11   -1    0    0    0    0  0.00000000000E+00  0.00000000000E+00  0.45593999997E+02  0.45594000000E+02  0.51100000000E-03 0.  1.
         11   -1    0    0    0    0 -0.00000000000E+00 -0.00000000000E+00 -0.45593999997E+02  0.45594000000E+02  0.51100000000E-03 0. -1.
    9900012    2    1    2    0    0 -0.20724410976E+02  0.58565946699E+01  0.39564030537E+02  0.46142318478E+02  0.10000006538E+02 0.  0.
         12    1    1    2    0    0  0.20724410976E+02 -0.58565946699E+01 -0.39564030537E+02  0.45045681522E+02  0.00000000000E+00 0. -1.
         11    1    3    3    0    0 -0.63575623265E+01  0.28697824190E+01  0.17524403916E+02  0.18861574238E+02  0.51100000000E-03 0. -1.
        -11    1    3    3    0    0 -0.87455775226E+01  0.36182246760E+01  0.89714239155E+01  0.13040825255E+02  0.51100000000E-03 0.  1.
         12    1    3    3    0    0 -0.56212711270E+01 -0.63141242507E+00  0.13068202705E+02  0.14239918984E+02  0.00000000000E+00 0. -1.
</event>
<event>
 7    1  0.1445801E-008  0.4614232E+02  0.7816164E-02  0.1320468E+00
        -11   -1    0    0    0    0  0.00000000000E+00  0.00000000000E+00  0.45593999997E+02  0.45594000000E+02  0.51100000000E-03 0.  1.
         11   -1    0    0    0    0 -0.00000000000E+00 -0.00000000000E+00 -0.45593999997E+02  0.45594000000E+02  0.51100000000E-03 0. -1.
    9900012    2    1    2    0    0 -0.22163697157E+02 -0.28183063689E+02  0.27269010544E+02  0.46142317780E+02  0.10000000175E+02 0.  0.
         12    1    1    2    0    0  0.22163697157E+02  0.28183063689E+02 -0.27269010544E+02  0.45045682220E+02  0.00000000000E+00 0. -1.
         11    1    3    3    0    0  0.45899972206E+00 -0.10451935829E+01  0.26127847293E+00  0.11710580994E+01  0.51100000000E-03 0. -1.
        -11    1    3    3    0    0 -0.20652558493E+02 -0.22297316824E+02  0.25068095250E+02  0.39396800753E+02  0.51100000000E-03 0.  1.
        -12    1    3    3    0    0 -0.19701383861E+01 -0.48405532824E+01  0.19396368213E+01  0.55744589279E+01  0.00000000000E+00 0.  1.
</event>
<event>
 7    1  0.1445801E-008  0.4614232E+02  0.7816164E-02  0.1320468E+00
        -11   -1    0    0    0    0  0.00000000000E+00  0.00000000000E+00  0.45593999997E+02  0.45594000000E+02  0.51100000000E-03 0.  1.
         11   -1    0    0    0    0 -0.00000000000E+00 -0.00000000000E+00 -0.45593999997E+02  0.45594000000E+02  0.51100000000E-03 0. -1.
    9900012    2    1    2    0    0  0.11445245442E+02  0.41569978530E+02  0.13040579993E+02  0.46142317801E+02  0.10000000368E+02 0.  0.
         12    1    1    2    0    0 -0.11445245442E+02 -0.41569978530E+02 -0.13040579993E+02  0.45045682199E+02  0.00000000000E+00 0. -1.
         11    1    3    3    0    0  0.30264252492E+00  0.14381582406E+01 -0.99695449431E+00  0.17758969981E+01  0.51100000000E-03 0. -1.
        -11    1    3    3    0    0  0.73586599270E+01  0.26460290925E+02  0.61841851184E+01  0.28152105030E+02  0.51100000000E-03 0.  1.
         12    1    3    3    0    0  0.37839429897E+01  0.13671529364E+02  0.78533493685E+01  0.16214315773E+02  0.00000000000E+00 0. -1.
</event>
<event>
 7    1  0.1445801E-008  0.4614232E+02  0.7816164E-02  0.1320468E+00
        -11   -1    0    0    0    0  0.00000000000E+00  0.00000000000E+00  0.45593999997E+02  0.45594000000E+02  0.51100000000E-03 0.  1.
         11   -1    0    0    0    0 -0.00000000000E+00 -0.00000000000E+00 -0.45593999997E+02  0.45594000000E+02  0.51100000000E-03 0. -1.
    9900012    2    1    2    0    0  0.23557077408E+02  0.37780563946E+02  0.68415296532E+01  0.46142318341E+02  0.10000005291E+02 0.  0.
         12    1    1    2    0    0 -0.23557077408E+02 -0.37780563946E+02 -0.68415296532E+01  0.45045681659E+02  0.00000000000E+00 0. -1.
         11    1    3    3    0    0  0.14266546405E+01  0.10730384027E+01  0.96177215873E+00  0.20277477219E+01  0.51100000000E-03 0. -1.
        -11    1    3    3    0    0  0.65934726347E+01  0.52575581415E+01 -0.55318916097E+00  0.84511429703E+01  0.51100000000E-03 0.  1.
        -12    1    3    3    0    0  0.15536950132E+02  0.31449967402E+02  0.64329466555E+01  0.35663427649E+02  0.00000000000E+00 0.  1.
</event>
<event>
 7    1  0.1445801E-008  0.4614232E+02  0.7816164E-02  0.1320468E+00
        -11   -1    0    0    0    0  0.00000000000E+00  0.00000000000E+00  0.45593999997E+02  0.45594000000E+02  0.51100000000E-03 0. -1.
         11   -1    0    0    0    0 -0.00000000000E+00 -0.00000000000E+00 -0.45593999997E+02  0.45594000000E+02  0.51100000000E-03 0.  1.
    9900012    2    1    2    0    0  0.53106620551E+01 -0.20376748816E+00 -0.44731073754E+02  0.46142316390E+02  0.99999874984E+01 0.  0.
         12    1    1    2    0    0 -0.53106620551E+01  0.20376748816E+00  0.44731073754E+02  0.45045683610E+02  0.00000000000E+00 0. -1.
         11    1    3    3    0    0  0.28767915280E+01  0.71856624558E+00 -0.47276820894E+01  0.55806133305E+01  0.51100000000E-03 0. -1.
        -11    1    3    3    0    0 -0.18232343456E+01 -0.64767603316E+00 -0.20819800599E+02  0.20909513743E+02  0.51100000000E-03 0.  1.
        -12    1    3    3    0    0  0.42571048727E+01 -0.27465770058E+00 -0.19183591066E+02  0.19652189316E+02  0.00000000000E+00 0.  1.
</event>
<event>
 7    1  0.1445801E-008  0.4614232E+02  0.7816164E-02  0.1320468E+00
        -11   -1    0    0    0    0  0.00000000000E+00  0.00000000000E+00  0.45593999997E+02  0.45594000000E+02  0.51100000000E-03 0. -1.
         11   -1    0    0    0    0 -0.00000000000E+00 -0.00000000000E+00 -0.45593999997E+02  0.45594000000E+02  0.51100000000E-03 0.  1.
    9900012    2    1    2    0    0  0.64227745196E+00  0.22600713795E+02 -0.38960347872E+02  0.46142317736E+02  0.99999997677E+01 0.  0.
         12    1    1    2    0    0 -0.64227745196E+00 -0.22600713795E+02  0.38960347872E+02  0.45045682264E+02  0.00000000000E+00 0. -1.
         11    1    3    3    0    0  0.16716137837E+01  0.15676667564E+01 -0.20063629008E+01  0.30458765654E+01  0.51100000000E-03 0.  1.
        -11    1    3    3    0    0 -0.28115850708E+01  0.36401613412E+01 -0.93717412093E+01  0.10439603381E+02  0.51100000000E-03 0. -1.
        -12    1    3    3    0    0  0.17822487391E+01  0.17392885697E+02 -0.27582243762E+02  0.32656837789E+02  0.00000000000E+00 0.  1.
</event>
<event>
 7    1  0.1445801E-008  0.4614232E+02  0.7816164E-02  0.1320468E+00
        -11   -1    0    0    0    0  0.00000000000E+00  0.00000000000E+00  0.45593999997E+02  0.45594000000E+02  0.51100000000E-03 0.  1.
         11   -1    0    0    0    0 -0.00000000000E+00 -0.00000000000E+00 -0.45593999997E+02  0.45594000000E+02  0.51100000000E-03 0. -1.
    9900012    2    1    2    0    0  0.42336196500E+02 -0.62338948095E+01  0.14067640531E+02  0.46142317758E+02  0.99999999676E+01 0.  0.
         12    1    1    2    0    0 -0.42336196500E+02  0.62338948095E+01 -0.14067640531E+02  0.45045682242E+02  0.00000000000E+00 0. -1.
         11    1    3    3    0    0  0.91243410998E+01 -0.14448239057E+01  0.64367197239E+01  0.11259328474E+02  0.51100000000E-03 0. -1.
        -11    1    3    3    0    0  0.20587107174E+02 -0.90005819934E+00  0.65767181453E+01  0.21630818486E+02  0.51100000000E-03 0.  1.
         12    1    3    3    0    0  0.12624748226E+02 -0.38890127045E+01  0.10542026620E+01  0.13252170797E+02  0.00000000000E+00 0. -1.
</event>
<event>
 7    1  0.1445801E-008  0.4614232E+02  0.7816164E-02  0.1320468E+00
        -11   -1    0    0    0    0  0.00000000000E+00  0.00000000000E+00  0.45593999997E+02  0.45594000000E+02  0.51100000000E-03 0. -1.
         11   -1    0    0    0    0 -0.00000000000E+00 -0.00000000000E+00 -0.45593999997E+02  0.45594000000E+02  0.51100000000E-03 0.  1.
    9900012    2    1    2    0    0  0.24496384352E+01  0.42523310125E+02 -0.14658815800E+02  0.46142317486E+02  0.99999974937E+01 0.  0.
         12    1    1    2    0    0 -0.24496384352E+01 -0.42523310125E+02  0.14658815800E+02  0.45045682514E+02  0.00000000000E+00 0. -1.
         11    1    3    3    0    0 -0.11091591526E+01  0.34190469581E+01 -0.23715724329E+01  0.43063293178E+01  0.51100000000E-03 0. -1.
        -11    1    3    3    0    0 -0.10311941319E+01  0.25590163021E+02 -0.93518525075E+01  0.27264939948E+02  0.51100000000E-03 0.  1.
         12    1    3    3    0    0  0.45899917197E+01  0.13514100146E+02 -0.29353908591E+01  0.14571048221E+02  0.00000000000E+00 0. -1.
</event>
<event>
 7    1  0.1445801E-008  0.4614232E+02  0.7816164E-02  0.1320468E+00
        -11   -1    0    0    0    0  0.00000000000E+00  0.00000000000E+00  0.45593999997E+02  0.45594000000E+02  0.51100000000E-03 0.  1.
         11   -1    0    0    0    0 -0.00000000000E+00 -0.00000000000E+00 -0.45593999997E+02  0.45594000000E+02  0.51100000000E-03 0. -1.
    9900012    2    1    2    0    0 -0.12892606131E+01 -0.40363192153E+01  0.44845951384E+02  0.46142318506E+02  0.10000006790E+02 0.  0.
         12    1    1    2    0    0  0.12892606131E+01  0.40363192153E+01 -0.44845951384E+02  0.45045681494E+02  0.00000000000E+00 0. -1.
         11    1    3    3    0    0  0.20070344704E+01  0.35819448267E-02  0.31588178199E+01  0.37425032366E+01  0.51100000000E-03 0.  1.
        -11    1    3    3    0    0 -0.32399840243E+01 -0.31381648066E+01  0.14229016160E+02  0.14926837441E+02  0.51100000000E-03 0. -1.
        -12    1    3    3    0    0 -0.56311059250E-01 -0.90173635351E+00  0.27458117404E+02  0.27472977829E+02  0.00000000000E+00 0.  1.
</event>
<event>
 7    1  0.1445801E-008  0.4614232E+02  0.7816164E-02  0.1320468E+00
        -11   -1    0    0    0    0  0.00000000000E+00  0.00000000000E+00  0.45593999997E+02  0.45594000000E+02  0.51100000000E-03 0.  1.
         11   -1    0    0    0    0 -0.00000000000E+00 -0.00000000000E+00 -0.45593999997E+02  0.45594000000E+02  0.51100000000E-03 0. -1.
    9900012    2    1    2    0    0 -0.30484220365E+02  0.15268771189E+00  0.33163270439E+02  0.46142317510E+02  0.99999977096E+01 0.  0.
         12    1    1    2    0    0  0.30484220365E+02 -0.15268771189E+00 -0.33163270439E+02  0.45045682490E+02  0.00000000000E+00 0. -1.
         11    1    3    3    0    0 -0.87748049959E+00 -0.81030402467E+00 -0.95561181257E-01  0.11982056752E+01  0.51100000000E-03 0. -1.
        -11    1    3    3    0    0 -0.70193133304E+01  0.29659347240E-01  0.12053831173E+02  0.13948709098E+02  0.51100000000E-03 0.  1.
        -12    1    3    3    0    0 -0.22587426535E+02  0.93333238932E+00  0.21205000447E+02  0.30995402737E+02  0.00000000000E+00 0.  1.
</event>
<event>
 7    1  0.1445801E-008  0.4614232E+02  0.7816164E-02  0.1320468E+00
        -11   -1    0    0    0    0  0.00000000000E+00  0.00000000000E+00  0.45593999997E+02  0.45594000000E+02  0.51100000000E-03 0.  1.
         11   -1    0    0    0    0 -0.00000000000E+00 -0.00000000000E+00 -0.45593999997E+02  0.45594000000E+02  0.51100000000E-03 0. -1.
    9900012    2    1    2    0    0  0.46756947513E+01 -0.11586718196E+02  0.43278163403E+02  0.46142316661E+02  0.99999899671E+01 0.  0.
         12    1    1    2    0    0 -0.46756947513E+01  0.11586718196E+02 -0.43278163403E+02  0.45045683339E+02  0.00000000000E+00 0. -1.
         11    1    3    3    0    0  0.60887571833E+01 -0.11771536080E+02  0.34756886952E+02  0.37197892637E+02  0.51100000000E-03 0. -1.
        -11    1    3    3    0    0  0.58347304377E+00 -0.24613053495E+00  0.27625660604E+01  0.28342181518E+01  0.51100000000E-03 0.  1.
         12    1    3    3    0    0 -0.19965354758E+01  0.43094841901E+00  0.57587103901E+01  0.61102058725E+01  0.00000000000E+00 0. -1.
</event>
<event>
 7    1  0.1445801E-008  0.4614232E+02  0.7816164E-02  0.1320468E+00
        -11   -1    0    0    0    0  0.00000000000E+00  0.00000000000E+00  0.45593999997E+02  0.45594000000E+02  0.51100000000E-03 0.  1.
         11   -1    0    0    0    0 -0.00000000000E+00 -0.00000000000E+00 -0.45593999997E+02  0.45594000000E+02  0.51100000000E-03 0. -1.
    9900012    2    1    2    0    0 -0.31574906292E+02 -0.30728150587E+02  0.93765439546E+01  0.46142317384E+02  0.99999965608E+01 0.  0.
         12    1    1    2    0    0  0.31574906292E+02  0.30728150587E+02 -0.93765439546E+01  0.45045682616E+02  0.00000000000E+00 0. -1.
         11    1    3    3    0    0 -0.29625994182E+01 -0.70213289282E+01 -0.99372141582E-01  0.76214126194E+01  0.51100000000E-03 0. -1.
        -11    1    3    3    0    0 -0.83310085231E+01 -0.63138592325E+01  0.43164822048E+01  0.11309400528E+02  0.51100000000E-03 0.  1.
        -12    1    3    3    0    0 -0.20281298350E+02 -0.17392962426E+02  0.51594338914E+01  0.27211504236E+02  0.00000000000E+00 0.  1.
</event>
<event>
 7    1  0.2014558E-008  0.4614232E+02  0.7816164E-02  0.1320468E+00
        -11   -1    0    0    0    0  0.00000000000E+00  0.00000000000E+00  0.45593999997E+02  0.45594000000E+02  0.51100000000E-03 0. -1.
         11   -1    0    0    0    0 -0.00000000000E+00 -0.00000000000E+00 -0.45593999997E+02  0.45594000000E+02  0.51100000000E-03 0.  1.
    9900012    2    1    2    0    0 -0.28270170025E+01  0.44047308709E+02 -0.89975288248E+01  0.46142323686E+02  0.10000054025E+02 0.  0.
         12    1    1    2    0    0  0.28270170025E+01 -0.44047308709E+02  0.89975288248E+01  0.45045676314E+02  0.00000000000E+00 0. -1.
         11    1    3    3    0    0  0.11392365852E+01  0.21845771701E+00 -0.43848616100E-01  0.11608215769E+01  0.51100000000E-03 0. -1.
        -11    1    3    3    0    0 -0.46696229218E+00  0.19074985931E+02 -0.37508815023E+01  0.19445880139E+02  0.51100000000E-03 0.  1.
         12    1    3    3    0    0 -0.34992912956E+01  0.24753865061E+02 -0.52027987064E+01  0.25535621970E+02  0.00000000000E+00 0. -1.
</event>
<event>
 7    1  0.1445801E-008  0.4614231E+02  0.7816164E-02  0.1320468E+00
        -11   -1    0    0    0    0  0.00000000000E+00  0.00000000000E+00  0.45593999997E+02  0.45594000000E+02  0.51100000000E-03 0.  1.
         11   -1    0    0    0    0 -0.00000000000E+00 -0.00000000000E+00 -0.45593999997E+02  0.45594000000E+02  0.51100000000E-03 0. -1.
    9900012    2    1    2    0    0 -0.37475220543E+02  0.22541911024E+02 -0.10797399453E+02  0.46142314942E+02  0.99999742938E+01 0.  0.
         12    1    1    2    0    0  0.37475220543E+02 -0.22541911024E+02  0.10797399453E+02  0.45045685058E+02  0.00000000000E+00 0. -1.
         11    1    3    3    0    0 -0.26092770183E+02  0.12448839313E+02 -0.32064519616E+01  0.29087584817E+02  0.51100000000E-03 0. -1.
        -11    1    3    3    0    0 -0.11346587004E+02  0.98939547565E+01 -0.75722742628E+01  0.16851549339E+02  0.51100000000E-03 0.  1.
         12    1    3    3    0    0 -0.35863356214E-01  0.19911695526E+00 -0.18673228460E-01  0.20318078564E+00  0.00000000000E+00 0. -1.
</event>
<event>
 7    1  0.1445801E-008  0.4614232E+02  0.7816164E-02  0.1320468E+00
        -11   -1    0    0    0    0  0.00000000000E+00  0.00000000000E+00  0.45593999997E+02  0.45594000000E+02  0.51100000000E-03 0. -1.
         11   -1    0    0    0    0 -0.00000000000E+00 -0.00000000000E+00 -0.45593999997E+02  0.45594000000E+02  0.51100000000E-03 0.  1.
    9900012    2    1    2    0    0  0.27274198355E+02 -0.16352955219E+02 -0.31903173054E+02  0.46142317729E+02  0.99999997096E+01 0.  0.
         12    1    1    2    0    0 -0.27274198355E+02  0.16352955219E+02  0.31903173054E+02  0.45045682271E+02  0.00000000000E+00 0. -1.
         11    1    3    3    0    0  0.12335935505E+02 -0.28640165223E+01 -0.13484747736E+02  0.18499089631E+02  0.51100000000E-03 0. -1.
        -11    1    3    3    0    0  0.13929413167E+02 -0.10511679058E+02 -0.15165937069E+02  0.23119896090E+02  0.51100000000E-03 0.  1.
         12    1    3    3    0    0  0.10088496833E+01 -0.29772596383E+01 -0.32524882495E+01  0.45233320075E+01  0.00000000000E+00 0. -1.
</event>
<event>
 7    1  0.1445801E-008  0.4614232E+02  0.7816164E-02  0.1320468E+00
        -11   -1    0    0    0    0  0.00000000000E+00  0.00000000000E+00  0.45593999997E+02  0.45594000000E+02  0.51100000000E-03 0.  1.
         11   -1    0    0    0    0 -0.00000000000E+00 -0.00000000000E+00 -0.45593999997E+02  0.45594000000E+02  0.51100000000E-03 0. -1.
    9900012    2    1    2    0    0 -0.13213992467E+01 -0.33666019021E+02  0.29899272917E+02  0.46142318147E+02  0.10000003516E+02 0.  0.
         12    1    1    2    0    0  0.13213992467E+01  0.33666019021E+02 -0.29899272917E+02  0.45045681853E+02  0.00000000000E+00 0. -1.
         11    1    3    3    0    0 -0.93193267911E+00 -0.15766224634E+02  0.13414329441E+02  0.20721645020E+02  0.51100000000E-03 0. -1.
        -11    1    3    3    0    0  0.17400346101E+01 -0.15797455856E+02  0.11539844875E+02  0.19640655589E+02  0.51100000000E-03 0.  1.
         12    1    3    3    0    0 -0.21295011777E+01 -0.21023385310E+01  0.49450986008E+01  0.57800175377E+01  0.00000000000E+00 0. -1.
</event>
<event>
 7    1  0.1445801E-008  0.4614232E+02  0.7816164E-02  0.1320468E+00
        -11   -1    0    0    0    0  0.00000000000E+00  0.00000000000E+00  0.45593999997E+02  0.45594000000E+02  0.51100000000E-03 0.  1.
         11   -1    0    0    0    0 -0.00000000000E+00 -0.00000000000E+00 -0.45593999997E+02  0.45594000000E+02  0.51100000000E-03 0. -1.
    9900012    2    1    2    0    0  0.38365287254E+02 -0.18036278480E+02 -0.15228620145E+02  0.46142317865E+02  0.10000000945E+02 0.  0.
         12    1    1    2    0    0 -0.38365287254E+02  0.18036278480E+02  0.15228620145E+02  0.45045682135E+02  0.00000000000E+00 0. -1.
         11    1    3    3    0    0  0.31830534279E+02 -0.11151631731E+02 -0.12239794948E+02  0.35879721061E+02  0.51100000000E-03 0. -1.
        -11    1    3    3    0    0  0.13346482752E+01 -0.19749365425E+01 -0.18576869536E+01  0.30220293586E+01  0.51100000000E-03 0.  1.
         12    1    3    3    0    0  0.52001046995E+01 -0.49097102071E+01 -0.11311382432E+01  0.72405674452E+01  0.00000000000E+00 0. -1.
</event>
<event>
 7    1  0.1445801E-008  0.4614232E+02  0.7816164E-02  0.1320468E+00
        -11   -1    0    0    0    0  0.00000000000E+00  0.00000000000E+00  0.45593999997E+02  0.45594000000E+02  0.51100000000E-03 0.  1.
         11   -1    0    0    0    0 -0.00000000000E+00 -0.00000000000E+00 -0.45593999997E+02  0.45594000000E+02  0.51100000000E-03 0. -1.
    9900012    2    1    2    0    0  0.63737781281E+01 -0.70021045481E+01  0.44039288874E+02  0.46142317851E+02  0.10000000820E+02 0.  0.
         12    1    1    2    0    0 -0.63737781281E+01  0.70021045481E+01 -0.44039288874E+02  0.45045682149E+02  0.00000000000E+00 0. -1.
         11    1    3    3    0    0  0.42862764747E+01 -0.42826389733E+00  0.19439466597E+02  0.19911012979E+02  0.51100000000E-03 0. -1.
        -11    1    3    3    0    0 -0.10306716553E+01 -0.56615002470E+01  0.13753447908E+02  0.14908796018E+02  0.51100000000E-03 0.  1.
        -12    1    3    3    0    0  0.31181733087E+01 -0.91234040380E+00  0.10846374369E+02  0.11322508854E+02  0.00000000000E+00 0.  1.
</event>
<event>
 7    1  0.1445801E-008  0.4614232E+02  0.7816164E-02  0.1320468E+00
        -11   -1    0    0    0    0  0.00000000000E+00  0.00000000000E+00  0.45593999997E+02  0.45594000000E+02  0.51100000000E-03 0. -1.
         11   -1    0    0    0    0 -0.00000000000E+00 -0.00000000000E+00 -0.45593999997E+02  0.45594000000E+02  0.51100000000E-03 0.  1.
    9900012    2    1    2    0    0  0.24803738827E+02 -0.22571212291E+01 -0.37533899918E+02  0.46142315422E+02  0.99999786684E+01 0.  0.
         12    1    1    2    0    0 -0.24803738827E+02  0.22571212291E+01  0.37533899918E+02  0.45045684578E+02  0.00000000000E+00 0. -1.
         11    1    3    3    0    0  0.26081668231E+01  0.12661741389E+01 -0.14094644010E+01  0.32237123454E+01  0.51100000000E-03 0. -1.
        -11    1    3    3    0    0  0.22277796340E+02 -0.28802188724E+01 -0.34488281506E+02  0.41158685985E+02  0.51100000000E-03 0.  1.
        -12    1    3    3    0    0 -0.82224335718E-01 -0.64307649558E+00 -0.16361540109E+01  0.17599170912E+01  0.00000000000E+00 0.  1.
</event>
<event>
 7    1  0.1445801E-008  0.4614231E+02  0.7816164E-02  0.1320468E+00
        -11   -1    0    0    0    0  0.00000000000E+00  0.00000000000E+00  0.45593999997E+02  0.45594000000E+02  0.51100000000E-03 0. -1.
         11   -1    0    0    0    0 -0.00000000000E+00 -0.00000000000E+00 -0.45593999997E+02  0.45594000000E+02  0.51100000000E-03 0.  1.
    9900012    2    1    2    0    0 -0.29927699843E+02 -0.29836128135E+02 -0.15596539777E+02  0.46142314157E+02  0.99999671380E+01 0.  0.
         12    1    1    2    0    0  0.29927699843E+02  0.29836128135E+02  0.15596539777E+02  0.45045685843E+02  0.00000000000E+00 0. -1.
         11    1    3    3    0    0 -0.15308428973E+02 -0.13521791710E+02 -0.92073358185E+01  0.22404505838E+02  0.51100000000E-03 0.  1.
        -11    1    3    3    0    0 -0.14056796295E+02 -0.15655152210E+02 -0.42983192361E+01  0.21474469989E+02  0.51100000000E-03 0. -1.
         12    1    3    3    0    0 -0.56247457568E+00 -0.65918421438E+00 -0.20908847225E+01  0.22633383308E+01  0.00000000000E+00 0. -1.
</event>
<event>
 7    1  0.1445801E-008  0.4614232E+02  0.7816164E-02  0.1320468E+00
        -11   -1    0    0    0    0  0.00000000000E+00  0.00000000000E+00  0.45593999997E+02  0.45594000000E+02  0.51100000000E-03 0.  1.
         11   -1    0    0    0    0 -0.00000000000E+00 -0.00000000000E+00 -0.45593999997E+02  0.45594000000E+02  0.51100000000E-03 0. -1.
    9900012    2    1    2    0    0 -0.13356440888E+02 -0.39715576118E+02  0.16534567634E+02  0.46142318448E+02  0.10000006268E+02 0.  0.
         12    1    1    2    0    0  0.13356440888E+02  0.39715576118E+02 -0.16534567634E+02  0.45045681552E+02  0.00000000000E+00 0. -1.
         11    1    3    3    0    0 -0.12391835844E+02 -0.33727813525E+02  0.14954448610E+02  0.38919898950E+02  0.51100000000E-03 0.  1.
        -11    1    3    3    0    0  0.10942359392E+00 -0.28345243713E+01 -0.10012625833E+01  0.30081603940E+01  0.51100000000E-03 0. -1.
         12    1    3    3    0    0 -0.10740286380E+01 -0.31532382219E+01  0.25813816075E+01  0.42142591048E+01  0.00000000000E+00 0. -1.
</event>
<event>
 7    1  0.1445801E-008  0.4614232E+02  0.7816164E-02  0.1320468E+00
        -11   -1    0    0    0    0  0.00000000000E+00  0.00000000000E+00  0.45593999997E+02  0.45594000000E+02  0.51100000000E-03 0.  1.
         11   -1    0    0    0    0 -0.00000000000E+00 -0.00000000000E+00 -0.45593999997E+02  0.45594000000E+02  0.51100000000E-03 0. -1.
    9900012    2    1    2    0    0 -0.32050411209E+02  0.11561219618E+01  0.31631444029E+02  0.46142315101E+02  0.99999757404E+01 0.  0.
         12    1    1    2    0    0  0.32050411209E+02 -0.11561219618E+01 -0.31631444029E+02  0.45045684899E+02  0.00000000000E+00 0. -1.
         11    1    3    3    0    0 -0.28503010657E+01 -0.61747439455E+00  0.68590978219E+00  0.29959912021E+01  0.51100000000E-03 0. -1.
        -11    1    3    3    0    0 -0.27299115910E+02  0.27750321281E+01  0.30352818906E+02  0.40917430865E+02  0.51100000000E-03 0.  1.
        -12    1    3    3    0    0 -0.19009942331E+01 -0.10014357718E+01  0.59271534126E+00  0.22288930336E+01  0.00000000000E+00 0.  1.
</event>
<event>
 7    1  0.1445801E-008  0.4614232E+02  0.7816164E-02  0.1320468E+00
        -11   -1    0    0    0    0  0.00000000000E+00  0.00000000000E+00  0.45593999997E+02  0.45594000000E+02  0.51100000000E-03 0.  1.
         11   -1    0    0    0    0 -0.00000000000E+00 -0.00000000000E+00 -0.45593999997E+02  0.45594000000E+02  0.51100000000E-03 0. -1.
    9900012    2    1    2    0    0  0.44525541877E+02  0.33293990105E+01 -0.59585996164E+01  0.46142315561E+02  0.99999799339E+01 0.  0.
         12    1    1    2    0    0 -0.44525541877E+02 -0.33293990105E+01  0.59585996164E+01  0.45045684439E+02  0.00000000000E+00 0. -1.
         11    1    3    3    0    0  0.11683641273E+02 -0.29139846543E+01  0.50516960302E+00  0.12052135767E+02  0.51100000000E-03 0. -1.
        -11    1    3    3    0    0  0.22855553835E+02  0.45451523848E+01 -0.52581740426E+01  0.23888975404E+02  0.51100000000E-03 0.  1.
         12    1    3    3    0    0  0.99863467692E+01  0.16982312801E+01 -0.12055951768E+01  0.10201204390E+02  0.00000000000E+00 0. -1.
</event>
<event>
 7    1  0.1445801E-008  0.4614232E+02  0.7816164E-02  0.1320468E+00
        -11   -1    0    0    0    0  0.00000000000E+00  0.00000000000E+00  0.45593999997E+02  0.45594000000E+02  0.51100000000E-03 0.  1.
         11   -1    0    0    0    0 -0.00000000000E+00 -0.00000000000E+00 -0.45593999997E+02  0.45594000000E+02  0.51100000000E-03 0. -1.
    9900012    2    1    2    0    0  0.16722013531E+02  0.40002715025E+02  0.12217607566E+02  0.46142324508E+02  0.10000061522E+02 0.  0.
         12    1    1    2    0    0 -0.16722013531E+02 -0.40002715025E+02 -0.12217607566E+02  0.45045675492E+02  0.00000000000E+00 0. -1.
         11    1    3    3    0    0  0.39606838162E+01  0.67660626852E+01  0.46831642452E+01  0.91322860314E+01  0.51100000000E-03 0. -1.
        -11    1    3    3    0    0  0.82680055229E+01  0.28539251032E+02  0.66719089120E+01  0.30452637547E+02  0.51100000000E-03 0.  1.
         12    1    3    3    0    0  0.44933241917E+01  0.46974013084E+01  0.86253440918E+00  0.65574009295E+01  0.00000000000E+00 0. -1.
</event>
<event>
 7    1  0.1445801E-008  0.4614232E+02  0.7816164E-02  0.1320468E+00
        -11   -1    0    0    0    0  0.00000000000E+00  0.00000000000E+00  0.45593999997E+02  0.45594000000E+02  0.51100000000E-03 0.  1.
         11   -1    0    0    0    0 -0.00000000000E+00 -0.00000000000E+00 -0.45593999997E+02  0.45594000000E+02  0.51100000000E-03 0. -1.
    9900012    2    1    2    0    0 -0.79519585585E+01  0.44185572416E+02 -0.36762784684E+01  0.46142317876E+02  0.10000001049E+02 0.  0.
         12    1    1    2    0    0  0.79519585585E+01 -0.44185572416E+02  0.36762784684E+01  0.45045682124E+02  0.00000000000E+00 0. -1.
         11    1    3    3    0    0  0.52300545736E+00  0.88397362969E+00 -0.76736075754E+00  0.12821025231E+01  0.51100000000E-03 0. -1.
        -11    1    3    3    0    0 -0.18766782852E+01  0.85442811508E+01 -0.36388864315E+01  0.94746058753E+01  0.51100000000E-03 0.  1.
        -12    1    3    3    0    0 -0.65982857307E+01  0.34757317635E+02  0.72996872065E+00  0.35385609478E+02  0.00000000000E+00 0.  1.
</event>
<event>
 7    1  0.1445801E-008  0.4614232E+02  0.7816164E-02  0.1320468E+00
        -11   -1    0    0    0    0  0.00000000000E+00  0.00000000000E+00  0.45593999997E+02  0.45594000000E+02  0.51100000000E-03 0. -1.
         11   -1    0    0    0    0 -0.00000000000E+00 -0.00000000000E+00 -0.45593999997E+02  0.45594000000E+02  0.51100000000E-03 0.  1.
    9900012    2    1    2    0    0  0.14398162101E+02  0.97155054380E+01 -0.41562187004E+02  0.46142317561E+02  0.99999981783E+01 0.  0.
         12    1    1    2    0    0 -0.14398162101E+02 -0.97155054380E+01  0.41562187004E+02  0.45045682439E+02  0.00000000000E+00 0. -1.
         11    1    3    3    0    0  0.41828076721E+01  0.25991423694E+01 -0.36701252192E+01  0.61417620000E+01  0.51100000000E-03 0. -1.
        -11    1    3    3    0    0  0.96673152402E+01  0.74203493885E+01 -0.36183904033E+02  0.38181061802E+02  0.51100000000E-03 0.  1.
        -12    1    3    3    0    0  0.54803918857E+00 -0.30398631982E+00 -0.17081577518E+01  0.18194937593E+01  0.00000000000E+00 0.  1.
</event>
<event>
 7    1  0.1445801E-008  0.4614232E+02  0.7816164E-02  0.1320468E+00
        -11   -1    0    0    0    0  0.00000000000E+00  0.00000000000E+00  0.45593999997E+02  0.45594000000E+02  0.51100000000E-03 0.  1.
         11   -1    0    0    0    0 -0.00000000000E+00 -0.00000000000E+00 -0.45593999997E+02  0.45594000000E+02  0.51100000000E-03 0. -1.
    9900012    2    1    2    0    0  0.22363091548E+01 -0.44445161312E+02  0.69814045845E+01  0.46142318157E+02  0.10000003610E+02 0.  0.
         12    1    1    2    0    0 -0.22363091548E+01  0.44445161312E+02 -0.69814045845E+01  0.45045681843E+02  0.00000000000E+00 0. -1.
         11    1    3    3    0    0 -0.36318447888E-01 -0.64040835048E+00  0.16485239899E+01  0.17689187351E+01  0.51100000000E-03 0. -1.
        -11    1    3    3    0    0  0.17109243281E+01 -0.37760776127E+02  0.59775565715E+01  0.38269239065E+02  0.51100000000E-03 0.  1.
         12    1    3    3    0    0  0.56170327454E+00 -0.60439768349E+01 -0.64467597683E+00  0.61041603570E+01  0.00000000000E+00 0. -1.
</event>
<event>
 7    1  0.1445801E-008  0.4614232E+02  0.7816164E-02  0.1320468E+00
        -11   -1    0    0    0    0  0.00000000000E+00  0.00000000000E+00  0.45593999997E+02  0.45594000000E+02  0.51100000000E-03 0. -1.
         11   -1    0    0    0    0 -0.00000000000E+00 -0.00000000000E+00 -0.45593999997E+02  0.45594000000E+02  0.51100000000E-03 0.  1.
    9900012    2    1    2    0    0 -0.92430086584E+01 -0.43932948551E+02  0.36846029458E+01  0.46142317895E+02  0.10000001224E+02 0.  0.
         12    1    1    2    0    0  0.92430086584E+01  0.43932948551E+02 -0.36846029458E+01  0.45045682105E+02  0.00000000000E+00 0. -1.
         11    1    3    3    0    0 -0.39699267858E+01 -0.87645909145E+01 -0.24751642321E+01  0.99350294826E+01  0.51100000000E-03 0. -1.
        -11    1    3    3    0    0 -0.14488880396E+01 -0.19199342919E+02  0.36267703758E+01  0.19592537066E+02  0.51100000000E-03 0.  1.
         12    1    3    3    0    0 -0.38241938331E+01 -0.15969014717E+02  0.25329968021E+01  0.16614751347E+02  0.00000000000E+00 0. -1.
</event>
<event>
 7    1  0.1445801E-008  0.4614232E+02  0.7816164E-02  0.1320468E+00
        -11   -1    0    0    0    0  0.00000000000E+00  0.00000000000E+00  0.45593999997E+02  0.45594000000E+02  0.51100000000E-03 0.  1.
         11   -1    0    0    0    0 -0.00000000000E+00 -0.00000000000E+00 -0.45593999997E+02  0.45594000000E+02  0.51100000000E-03 0. -1.
    9900012    2    1    2    0    0  0.16178486959E+02  0.24826185270E+02  0.33926842337E+02  0.46142317118E+02  0.99999941351E+01 0.  0.
         12    1    1    2    0    0 -0.16178486959E+02 -0.24826185270E+02 -0.33926842337E+02  0.45045682882E+02  0.00000000000E+00 0. -1.
         11    1    3    3    0    0  0.11617115413E+02  0.15459084368E+02  0.15433543637E+02  0.24741360704E+02  0.51100000000E-03 0. -1.
        -11    1    3    3    0    0  0.97037484257E-01 -0.18467235874E+00  0.21413838863E+00  0.29895762917E+00  0.51100000000E-03 0.  1.
         12    1    3    3    0    0  0.44643340621E+01  0.95517732609E+01  0.18279160311E+02  0.21101998785E+02  0.00000000000E+00 0. -1.
</event>
<event>
 7    1  0.1445801E-008  0.4614231E+02  0.7816164E-02  0.1320468E+00
        -11   -1    0    0    0    0  0.00000000000E+00  0.00000000000E+00  0.45593999997E+02  0.45594000000E+02  0.51100000000E-03 0. -1.
         11   -1    0    0    0    0 -0.00000000000E+00 -0.00000000000E+00 -0.45593999997E+02  0.45594000000E+02  0.51100000000E-03 0.  1.
    9900012    2    1    2    0    0 -0.19783354031E+02 -0.50226349276E+01 -0.40156018192E+02  0.46142314798E+02  0.99999729769E+01 0.  0.
         12    1    1    2    0    0  0.19783354031E+02  0.50226349276E+01  0.40156018192E+02  0.45045685202E+02  0.00000000000E+00 0. -1.
         11    1    3    3    0    0 -0.57726474938E+01 -0.19092848538E+01 -0.59324142256E+01  0.84948435269E+01  0.51100000000E-03 0. -1.
        -11    1    3    3    0    0 -0.12300687811E+02 -0.23519194084E+01 -0.33265190058E+02  0.35544497680E+02  0.51100000000E-03 0.  1.
        -12    1    3    3    0    0 -0.17100187260E+01 -0.76143066542E+00 -0.95841390866E+00  0.21029735903E+01  0.00000000000E+00 0.  1.
</event>
<event>
 7    1  0.1445801E-008  0.4614232E+02  0.7816164E-02  0.1320468E+00
        -11   -1    0    0    0    0  0.00000000000E+00  0.00000000000E+00  0.45593999997E+02  0.45594000000E+02  0.51100000000E-03 0. -1.
         11   -1    0    0    0    0 -0.00000000000E+00 -0.00000000000E+00 -0.45593999997E+02  0.45594000000E+02  0.51100000000E-03 0.  1.
    9900012    2    1    2    0    0  0.29180401747E+02  0.12774623477E+02 -0.31850065210E+02  0.46142317577E+02  0.99999983193E+01 0.  0.
         12    1    1    2    0    0 -0.29180401747E+02 -0.12774623477E+02  0.31850065210E+02  0.45045682423E+02  0.00000000000E+00 0. -1.
         11    1    3    3    0    0  0.22786062067E+01 -0.10644254880E+01 -0.40602550169E+01  0.47760568389E+01  0.51100000000E-03 0. -1.
        -11    1    3    3    0    0  0.53645858774E+01  0.86538385498E+00 -0.60033289467E+01  0.80973841181E+01  0.51100000000E-03 0.  1.
         12    1    3    3    0    0  0.21537209663E+02  0.12973665110E+02 -0.21786481246E+02  0.33268876620E+02  0.00000000000E+00 0. -1.
</event>
<event>
 7    1  0.1445801E-008  0.4614231E+02  0.7816164E-02  0.1320468E+00
        -11   -1    0    0    0    0  0.00000000000E+00  0.00000000000E+00  0.45593999997E+02  0.45594000000E+02  0.51100000000E-03 0. -1.
         11   -1    0    0    0    0 -0.00000000000E+00 -0.00000000000E+00 -0.45593999997E+02  0.45594000000E+02  0.51100000000E-03 0.  1.
    9900012    2    1    2    0    0 -0.27028883964E+02 -0.26436259521E+02 -0.24488311485E+02  0.46142314466E+02  0.99999699559E+01 0.  0.
         12    1    1    2    0    0  0.27028883964E+02  0.26436259521E+02  0.24488311485E+02  0.45045685534E+02  0.00000000000E+00 0. -1.
         11    1    3    3    0    0 -0.14157989201E+02 -0.18372879562E+02 -0.13292760127E+02  0.26734038858E+02  0.51100000000E-03 0. -1.
        -11    1    3    3    0    0 -0.93002670316E+01 -0.79858335957E+01 -0.91055796817E+01  0.15270235318E+02  0.51100000000E-03 0.  1.
        -12    1    3    3    0    0 -0.35706277315E+01 -0.77546363831E-01 -0.20899716764E+01  0.41380402902E+01  0.00000000000E+00 0.  1.
</event>
<event>
 7    1  0.1445801E-008  0.4614232E+02  0.7816164E-02  0.1320468E+00
        -11   -1    0    0    0    0  0.00000000000E+00  0.00000000000E+00  0.45593999997E+02  0.45594000000E+02  0.51100000000E-03 0.  1.
         11   -1    0    0    0    0 -0.00000000000E+00 -0.00000000000E+00 -0.45593999997E+02  0.45594000000E+02  0.51100000000E-03 0. -1.
    9900012    2    1    2    0    0 -0.25849297376E+02  0.12452070880E+02  0.34725684622E+02  0.46142318559E+02  0.10000007273E+02 0.  0.
         12    1    1    2    0    0  0.25849297376E+02 -0.12452070880E+02 -0.34725684622E+02  0.45045681441E+02  0.00000000000E+00 0. -1.
         11    1    3    3    0    0 -0.63871661070E+01 -0.57795044793E+00  0.87564492759E+01  0.10853816001E+02  0.51100000000E-03 0. -1.
        -11    1    3    3    0    0 -0.12133382980E+02  0.10745509874E+02  0.17168724275E+02  0.23610380312E+02  0.51100000000E-03 0.  1.
        -12    1    3    3    0    0 -0.73287482890E+01  0.22845114532E+01  0.88005110711E+01  0.11678122245E+02  0.00000000000E+00 0.  1.
</event>
<event>
 7    1  0.1445801E-008  0.4614232E+02  0.7816164E-02  0.1320468E+00
        -11   -1    0    0    0    0  0.00000000000E+00  0.00000000000E+00  0.45593999997E+02  0.45594000000E+02  0.51100000000E-03 0. -1.
         11   -1    0    0    0    0 -0.00000000000E+00 -0.00000000000E+00 -0.45593999997E+02  0.45594000000E+02  0.51100000000E-03 0.  1.
    9900012    2    1    2    0    0  0.17761827575E+02  0.39409989147E+02 -0.12668216964E+02  0.46142317805E+02  0.10000000398E+02 0.  0.
         12    1    1    2    0    0 -0.17761827575E+02 -0.39409989147E+02  0.12668216964E+02  0.45045682195E+02  0.00000000000E+00 0. -1.
         11    1    3    3    0    0  0.72098827123E+01  0.12666838352E+02 -0.52278733192E+01  0.15484245615E+02  0.51100000000E-03 0. -1.
        -11    1    3    3    0    0  0.22286322458E+01  0.15889428747E+02 -0.45596252924E+01  0.16680255714E+02  0.51100000000E-03 0.  1.
         12    1    3    3    0    0  0.83233126174E+01  0.10853722048E+02 -0.28807183529E+01  0.13977816476E+02  0.00000000000E+00 0. -1.
</event>
<event>
 7    1  0.1445801E-008  0.4614232E+02  0.7816164E-02  0.1320468E+00
        -11   -1    0    0    0    0  0.00000000000E+00  0.00000000000E+00  0.45593999997E+02  0.45594000000E+02  0.51100000000E-03 0.  1.
         11   -1    0    0    0    0 -0.00000000000E+00 -0.00000000000E+00 -0.45593999997E+02  0.45594000000E+02  0.51100000000E-03 0. -1.
    9900012    2    1    2    0    0 -0.40918487247E+02 -0.18326130517E+02  0.43524212638E+01  0.46142320638E+02  0.10000026231E+02 0.  0.
         12    1    1    2    0    0  0.40918487247E+02  0.18326130517E+02 -0.43524212638E+01  0.45045679362E+02  0.00000000000E+00 0. -1.
         11    1    3    3    0    0 -0.10216851637E+02 -0.81598750799E+01  0.26267459377E+01  0.13336694237E+02  0.51100000000E-03 0. -1.
        -11    1    3    3    0    0 -0.16760811266E+02 -0.44738065140E+01  0.33226290914E+01  0.17662944357E+02  0.51100000000E-03 0.  1.
         12    1    3    3    0    0 -0.13940824344E+02 -0.56924489231E+01 -0.15969537654E+01  0.15142682044E+02  0.00000000000E+00 0. -1.
</event>
<event>
 7    1  0.1445801E-008  0.4614232E+02  0.7816164E-02  0.1320468E+00
        -11   -1    0    0    0    0  0.00000000000E+00  0.00000000000E+00  0.45593999997E+02  0.45594000000E+02  0.51100000000E-03 0. -1.
         11   -1    0    0    0    0 -0.00000000000E+00 -0.00000000000E+00 -0.45593999997E+02  0.45594000000E+02  0.51100000000E-03 0.  1.
    9900012    2    1    2    0    0  0.42370457165E+02 -0.12494094789E+02  0.88179045924E+01  0.46142317783E+02  0.10000000203E+02 0.  0.
         12    1    1    2    0    0 -0.42370457165E+02  0.12494094789E+02 -0.88179045924E+01  0.45045682217E+02  0.00000000000E+00 0. -1.
         11    1    3    3    0    0  0.12275797257E+01 -0.22284197729E+01  0.12714853599E+01  0.28442014607E+01  0.51100000000E-03 0. -1.
        -11    1    3    3    0    0  0.55762913303E+01 -0.10250756143E+01 -0.46092854078E+00  0.56884321562E+01  0.51100000000E-03 0.  1.
        -12    1    3    3    0    0  0.35566586109E+02 -0.92405994022E+01  0.80073477733E+01  0.37609684167E+02  0.00000000000E+00 0.  1.
</event>
<event>
 7    1  0.1445801E-008  0.4614232E+02  0.7816164E-02  0.1320468E+00
        -11   -1    0    0    0    0  0.00000000000E+00  0.00000000000E+00  0.45593999997E+02  0.45594000000E+02  0.51100000000E-03 0. -1.
         11   -1    0    0    0    0 -0.00000000000E+00 -0.00000000000E+00 -0.45593999997E+02  0.45594000000E+02  0.51100000000E-03 0.  1.
    9900012    2    1    2    0    0  0.12997177003E+02  0.43080235232E+02  0.20688554147E+01  0.46142318294E+02  0.10000004857E+02 0.  0.
         12    1    1    2    0    0 -0.12997177003E+02 -0.43080235232E+02 -0.20688554147E+01  0.45045681706E+02  0.00000000000E+00 0. -1.
         11    1    3    3    0    0  0.89609144382E+01  0.15309086754E+02 -0.12485235778E+00  0.17739270368E+02  0.51100000000E-03 0. -1.
        -11    1    3    3    0    0  0.40357256849E+01  0.21279505386E+02  0.29842599085E+01  0.21863445262E+02  0.51100000000E-03 0.  1.
         12    1    3    3    0    0  0.53687979345E-03  0.64916430919E+01 -0.79055213603E+00  0.65396026638E+01  0.00000000000E+00 0. -1.
</event>
<event>
 7    1  0.1445801E-008  0.4614232E+02  0.7816164E-02  0.1320468E+00
        -11   -1    0    0    0    0  0.00000000000E+00  0.00000000000E+00  0.45593999997E+02  0.45594000000E+02  0.51100000000E-03 0.  1.
         11   -1    0    0    0    0 -0.00000000000E+00 -0.00000000000E+00 -0.45593999997E+02  0.45594000000E+02  0.51100000000E-03 0. -1.
    9900012    2    1    2    0    0  0.37290486330E+02 -0.90687816000E+01  0.23585807411E+02  0.46142317835E+02  0.10000000675E+02 0.  0.
         12    1    1    2    0    0 -0.37290486330E+02  0.90687816000E+01 -0.23585807411E+02  0.45045682165E+02  0.00000000000E+00 0. -1.
         11    1    3    3    0    0  0.13590665775E+01 -0.15309445981E+01  0.13308512498E+01  0.24417245207E+01  0.51100000000E-03 0. -1.
        -11    1    3    3    0    0  0.25382617387E+01  0.13762311044E+01  0.28792251390E+01  0.40775878126E+01  0.51100000000E-03 0.  1.
        -12    1    3    3    0    0  0.33393158014E+02 -0.89140681064E+01  0.19375731023E+02  0.39623005502E+02  0.00000000000E+00 0.  1.
</event>
<event>
 7    1  0.1445801E-008  0.4614232E+02  0.7816164E-02  0.1320468E+00
        -11   -1    0    0    0    0  0.00000000000E+00  0.00000000000E+00  0.45593999997E+02  0.45594000000E+02  0.51100000000E-03 0.  1.
         11   -1    0    0    0    0 -0.00000000000E+00 -0.00000000000E+00 -0.45593999997E+02  0.45594000000E+02  0.51100000000E-03 0. -1.
    9900012    2    1    2    0    0 -0.13568423596E+02  0.40695854328E+02  0.13742588688E+02  0.46142318496E+02  0.10000006697E+02 0.  0.
         12    1    1    2    0    0  0.13568423596E+02 -0.40695854328E+02 -0.13742588688E+02  0.45045681504E+02  0.00000000000E+00 0. -1.
         11    1    3    3    0    0 -0.16155188283E+01  0.74826922339E+00  0.16239787660E+01  0.24097956778E+01  0.51100000000E-03 0. -1.
        -11    1    3    3    0    0 -0.45536697481E+01  0.18852157910E+02  0.31657117044E+01  0.19650992262E+02  0.51100000000E-03 0.  1.
        -12    1    3    3    0    0 -0.73992350197E+01  0.21095427194E+02  0.89528982173E+01  0.24081530555E+02  0.00000000000E+00 0.  1.
</event>
<event>
 7    1  0.1445801E-008  0.4614232E+02  0.7816164E-02  0.1320468E+00
        -11   -1    0    0    0    0  0.00000000000E+00  0.00000000000E+00  0.45593999997E+02  0.45594000000E+02  0.51100000000E-03 0. -1.
         11   -1    0    0    0    0 -0.00000000000E+00 -0.00000000000E+00 -0.45593999997E+02  0.45594000000E+02  0.51100000000E-03 0.  1.
    9900012    2    1    2    0    0 -0.18780869459E+02  0.29126681717E+02  0.28775485855E+02  0.46142320611E+02  0.10000025985E+02 0.  0.
         12    1    1    2    0    0  0.18780869459E+02 -0.29126681717E+02 -0.28775485855E+02  0.45045679389E+02  0.00000000000E+00 0. -1.
         11    1    3    3    0    0 -0.81331933881E+01  0.18183528389E+02  0.13553307668E+02  0.24093187592E+02  0.51100000000E-03 0. -1.
        -11    1    3    3    0    0 -0.32844228941E+01  0.65229880778E+01  0.79539243251E+01  0.10798227616E+02  0.51100000000E-03 0.  1.
         12    1    3    3    0    0 -0.73632531766E+01  0.44201652502E+01  0.72682538618E+01  0.11250905403E+02  0.00000000000E+00 0. -1.
</event>
<event>
 7    1  0.1445801E-008  0.4614232E+02  0.7816164E-02  0.1320468E+00
        -11   -1    0    0    0    0  0.00000000000E+00  0.00000000000E+00  0.45593999997E+02  0.45594000000E+02  0.51100000000E-03 0.  1.
         11   -1    0    0    0    0 -0.00000000000E+00 -0.00000000000E+00 -0.45593999997E+02  0.45594000000E+02  0.51100000000E-03 0. -1.
    9900012    2    1    2    0    0  0.35580959127E+02 -0.74341483254E+01  0.26605306247E+02  0.46142317252E+02  0.99999953564E+01 0.  0.
         12    1    1    2    0    0 -0.35580959127E+02  0.74341483254E+01 -0.26605306247E+02  0.45045682748E+02  0.00000000000E+00 0. -1.
         11    1    3    3    0    0  0.11948910691E+02 -0.39671574130E+01  0.64409123119E+01  0.14142141150E+02  0.51100000000E-03 0. -1.
        -11    1    3    3    0    0  0.19394052750E+02 -0.47678058853E-01  0.15399982066E+02  0.24764712863E+02  0.51100000000E-03 0.  1.
        -12    1    3    3    0    0  0.42379956865E+01 -0.34193128535E+01  0.47644118688E+01  0.72354632391E+01  0.00000000000E+00 0.  1.
</event>
<event>
 7    1  0.1445801E-008  0.4614232E+02  0.7816164E-02  0.1320468E+00
        -11   -1    0    0    0    0  0.00000000000E+00  0.00000000000E+00  0.45593999997E+02  0.45594000000E+02  0.51100000000E-03 0.  1.
         11   -1    0    0    0    0 -0.00000000000E+00 -0.00000000000E+00 -0.45593999997E+02  0.45594000000E+02  0.51100000000E-03 0. -1.
    9900012    2    1    2    0    0  0.29015081716E+02 -0.12380939802E+02  0.32155105884E+02  0.46142317946E+02  0.10000001683E+02 0.  0.
         12    1    1    2    0    0 -0.29015081716E+02  0.12380939802E+02 -0.32155105884E+02  0.45045682054E+02  0.00000000000E+00 0. -1.
         11    1    3    3    0    0  0.41226716069E-01  0.43013177106E+00  0.45588044055E+00  0.62812436650E+00  0.51100000000E-03 0. -1.
        -11    1    3    3    0    0  0.64724660011E+01  0.52903979091E+00  0.59128858821E+01  0.87826487435E+01  0.51100000000E-03 0.  1.
        -12    1    3    3    0    0  0.22501388999E+02 -0.13340111364E+02  0.25786339561E+02  0.36731544836E+02  0.00000000000E+00 0.  1.
</event>
<event>
 7    1  0.1445801E-008  0.4614233E+02  0.7816164E-02  0.1320468E+00
        -11   -1    0    0    0    0  0.00000000000E+00  0.00000000000E+00  0.45593999997E+02  0.45594000000E+02  0.51100000000E-03 0.  1.
         11   -1    0    0    0    0 -0.00000000000E+00 -0.00000000000E+00 -0.45593999997E+02  0.45594000000E+02  0.51100000000E-03 0. -1.
    9900012    2    1    2    0    0 -0.36768704924E+02 -0.25709135760E+02 -0.40268408096E+01  0.46142325732E+02  0.10000072687E+02 0.  0.
         12    1    1    2    0    0  0.36768704924E+02  0.25709135760E+02  0.40268408096E+01  0.45045674268E+02  0.00000000000E+00 0. -1.
         11    1    3    3    0    0 -0.12423045259E+02 -0.12801145066E+02 -0.40669299188E+01  0.18295936372E+02  0.51100000000E-03 0. -1.
        -11    1    3    3    0    0 -0.18218220157E+02 -0.76023847077E+01  0.87291650561E-01  0.19741008562E+02  0.51100000000E-03 0.  1.
        -12    1    3    3    0    0 -0.61274395073E+01 -0.53056059864E+01 -0.47202541397E-01  0.81053807979E+01  0.00000000000E+00 0.  1.
</event>
<event>
 7    1  0.1445801E-008  0.4614232E+02  0.7816164E-02  0.1320468E+00
        -11   -1    0    0    0    0  0.00000000000E+00  0.00000000000E+00  0.45593999997E+02  0.45594000000E+02  0.51100000000E-03 0. -1.
         11   -1    0    0    0    0 -0.00000000000E+00 -0.00000000000E+00 -0.45593999997E+02  0.45594000000E+02  0.51100000000E-03 0.  1.
    9900012    2    1    2    0    0 -0.24347130491E+02  0.37833785027E+02  0.22216011452E+01  0.46142316919E+02  0.99999923177E+01 0.  0.
         12    1    1    2    0    0  0.24347130491E+02 -0.37833785027E+02 -0.22216011452E+01  0.45045683081E+02  0.00000000000E+00 0. -1.
         11    1    3    3    0    0 -0.63966047351E+01  0.52713364472E+01 -0.11261745152E+01  0.83649153837E+01  0.51100000000E-03 0.  1.
        -11    1    3    3    0    0 -0.14850303808E+02  0.30422709427E+02  0.27761524534E+01  0.33967334231E+02  0.51100000000E-03 0. -1.
         12    1    3    3    0    0 -0.31002219480E+01  0.21397391531E+01  0.57162320706E+00  0.38100673040E+01  0.00000000000E+00 0. -1.
</event>
<event>
 7    1  0.1445801E-008  0.4614232E+02  0.7816164E-02  0.1320468E+00
        -11   -1    0    0    0    0  0.00000000000E+00  0.00000000000E+00  0.45593999997E+02  0.45594000000E+02  0.51100000000E-03 0.  1.
         11   -1    0    0    0    0 -0.00000000000E+00 -0.00000000000E+00 -0.45593999997E+02  0.45594000000E+02  0.51100000000E-03 0. -1.
    9900012    2    1    2    0    0  0.28416401294E+02 -0.25773587490E+02  0.23608129800E+02  0.46142317995E+02  0.10000002134E+02 0.  0.
         12    1    1    2    0    0 -0.28416401294E+02  0.25773587490E+02 -0.23608129800E+02  0.45045682005E+02  0.00000000000E+00 0. -1.
         11    1    3    3    0    0  0.30982895773E+01 -0.10182409668E+01  0.51955885591E+01  0.61343584594E+01  0.51100000000E-03 0. -1.
        -11    1    3    3    0    0  0.20311923450E+02 -0.21315003479E+02  0.15118550433E+02  0.33097948199E+02  0.51100000000E-03 0.  1.
         12    1    3    3    0    0  0.50061882670E+01 -0.34403430446E+01  0.32939908080E+01  0.69100113366E+01  0.00000000000E+00 0. -1.
</event>
<event>
 7    1  0.1445801E-008  0.4614232E+02  0.7816164E-02  0.1320468E+00
        -11   -1    0    0    0    0  0.00000000000E+00  0.00000000000E+00  0.45593999997E+02  0.45594000000E+02  0.51100000000E-03 0. -1.
         11   -1    0    0    0    0 -0.00000000000E+00 -0.00000000000E+00 -0.45593999997E+02  0.45594000000E+02  0.51100000000E-03 0.  1.
    9900012    2    1    2    0    0  0.73614061599E+01 -0.28910472988E+02 -0.33750671307E+02  0.46142316936E+02  0.99999924748E+01 0.  0.
         12    1    1    2    0    0 -0.73614061599E+01  0.28910472988E+02  0.33750671307E+02  0.45045683064E+02  0.00000000000E+00 0. -1.
         11    1    3    3    0    0  0.94823779931E-01  0.30128053884E+00 -0.16319978972E+01  0.16622812367E+01  0.51100000000E-03 0. -1.
        -11    1    3    3    0    0  0.40810517084E+01 -0.24588386859E+02 -0.28182953901E+02  0.37623432089E+02  0.51100000000E-03 0.  1.
        -12    1    3    3    0    0  0.31855306716E+01 -0.46233666678E+01 -0.39357195095E+01  0.68566036098E+01  0.00000000000E+00 0.  1.
</event>
<event>
 7    1  0.1445801E-008  0.4614232E+02  0.7816164E-02  0.1320468E+00
        -11   -1    0    0    0    0  0.00000000000E+00  0.00000000000E+00  0.45593999997E+02  0.45594000000E+02  0.51100000000E-03 0. -1.
         11   -1    0    0    0    0 -0.00000000000E+00 -0.00000000000E+00 -0.45593999997E+02  0.45594000000E+02  0.51100000000E-03 0.  1.
    9900012    2    1    2    0    0  0.39513510821E+01 -0.95234402481E+01 -0.43849794750E+02  0.46142316642E+02  0.99999897992E+01 0.  0.
         12    1    1    2    0    0 -0.39513510821E+01  0.95234402481E+01  0.43849794750E+02  0.45045683358E+02  0.00000000000E+00 0. -1.
         11    1    3    3    0    0  0.19634132813E+01  0.95690612375E+00 -0.35761379542E+01  0.41903966365E+01  0.51100000000E-03 0. -1.
        -11    1    3    3    0    0  0.86997159143E+00 -0.76466700918E+01 -0.35221038980E+02  0.36052045728E+02  0.51100000000E-03 0.  1.
         12    1    3    3    0    0  0.11179662094E+01 -0.28336762801E+01 -0.50526178155E+01  0.58998742779E+01  0.00000000000E+00 0. -1.
</event>
<event>
 7    1  0.1445801E-008  0.4614232E+02  0.7816164E-02  0.1320468E+00
        -11   -1    0    0    0    0  0.00000000000E+00  0.00000000000E+00  0.45593999997E+02  0.45594000000E+02  0.51100000000E-03 0.  1.
         11   -1    0    0    0    0 -0.00000000000E+00 -0.00000000000E+00 -0.45593999997E+02  0.45594000000E+02  0.51100000000E-03 0. -1.
    9900012    2    1    2    0    0  0.24418278429E+02  0.31971356716E+02  0.20265575363E+02  0.46142317449E+02  0.99999971525E+01 0.  0.
         12    1    1    2    0    0 -0.24418278429E+02 -0.31971356716E+02 -0.20265575363E+02  0.45045682551E+02  0.00000000000E+00 0. -1.
         11    1    3    3    0    0  0.25653011987E+00 -0.48032041512E+00  0.10796490034E+01  0.12091971036E+01  0.51100000000E-03 0. -1.
        -11    1    3    3    0    0  0.21857771016E+02  0.30687478243E+02  0.17197852995E+02  0.41415572224E+02  0.51100000000E-03 0.  1.
        -12    1    3    3    0    0  0.23039772933E+01  0.17641988877E+01  0.19880733648E+01  0.35175481215E+01  0.00000000000E+00 0.  1.
</event>
<event>
 7    1  0.1445801E-008  0.4614232E+02  0.7816164E-02  0.1320468E+00
        -11   -1    0    0    0    0  0.00000000000E+00  0.00000000000E+00  0.45593999997E+02  0.45594000000E+02  0.51100000000E-03 0. -1.
         11   -1    0    0    0    0 -0.00000000000E+00 -0.00000000000E+00 -0.45593999997E+02  0.45594000000E+02  0.51100000000E-03 0.  1.
    9900012    2    1    2    0    0 -0.36027281653E+02  0.63964018863E+01 -0.26272315906E+02  0.46142316928E+02  0.99999923985E+01 0.  0.
         12    1    1    2    0    0  0.36027281653E+02 -0.63964018863E+01  0.26272315906E+02  0.45045683072E+02  0.00000000000E+00 0. -1.
         11    1    3    3    0    0 -0.29131288141E+01 -0.11465489471E+01  0.10318753398E+00  0.31323380890E+01  0.51100000000E-03 0. -1.
        -11    1    3    3    0    0 -0.21783882433E+02  0.52786455721E+01 -0.17061721075E+02  0.28169202318E+02  0.51100000000E-03 0.  1.
         12    1    3    3    0    0 -0.11330270406E+02  0.22643052613E+01 -0.93137823648E+01  0.14840776520E+02  0.00000000000E+00 0. -1.
</event>
<event>
 7    1  0.1445801E-008  0.4614232E+02  0.7816164E-02  0.1320468E+00
        -11   -1    0    0    0    0  0.00000000000E+00  0.00000000000E+00  0.45593999997E+02  0.45594000000E+02  0.51100000000E-03 0. -1.
         11   -1    0    0    0    0 -0.00000000000E+00 -0.00000000000E+00 -0.45593999997E+02  0.45594000000E+02  0.51100000000E-03 0.  1.
    9900012    2    1    2    0    0  0.11459069545E+02 -0.66929413616E+01 -0.43046577056E+02  0.46142317242E+02  0.99999952629E+01 0.  0.
         12    1    1    2    0    0 -0.11459069545E+02  0.66929413616E+01  0.43046577056E+02  0.45045682758E+02  0.00000000000E+00 0. -1.
         11    1    3    3    0    0  0.48530357459E+00 -0.20978073359E+01 -0.12748654999E+02  0.12929211876E+02  0.51100000000E-03 0.  1.
        -11    1    3    3    0    0  0.11802516270E+02 -0.48028294289E+01 -0.28062259430E+02  0.30819749600E+02  0.51100000000E-03 0. -1.
         12    1    3    3    0    0 -0.82875029978E+00  0.20769540320E+00 -0.22356626266E+01  0.23933557654E+01  0.00000000000E+00 0. -1.
</event>
<event>
 7    1  0.1445801E-008  0.4614232E+02  0.7816164E-02  0.1320468E+00
        -11   -1    0    0    0    0  0.00000000000E+00  0.00000000000E+00  0.45593999997E+02  0.45594000000E+02  0.51100000000E-03 0. -1.
         11   -1    0    0    0    0 -0.00000000000E+00 -0.00000000000E+00 -0.45593999997E+02  0.45594000000E+02  0.51100000000E-03 0.  1.
    9900012    2    1    2    0    0  0.20177297564E+02  0.40271844371E+02 -0.41080638853E+00  0.46142317100E+02  0.99999939722E+01 0.  0.
         12    1    1    2    0    0 -0.20177297564E+02 -0.40271844371E+02  0.41080638853E+00  0.45045682900E+02  0.00000000000E+00 0. -1.
         11    1    3    3    0    0  0.12959881089E+02  0.18978111791E+02 -0.33104505542E+01  0.23218232666E+02  0.51100000000E-03 0. -1.
        -11    1    3    3    0    0  0.72417463321E+01  0.19903469893E+02  0.20139866064E+01  0.21275505776E+02  0.51100000000E-03 0.  1.
         12    1    3    3    0    0 -0.24329856311E-01  0.13902626869E+01  0.88565755931E+00  0.16485786583E+01  0.00000000000E+00 0. -1.
</event>
<event>
 7    1  0.1445801E-008  0.4614232E+02  0.7816164E-02  0.1320468E+00
        -11   -1    0    0    0    0  0.00000000000E+00  0.00000000000E+00  0.45593999997E+02  0.45594000000E+02  0.51100000000E-03 0.  1.
         11   -1    0    0    0    0 -0.00000000000E+00 -0.00000000000E+00 -0.45593999997E+02  0.45594000000E+02  0.51100000000E-03 0. -1.
    9900012    2    1    2    0    0 -0.27390279019E+02  0.26080815542E+02  0.24467877671E+02  0.46142319166E+02  0.10000012811E+02 0.  0.
         12    1    1    2    0    0  0.27390279019E+02 -0.26080815542E+02 -0.24467877671E+02  0.45045680834E+02  0.00000000000E+00 0. -1.
         11    1    3    3    0    0 -0.14749408274E+01  0.35975518912E+00  0.39189483800E+00  0.15679464486E+01  0.51100000000E-03 0. -1.
        -11    1    3    3    0    0 -0.15296154156E+02  0.18573805650E+02  0.19532386824E+02  0.30991494375E+02  0.51100000000E-03 0.  1.
        -12    1    3    3    0    0 -0.10619184035E+02  0.71472547032E+01  0.45435960084E+01  0.13582878342E+02  0.00000000000E+00 0.  1.
</event>
<event>
 7    1  0.1445801E-008  0.4614232E+02  0.7816164E-02  0.1320468E+00
        -11   -1    0    0    0    0  0.00000000000E+00  0.00000000000E+00  0.45593999997E+02  0.45594000000E+02  0.51100000000E-03 0. -1.
         11   -1    0    0    0    0 -0.00000000000E+00 -0.00000000000E+00 -0.45593999997E+02  0.45594000000E+02  0.51100000000E-03 0.  1.
    9900012    2    1    2    0    0 -0.16907823771E+02  0.19678868398E+02 -0.36823649506E+02  0.46142317309E+02  0.99999958782E+01 0.  0.
         12    1    1    2    0    0  0.16907823771E+02 -0.19678868398E+02  0.36823649506E+02  0.45045682691E+02  0.00000000000E+00 0. -1.
         11    1    3    3    0    0 -0.34268799997E+01  0.24387279317E+01 -0.15247530856E+01  0.44738990479E+01  0.51100000000E-03 0. -1.
        -11    1    3    3    0    0 -0.53191881562E+01  0.94521323962E+01 -0.18047452905E+02  0.21055809794E+02  0.51100000000E-03 0.  1.
        -12    1    3    3    0    0 -0.81617556153E+01  0.77880080704E+01 -0.17251443516E+02  0.20612608467E+02  0.00000000000E+00 0.  1.
</event>
<event>
 7    1  0.1445801E-008  0.4614232E+02  0.7816164E-02  0.1320468E+00
        -11   -1    0    0    0    0  0.00000000000E+00  0.00000000000E+00  0.45593999997E+02  0.45594000000E+02  0.51100000000E-03 0. -1.
         11   -1    0    0    0    0 -0.00000000000E+00 -0.00000000000E+00 -0.45593999997E+02  0.45594000000E+02  0.51100000000E-03 0.  1.
    9900012    2    1    2    0    0 -0.32719189058E+02 -0.31726120603E+00 -0.30959126646E+02  0.46142317522E+02  0.99999978168E+01 0.  0.
         12    1    1    2    0    0  0.32719189058E+02  0.31726120603E+00  0.30959126646E+02  0.45045682478E+02  0.00000000000E+00 0. -1.
         11    1    3    3    0    0 -0.20761646095E+02 -0.86356166661E+00 -0.19014868882E+02  0.28166592378E+02  0.51100000000E-03 0. -1.
        -11    1    3    3    0    0 -0.10972523684E+02 -0.10254874182E+01 -0.11752110114E+02  0.16110865676E+02  0.51100000000E-03 0.  1.
         12    1    3    3    0    0 -0.98501927936E+00  0.15717878788E+01 -0.19214764988E+00  0.18648594682E+01  0.00000000000E+00 0. -1.
</event>
<event>
 7    1  0.1445801E-008  0.4614232E+02  0.7816164E-02  0.1320468E+00
        -11   -1    0    0    0    0  0.00000000000E+00  0.00000000000E+00  0.45593999997E+02  0.45594000000E+02  0.51100000000E-03 0.  1.
         11   -1    0    0    0    0 -0.00000000000E+00 -0.00000000000E+00 -0.45593999997E+02  0.45594000000E+02  0.51100000000E-03 0. -1.
    9900012    2    1    2    0    0  0.66475461318E+01 -0.12342960068E+02  0.42808585110E+02  0.46142317721E+02  0.99999996361E+01 0.  0.
         12    1    1    2    0    0 -0.66475461318E+01  0.12342960068E+02 -0.42808585110E+02  0.45045682279E+02  0.00000000000E+00 0. -1.
         11    1    3    3    0    0  0.74257065364E+01 -0.38578756558E+01  0.20856034413E+02  0.22472171542E+02  0.51100000000E-03 0. -1.
        -11    1    3    3    0    0 -0.67720255926E+00 -0.69096799381E+01  0.19928568496E+02  0.21103320182E+02  0.51100000000E-03 0.  1.
         12    1    3    3    0    0 -0.10095784533E+00 -0.15754044746E+01  0.20239822012E+01  0.25668259965E+01  0.00000000000E+00 0. -1.
</event>
<event>
 7    1  0.1445801E-008  0.4614232E+02  0.7816164E-02  0.1320468E+00
        -11   -1    0    0    0    0  0.00000000000E+00  0.00000000000E+00  0.45593999997E+02  0.45594000000E+02  0.51100000000E-03 0.  1.
         11   -1    0    0    0    0 -0.00000000000E+00 -0.00000000000E+00 -0.45593999997E+02  0.45594000000E+02  0.51100000000E-03 0. -1.
    9900012    2    1    2    0    0 -0.13805047654E+02 -0.32438767178E+02  0.28040337814E+02  0.46142317615E+02  0.99999986722E+01 0.  0.
         12    1    1    2    0    0  0.13805047654E+02  0.32438767178E+02 -0.28040337814E+02  0.45045682385E+02  0.00000000000E+00 0. -1.
         11    1    3    3    0    0 -0.18995995753E+01 -0.21351804459E+00  0.32272375722E+01  0.37508840438E+01  0.51100000000E-03 0. -1.
        -11    1    3    3    0    0 -0.45350912373E+01 -0.10842549012E+02  0.86039844771E+01  0.14565592015E+02  0.51100000000E-03 0.  1.
         12    1    3    3    0    0 -0.73703568409E+01 -0.21382700121E+02  0.16209115765E+02  0.27825841557E+02  0.00000000000E+00 0. -1.
</event>
<event>
 7    1  0.1445801E-008  0.4614232E+02  0.7816164E-02  0.1320468E+00
        -11   -1    0    0    0    0  0.00000000000E+00  0.00000000000E+00  0.45593999997E+02  0.45594000000E+02  0.51100000000E-03 0. -1.
         11   -1    0    0    0    0 -0.00000000000E+00 -0.00000000000E+00 -0.45593999997E+02  0.45594000000E+02  0.51100000000E-03 0.  1.
    9900012    2    1    2    0    0 -0.16053787527E+02 -0.30443121753E+02 -0.29062101676E+02  0.46142317522E+02  0.99999978202E+01 0.  0.
         12    1    1    2    0    0  0.16053787527E+02  0.30443121753E+02  0.29062101676E+02  0.45045682478E+02  0.00000000000E+00 0. -1.
         11    1    3    3    0    0 -0.99049912840E+01 -0.23191543208E+02 -0.16923053681E+02  0.30370154344E+02  0.51100000000E-03 0. -1.
        -11    1    3    3    0    0  0.24650963520E-02 -0.18376276716E+01 -0.27827367802E+01  0.33347422367E+01  0.51100000000E-03 0.  1.
         12    1    3    3    0    0 -0.61512613394E+01 -0.54139508739E+01 -0.93563112149E+01  0.12437420942E+02  0.00000000000E+00 0. -1.
</event>
<event>
 7    1  0.1445801E-008  0.4614232E+02  0.7816164E-02  0.1320468E+00
        -11   -1    0    0    0    0  0.00000000000E+00  0.00000000000E+00  0.45593999997E+02  0.45594000000E+02  0.51100000000E-03 0. -1.
         11   -1    0    0    0    0 -0.00000000000E+00 -0.00000000000E+00 -0.45593999997E+02  0.45594000000E+02  0.51100000000E-03 0.  1.
    9900012    2    1    2    0    0 -0.87474572061E+00 -0.35912682726E+02 -0.27177701329E+02  0.46142318629E+02  0.10000007916E+02 0.  0.
         12    1    1    2    0    0  0.87474572061E+00  0.35912682726E+02  0.27177701329E+02  0.45045681371E+02  0.00000000000E+00 0. -1.
         11    1    3    3    0    0 -0.15679720404E+01 -0.65383836502E+00 -0.24994620826E+01  0.30221435920E+01  0.51100000000E-03 0. -1.
        -11    1    3    3    0    0  0.70516279983E+00 -0.26371005451E+02 -0.17078271148E+02  0.31426016749E+02  0.51100000000E-03 0.  1.
        -12    1    3    3    0    0 -0.11936480021E-01 -0.88878389099E+01 -0.75999680981E+01  0.11694158288E+02  0.00000000000E+00 0.  1.
</event>
<event>
 7    1  0.1445801E-008  0.4614232E+02  0.7816164E-02  0.1320468E+00
        -11   -1    0    0    0    0  0.00000000000E+00  0.00000000000E+00  0.45593999997E+02  0.45594000000E+02  0.51100000000E-03 0.  1.
         11   -1    0    0    0    0 -0.00000000000E+00 -0.00000000000E+00 -0.45593999997E+02  0.45594000000E+02  0.51100000000E-03 0. -1.
    9900012    2    1    2    0    0  0.31384846083E+02  0.12366583628E+02  0.29852515430E+02  0.46142316169E+02  0.99999854831E+01 0.  0.
         12    1    1    2    0    0 -0.31384846083E+02 -0.12366583628E+02 -0.29852515430E+02  0.45045683831E+02  0.00000000000E+00 0. -1.
         11    1    3    3    0    0  0.49541796777E+01  0.26746048570E+01  0.98535033996E+00  0.57156209613E+01  0.51100000000E-03 0. -1.
        -11    1    3    3    0    0  0.25196945404E+02  0.97024308852E+01  0.26964105104E+02  0.38158697398E+02  0.51100000000E-03 0.  1.
         12    1    3    3    0    0  0.12337210009E+01 -0.10452113775E-01  0.19030599859E+01  0.22679978097E+01  0.00000000000E+00 0. -1.
</event>
<event>
 7    1  0.1445801E-008  0.4614232E+02  0.7816164E-02  0.1320468E+00
        -11   -1    0    0    0    0  0.00000000000E+00  0.00000000000E+00  0.45593999997E+02  0.45594000000E+02  0.51100000000E-03 0.  1.
         11   -1    0    0    0    0 -0.00000000000E+00 -0.00000000000E+00 -0.45593999997E+02  0.45594000000E+02  0.51100000000E-03 0. -1.
    9900012    2    1    2    0    0  0.22440703071E+02 -0.38754366145E+02  0.48608099010E+01  0.46142317382E+02  0.99999965457E+01 0.  0.
         12    1    1    2    0    0 -0.22440703071E+02  0.38754366145E+02 -0.48608099010E+01  0.45045682618E+02  0.00000000000E+00 0. -1.
         11    1    3    3    0    0  0.11805496765E+02 -0.14100391797E+02 -0.34479080538E+00  0.18393196668E+02  0.51100000000E-03 0. -1.
        -11    1    3    3    0    0  0.79409847516E+01 -0.22311636903E+02  0.43678513783E+01  0.24082078524E+02  0.51100000000E-03 0.  1.
        -12    1    3    3    0    0  0.26942215543E+01 -0.23423374442E+01  0.83774932808E+00  0.36670421900E+01  0.00000000000E+00 0.  1.
</event>
<event>
 7    1  0.1445801E-008  0.4614232E+02  0.7816164E-02  0.1320468E+00
        -11   -1    0    0    0    0  0.00000000000E+00  0.00000000000E+00  0.45593999997E+02  0.45594000000E+02  0.51100000000E-03 0.  1.
         11   -1    0    0    0    0 -0.00000000000E+00 -0.00000000000E+00 -0.45593999997E+02  0.45594000000E+02  0.51100000000E-03 0. -1.
    9900012    2    1    2    0    0 -0.14673737094E+02  0.20256372343E+02  0.37462970906E+02  0.46142319076E+02  0.10000011991E+02 0.  0.
         12    1    1    2    0    0  0.14673737094E+02 -0.20256372343E+02 -0.37462970906E+02  0.45045680924E+02  0.00000000000E+00 0. -1.
         11    1    3    3    0    0 -0.40013367101E+00  0.50285376113E+01  0.75511098014E+01  0.90810548372E+01  0.51100000000E-03 0. -1.
        -11    1    3    3    0    0 -0.23589892496E+01  0.28352298829E+01  0.10512880303E+02  0.11141095606E+02  0.51100000000E-03 0.  1.
        -12    1    3    3    0    0 -0.11914614173E+02  0.12392604849E+02  0.19398980801E+02  0.25920168633E+02  0.00000000000E+00 0.  1.
</event>
<event>
 7    1  0.1445801E-008  0.4614232E+02  0.7816164E-02  0.1320468E+00
        -11   -1    0    0    0    0  0.00000000000E+00  0.00000000000E+00  0.45593999997E+02  0.45594000000E+02  0.51100000000E-03 0.  1.
         11   -1    0    0    0    0 -0.00000000000E+00 -0.00000000000E+00 -0.45593999997E+02  0.45594000000E+02  0.51100000000E-03 0. -1.
    9900012    2    1    2    0    0 -0.27647439567E+02 -0.39403100665E+01  0.35344119030E+02  0.46142315323E+02  0.99999777655E+01 0.  0.
         12    1    1    2    0    0  0.27647439567E+02  0.39403100665E+01 -0.35344119030E+02  0.45045684677E+02  0.00000000000E+00 0. -1.
         11    1    3    3    0    0 -0.94212130623E+01 -0.46967965143E+01  0.16214634422E+02  0.19332188773E+02  0.51100000000E-03 0.  1.
        -11    1    3    3    0    0 -0.13721111069E+02  0.15436643290E+01  0.16571350875E+02  0.21569920227E+02  0.51100000000E-03 0. -1.
        -12    1    3    3    0    0 -0.45051154358E+01 -0.78717788128E+00  0.25581337334E+01  0.52402063227E+01  0.00000000000E+00 0.  1.
</event>
<event>
 7    1  0.1445801E-008  0.4614232E+02  0.7816164E-02  0.1320468E+00
        -11   -1    0    0    0    0  0.00000000000E+00  0.00000000000E+00  0.45593999997E+02  0.45594000000E+02  0.51100000000E-03 0. -1.
         11   -1    0    0    0    0 -0.00000000000E+00 -0.00000000000E+00 -0.45593999997E+02  0.45594000000E+02  0.51100000000E-03 0.  1.
    9900012    2    1    2    0    0 -0.29143827632E+02  0.96704391606E+01 -0.32958053360E+02  0.46142319142E+02  0.10000012596E+02 0.  0.
         12    1    1    2    0    0  0.29143827632E+02 -0.96704391606E+01  0.32958053360E+02  0.45045680858E+02  0.00000000000E+00 0. -1.
         11    1    3    3    0    0 -0.94907896128E+01  0.49118007168E+01 -0.62035679888E+01  0.12356582449E+02  0.51100000000E-03 0. -1.
        -11    1    3    3    0    0 -0.11495101011E+02  0.69337949499E+00 -0.14758127926E+02  0.18719520894E+02  0.51100000000E-03 0.  1.
         12    1    3    3    0    0 -0.81579370084E+01  0.40652589488E+01 -0.11996357446E+02  0.15066215800E+02  0.00000000000E+00 0. -1.
</event>
<event>
 7    1  0.1445801E-008  0.4614233E+02  0.7816164E-02  0.1320468E+00
        -11   -1    0    0    0    0  0.00000000000E+00  0.00000000000E+00  0.45593999997E+02  0.45594000000E+02  0.51100000000E-03 0.  1.
         11   -1    0    0    0    0 -0.00000000000E+00 -0.00000000000E+00 -0.45593999997E+02  0.45594000000E+02  0.51100000000E-03 0. -1.
    9900012    2    1    2    0    0  0.44345128283E+01 -0.74043858405E-01  0.44826801550E+02  0.46142328468E+02  0.10000097636E+02 0.  0.
         12    1    1    2    0    0 -0.44345128283E+01  0.74043858405E-01 -0.44826801550E+02  0.45045671532E+02  0.00000000000E+00 0. -1.
         11    1    3    3    0    0 -0.11069603159E+01 -0.19248171177E+01  0.49352819329E+01  0.54117732857E+01  0.51100000000E-03 0. -1.
        -11    1    3    3    0    0  0.57103329239E+01 -0.42860289536E+00  0.32253154430E+02  0.32757557502E+02  0.51100000000E-03 0.  1.
        -12    1    3    3    0    0 -0.16885977959E+00  0.22793761547E+01  0.76383651877E+01  0.79729976809E+01  0.00000000000E+00 0.  1.
</event>
<event>
 7    1  0.1445801E-008  0.4614232E+02  0.7816164E-02  0.1320468E+00
        -11   -1    0    0    0    0  0.00000000000E+00  0.00000000000E+00  0.45593999997E+02  0.45594000000E+02  0.51100000000E-03 0.  1.
         11   -1    0    0    0    0 -0.00000000000E+00 -0.00000000000E+00 -0.45593999997E+02  0.45594000000E+02  0.51100000000E-03 0. -1.
    9900012    2    1    2    0    0  0.78257528251E+01  0.88688001269E+01  0.43465106538E+02  0.46142317528E+02  0.99999978783E+01 0.  0.
         12    1    1    2    0    0 -0.78257528251E+01 -0.88688001269E+01 -0.43465106538E+02  0.45045682472E+02  0.00000000000E+00 0. -1.
         11    1    3    3    0    0  0.92783553268E+00 -0.21416874129E+01  0.91379622447E+01  0.94313338397E+01  0.51100000000E-03 0. -1.
        -11    1    3    3    0    0  0.32236032309E+00  0.33375210383E+00  0.15180974070E+01  0.15874276812E+01  0.51100000000E-03 0.  1.
         12    1    3    3    0    0  0.65755569693E+01  0.10676735436E+02  0.32809046886E+02  0.35123556007E+02  0.00000000000E+00 0. -1.
</event>
<event>
 7    1  0.1445801E-008  0.4614232E+02  0.7816164E-02  0.1320468E+00
        -11   -1    0    0    0    0  0.00000000000E+00  0.00000000000E+00  0.45593999997E+02  0.45594000000E+02  0.51100000000E-03 0.  1.
         11   -1    0    0    0    0 -0.00000000000E+00 -0.00000000000E+00 -0.45593999997E+02  0.45594000000E+02  0.51100000000E-03 0. -1.
    9900012    2    1    2    0    0  0.24032072218E+02 -0.19384689509E+02  0.32799492660E+02  0.46142318729E+02  0.10000008824E+02 0.  0.
         12    1    1    2    0    0 -0.24032072218E+02  0.19384689509E+02 -0.32799492660E+02  0.45045681271E+02  0.00000000000E+00 0. -1.
         11    1    3    3    0    0  0.10172007459E+02 -0.48499547131E+01  0.80346241109E+01  0.13840049903E+02  0.51100000000E-03 0. -1.
        -11    1    3    3    0    0  0.10368747935E+02 -0.11728326449E+02  0.15595033069E+02  0.22096824019E+02  0.51100000000E-03 0.  1.
         12    1    3    3    0    0  0.34913168238E+01 -0.28064083477E+01  0.91698354800E+01  0.10205444807E+02  0.00000000000E+00 0. -1.
</event>
<event>
 7    1  0.1445801E-008  0.4614232E+02  0.7816164E-02  0.1320468E+00
        -11   -1    0    0    0    0  0.00000000000E+00  0.00000000000E+00  0.45593999997E+02  0.45594000000E+02  0.51100000000E-03 0.  1.
         11   -1    0    0    0    0 -0.00000000000E+00 -0.00000000000E+00 -0.45593999997E+02  0.45594000000E+02  0.51100000000E-03 0. -1.
    9900012    2    1    2    0    0  0.22165762526E+02 -0.32008596480E+02  0.22654849823E+02  0.46142317660E+02  0.99999990743E+01 0.  0.
         12    1    1    2    0    0 -0.22165762526E+02  0.32008596480E+02 -0.22654849823E+02  0.45045682340E+02  0.00000000000E+00 0. -1.
         11    1    3    3    0    0  0.23721139787E+01 -0.16507892188E+01 -0.34402375823E+00  0.29103921351E+01  0.51100000000E-03 0. -1.
        -11    1    3    3    0    0  0.15259122610E+02 -0.21807826398E+02  0.14276373157E+02  0.30203260517E+02  0.51100000000E-03 0.  1.
        -12    1    3    3    0    0  0.45345259369E+01 -0.85499808635E+01  0.87225004242E+01  0.13028665008E+02  0.00000000000E+00 0.  1.
</event>
<event>
 7    1  0.1445801E-008  0.4614232E+02  0.7816164E-02  0.1320468E+00
        -11   -1    0    0    0    0  0.00000000000E+00  0.00000000000E+00  0.45593999997E+02  0.45594000000E+02  0.51100000000E-03 0. -1.
         11   -1    0    0    0    0 -0.00000000000E+00 -0.00000000000E+00 -0.45593999997E+02  0.45594000000E+02  0.51100000000E-03 0.  1.
    9900012    2    1    2    0    0  0.82158676192E+01  0.34332354691E+02 -0.27980394372E+02  0.46142317314E+02  0.99999959253E+01 0.  0.
         12    1    1    2    0    0 -0.82158676192E+01 -0.34332354691E+02  0.27980394372E+02  0.45045682686E+02  0.00000000000E+00 0. -1.
         11    1    3    3    0    0 -0.97192411009E+00  0.16592898696E+01 -0.33383466795E+01  0.38525885013E+01  0.51100000000E-03 0. -1.
        -11    1    3    3    0    0  0.91488462134E+01  0.32833378942E+02 -0.24155126885E+02  0.41775618665E+02  0.51100000000E-03 0.  1.
        -12    1    3    3    0    0  0.38945515909E-01 -0.16031412034E+00 -0.48692080820E+00  0.51411014758E+00  0.00000000000E+00 0.  1.
</event>
<event>
 7    1  0.1445801E-008  0.4614232E+02  0.7816164E-02  0.1320468E+00
        -11   -1    0    0    0    0  0.00000000000E+00  0.00000000000E+00  0.45593999997E+02  0.45594000000E+02  0.51100000000E-03 0. -1.
         11   -1    0    0    0    0 -0.00000000000E+00 -0.00000000000E+00 -0.45593999997E+02  0.45594000000E+02  0.51100000000E-03 0.  1.
    9900012    2    1    2    0    0 -0.36421331970E+02 -0.26286855723E+02  0.34060924421E+01  0.46142315723E+02  0.99999814104E+01 0.  0.
         12    1    1    2    0    0  0.36421331970E+02  0.26286855723E+02 -0.34060924421E+01  0.45045684277E+02  0.00000000000E+00 0. -1.
         11    1    3    3    0    0 -0.86471459630E+01 -0.59779726892E+01 -0.31092594606E+01  0.10962517295E+02  0.51100000000E-03 0. -1.
        -11    1    3    3    0    0 -0.21026524019E+02 -0.13520998157E+02  0.48553615499E+01  0.25465793518E+02  0.51100000000E-03 0.  1.
         12    1    3    3    0    0 -0.67476619885E+01 -0.67878848771E+01  0.16599903527E+01  0.97140049097E+01  0.00000000000E+00 0. -1.
</event>
<event>
 7    1  0.1445801E-008  0.4614232E+02  0.7816164E-02  0.1320468E+00
        -11   -1    0    0    0    0  0.00000000000E+00  0.00000000000E+00  0.45593999997E+02  0.45594000000E+02  0.51100000000E-03 0.  1.
         11   -1    0    0    0    0 -0.00000000000E+00 -0.00000000000E+00 -0.45593999997E+02  0.45594000000E+02  0.51100000000E-03 0. -1.
    9900012    2    1    2    0    0  0.24862932443E+02  0.12763670699E+02  0.35327563265E+02  0.46142318458E+02  0.10000006353E+02 0.  0.
         12    1    1    2    0    0 -0.24862932443E+02 -0.12763670699E+02 -0.35327563265E+02  0.45045681542E+02  0.00000000000E+00 0. -1.
         11    1    3    3    0    0  0.77318920562E+00  0.82003369625E+00  0.11858111941E+00  0.11332866159E+01  0.51100000000E-03 0. -1.
        -11    1    3    3    0    0  0.19492500667E+02  0.76655273458E+01  0.21961218524E+02  0.30348196175E+02  0.51100000000E-03 0.  1.
         12    1    3    3    0    0  0.45972425696E+01  0.42781096570E+01  0.13247763622E+02  0.14660835667E+02  0.00000000000E+00 0. -1.
</event>
<event>
 7    1  0.1445801E-008  0.4614232E+02  0.7816164E-02  0.1320468E+00
        -11   -1    0    0    0    0  0.00000000000E+00  0.00000000000E+00  0.45593999997E+02  0.45594000000E+02  0.51100000000E-03 0.  1.
         11   -1    0    0    0    0 -0.00000000000E+00 -0.00000000000E+00 -0.45593999997E+02  0.45594000000E+02  0.51100000000E-03 0. -1.
    9900012    2    1    2    0    0  0.25417981159E+02 -0.78374260039E-01  0.37189159772E+02  0.46142317484E+02  0.99999974744E+01 0.  0.
         12    1    1    2    0    0 -0.25417981159E+02  0.78374260039E-01 -0.37189159772E+02  0.45045682516E+02  0.00000000000E+00 0. -1.
         11    1    3    3    0    0  0.18597800862E+01  0.10208864340E+01  0.73388465695E+01  0.76393494692E+01  0.51100000000E-03 0. -1.
        -11    1    3    3    0    0  0.17799136965E+02  0.11732093990E+01  0.24591900044E+02  0.30380046823E+02  0.51100000000E-03 0.  1.
        -12    1    3    3    0    0  0.57590641085E+01 -0.22724700930E+01  0.52584131593E+01  0.81229211915E+01  0.00000000000E+00 0.  1.
</event>
<event>
 7    1  0.1445801E-008  0.4614232E+02  0.7816164E-02  0.1320468E+00
        -11   -1    0    0    0    0  0.00000000000E+00  0.00000000000E+00  0.45593999997E+02  0.45594000000E+02  0.51100000000E-03 0.  1.
         11   -1    0    0    0    0 -0.00000000000E+00 -0.00000000000E+00 -0.45593999997E+02  0.45594000000E+02  0.51100000000E-03 0. -1.
    9900012    2    1    2    0    0  0.29465707792E+02 -0.25130815153E+02  0.23007123062E+02  0.46142317437E+02  0.99999970466E+01 0.  0.
         12    1    1    2    0    0 -0.29465707792E+02  0.25130815153E+02 -0.23007123062E+02  0.45045682563E+02  0.00000000000E+00 0. -1.
         11    1    3    3    0    0  0.18989770622E+02 -0.12620873018E+02  0.12709694318E+02  0.26104293783E+02  0.51100000000E-03 0.  1.
        -11    1    3    3    0    0  0.46505597979E+01 -0.82294131045E+01  0.33972748079E+01  0.10044522032E+02  0.51100000000E-03 0. -1.
         12    1    3    3    0    0  0.58253773717E+01 -0.42805290312E+01  0.69001539369E+01  0.99935016217E+01  0.00000000000E+00 0. -1.
</event>
<event>
 7    1  0.1445801E-008  0.4614232E+02  0.7816164E-02  0.1320468E+00
        -11   -1    0    0    0    0  0.00000000000E+00  0.00000000000E+00  0.45593999997E+02  0.45594000000E+02  0.51100000000E-03 0.  1.
         11   -1    0    0    0    0 -0.00000000000E+00 -0.00000000000E+00 -0.45593999997E+02  0.45594000000E+02  0.51100000000E-03 0. -1.
    9900012    2    1    2    0    0  0.14454534226E+02  0.10752591187E+02  0.41286337300E+02  0.46142318469E+02  0.10000006454E+02 0.  0.
         12    1    1    2    0    0 -0.14454534226E+02 -0.10752591187E+02 -0.41286337300E+02  0.45045681531E+02  0.00000000000E+00 0. -1.
         11    1    3    3    0    0  0.46286804178E+01 -0.11448810239E+01  0.94440416861E+01  0.10579478182E+02  0.51100000000E-03 0. -1.
        -11    1    3    3    0    0  0.59000180672E+01  0.50718798914E+01  0.13142069969E+02  0.15272464835E+02  0.51100000000E-03 0.  1.
         12    1    3    3    0    0  0.39258357412E+01  0.68255923192E+01  0.18700225646E+02  0.20290375452E+02  0.00000000000E+00 0. -1.
</event>
<event>
 7    1  0.1445801E-008  0.4614231E+02  0.7816164E-02  0.1320468E+00
        -11   -1    0    0    0    0  0.00000000000E+00  0.00000000000E+00  0.45593999997E+02  0.45594000000E+02  0.51100000000E-03 0.  1.
         11   -1    0    0    0    0 -0.00000000000E+00 -0.00000000000E+00 -0.45593999997E+02  0.45594000000E+02  0.51100000000E-03 0. -1.
    9900012    2    1    2    0    0 -0.19440289175E+02 -0.40573112640E+02 -0.22386570254E+01  0.46142313217E+02  0.99999585627E+01 0.  0.
         12    1    1    2    0    0  0.19440289175E+02  0.40573112640E+02  0.22386570254E+01  0.45045686783E+02  0.00000000000E+00 0. -1.
         11    1    3    3    0    0 -0.37446359603E+01 -0.95998012870E+01 -0.33172197028E+01  0.10825083373E+02  0.51100000000E-03 0. -1.
        -11    1    3    3    0    0 -0.13746911604E+02 -0.26518981579E+02  0.31428921850E+01  0.30035174949E+02  0.51100000000E-03 0.  1.
        -12    1    3    3    0    0 -0.19487416107E+01 -0.44543297733E+01 -0.20643295076E+01  0.52820548947E+01  0.00000000000E+00 0.  1.
</event>
<event>
 7    1  0.1445801E-008  0.4614231E+02  0.7816164E-02  0.1320468E+00
        -11   -1    0    0    0    0  0.00000000000E+00  0.00000000000E+00  0.45593999997E+02  0.45594000000E+02  0.51100000000E-03 0.  1.
         11   -1    0    0    0    0 -0.00000000000E+00 -0.00000000000E+00 -0.45593999997E+02  0.45594000000E+02  0.51100000000E-03 0. -1.
    9900012    2    1    2    0    0  0.21456942058E+02 -0.27260851178E+02  0.28732549049E+02  0.46142314920E+02  0.99999740944E+01 0.  0.
         12    1    1    2    0    0 -0.21456942058E+02  0.27260851178E+02 -0.28732549049E+02  0.45045685080E+02  0.00000000000E+00 0. -1.
         11    1    3    3    0    0  0.58282201381E+01 -0.87353457538E+01  0.46326521242E+01  0.11477625250E+02  0.51100000000E-03 0. -1.
        -11    1    3    3    0    0  0.82185887126E+01 -0.10183003701E+02  0.16944540848E+02  0.21409255699E+02  0.51100000000E-03 0.  1.
        -12    1    3    3    0    0  0.74101332077E+01 -0.83425017240E+01  0.71553560768E+01  0.13255433971E+02  0.00000000000E+00 0.  1.
</event>
<event>
 7    1  0.1445801E-008  0.4614232E+02  0.7816164E-02  0.1320468E+00
        -11   -1    0    0    0    0  0.00000000000E+00  0.00000000000E+00  0.45593999997E+02  0.45594000000E+02  0.51100000000E-03 0. -1.
         11   -1    0    0    0    0 -0.00000000000E+00 -0.00000000000E+00 -0.45593999997E+02  0.45594000000E+02  0.51100000000E-03 0.  1.
    9900012    2    1    2    0    0  0.66603834289E+01 -0.27895780813E+02 -0.34735834128E+02  0.46142317996E+02  0.10000002144E+02 0.  0.
         12    1    1    2    0    0 -0.66603834289E+01  0.27895780813E+02  0.34735834128E+02  0.45045682004E+02  0.00000000000E+00 0. -1.
         11    1    3    3    0    0 -0.11819313318E+01 -0.39965110056E+01 -0.75700252182E+01  0.86414318233E+01  0.51100000000E-03 0. -1.
        -11    1    3    3    0    0  0.58083649033E+01 -0.22770275159E+02 -0.24209135399E+02  0.33738772513E+02  0.51100000000E-03 0.  1.
         12    1    3    3    0    0  0.20339498574E+01 -0.11289946491E+01 -0.29566735111E+01  0.37621136601E+01  0.00000000000E+00 0. -1.
</event>
<event>
 7    1  0.1521579E-008  0.4614232E+02  0.7816164E-02  0.1320468E+00
        -11   -1    0    0    0    0  0.00000000000E+00  0.00000000000E+00  0.45593999997E+02  0.45594000000E+02  0.51100000000E-03 0. -1.
         11   -1    0    0    0    0 -0.00000000000E+00 -0.00000000000E+00 -0.45593999997E+02  0.45594000000E+02  0.51100000000E-03 0.  1.
    9900012    2    1    2    0    0  0.23570839003E+02 -0.35033649540E+02 -0.15689884437E+02  0.46142317354E+02  0.99999962901E+01 0.  0.
         12    1    1    2    0    0 -0.23570839003E+02  0.35033649540E+02  0.15689884437E+02  0.45045682646E+02  0.00000000000E+00 0. -1.
         11    1    3    3    0    0  0.10611138772E+02 -0.10844946092E+02 -0.96746391017E+01  0.17994659313E+02  0.51100000000E-03 0. -1.
        -11    1    3    3    0    0  0.90644304637E+01 -0.15385002834E+02 -0.43317922076E+01  0.18374619339E+02  0.51100000000E-03 0.  1.
         12    1    3    3    0    0  0.38952697666E+01 -0.88037006139E+01 -0.16834531272E+01  0.97730387027E+01  0.00000000000E+00 0. -1.
</event>
<event>
 7    1  0.1445801E-008  0.4614232E+02  0.7816164E-02  0.1320468E+00
        -11   -1    0    0    0    0  0.00000000000E+00  0.00000000000E+00  0.45593999997E+02  0.45594000000E+02  0.51100000000E-03 0.  1.
         11   -1    0    0    0    0 -0.00000000000E+00 -0.00000000000E+00 -0.45593999997E+02  0.45594000000E+02  0.51100000000E-03 0. -1.
    9900012    2    1    2    0    0 -0.13635023037E+02 -0.99848471426E+01  0.41755267086E+02  0.46142319241E+02  0.10000013492E+02 0.  0.
         12    1    1    2    0    0  0.13635023037E+02  0.99848471426E+01 -0.41755267086E+02  0.45045680759E+02  0.00000000000E+00 0. -1.
         11    1    3    3    0    0 -0.49202044161E+01 -0.29004630663E+01  0.11666550148E+02  0.12989591607E+02  0.51100000000E-03 0.  1.
        -11    1    3    3    0    0 -0.73031339514E+01 -0.85689935120E+01  0.20913547073E+02  0.23751628718E+02  0.51100000000E-03 0. -1.
        -12    1    3    3    0    0 -0.14116846691E+01  0.14846094358E+01  0.91751698641E+01  0.94010989154E+01  0.00000000000E+00 0.  1.
</event>
<event>
 7    1  0.1445801E-008  0.4614232E+02  0.7816164E-02  0.1320468E+00
        -11   -1    0    0    0    0  0.00000000000E+00  0.00000000000E+00  0.45593999997E+02  0.45594000000E+02  0.51100000000E-03 0.  1.
         11   -1    0    0    0    0 -0.00000000000E+00 -0.00000000000E+00 -0.45593999997E+02  0.45594000000E+02  0.51100000000E-03 0. -1.
    9900012    2    1    2    0    0  0.19984098856E+02 -0.39268316797E+02  0.93674236062E+01  0.46142317230E+02  0.99999951577E+01 0.  0.
         12    1    1    2    0    0 -0.19984098856E+02  0.39268316797E+02 -0.93674236062E+01  0.45045682770E+02  0.00000000000E+00 0. -1.
         11    1    3    3    0    0  0.36982712267E+01 -0.43894706305E+01  0.37014902990E+01  0.68297652359E+01  0.51100000000E-03 0. -1.
        -11    1    3    3    0    0  0.15699979053E+02 -0.32574693076E+02  0.39402120007E+01  0.36374788551E+02  0.51100000000E-03 0.  1.
        -12    1    3    3    0    0  0.58584857652E+00 -0.23041530911E+01  0.17257213066E+01  0.29377634435E+01  0.00000000000E+00 0.  1.
</event>
<event>
 7    1  0.1445801E-008  0.4614232E+02  0.7816164E-02  0.1320468E+00
        -11   -1    0    0    0    0  0.00000000000E+00  0.00000000000E+00  0.45593999997E+02  0.45594000000E+02  0.51100000000E-03 0. -1.
         11   -1    0    0    0    0 -0.00000000000E+00 -0.00000000000E+00 -0.45593999997E+02  0.45594000000E+02  0.51100000000E-03 0.  1.
    9900012    2    1    2    0    0 -0.19347412109E+02  0.27836077647E+02 -0.29663848608E+02  0.46142317762E+02  0.10000000007E+02 0.  0.
         12    1    1    2    0    0  0.19347412109E+02 -0.27836077647E+02  0.29663848608E+02  0.45045682238E+02  0.00000000000E+00 0. -1.
         11    1    3    3    0    0 -0.31549578269E+00  0.13609280307E+01 -0.49186118448E+01  0.51131600244E+01  0.51100000000E-03 0. -1.
        -11    1    3    3    0    0 -0.11379461124E+02  0.16258602706E+02 -0.16733074362E+02  0.25958237137E+02  0.51100000000E-03 0.  1.
        -12    1    3    3    0    0 -0.76524552027E+01  0.10216546910E+02 -0.80121624007E+01  0.15070920600E+02  0.00000000000E+00 0.  1.
</event>
<event>
 7    1  0.1445801E-008  0.4614232E+02  0.7816164E-02  0.1320468E+00
        -11   -1    0    0    0    0  0.00000000000E+00  0.00000000000E+00  0.45593999997E+02  0.45594000000E+02  0.51100000000E-03 0. -1.
         11   -1    0    0    0    0 -0.00000000000E+00 -0.00000000000E+00 -0.45593999997E+02  0.45594000000E+02  0.51100000000E-03 0.  1.
    9900012    2    1    2    0    0  0.17510306010E+02  0.38513611561E+02 -0.15466231328E+02  0.46142318703E+02  0.10000008593E+02 0.  0.
         12    1    1    2    0    0 -0.17510306010E+02 -0.38513611561E+02  0.15466231328E+02  0.45045681297E+02  0.00000000000E+00 0. -1.
         11    1    3    3    0    0 -0.81425861186E-02  0.21414375840E+01 -0.57534671662E+00  0.22173960704E+01  0.51100000000E-03 0. -1.
        -11    1    3    3    0    0  0.13282808049E+02  0.24487006720E+02 -0.14251423672E+02  0.31291365657E+02  0.51100000000E-03 0.  1.
        -12    1    3    3    0    0  0.42356405471E+01  0.11885167257E+02 -0.63946093907E+00  0.12633556976E+02  0.00000000000E+00 0.  1.
</event>
<event>
 7    1  0.1445801E-008  0.4614232E+02  0.7816164E-02  0.1320468E+00
        -11   -1    0    0    0    0  0.00000000000E+00  0.00000000000E+00  0.45593999997E+02  0.45594000000E+02  0.51100000000E-03 0.  1.
         11   -1    0    0    0    0 -0.00000000000E+00 -0.00000000000E+00 -0.45593999997E+02  0.45594000000E+02  0.51100000000E-03 0. -1.
    9900012    2    1    2    0    0 -0.36421308810E+02  0.84415902766E+01  0.25126505908E+02  0.46142317843E+02  0.10000000743E+02 0.  0.
         12    1    1    2    0    0  0.36421308810E+02 -0.84415902766E+01 -0.25126505908E+02  0.45045682157E+02  0.00000000000E+00 0. -1.
         11    1    3    3    0    0 -0.96309586916E+01  0.49940258304E+01  0.43089061395E+01  0.11673145750E+02  0.51100000000E-03 0. -1.
        -11    1    3    3    0    0 -0.85725694640E+01 -0.74304825175E-02  0.40976365830E+01  0.95015592539E+01  0.51100000000E-03 0.  1.
        -12    1    3    3    0    0 -0.18217780655E+02  0.34549949286E+01  0.16719963186E+02  0.24967612839E+02  0.00000000000E+00 0.  1.
</event>
<event>
 7    1  0.1445801E-008  0.4614232E+02  0.7816164E-02  0.1320468E+00
        -11   -1    0    0    0    0  0.00000000000E+00  0.00000000000E+00  0.45593999997E+02  0.45594000000E+02  0.51100000000E-03 0. -1.
         11   -1    0    0    0    0 -0.00000000000E+00 -0.00000000000E+00 -0.45593999997E+02  0.45594000000E+02  0.51100000000E-03 0.  1.
    9900012    2    1    2    0    0 -0.33338810894E+02  0.23754384786E+02 -0.18798043422E+02  0.46142317134E+02  0.99999942801E+01 0.  0.
         12    1    1    2    0    0  0.33338810894E+02 -0.23754384786E+02  0.18798043422E+02  0.45045682866E+02  0.00000000000E+00 0. -1.
         11    1    3    3    0    0 -0.11210296235E+02  0.63233224070E+01 -0.35123580167E+01  0.13341357016E+02  0.51100000000E-03 0. -1.
        -11    1    3    3    0    0 -0.70916461286E+01  0.43036818526E+01 -0.80777622886E+01  0.11578573580E+02  0.51100000000E-03 0.  1.
         12    1    3    3    0    0 -0.15036868531E+02  0.13127380526E+02 -0.72079231167E+01  0.21222386538E+02  0.00000000000E+00 0. -1.
</event>
<event>
 7    1  0.1445801E-008  0.4614232E+02  0.7816164E-02  0.1320468E+00
        -11   -1    0    0    0    0  0.00000000000E+00  0.00000000000E+00  0.45593999997E+02  0.45594000000E+02  0.51100000000E-03 0.  1.
         11   -1    0    0    0    0 -0.00000000000E+00 -0.00000000000E+00 -0.45593999997E+02  0.45594000000E+02  0.51100000000E-03 0. -1.
    9900012    2    1    2    0    0  0.34036711183E+02  0.27450960279E+02 -0.10819452621E+02  0.46142317817E+02  0.10000000506E+02 0.  0.
         12    1    1    2    0    0 -0.34036711183E+02 -0.27450960279E+02  0.10819452621E+02  0.45045682183E+02  0.00000000000E+00 0. -1.
         11    1    3    3    0    0  0.21676389714E+02  0.18654664048E+02 -0.77322343317E+01  0.29625155017E+02  0.51100000000E-03 0.  1.
        -11    1    3    3    0    0  0.82483366796E+01  0.26047531171E+01 -0.56504926950E+00  0.86682799747E+01  0.51100000000E-03 0. -1.
         12    1    3    3    0    0  0.41119847895E+01  0.61915431138E+01 -0.25221690196E+01  0.78488828251E+01  0.00000000000E+00 0. -1.
</event>
<event>
 7    1  0.1445801E-008  0.4614232E+02  0.7816164E-02  0.1320468E+00
        -11   -1    0    0    0    0  0.00000000000E+00  0.00000000000E+00  0.45593999997E+02  0.45594000000E+02  0.51100000000E-03 0. -1.
         11   -1    0    0    0    0 -0.00000000000E+00 -0.00000000000E+00 -0.45593999997E+02  0.45594000000E+02  0.51100000000E-03 0.  1.
    9900012    2    1    2    0    0  0.18461654614E+01  0.45003479792E+02 -0.62608872008E+00  0.46142317550E+02  0.99999980730E+01 0.  0.
         12    1    1    2    0    0 -0.18461654614E+01 -0.45003479792E+02  0.62608872008E+00  0.45045682450E+02  0.00000000000E+00 0. -1.
         11    1    3    3    0    0  0.35204694559E+01  0.11529378349E+02  0.81260100756E+00  0.12082242795E+02  0.51100000000E-03 0. -1.
        -11    1    3    3    0    0  0.16392744061E+01  0.19138546851E+02 -0.21549449000E+01  0.19329122689E+02  0.51100000000E-03 0.  1.
         12    1    3    3    0    0 -0.33135784006E+01  0.14335554592E+02  0.71625517232E+00  0.14730952065E+02  0.00000000000E+00 0. -1.
</event>
<event>
 7    1  0.1445801E-008  0.4614232E+02  0.7816164E-02  0.1320468E+00
        -11   -1    0    0    0    0  0.00000000000E+00  0.00000000000E+00  0.45593999997E+02  0.45594000000E+02  0.51100000000E-03 0.  1.
         11   -1    0    0    0    0 -0.00000000000E+00 -0.00000000000E+00 -0.45593999997E+02  0.45594000000E+02  0.51100000000E-03 0. -1.
    9900012    2    1    2    0    0 -0.18129229215E+02 -0.41138336242E+02  0.28428440151E+01  0.46142318489E+02  0.10000006638E+02 0.  0.
         12    1    1    2    0    0  0.18129229215E+02  0.41138336242E+02 -0.28428440151E+01  0.45045681511E+02  0.00000000000E+00 0. -1.
         11    1    3    3    0    0 -0.48050784653E+01 -0.56134531868E+01  0.13240664292E+01  0.75068493996E+01  0.51100000000E-03 0. -1.
        -11    1    3    3    0    0 -0.97139554091E+01 -0.16984230553E+02 -0.93299351088E+00  0.19588146781E+02  0.51100000000E-03 0.  1.
        -12    1    3    3    0    0 -0.36101953403E+01 -0.18540652502E+02  0.24517710968E+01  0.19047322308E+02  0.00000000000E+00 0.  1.
</event>
<event>
 7    1  0.1445801E-008  0.4614232E+02  0.7816164E-02  0.1320468E+00
        -11   -1    0    0    0    0  0.00000000000E+00  0.00000000000E+00  0.45593999997E+02  0.45594000000E+02  0.51100000000E-03 0.  1.
         11   -1    0    0    0    0 -0.00000000000E+00 -0.00000000000E+00 -0.45593999997E+02  0.45594000000E+02  0.51100000000E-03 0. -1.
    9900012    2    1    2    0    0  0.13127268325E+02  0.42644935099E+02 -0.61804475010E+01  0.46142316582E+02  0.99999892508E+01 0.  0.
         12    1    1    2    0    0 -0.13127268325E+02 -0.42644935099E+02  0.61804475010E+01  0.45045683418E+02  0.00000000000E+00 0. -1.
         11    1    3    3    0    0 -0.19559180535E+00  0.12755988706E+00 -0.23496178126E+00  0.33126270373E+00  0.51100000000E-03 0. -1.
        -11    1    3    3    0    0  0.14167728483E+02  0.42163062363E+02 -0.60485393542E+01  0.44889121029E+02  0.51100000000E-03 0.  1.
        -12    1    3    3    0    0 -0.84486835237E+00  0.35431284894E+00  0.10305363450E+00  0.92193284969E+00  0.00000000000E+00 0.  1.
</event>
<event>
 7    1  0.1445801E-008  0.4614231E+02  0.7816164E-02  0.1320468E+00
        -11   -1    0    0    0    0  0.00000000000E+00  0.00000000000E+00  0.45593999997E+02  0.45594000000E+02  0.51100000000E-03 0.  1.
         11   -1    0    0    0    0 -0.00000000000E+00 -0.00000000000E+00 -0.45593999997E+02  0.45594000000E+02  0.51100000000E-03 0. -1.
    9900012    2    1    2    0    0  0.23273916988E+02  0.36495828160E+02  0.12469689755E+02  0.46142313774E+02  0.99999636378E+01 0.  0.
         12    1    1    2    0    0 -0.23273916988E+02 -0.36495828160E+02 -0.12469689755E+02  0.45045686226E+02  0.00000000000E+00 0. -1.
         11    1    3    3    0    0  0.91029754564E+00  0.59029771200E+01  0.24449887931E+01  0.64538167746E+01  0.51100000000E-03 0. -1.
        -11    1    3    3    0    0  0.42664433364E+01  0.46751306509E+01 -0.55698502993E+00  0.63537089901E+01  0.51100000000E-03 0.  1.
        -12    1    3    3    0    0  0.18097176106E+02  0.25917720389E+02  0.10581685992E+02  0.33334788009E+02  0.00000000000E+00 0.  1.
</event>
<event>
 7    1  0.1445801E-008  0.4614232E+02  0.7816164E-02  0.1320468E+00
        -11   -1    0    0    0    0  0.00000000000E+00  0.00000000000E+00  0.45593999997E+02  0.45594000000E+02  0.51100000000E-03 0.  1.
         11   -1    0    0    0    0 -0.00000000000E+00 -0.00000000000E+00 -0.45593999997E+02  0.45594000000E+02  0.51100000000E-03 0. -1.
    9900012    2    1    2    0    0  0.33586627064E+02 -0.16539302545E+02  0.25050019136E+02  0.46142317578E+02  0.99999983279E+01 0.  0.
         12    1    1    2    0    0 -0.33586627064E+02  0.16539302545E+02 -0.25050019136E+02  0.45045682422E+02  0.00000000000E+00 0. -1.
         11    1    3    3    0    0  0.16280372636E+02 -0.62135973867E+01  0.14419815155E+02  0.22618364110E+02  0.51100000000E-03 0. -1.
        -11    1    3    3    0    0  0.11577489681E+02 -0.99083107161E+01  0.75533923870E+01  0.17007840115E+02  0.51100000000E-03 0.  1.
         12    1    3    3    0    0  0.57287647467E+01 -0.41739444211E+00  0.30768115939E+01  0.65161133529E+01  0.00000000000E+00 0. -1.
</event>
<event>
 7    1  0.1445801E-008  0.4614232E+02  0.7816164E-02  0.1320468E+00
        -11   -1    0    0    0    0  0.00000000000E+00  0.00000000000E+00  0.45593999997E+02  0.45594000000E+02  0.51100000000E-03 0.  1.
         11   -1    0    0    0    0 -0.00000000000E+00 -0.00000000000E+00 -0.45593999997E+02  0.45594000000E+02  0.51100000000E-03 0. -1.
    9900012    2    1    2    0    0  0.24181954073E+02  0.16710692638E+02  0.34133550821E+02  0.46142318266E+02  0.10000004603E+02 0.  0.
         12    1    1    2    0    0 -0.24181954073E+02 -0.16710692638E+02 -0.34133550821E+02  0.45045681734E+02  0.00000000000E+00 0. -1.
         11    1    3    3    0    0  0.71433568385E+01  0.60370964863E+01  0.15968848526E+02  0.18506166659E+02  0.51100000000E-03 0. -1.
        -11    1    3    3    0    0  0.66463014360E+01  0.37779958700E+01  0.10531284137E+02  0.13013628295E+02  0.51100000000E-03 0.  1.
         12    1    3    3    0    0  0.10392295799E+02  0.68956002819E+01  0.76334181576E+01  0.14622523311E+02  0.00000000000E+00 0. -1.
</event>
<event>
 7    1  0.1445801E-008  0.4614232E+02  0.7816164E-02  0.1320468E+00
        -11   -1    0    0    0    0  0.00000000000E+00  0.00000000000E+00  0.45593999997E+02  0.45594000000E+02  0.51100000000E-03 0.  1.
         11   -1    0    0    0    0 -0.00000000000E+00 -0.00000000000E+00 -0.45593999997E+02  0.45594000000E+02  0.51100000000E-03 0. -1.
    9900012    2    1    2    0    0  0.84386395185E+01 -0.38354277469E+02  0.22064726364E+02  0.46142318891E+02  0.10000010300E+02 0.  0.
         12    1    1    2    0    0 -0.84386395185E+01  0.38354277469E+02 -0.22064726364E+02  0.45045681109E+02  0.00000000000E+00 0. -1.
         11    1    3    3    0    0  0.52945470790E+00 -0.43217005776E+01  0.38942078836E+00  0.43713918815E+01  0.51100000000E-03 0. -1.
        -11    1    3    3    0    0  0.65155088831E+01 -0.14274989801E+02  0.11835823133E+02  0.19654869608E+02  0.51100000000E-03 0.  1.
        -12    1    3    3    0    0  0.13936759275E+01 -0.19757587090E+02  0.98394824431E+01  0.22116057401E+02  0.00000000000E+00 0.  1.
</event>
<event>
 7    1  0.1445801E-008  0.4614232E+02  0.7816164E-02  0.1320468E+00
        -11   -1    0    0    0    0  0.00000000000E+00  0.00000000000E+00  0.45593999997E+02  0.45594000000E+02  0.51100000000E-03 0. -1.
         11   -1    0    0    0    0 -0.00000000000E+00 -0.00000000000E+00 -0.45593999997E+02  0.45594000000E+02  0.51100000000E-03 0.  1.
    9900012    2    1    2    0    0  0.38936741983E+02  0.22427849900E+02 -0.31678309088E+01  0.46142317853E+02  0.10000000842E+02 0.  0.
         12    1    1    2    0    0 -0.38936741983E+02 -0.22427849900E+02  0.31678309088E+01  0.45045682147E+02  0.00000000000E+00 0. -1.
         11    1    3    3    0    0  0.12897433781E+02  0.47386253875E+01 -0.36447010262E+01  0.14215562406E+02  0.51100000000E-03 0. -1.
        -11    1    3    3    0    0  0.25033074005E+02  0.17325683534E+02 -0.54279479746E+00  0.30448788654E+02  0.51100000000E-03 0.  1.
        -12    1    3    3    0    0  0.10062341975E+01  0.36354097832E+00  0.10196649148E+01  0.14779667932E+01  0.00000000000E+00 0.  1.
</event>
<event>
 7    1  0.1445801E-008  0.4614232E+02  0.7816164E-02  0.1320468E+00
        -11   -1    0    0    0    0  0.00000000000E+00  0.00000000000E+00  0.45593999997E+02  0.45594000000E+02  0.51100000000E-03 0.  1.
         11   -1    0    0    0    0 -0.00000000000E+00 -0.00000000000E+00 -0.45593999997E+02  0.45594000000E+02  0.51100000000E-03 0. -1.
    9900012    2    1    2    0    0  0.36988921583E+02 -0.23508870042E+02  0.10405102896E+02  0.46142318112E+02  0.10000003199E+02 0.  0.
         12    1    1    2    0    0 -0.36988921583E+02  0.23508870042E+02 -0.10405102896E+02  0.45045681888E+02  0.00000000000E+00 0. -1.
         11    1    3    3    0    0  0.20061890156E+02 -0.95170134569E+01  0.19654813400E+01  0.22291614991E+02  0.51100000000E-03 0. -1.
        -11    1    3    3    0    0  0.19797190023E+01 -0.13609923969E+01  0.23376568229E+01  0.33520482269E+01  0.51100000000E-03 0.  1.
         12    1    3    3    0    0  0.14947312424E+02 -0.12630864188E+02  0.61019647329E+01  0.20498654894E+02  0.00000000000E+00 0. -1.
</event>
<event>
 7    1  0.1445801E-008  0.4614232E+02  0.7816164E-02  0.1320468E+00
        -11   -1    0    0    0    0  0.00000000000E+00  0.00000000000E+00  0.45593999997E+02  0.45594000000E+02  0.51100000000E-03 0.  1.
         11   -1    0    0    0    0 -0.00000000000E+00 -0.00000000000E+00 -0.45593999997E+02  0.45594000000E+02  0.51100000000E-03 0. -1.
    9900012    2    1    2    0    0 -0.32389730057E+02  0.26248372535E+02 -0.17059948421E+02  0.46142317476E+02  0.99999974013E+01 0.  0.
         12    1    1    2    0    0  0.32389730057E+02 -0.26248372535E+02  0.17059948421E+02  0.45045682524E+02  0.00000000000E+00 0. -1.
         11    1    3    3    0    0 -0.61919253266E+01  0.72165807768E+01 -0.63074976053E+01  0.11410674987E+02  0.51100000000E-03 0.  1.
        -11    1    3    3    0    0 -0.28371612224E+01 -0.73647584313E-01 -0.70209634614E+00  0.29236701779E+01  0.51100000000E-03 0. -1.
         12    1    3    3    0    0 -0.23360643508E+02  0.19105439342E+02 -0.10050354470E+02  0.31807972311E+02  0.00000000000E+00 0. -1.
</event>
<event>
 7    1  0.1445801E-008  0.4614232E+02  0.7816164E-02  0.1320468E+00
        -11   -1    0    0    0    0  0.00000000000E+00  0.00000000000E+00  0.45593999997E+02  0.45594000000E+02  0.51100000000E-03 0.  1.
         11   -1    0    0    0    0 -0.00000000000E+00 -0.00000000000E+00 -0.45593999997E+02  0.45594000000E+02  0.51100000000E-03 0. -1.
    9900012    2    1    2    0    0 -0.13829099216E+02  0.17542468390E+02  0.39116892421E+02  0.46142318131E+02  0.10000003374E+02 0.  0.
         12    1    1    2    0    0  0.13829099216E+02 -0.17542468390E+02 -0.39116892421E+02  0.45045681869E+02  0.00000000000E+00 0. -1.
         11    1    3    3    0    0 -0.11091453913E+02  0.74780580546E+01  0.17305326054E+02  0.21872723019E+02  0.51100000000E-03 0. -1.
        -11    1    3    3    0    0 -0.80895845268E+00  0.53869333407E+01  0.93660981485E+01  0.10835001587E+02  0.51100000000E-03 0.  1.
         12    1    3    3    0    0 -0.19286868501E+01  0.46774769950E+01  0.12445468219E+02  0.13434593525E+02  0.00000000000E+00 0. -1.
</event>
<event>
 7    1  0.1445801E-008  0.4614232E+02  0.7816164E-02  0.1320468E+00
        -11   -1    0    0    0    0  0.00000000000E+00  0.00000000000E+00  0.45593999997E+02  0.45594000000E+02  0.51100000000E-03 0.  1.
         11   -1    0    0    0    0 -0.00000000000E+00 -0.00000000000E+00 -0.45593999997E+02  0.45594000000E+02  0.51100000000E-03 0. -1.
    9900012    2    1    2    0    0  0.49866272052E+01 -0.40743274398E+02 -0.18553508616E+02  0.46142317171E+02  0.99999946191E+01 0.  0.
         12    1    1    2    0    0 -0.49866272052E+01  0.40743274398E+02  0.18553508616E+02  0.45045682829E+02  0.00000000000E+00 0. -1.
         11    1    3    3    0    0 -0.20330420672E+01 -0.47854849011E+01 -0.38558866700E+01  0.64731744962E+01  0.51100000000E-03 0. -1.
        -11    1    3    3    0    0  0.62083871837E+01 -0.22866285953E+02 -0.86264616923E+01  0.25215609180E+02  0.51100000000E-03 0.  1.
        -12    1    3    3    0    0  0.81128208876E+00 -0.13091503544E+02 -0.60711602535E+01  0.14453533495E+02  0.00000000000E+00 0.  1.
</event>
<event>
 7    1  0.1445801E-008  0.4614232E+02  0.7816164E-02  0.1320468E+00
        -11   -1    0    0    0    0  0.00000000000E+00  0.00000000000E+00  0.45593999997E+02  0.45594000000E+02  0.51100000000E-03 0.  1.
         11   -1    0    0    0    0 -0.00000000000E+00 -0.00000000000E+00 -0.45593999997E+02  0.45594000000E+02  0.51100000000E-03 0. -1.
    9900012    2    1    2    0    0 -0.12820962137E+02  0.15920140050E+01  0.43153237408E+02  0.46142317882E+02  0.10000001104E+02 0.  0.
         12    1    1    2    0    0  0.12820962137E+02 -0.15920140050E+01 -0.43153237408E+02  0.45045682118E+02  0.00000000000E+00 0. -1.
         11    1    3    3    0    0 -0.80792526545E+00  0.23731928957E+01  0.25138983758E+01  0.35502778849E+01  0.51100000000E-03 0. -1.
        -11    1    3    3    0    0 -0.10075281706E+02  0.62687328466E+00  0.35743528706E+02  0.37141676271E+02  0.51100000000E-03 0.  1.
        -12    1    3    3    0    0 -0.19377551650E+01 -0.14080521753E+01  0.48958103259E+01  0.54503637268E+01  0.00000000000E+00 0.  1.
</event>
<event>
 7    1  0.1445801E-008  0.4614232E+02  0.7816164E-02  0.1320468E+00
        -11   -1    0    0    0    0  0.00000000000E+00  0.00000000000E+00  0.45593999997E+02  0.45594000000E+02  0.51100000000E-03 0. -1.
         11   -1    0    0    0    0 -0.00000000000E+00 -0.00000000000E+00 -0.45593999997E+02  0.45594000000E+02  0.51100000000E-03 0.  1.
    9900012    2    1    2    0    0  0.20873157848E+02 -0.23941244893E+01 -0.39845864926E+02  0.46142317606E+02  0.99999985883E+01 0.  0.
         12    1    1    2    0    0 -0.20873157848E+02  0.23941244893E+01  0.39845864926E+02  0.45045682394E+02  0.00000000000E+00 0. -1.
         11    1    3    3    0    0  0.15386213954E+02  0.12919434872E+00 -0.32159283397E+02  0.35650691155E+02  0.51100000000E-03 0.  1.
        -11    1    3    3    0    0  0.45007009982E+01 -0.33510011735E+01 -0.71692611960E+01  0.91040553984E+01  0.51100000000E-03 0. -1.
        -12    1    3    3    0    0  0.98624289607E+00  0.82768233555E+00 -0.51732033342E+00  0.13875710526E+01  0.00000000000E+00 0.  1.
</event>
<event>
 7    1  0.1445801E-008  0.4614232E+02  0.7816164E-02  0.1320468E+00
        -11   -1    0    0    0    0  0.00000000000E+00  0.00000000000E+00  0.45593999997E+02  0.45594000000E+02  0.51100000000E-03 0.  1.
         11   -1    0    0    0    0 -0.00000000000E+00 -0.00000000000E+00 -0.45593999997E+02  0.45594000000E+02  0.51100000000E-03 0. -1.
    9900012    2    1    2    0    0  0.35111861635E+00 -0.24919527240E+01  0.44975330382E+02  0.46142318125E+02  0.10000003316E+02 0.  0.
         12    1    1    2    0    0 -0.35111861635E+00  0.24919527240E+01 -0.44975330382E+02  0.45045681875E+02  0.00000000000E+00 0. -1.
         11    1    3    3    0    0 -0.16631832456E+01 -0.47816956928E+01  0.13194065161E+02  0.14132025613E+02  0.51100000000E-03 0. -1.
        -11    1    3    3    0    0  0.24445957738E+01  0.15735328568E+01  0.27053762985E+02  0.27209523077E+02  0.51100000000E-03 0.  1.
        -12    1    3    3    0    0 -0.43029391185E+00  0.71621011208E+00  0.47275022358E+01  0.48007694346E+01  0.00000000000E+00 0.  1.
</event>
<event>
 7    1  0.1445801E-008  0.4614232E+02  0.7816164E-02  0.1320468E+00
        -11   -1    0    0    0    0  0.00000000000E+00  0.00000000000E+00  0.45593999997E+02  0.45594000000E+02  0.51100000000E-03 0.  1.
         11   -1    0    0    0    0 -0.00000000000E+00 -0.00000000000E+00 -0.45593999997E+02  0.45594000000E+02  0.51100000000E-03 0. -1.
    9900012    2    1    2    0    0  0.25748485042E+01 -0.30957124621E+02  0.32621160655E+02  0.46142317276E+02  0.99999955755E+01 0.  0.
         12    1    1    2    0    0 -0.25748485042E+01  0.30957124621E+02 -0.32621160655E+02  0.45045682724E+02  0.00000000000E+00 0. -1.
         11    1    3    3    0    0 -0.16665539975E+01 -0.10907419319E+02  0.15975373978E+02  0.19415503404E+02  0.51100000000E-03 0. -1.
        -11    1    3    3    0    0  0.49245251247E+01 -0.16854948369E+02  0.14860883190E+02  0.23004044898E+02  0.51100000000E-03 0.  1.
         12    1    3    3    0    0 -0.68312262293E+00 -0.31947569325E+01  0.17849034875E+01  0.37227689742E+01  0.00000000000E+00 0. -1.
</event>
<event>
 7    1  0.1445801E-008  0.4614232E+02  0.7816164E-02  0.1320468E+00
        -11   -1    0    0    0    0  0.00000000000E+00  0.00000000000E+00  0.45593999997E+02  0.45594000000E+02  0.51100000000E-03 0. -1.
         11   -1    0    0    0    0 -0.00000000000E+00 -0.00000000000E+00 -0.45593999997E+02  0.45594000000E+02  0.51100000000E-03 0.  1.
    9900012    2    1    2    0    0 -0.22158736113E+02  0.38259742573E+02 -0.86195177156E+01  0.46142316816E+02  0.99999913789E+01 0.  0.
         12    1    1    2    0    0  0.22158736113E+02 -0.38259742573E+02  0.86195177156E+01  0.45045683184E+02  0.00000000000E+00 0. -1.
         11    1    3    3    0    0 -0.18780567173E+01  0.44586494375E+01  0.15596985623E+01  0.50832383090E+01  0.51100000000E-03 0. -1.
        -11    1    3    3    0    0 -0.65986925587E+01  0.68930923710E+01 -0.15880275109E+01  0.96736393129E+01  0.51100000000E-03 0.  1.
        -12    1    3    3    0    0 -0.13681986837E+02  0.26908000764E+02 -0.85911887670E+01  0.31385439194E+02  0.00000000000E+00 0.  1.
</event>
<event>
 7    1  0.1445801E-008  0.4614232E+02  0.7816164E-02  0.1320468E+00
        -11   -1    0    0    0    0  0.00000000000E+00  0.00000000000E+00  0.45593999997E+02  0.45594000000E+02  0.51100000000E-03 0.  1.
         11   -1    0    0    0    0 -0.00000000000E+00 -0.00000000000E+00 -0.45593999997E+02  0.45594000000E+02  0.51100000000E-03 0. -1.
    9900012    2    1    2    0    0  0.30549049489E+02  0.32196265420E+02  0.76986771256E+01  0.46142316953E+02  0.99999926310E+01 0.  0.
         12    1    1    2    0    0 -0.30549049489E+02 -0.32196265420E+02 -0.76986771256E+01  0.45045683047E+02  0.00000000000E+00 0. -1.
         11    1    3    3    0    0  0.13320515987E+01  0.40698926250E+00 -0.11214797789E+01  0.17882166751E+01  0.51100000000E-03 0. -1.
        -11    1    3    3    0    0  0.19540331620E+02  0.18571783787E+02  0.71369318781E+01  0.27886762267E+02  0.51100000000E-03 0.  1.
         12    1    3    3    0    0  0.96766662710E+01  0.13217492370E+02  0.16832250265E+01  0.16467338011E+02  0.00000000000E+00 0. -1.
</event>
<event>
 7    1  0.1445801E-008  0.4614232E+02  0.7816164E-02  0.1320468E+00
        -11   -1    0    0    0    0  0.00000000000E+00  0.00000000000E+00  0.45593999997E+02  0.45594000000E+02  0.51100000000E-03 0.  1.
         11   -1    0    0    0    0 -0.00000000000E+00 -0.00000000000E+00 -0.45593999997E+02  0.45594000000E+02  0.51100000000E-03 0. -1.
    9900012    2    1    2    0    0  0.22636765088E+02 -0.33559703683E+02  0.19759464848E+02  0.46142319897E+02  0.10000019475E+02 0.  0.
         12    1    1    2    0    0 -0.22636765088E+02  0.33559703683E+02 -0.19759464848E+02  0.45045680103E+02  0.00000000000E+00 0. -1.
         11    1    3    3    0    0  0.35925553831E+01 -0.89182124437E+01  0.26465511813E+01  0.99722214570E+01  0.51100000000E-03 0. -1.
        -11    1    3    3    0    0  0.11349501548E+02 -0.91990304989E+01  0.80943665637E+01  0.16701859712E+02  0.51100000000E-03 0.  1.
        -12    1    3    3    0    0  0.76947081565E+01 -0.15442460740E+02  0.90185471027E+01  0.19468238728E+02  0.00000000000E+00 0.  1.
</event>
<event>
 7    1  0.1445801E-008  0.4614232E+02  0.7816164E-02  0.1320468E+00
        -11   -1    0    0    0    0  0.00000000000E+00  0.00000000000E+00  0.45593999997E+02  0.45594000000E+02  0.51100000000E-03 0.  1.
         11   -1    0    0    0    0 -0.00000000000E+00 -0.00000000000E+00 -0.45593999997E+02  0.45594000000E+02  0.51100000000E-03 0. -1.
    9900012    2    1    2    0    0 -0.44447106597E+02 -0.62368161920E+01 -0.38301815437E+01  0.46142318168E+02  0.10000003713E+02 0.  0.
         12    1    1    2    0    0  0.44447106597E+02  0.62368161920E+01  0.38301815437E+01  0.45045681832E+02  0.00000000000E+00 0. -1.
         11    1    3    3    0    0 -0.27637170227E+01 -0.23135949924E+00 -0.17848441482E+01  0.32980794250E+01  0.51100000000E-03 0. -1.
        -11    1    3    3    0    0 -0.24847367176E+02 -0.11554180216E+01  0.16836028651E+01  0.24931128439E+02  0.51100000000E-03 0.  1.
        -12    1    3    3    0    0 -0.16836022398E+02 -0.48500386712E+01 -0.37289402606E+01  0.17913110304E+02  0.00000000000E+00 0.  1.
</event>
<event>
 7    1  0.1445801E-008  0.4614232E+02  0.7816164E-02  0.1320468E+00
        -11   -1    0    0    0    0  0.00000000000E+00  0.00000000000E+00  0.45593999997E+02  0.45594000000E+02  0.51100000000E-03 0.  1.
         11   -1    0    0    0    0 -0.00000000000E+00 -0.00000000000E+00 -0.45593999997E+02  0.45594000000E+02  0.51100000000E-03 0. -1.
    9900012    2    1    2    0    0 -0.30113574599E+02  0.10424531653E+02  0.31837325823E+02  0.46142317068E+02  0.99999936789E+01 0.  0.
         12    1    1    2    0    0  0.30113574599E+02 -0.10424531653E+02 -0.31837325823E+02  0.45045682932E+02  0.00000000000E+00 0. -1.
         11    1    3    3    0    0 -0.21254123457E+00 -0.26782547382E+00  0.37004410346E+00  0.50382254857E+00  0.51100000000E-03 0. -1.
        -11    1    3    3    0    0 -0.24465873289E+02  0.10728996751E+02  0.29643875585E+02  0.39905509482E+02  0.51100000000E-03 0.  1.
        -12    1    3    3    0    0 -0.54351600755E+01 -0.36639625080E-01  0.18234061344E+01  0.57329850374E+01  0.00000000000E+00 0.  1.
</event>
<event>
 7    1  0.1445801E-008  0.4614232E+02  0.7816164E-02  0.1320468E+00
        -11   -1    0    0    0    0  0.00000000000E+00  0.00000000000E+00  0.45593999997E+02  0.45594000000E+02  0.51100000000E-03 0.  1.
         11   -1    0    0    0    0 -0.00000000000E+00 -0.00000000000E+00 -0.45593999997E+02  0.45594000000E+02  0.51100000000E-03 0. -1.
    9900012    2    1    2    0    0 -0.42963104504E+00 -0.30395792086E+02  0.33241912183E+02  0.46142317799E+02  0.10000000346E+02 0.  0.
         12    1    1    2    0    0  0.42963104504E+00  0.30395792086E+02 -0.33241912183E+02  0.45045682201E+02  0.00000000000E+00 0. -1.
         11    1    3    3    0    0  0.80499944427E+00  0.41605392760E+00  0.51299884142E+00  0.10412939299E+01  0.51100000000E-03 0. -1.
        -11    1    3    3    0    0 -0.23719706097E+01 -0.24721364437E+02  0.26273081692E+02  0.36153103962E+02  0.51100000000E-03 0.  1.
        -12    1    3    3    0    0  0.11373401204E+01 -0.60904815761E+01  0.64558316501E+01  0.89479199076E+01  0.00000000000E+00 0.  1.
</event>
<event>
 7    1  0.1445801E-008  0.4614232E+02  0.7816164E-02  0.1320468E+00
        -11   -1    0    0    0    0  0.00000000000E+00  0.00000000000E+00  0.45593999997E+02  0.45594000000E+02  0.51100000000E-03 0.  1.
         11   -1    0    0    0    0 -0.00000000000E+00 -0.00000000000E+00 -0.45593999997E+02  0.45594000000E+02  0.51100000000E-03 0. -1.
    9900012    2    1    2    0    0  0.30566522294E+02  0.14340640911E+02  0.29818572017E+02  0.46142317587E+02  0.99999984102E+01 0.  0.
         12    1    1    2    0    0 -0.30566522294E+02 -0.14340640911E+02 -0.29818572017E+02  0.45045682413E+02  0.00000000000E+00 0. -1.
         11    1    3    3    0    0  0.16456073394E+02  0.25060045243E+01  0.13676485374E+02  0.21543645529E+02  0.51100000000E-03 0. -1.
        -11    1    3    3    0    0  0.10174126067E+02  0.80666241274E+01  0.10004877650E+02  0.16391486909E+02  0.51100000000E-03 0.  1.
        -12    1    3    3    0    0  0.39363228330E+01  0.37680122592E+01  0.61372089938E+01  0.82071851487E+01  0.00000000000E+00 0.  1.
</event>
<event>
 7    1  0.1445801E-008  0.4614232E+02  0.7816164E-02  0.1320468E+00
        -11   -1    0    0    0    0  0.00000000000E+00  0.00000000000E+00  0.45593999997E+02  0.45594000000E+02  0.51100000000E-03 0. -1.
         11   -1    0    0    0    0 -0.00000000000E+00 -0.00000000000E+00 -0.45593999997E+02  0.45594000000E+02  0.51100000000E-03 0.  1.
    9900012    2    1    2    0    0 -0.69775633110E+01 -0.41569714652E+02 -0.15886661451E+02  0.46142316766E+02  0.99999909214E+01 0.  0.
         12    1    1    2    0    0  0.69775633110E+01  0.41569714652E+02  0.15886661451E+02  0.45045683234E+02  0.00000000000E+00 0. -1.
         11    1    3    3    0    0  0.20310304264E+00  0.28883072550E+00  0.38305989161E+00  0.52096945746E+00  0.51100000000E-03 0. -1.
        -11    1    3    3    0    0 -0.65223430486E+01 -0.39420696741E+02 -0.14372735967E+02  0.42463017201E+02  0.51100000000E-03 0.  1.
        -12    1    3    3    0    0 -0.65832330501E+00 -0.24378486366E+01 -0.18969853761E+01  0.31583301072E+01  0.00000000000E+00 0.  1.
</event>
<event>
 7    1  0.1445801E-008  0.4614232E+02  0.7816164E-02  0.1320468E+00
        -11   -1    0    0    0    0  0.00000000000E+00  0.00000000000E+00  0.45593999997E+02  0.45594000000E+02  0.51100000000E-03 0. -1.
         11   -1    0    0    0    0 -0.00000000000E+00 -0.00000000000E+00 -0.45593999997E+02  0.45594000000E+02  0.51100000000E-03 0.  1.
    9900012    2    1    2    0    0  0.37192322530E+02 -0.22218652847E+02  0.12335948631E+02  0.46142322981E+02  0.10000047597E+02 0.  0.
         12    1    1    2    0    0 -0.37192322530E+02  0.22218652847E+02 -0.12335948631E+02  0.45045677019E+02  0.00000000000E+00 0. -1.
         11    1    3    3    0    0  0.34989115614E+01 -0.47082956142E+01  0.39893613262E+01  0.70940421311E+01  0.51100000000E-03 0. -1.
        -11    1    3    3    0    0  0.20558252191E+02 -0.88823344259E+01  0.40762650136E+01  0.22762986068E+02  0.51100000000E-03 0.  1.
        -12    1    3    3    0    0  0.13135158777E+02 -0.86280228073E+01  0.42703222911E+01  0.16285294782E+02  0.00000000000E+00 0.  1.
</event>
<event>
 7    1  0.1445801E-008  0.4614232E+02  0.7816164E-02  0.1320468E+00
        -11   -1    0    0    0    0  0.00000000000E+00  0.00000000000E+00  0.45593999997E+02  0.45594000000E+02  0.51100000000E-03 0. -1.
         11   -1    0    0    0    0 -0.00000000000E+00 -0.00000000000E+00 -0.45593999997E+02  0.45594000000E+02  0.51100000000E-03 0.  1.
    9900012    2    1    2    0    0 -0.37240258375E+02  0.65801932241E+00 -0.25334633301E+02  0.46142317879E+02  0.10000001079E+02 0.  0.
         12    1    1    2    0    0  0.37240258375E+02 -0.65801932241E+00  0.25334633301E+02  0.45045682121E+02  0.00000000000E+00 0. -1.
         11    1    3    3    0    0 -0.64765030049E+01 -0.17658723991E+00 -0.65445918465E+01  0.92091235698E+01  0.51100000000E-03 0. -1.
        -11    1    3    3    0    0 -0.26223133229E+02  0.34631326640E+01 -0.16724689938E+02  0.31294748090E+02  0.51100000000E-03 0.  1.
        -12    1    3    3    0    0 -0.45406221405E+01 -0.26285261017E+01 -0.20653515156E+01  0.56384462197E+01  0.00000000000E+00 0.  1.
</event>
<event>
 7    1  0.1445801E-008  0.4614232E+02  0.7816164E-02  0.1320468E+00
        -11   -1    0    0    0    0  0.00000000000E+00  0.00000000000E+00  0.45593999997E+02  0.45594000000E+02  0.51100000000E-03 0.  1.
         11   -1    0    0    0    0 -0.00000000000E+00 -0.00000000000E+00 -0.45593999997E+02  0.45594000000E+02  0.51100000000E-03 0. -1.
    9900012    2    1    2    0    0 -0.67347035143E+01  0.37751584030E+02  0.23634194639E+02  0.46142317804E+02  0.10000000394E+02 0.  0.
         12    1    1    2    0    0  0.67347035143E+01 -0.37751584030E+02 -0.23634194639E+02  0.45045682196E+02  0.00000000000E+00 0. -1.
         11    1    3    3    0    0 -0.33968827930E+01  0.16033226862E+02  0.50284352323E+01  0.17143171745E+02  0.51100000000E-03 0. -1.
        -11    1    3    3    0    0 -0.39635432786E+01  0.15717702709E+02  0.13655867933E+02  0.21195249068E+02  0.51100000000E-03 0.  1.
         12    1    3    3    0    0  0.62572255731E+00  0.60006544593E+01  0.49498914736E+01  0.78038969919E+01  0.00000000000E+00 0. -1.
</event>
<event>
 7    1  0.1445801E-008  0.4614232E+02  0.7816164E-02  0.1320468E+00
        -11   -1    0    0    0    0  0.00000000000E+00  0.00000000000E+00  0.45593999997E+02  0.45594000000E+02  0.51100000000E-03 0.  1.
         11   -1    0    0    0    0 -0.00000000000E+00 -0.00000000000E+00 -0.45593999997E+02  0.45594000000E+02  0.51100000000E-03 0. -1.
    9900012    2    1    2    0    0  0.17086775235E+01 -0.33621273756E+02  0.29929982924E+02  0.46142317569E+02  0.99999982473E+01 0.  0.
         12    1    1    2    0    0 -0.17086775235E+01  0.33621273756E+02 -0.29929982924E+02  0.45045682431E+02  0.00000000000E+00 0. -1.
         11    1    3    3    0    0  0.21685829877E+01 -0.29231299857E+02  0.21147491002E+02  0.36143990088E+02  0.51100000000E-03 0. -1.
        -11    1    3    3    0    0 -0.35242580068E+00 -0.45619386770E+01  0.83903912062E+01  0.95568903568E+01  0.51100000000E-03 0.  1.
         12    1    3    3    0    0 -0.10747966348E+00  0.17196477873E+00  0.39210071584E+00  0.44143712412E+00  0.00000000000E+00 0. -1.
</event>
<event>
 7    1  0.1445801E-008  0.4614232E+02  0.7816164E-02  0.1320468E+00
        -11   -1    0    0    0    0  0.00000000000E+00  0.00000000000E+00  0.45593999997E+02  0.45594000000E+02  0.51100000000E-03 0.  1.
         11   -1    0    0    0    0 -0.00000000000E+00 -0.00000000000E+00 -0.45593999997E+02  0.45594000000E+02  0.51100000000E-03 0. -1.
    9900012    2    1    2    0    0 -0.28861770984E+02 -0.24586658905E+02  0.24322989277E+02  0.46142318433E+02  0.10000006130E+02 0.  0.
         12    1    1    2    0    0  0.28861770984E+02  0.24586658905E+02 -0.24322989277E+02  0.45045681567E+02  0.00000000000E+00 0. -1.
         11    1    3    3    0    0 -0.37348918647E+01 -0.45649198715E+01  0.68722671903E+01  0.90562667402E+01  0.51100000000E-03 0. -1.
        -11    1    3    3    0    0 -0.19234724520E+02 -0.11972249460E+02  0.13377351278E+02  0.26310889608E+02  0.51100000000E-03 0.  1.
        -12    1    3    3    0    0 -0.58921545999E+01 -0.80494895730E+01  0.40733708081E+01  0.10775162085E+02  0.00000000000E+00 0.  1.
</event>
<event>
 7    1  0.1445801E-008  0.4614232E+02  0.7816164E-02  0.1320468E+00
        -11   -1    0    0    0    0  0.00000000000E+00  0.00000000000E+00  0.45593999997E+02  0.45594000000E+02  0.51100000000E-03 0.  1.
         11   -1    0    0    0    0 -0.00000000000E+00 -0.00000000000E+00 -0.45593999997E+02  0.45594000000E+02  0.51100000000E-03 0. -1.
    9900012    2    1    2    0    0 -0.11577443789E+02 -0.12755339215E+02  0.41621840129E+02  0.46142318088E+02  0.10000002980E+02 0.  0.
         12    1    1    2    0    0  0.11577443789E+02  0.12755339215E+02 -0.41621840129E+02  0.45045681912E+02  0.00000000000E+00 0. -1.
         11    1    3    3    0    0 -0.53654696285E+01 -0.57958481045E+01  0.11735199246E+02  0.14145494731E+02  0.51100000000E-03 0. -1.
        -11    1    3    3    0    0  0.27217390884E+00  0.66612901023E+00  0.33079579328E+00  0.79198018466E+00  0.51100000000E-03 0.  1.
        -12    1    3    3    0    0 -0.64841480690E+01 -0.76256201205E+01  0.29555845090E+02  0.31204843172E+02  0.00000000000E+00 0.  1.
</event>
<event>
 7    1  0.1445801E-008  0.4614232E+02  0.7816164E-02  0.1320468E+00
        -11   -1    0    0    0    0  0.00000000000E+00  0.00000000000E+00  0.45593999997E+02  0.45594000000E+02  0.51100000000E-03 0.  1.
         11   -1    0    0    0    0 -0.00000000000E+00 -0.00000000000E+00 -0.45593999997E+02  0.45594000000E+02  0.51100000000E-03 0. -1.
    9900012    2    1    2    0    0 -0.60412338983E+01 -0.84267777851E+01  0.43836130441E+02  0.46142318487E+02  0.10000006623E+02 0.  0.
         12    1    1    2    0    0  0.60412338983E+01  0.84267777851E+01 -0.43836130441E+02  0.45045681513E+02  0.00000000000E+00 0. -1.
         11    1    3    3    0    0  0.19889355027E+01 -0.11270832749E+01  0.11939543749E+02  0.12156433948E+02  0.51100000000E-03 0. -1.
        -11    1    3    3    0    0 -0.66752174189E+01 -0.69078257273E+01  0.30591454886E+02  0.32064212078E+02  0.51100000000E-03 0.  1.
         12    1    3    3    0    0 -0.13549519821E+01 -0.39186878287E+00  0.13051318070E+01  0.19216724618E+01  0.00000000000E+00 0. -1.
</event>
<event>
 7    1  0.1445801E-008  0.4614232E+02  0.7816164E-02  0.1320468E+00
        -11   -1    0    0    0    0  0.00000000000E+00  0.00000000000E+00  0.45593999997E+02  0.45594000000E+02  0.51100000000E-03 0.  1.
         11   -1    0    0    0    0 -0.00000000000E+00 -0.00000000000E+00 -0.45593999997E+02  0.45594000000E+02  0.51100000000E-03 0. -1.
    9900012    2    1    2    0    0  0.41080852259E+02  0.17108058630E+02 -0.69850840089E+01  0.46142317732E+02  0.99999997313E+01 0.  0.
         12    1    1    2    0    0 -0.41080852259E+02 -0.17108058630E+02  0.69850840089E+01  0.45045682268E+02  0.00000000000E+00 0. -1.
         11    1    3    3    0    0  0.11632813982E+02  0.72277403340E+01  0.22642529942E+00  0.13697220892E+02  0.51100000000E-03 0. -1.
        -11    1    3    3    0    0  0.43952755538E+01  0.16659458090E+01 -0.34107094837E+01  0.58074746729E+01  0.51100000000E-03 0.  1.
        -12    1    3    3    0    0  0.25052762723E+02  0.82143724870E+01 -0.38007998247E+01  0.26637622167E+02  0.00000000000E+00 0.  1.
</event>
<event>
 7    1  0.1445801E-008  0.4614232E+02  0.7816164E-02  0.1320468E+00
        -11   -1    0    0    0    0  0.00000000000E+00  0.00000000000E+00  0.45593999997E+02  0.45594000000E+02  0.51100000000E-03 0. -1.
         11   -1    0    0    0    0 -0.00000000000E+00 -0.00000000000E+00 -0.45593999997E+02  0.45594000000E+02  0.51100000000E-03 0.  1.
    9900012    2    1    2    0    0  0.22896506306E+02  0.33328449932E+01 -0.38649134843E+02  0.46142317844E+02  0.10000000758E+02 0.  0.
         12    1    1    2    0    0 -0.22896506306E+02 -0.33328449932E+01  0.38649134843E+02  0.45045682156E+02  0.00000000000E+00 0. -1.
         11    1    3    3    0    0  0.11295947993E+02 -0.15680971114E+01 -0.18792483700E+02  0.21982147609E+02  0.51100000000E-03 0. -1.
        -11    1    3    3    0    0  0.11953897435E+01  0.16943238805E+01 -0.82016819659E+00  0.22298803068E+01  0.51100000000E-03 0.  1.
        -12    1    3    3    0    0  0.10405168570E+02  0.32066182241E+01 -0.19036482946E+02  0.21930289929E+02  0.00000000000E+00 0.  1.
</event>
<event>
 7    1  0.1445801E-008  0.4614232E+02  0.7816164E-02  0.1320468E+00
        -11   -1    0    0    0    0  0.00000000000E+00  0.00000000000E+00  0.45593999997E+02  0.45594000000E+02  0.51100000000E-03 0. -1.
         11   -1    0    0    0    0 -0.00000000000E+00 -0.00000000000E+00 -0.45593999997E+02  0.45594000000E+02  0.51100000000E-03 0.  1.
    9900012    2    1    2    0    0 -0.27119773097E+02  0.35454446778E+02  0.60509189065E+01  0.46142317534E+02  0.99999979324E+01 0.  0.
         12    1    1    2    0    0  0.27119773097E+02 -0.35454446778E+02 -0.60509189065E+01  0.45045682466E+02  0.00000000000E+00 0. -1.
         11    1    3    3    0    0 -0.13901992874E+02  0.11181810376E+02  0.40936219633E+01  0.18304535783E+02  0.51100000000E-03 0. -1.
        -11    1    3    3    0    0 -0.10593436400E+02  0.19776689094E+02  0.53680545882E+00  0.22441623976E+02  0.51100000000E-03 0.  1.
         12    1    3    3    0    0 -0.26243438227E+01  0.44959473071E+01  0.14204914843E+01  0.53961577762E+01  0.00000000000E+00 0. -1.
</event>
<event>
 7    1  0.1445801E-008  0.4614232E+02  0.7816164E-02  0.1320468E+00
        -11   -1    0    0    0    0  0.00000000000E+00  0.00000000000E+00  0.45593999997E+02  0.45594000000E+02  0.51100000000E-03 0. -1.
         11   -1    0    0    0    0 -0.00000000000E+00 -0.00000000000E+00 -0.45593999997E+02  0.45594000000E+02  0.51100000000E-03 0.  1.
    9900012    2    1    2    0    0  0.12761473885E+02 -0.16697320586E+02 -0.39842912347E+02  0.46142318800E+02  0.10000009470E+02 0.  0.
         12    1    1    2    0    0 -0.12761473885E+02  0.16697320586E+02  0.39842912347E+02  0.45045681200E+02  0.00000000000E+00 0. -1.
         11    1    3    3    0    0  0.83801452828E+00  0.98211576780E+00 -0.34967225839E+01  0.37274507134E+01  0.51100000000E-03 0. -1.
        -11    1    3    3    0    0  0.61914930823E+01 -0.80924679961E+01 -0.12856333483E+02  0.16404509616E+02  0.51100000000E-03 0.  1.
        -12    1    3    3    0    0  0.57319662742E+01 -0.95869683581E+01 -0.23489856280E+02  0.26010358470E+02  0.00000000000E+00 0.  1.
</event>
<event>
 7    1  0.1445801E-008  0.4614231E+02  0.7816164E-02  0.1320468E+00
        -11   -1    0    0    0    0  0.00000000000E+00  0.00000000000E+00  0.45593999997E+02  0.45594000000E+02  0.51100000000E-03 0. -1.
         11   -1    0    0    0    0 -0.00000000000E+00 -0.00000000000E+00 -0.45593999997E+02  0.45594000000E+02  0.51100000000E-03 0.  1.
    9900012    2    1    2    0    0  0.31940708032E+02  0.25048608149E+02 -0.19531312553E+02  0.46142314637E+02  0.99999715119E+01 0.  0.
         12    1    1    2    0    0 -0.31940708032E+02 -0.25048608149E+02  0.19531312553E+02  0.45045685363E+02  0.00000000000E+00 0. -1.
         11    1    3    3    0    0  0.24261251123E+02  0.16916092849E+02 -0.10670005260E+02  0.31442193241E+02  0.51100000000E-03 0. -1.
        -11    1    3    3    0    0  0.58466580075E+00  0.27370029269E+01 -0.17869710119E+01  0.33205850056E+01  0.51100000000E-03 0.  1.
         12    1    3    3    0    0  0.70947911088E+01  0.53955123726E+01 -0.70743362805E+01  0.11379536390E+02  0.00000000000E+00 0. -1.
</event>
<event>
 7    1  0.1445801E-008  0.4614232E+02  0.7816164E-02  0.1320468E+00
        -11   -1    0    0    0    0  0.00000000000E+00  0.00000000000E+00  0.45593999997E+02  0.45594000000E+02  0.51100000000E-03 0. -1.
         11   -1    0    0    0    0 -0.00000000000E+00 -0.00000000000E+00 -0.45593999997E+02  0.45594000000E+02  0.51100000000E-03 0.  1.
    9900012    2    1    2    0    0 -0.23839273176E+02  0.96815473957E+01 -0.36973911079E+02  0.46142318675E+02  0.10000008338E+02 0.  0.
         12    1    1    2    0    0  0.23839273176E+02 -0.96815473957E+01  0.36973911079E+02  0.45045681325E+02  0.00000000000E+00 0. -1.
         11    1    3    3    0    0 -0.52013113235E+01  0.42196454866E+01 -0.45517778726E+01  0.80980077537E+01  0.51100000000E-03 0. -1.
        -11    1    3    3    0    0 -0.88989438622E+01  0.22757469996E+01 -0.19478436656E+02  0.21535545525E+02  0.51100000000E-03 0.  1.
         12    1    3    3    0    0 -0.97390179904E+01  0.31861549096E+01 -0.12943696550E+02  0.16508765396E+02  0.00000000000E+00 0. -1.
</event>
<event>
 7    1  0.1445801E-008  0.4614232E+02  0.7816164E-02  0.1320468E+00
        -11   -1    0    0    0    0  0.00000000000E+00  0.00000000000E+00  0.45593999997E+02  0.45594000000E+02  0.51100000000E-03 0.  1.
         11   -1    0    0    0    0 -0.00000000000E+00 -0.00000000000E+00 -0.45593999997E+02  0.45594000000E+02  0.51100000000E-03 0. -1.
    9900012    2    1    2    0    0  0.55453540610E+01 -0.28914199440E+02  0.34092984957E+02  0.46142317586E+02  0.99999983994E+01 0.  0.
         12    1    1    2    0    0 -0.55453540610E+01  0.28914199440E+02 -0.34092984957E+02  0.45045682414E+02  0.00000000000E+00 0. -1.
         11    1    3    3    0    0  0.23472699831E+01 -0.12809858425E+02  0.86503351127E+01  0.15634271555E+02  0.51100000000E-03 0. -1.
        -11    1    3    3    0    0 -0.55295595534E+00 -0.64926874834E+01  0.10011085145E+02  0.11944981251E+02  0.51100000000E-03 0.  1.
         12    1    3    3    0    0  0.37510400333E+01 -0.96116535321E+01  0.15431564699E+02  0.18563064779E+02  0.00000000000E+00 0. -1.
</event>
<event>
 7    1  0.1445801E-008  0.4614232E+02  0.7816164E-02  0.1320468E+00
        -11   -1    0    0    0    0  0.00000000000E+00  0.00000000000E+00  0.45593999997E+02  0.45594000000E+02  0.51100000000E-03 0.  1.
         11   -1    0    0    0    0 -0.00000000000E+00 -0.00000000000E+00 -0.45593999997E+02  0.45594000000E+02  0.51100000000E-03 0. -1.
    9900012    2    1    2    0    0 -0.12596589425E+02  0.44322248334E+01  0.43020864520E+02  0.46142318008E+02  0.10000002253E+02 0.  0.
         12    1    1    2    0    0  0.12596589425E+02 -0.44322248334E+01 -0.43020864520E+02  0.45045681992E+02  0.00000000000E+00 0. -1.
         11    1    3    3    0    0 -0.68533215306E+00  0.26470032685E+01  0.27754485820E+01  0.38960777143E+01  0.51100000000E-03 0. -1.
        -11    1    3    3    0    0 -0.50325907496E+01 -0.15191594272E+00  0.23609256932E+02  0.24140154540E+02  0.51100000000E-03 0.  1.
         12    1    3    3    0    0 -0.68786665218E+01  0.19371375076E+01  0.16636159006E+02  0.18106085753E+02  0.00000000000E+00 0. -1.
</event>
<event>
 7    1  0.1445801E-008  0.4614232E+02  0.7816164E-02  0.1320468E+00
        -11   -1    0    0    0    0  0.00000000000E+00  0.00000000000E+00  0.45593999997E+02  0.45594000000E+02  0.51100000000E-03 0.  1.
         11   -1    0    0    0    0 -0.00000000000E+00 -0.00000000000E+00 -0.45593999997E+02  0.45594000000E+02  0.51100000000E-03 0. -1.
    9900012    2    1    2    0    0  0.39128404900E+02  0.19620898266E+02 -0.10634927646E+02  0.46142318689E+02  0.10000008458E+02 0.  0.
         12    1    1    2    0    0 -0.39128404900E+02 -0.19620898266E+02  0.10634927646E+02  0.45045681311E+02  0.00000000000E+00 0. -1.
         11    1    3    3    0    0  0.20343892458E+02  0.11907305686E+02 -0.36243996721E+01  0.23849405910E+02  0.51100000000E-03 0.  1.
        -11    1    3    3    0    0  0.16072031367E+02  0.41490297089E+01 -0.63168436190E+01  0.17760268955E+02  0.51100000000E-03 0. -1.
         12    1    3    3    0    0  0.27124810752E+01  0.35645628708E+01 -0.69368435503E+00  0.45326438231E+01  0.00000000000E+00 0. -1.
</event>
<event>
 7    1  0.1445801E-008  0.4614232E+02  0.7816164E-02  0.1320468E+00
        -11   -1    0    0    0    0  0.00000000000E+00  0.00000000000E+00  0.45593999997E+02  0.45594000000E+02  0.51100000000E-03 0. -1.
         11   -1    0    0    0    0 -0.00000000000E+00 -0.00000000000E+00 -0.45593999997E+02  0.45594000000E+02  0.51100000000E-03 0.  1.
    9900012    2    1    2    0    0 -0.22389286726E+02  0.16989690054E+02 -0.35202035002E+02  0.46142323220E+02  0.10000049781E+02 0.  0.
         12    1    1    2    0    0  0.22389286726E+02 -0.16989690054E+02  0.35202035002E+02  0.45045676780E+02  0.00000000000E+00 0. -1.
         11    1    3    3    0    0 -0.34691590609E+00  0.12579377131E+01 -0.12948099523E+01  0.18382848010E+01  0.51100000000E-03 0. -1.
        -11    1    3    3    0    0 -0.11509314900E+02  0.10637603107E+02 -0.13071779050E+02  0.20408192893E+02  0.51100000000E-03 0.  1.
        -12    1    3    3    0    0 -0.10533055919E+02  0.50941492338E+01 -0.20835446000E+02  0.23895845526E+02  0.00000000000E+00 0.  1.
</event>
<event>
 7    1  0.1445801E-008  0.4614232E+02  0.7816164E-02  0.1320468E+00
        -11   -1    0    0    0    0  0.00000000000E+00  0.00000000000E+00  0.45593999997E+02  0.45594000000E+02  0.51100000000E-03 0.  1.
         11   -1    0    0    0    0 -0.00000000000E+00 -0.00000000000E+00 -0.45593999997E+02  0.45594000000E+02  0.51100000000E-03 0. -1.
    9900012    2    1    2    0    0 -0.34842937518E+00  0.23136604388E+01  0.44984874773E+02  0.46142318897E+02  0.10000010360E+02 0.  0.
         12    1    1    2    0    0  0.34842937518E+00 -0.23136604388E+01 -0.44984874773E+02  0.45045681103E+02  0.00000000000E+00 0. -1.
         11    1    3    3    0    0  0.50431398457E-01 -0.35574724168E+01  0.24566989234E+02  0.24823277657E+02  0.51100000000E-03 0. -1.
        -11    1    3    3    0    0 -0.14098214544E+00  0.46056459718E+01  0.17969974794E+02  0.18551330010E+02  0.51100000000E-03 0.  1.
         12    1    3    3    0    0 -0.25787862820E+00  0.12654868838E+01  0.24479107446E+01  0.27677112301E+01  0.00000000000E+00 0. -1.
</event>
<event>
 7    1  0.1445801E-008  0.4614232E+02  0.7816164E-02  0.1320468E+00
        -11   -1    0    0    0    0  0.00000000000E+00  0.00000000000E+00  0.45593999997E+02  0.45594000000E+02  0.51100000000E-03 0.  1.
         11   -1    0    0    0    0 -0.00000000000E+00 -0.00000000000E+00 -0.45593999997E+02  0.45594000000E+02  0.51100000000E-03 0. -1.
    9900012    2    1    2    0    0  0.36698826098E+02  0.22739578897E+02  0.12853844829E+02  0.46142316386E+02  0.99999874597E+01 0.  0.
         12    1    1    2    0    0 -0.36698826098E+02 -0.22739578897E+02 -0.12853844829E+02  0.45045683614E+02  0.00000000000E+00 0. -1.
         11    1    3    3    0    0  0.32629426407E+01  0.24107037674E+01  0.35837655722E+01  0.54131010769E+01  0.51100000000E-03 0. -1.
        -11    1    3    3    0    0  0.23247992962E+02  0.15668777928E+02  0.92634304870E+01  0.29526105791E+02  0.51100000000E-03 0.  1.
        -12    1    3    3    0    0  0.10187890496E+02  0.46600972013E+01  0.66487695842E-02  0.11203109518E+02  0.00000000000E+00 0.  1.
</event>
<event>
 7    1  0.1445801E-008  0.4614232E+02  0.7816164E-02  0.1320468E+00
        -11   -1    0    0    0    0  0.00000000000E+00  0.00000000000E+00  0.45593999997E+02  0.45594000000E+02  0.51100000000E-03 0.  1.
         11   -1    0    0    0    0 -0.00000000000E+00 -0.00000000000E+00 -0.45593999997E+02  0.45594000000E+02  0.51100000000E-03 0. -1.
    9900012    2    1    2    0    0 -0.45479611325E+00 -0.45043366790E+02 -0.42243775806E-01  0.46142317457E+02  0.99999972256E+01 0.  0.
         12    1    1    2    0    0  0.45479611325E+00  0.45043366790E+02  0.42243775806E-01  0.45045682543E+02  0.00000000000E+00 0. -1.
         11    1    3    3    0    0 -0.59445377054E+00 -0.86225027257E+00 -0.16212145380E+01  0.19300745212E+01  0.51100000000E-03 0. -1.
        -11    1    3    3    0    0 -0.68794409632E-01 -0.33725871161E+02  0.10939963447E+01  0.33743680097E+02  0.51100000000E-03 0.  1.
         12    1    3    3    0    0  0.20845206692E+00 -0.10455245356E+02  0.48497441753E+00  0.10468562838E+02  0.00000000000E+00 0. -1.
</event>
<event>
 7    1  0.1445801E-008  0.4614232E+02  0.7816164E-02  0.1320468E+00
        -11   -1    0    0    0    0  0.00000000000E+00  0.00000000000E+00  0.45593999997E+02  0.45594000000E+02  0.51100000000E-03 0.  1.
         11   -1    0    0    0    0 -0.00000000000E+00 -0.00000000000E+00 -0.45593999997E+02  0.45594000000E+02  0.51100000000E-03 0. -1.
    9900012    2    1    2    0    0  0.10993374850E+02  0.35016857906E+02  0.26116640796E+02  0.46142317025E+02  0.99999932852E+01 0.  0.
         12    1    1    2    0    0 -0.10993374850E+02 -0.35016857906E+02 -0.26116640796E+02  0.45045682975E+02  0.00000000000E+00 0. -1.
         11    1    3    3    0    0  0.35909252132E+01  0.31542135448E+01  0.52048022524E+01  0.70663833550E+01  0.51100000000E-03 0. -1.
        -11    1    3    3    0    0  0.47771852627E+01  0.20877286191E+02  0.11140549343E+02  0.24141135385E+02  0.51100000000E-03 0.  1.
        -12    1    3    3    0    0  0.26252643736E+01  0.10985358171E+02  0.97712892005E+01  0.14934798285E+02  0.00000000000E+00 0.  1.
</event>
<event>
 7    1  0.1445801E-008  0.4614232E+02  0.7816164E-02  0.1320468E+00
        -11   -1    0    0    0    0  0.00000000000E+00  0.00000000000E+00  0.45593999997E+02  0.45594000000E+02  0.51100000000E-03 0. -1.
         11   -1    0    0    0    0 -0.00000000000E+00 -0.00000000000E+00 -0.45593999997E+02  0.45594000000E+02  0.51100000000E-03 0.  1.
    9900012    2    1    2    0    0 -0.19652777254E+01 -0.43612610415E+02  0.11099163850E+02  0.46142317166E+02  0.99999945770E+01 0.  0.
         12    1    1    2    0    0  0.19652777254E+01  0.43612610415E+02 -0.11099163850E+02  0.45045682834E+02  0.00000000000E+00 0. -1.
         11    1    3    3    0    0 -0.32182314638E+01 -0.11990576256E+02  0.13580507482E+01  0.12489004556E+02  0.51100000000E-03 0. -1.
        -11    1    3    3    0    0 -0.11631037491E+01 -0.21534603167E+02  0.86019464555E+01  0.23218213260E+02  0.51100000000E-03 0.  1.
        -12    1    3    3    0    0  0.24160574875E+01 -0.10087430992E+02  0.11391666460E+01  0.10435099350E+02  0.00000000000E+00 0.  1.
</event>
<event>
 7    1  0.1445801E-008  0.4614232E+02  0.7816164E-02  0.1320468E+00
        -11   -1    0    0    0    0  0.00000000000E+00  0.00000000000E+00  0.45593999997E+02  0.45594000000E+02  0.51100000000E-03 0.  1.
         11   -1    0    0    0    0 -0.00000000000E+00 -0.00000000000E+00 -0.45593999997E+02  0.45594000000E+02  0.51100000000E-03 0. -1.
    9900012    2    1    2    0    0  0.25505350347E+01  0.34966959667E+02  0.28282855814E+02  0.46142318405E+02  0.10000005873E+02 0.  0.
         12    1    1    2    0    0 -0.25505350347E+01 -0.34966959667E+02 -0.28282855814E+02  0.45045681595E+02  0.00000000000E+00 0. -1.
         11    1    3    3    0    0  0.44591120060E+01  0.17550882540E+02  0.13967314881E+02  0.22869259784E+02  0.51100000000E-03 0. -1.
        -11    1    3    3    0    0 -0.39608943936E+00  0.15392106405E+02  0.13837720312E+02  0.20701602114E+02  0.51100000000E-03 0.  1.
         12    1    3    3    0    0 -0.15124875319E+01  0.20239707222E+01  0.47782062146E+00  0.25714565065E+01  0.00000000000E+00 0. -1.
</event>
<event>
 7    1  0.1445801E-008  0.4614232E+02  0.7816164E-02  0.1320468E+00
        -11   -1    0    0    0    0  0.00000000000E+00  0.00000000000E+00  0.45593999997E+02  0.45594000000E+02  0.51100000000E-03 0.  1.
         11   -1    0    0    0    0 -0.00000000000E+00 -0.00000000000E+00 -0.45593999997E+02  0.45594000000E+02  0.51100000000E-03 0. -1.
    9900012    2    1    2    0    0  0.13090592847E+01  0.36571789343E+02 -0.26266023644E+02  0.46142318631E+02  0.10000007933E+02 0.  0.
         12    1    1    2    0    0 -0.13090592847E+01 -0.36571789343E+02  0.26266023644E+02  0.45045681369E+02  0.00000000000E+00 0. -1.
         11    1    3    3    0    0  0.40953674733E+00  0.19296892272E+02 -0.12322095919E+02  0.22899166356E+02  0.51100000000E-03 0.  1.
        -11    1    3    3    0    0  0.20578277218E+01  0.10163601746E+01 -0.16379953822E+01  0.28196936129E+01  0.51100000000E-03 0. -1.
         12    1    3    3    0    0 -0.11583051844E+01  0.16258536896E+02 -0.12305932343E+02  0.20423458662E+02  0.00000000000E+00 0. -1.
</event>
<event>
 7    1  0.1445801E-008  0.4614232E+02  0.7816164E-02  0.1320468E+00
        -11   -1    0    0    0    0  0.00000000000E+00  0.00000000000E+00  0.45593999997E+02  0.45594000000E+02  0.51100000000E-03 0.  1.
         11   -1    0    0    0    0 -0.00000000000E+00 -0.00000000000E+00 -0.45593999997E+02  0.45594000000E+02  0.51100000000E-03 0. -1.
    9900012    2    1    2    0    0  0.27003097540E+02 -0.32850719110E+02  0.14858545309E+02  0.46142318836E+02  0.10000009804E+02 0.  0.
         12    1    1    2    0    0 -0.27003097540E+02  0.32850719110E+02 -0.14858545309E+02  0.45045681164E+02  0.00000000000E+00 0. -1.
         11    1    3    3    0    0  0.74283292837E+01 -0.38381478380E+01  0.15198231445E+01  0.84983126222E+01  0.51100000000E-03 0. -1.
        -11    1    3    3    0    0  0.11256120794E+02 -0.19091888008E+02  0.97213256058E+01  0.24201334981E+02  0.51100000000E-03 0.  1.
         12    1    3    3    0    0  0.83186474626E+01 -0.99206832638E+01  0.36173965586E+01  0.13442671233E+02  0.00000000000E+00 0. -1.
</event>
<event>
 7    1  0.1445801E-008  0.4614232E+02  0.7816164E-02  0.1320468E+00
        -11   -1    0    0    0    0  0.00000000000E+00  0.00000000000E+00  0.45593999997E+02  0.45594000000E+02  0.51100000000E-03 0.  1.
         11   -1    0    0    0    0 -0.00000000000E+00 -0.00000000000E+00 -0.45593999997E+02  0.45594000000E+02  0.51100000000E-03 0. -1.
    9900012    2    1    2    0    0  0.10291675825E+02  0.11025881859E+02  0.42445551573E+02  0.46142317517E+02  0.99999977714E+01 0.  0.
         12    1    1    2    0    0 -0.10291675825E+02 -0.11025881859E+02 -0.42445551573E+02  0.45045682483E+02  0.00000000000E+00 0. -1.
         11    1    3    3    0    0 -0.40363978845E+00  0.14998635854E+01  0.37446022121E+00  0.15977285664E+01  0.51100000000E-03 0. -1.
        -11    1    3    3    0    0  0.37965735360E+01  0.53197926643E+01  0.17618148056E+02  0.18791309315E+02  0.51100000000E-03 0.  1.
        -12    1    3    3    0    0  0.68987420773E+01  0.42062256098E+01  0.24452943296E+02  0.25753279635E+02  0.00000000000E+00 0.  1.
</event>
<event>
 7    1  0.1445801E-008  0.4614232E+02  0.7816164E-02  0.1320468E+00
        -11   -1    0    0    0    0  0.00000000000E+00  0.00000000000E+00  0.45593999997E+02  0.45594000000E+02  0.51100000000E-03 0.  1.
         11   -1    0    0    0    0 -0.00000000000E+00 -0.00000000000E+00 -0.45593999997E+02  0.45594000000E+02  0.51100000000E-03 0. -1.
    9900012    2    1    2    0    0  0.11827183254E+02 -0.20259346727E+02  0.38455040605E+02  0.46142317172E+02  0.99999946241E+01 0.  0.
         12    1    1    2    0    0 -0.11827183254E+02  0.20259346727E+02 -0.38455040605E+02  0.45045682828E+02  0.00000000000E+00 0. -1.
         11    1    3    3    0    0  0.19795868443E+01 -0.13165603724E+01  0.31977616815E+00  0.23988231171E+01  0.51100000000E-03 0. -1.
        -11    1    3    3    0    0  0.47919284484E+01 -0.10533028654E+02  0.22035085253E+02  0.24888797746E+02  0.51100000000E-03 0.  1.
         12    1    3    3    0    0  0.50556679609E+01 -0.84097577012E+01  0.16100179184E+02  0.18854696308E+02  0.00000000000E+00 0. -1.
</event>
<event>
 7    1  0.1445801E-008  0.4614232E+02  0.7816164E-02  0.1320468E+00
        -11   -1    0    0    0    0  0.00000000000E+00  0.00000000000E+00  0.45593999997E+02  0.45594000000E+02  0.51100000000E-03 0.  1.
         11   -1    0    0    0    0 -0.00000000000E+00 -0.00000000000E+00 -0.45593999997E+02  0.45594000000E+02  0.51100000000E-03 0. -1.
    9900012    2    1    2    0    0 -0.10727899943E+02 -0.39756904634E+02  0.18259634038E+02  0.46142317205E+02  0.99999949306E+01 0.  0.
         12    1    1    2    0    0  0.10727899943E+02  0.39756904634E+02 -0.18259634038E+02  0.45045682795E+02  0.00000000000E+00 0. -1.
         11    1    3    3    0    0 -0.10221697363E+01 -0.11371891651E+02  0.70195602867E+01  0.13402946600E+02  0.51100000000E-03 0. -1.
        -11    1    3    3    0    0 -0.96356846719E+01 -0.18757756146E+02  0.84265220148E+01  0.22709163530E+02  0.51100000000E-03 0.  1.
        -12    1    3    3    0    0 -0.70045535062E-01 -0.96272568372E+01  0.28135517362E+01  0.10030207075E+02  0.00000000000E+00 0.  1.
</event>
<event>
 7    1  0.1445801E-008  0.4614232E+02  0.7816164E-02  0.1320468E+00
        -11   -1    0    0    0    0  0.00000000000E+00  0.00000000000E+00  0.45593999997E+02  0.45594000000E+02  0.51100000000E-03 0. -1.
         11   -1    0    0    0    0 -0.00000000000E+00 -0.00000000000E+00 -0.45593999997E+02  0.45594000000E+02  0.51100000000E-03 0.  1.
    9900012    2    1    2    0    0 -0.11795727107E+02  0.42972233265E+02 -0.65849420158E+01  0.46142317952E+02  0.10000001745E+02 0.  0.
         12    1    1    2    0    0  0.11795727107E+02 -0.42972233265E+02  0.65849420158E+01  0.45045682048E+02  0.00000000000E+00 0. -1.
         11    1    3    3    0    0  0.14355606935E+01  0.19019443981E+01 -0.22476988579E+00  0.23934804701E+01  0.51100000000E-03 0. -1.
        -11    1    3    3    0    0 -0.10840669933E+02  0.37081096217E+02 -0.57105684386E+01  0.39053020542E+02  0.51100000000E-03 0.  1.
         12    1    3    3    0    0 -0.23906178670E+01  0.39891926498E+01 -0.64960369136E+00  0.46958169406E+01  0.00000000000E+00 0. -1.
</event>
<event>
 7    1  0.1445801E-008  0.4614231E+02  0.7816164E-02  0.1320468E+00
        -11   -1    0    0    0    0  0.00000000000E+00  0.00000000000E+00  0.45593999997E+02  0.45594000000E+02  0.51100000000E-03 0. -1.
         11   -1    0    0    0    0 -0.00000000000E+00 -0.00000000000E+00 -0.45593999997E+02  0.45594000000E+02  0.51100000000E-03 0.  1.
    9900012    2    1    2    0    0 -0.11939055072E+02  0.41208236494E+02 -0.13727858878E+02  0.46142313188E+02  0.99999582970E+01 0.  0.
         12    1    1    2    0    0  0.11939055072E+02 -0.41208236494E+02  0.13727858878E+02  0.45045686812E+02  0.00000000000E+00 0. -1.
         11    1    3    3    0    0  0.88373334218E+00  0.29802072613E+01 -0.30470762270E+01  0.43528489216E+01  0.51100000000E-03 0. -1.
        -11    1    3    3    0    0 -0.10884654173E+02  0.31959124546E+02 -0.79693718267E+01  0.34689655891E+02  0.51100000000E-03 0.  1.
         12    1    3    3    0    0 -0.19381342409E+01  0.62689046870E+01 -0.27114108247E+01  0.70998083756E+01  0.00000000000E+00 0. -1.
</event>
<event>
 7    1  0.1445801E-008  0.4614232E+02  0.7816164E-02  0.1320468E+00
        -11   -1    0    0    0    0  0.00000000000E+00  0.00000000000E+00  0.45593999997E+02  0.45594000000E+02  0.51100000000E-03 0.  1.
         11   -1    0    0    0    0 -0.00000000000E+00 -0.00000000000E+00 -0.45593999997E+02  0.45594000000E+02  0.51100000000E-03 0. -1.
    9900012    2    1    2    0    0  0.21833981296E+02 -0.74662869357E+01  0.38686499787E+02  0.46142318236E+02  0.10000004330E+02 0.  0.
         12    1    1    2    0    0 -0.21833981296E+02  0.74662869357E+01 -0.38686499787E+02  0.45045681764E+02  0.00000000000E+00 0. -1.
         11    1    3    3    0    0  0.94206253560E+01 -0.76534543003E+01  0.14277266099E+02  0.18739366914E+02  0.51100000000E-03 0.  1.
        -11    1    3    3    0    0  0.81382446615E+01  0.56404226133E+00  0.15626344267E+02  0.17627586484E+02  0.51100000000E-03 0. -1.
        -12    1    3    3    0    0  0.42751112784E+01 -0.37687489673E+00  0.87828894206E+01  0.97753648375E+01  0.00000000000E+00 0.  1.
</event>
<event>
 7    1  0.1445801E-008  0.4614232E+02  0.7816164E-02  0.1320468E+00
        -11   -1    0    0    0    0  0.00000000000E+00  0.00000000000E+00  0.45593999997E+02  0.45594000000E+02  0.51100000000E-03 0.  1.
         11   -1    0    0    0    0 -0.00000000000E+00 -0.00000000000E+00 -0.45593999997E+02  0.45594000000E+02  0.51100000000E-03 0. -1.
    9900012    2    1    2    0    0  0.22416171739E+02 -0.19032474472E+01  0.39025714325E+02  0.46142317799E+02  0.10000000350E+02 0.  0.
         12    1    1    2    0    0 -0.22416171739E+02  0.19032474472E+01 -0.39025714325E+02  0.45045682201E+02  0.00000000000E+00 0. -1.
         11    1    3    3    0    0  0.10420396103E+02  0.20728340853E+01  0.13796578150E+02  0.17413410492E+02  0.51100000000E-03 0. -1.
        -11    1    3    3    0    0  0.36540262625E+01  0.12618957248E+01  0.79302199838E+01  0.88222830378E+01  0.51100000000E-03 0.  1.
         12    1    3    3    0    0  0.83417493742E+01 -0.52379772574E+01  0.17298916192E+02  0.19906624269E+02  0.00000000000E+00 0. -1.
</event>
<event>
 7    1  0.1445801E-008  0.4614232E+02  0.7816164E-02  0.1320468E+00
        -11   -1    0    0    0    0  0.00000000000E+00  0.00000000000E+00  0.45593999997E+02  0.45594000000E+02  0.51100000000E-03 0.  1.
         11   -1    0    0    0    0 -0.00000000000E+00 -0.00000000000E+00 -0.45593999997E+02  0.45594000000E+02  0.51100000000E-03 0. -1.
    9900012    2    1    2    0    0 -0.21765543200E+02  0.39216580347E+02 -0.41754602997E+01  0.46142317481E+02  0.99999974455E+01 0.  0.
         12    1    1    2    0    0  0.21765543200E+02 -0.39216580347E+02  0.41754602997E+01  0.45045682519E+02  0.00000000000E+00 0. -1.
         11    1    3    3    0    0 -0.40747137879E+01  0.87735172235E+01 -0.47705099026E+01  0.10785901071E+02  0.51100000000E-03 0. -1.
        -11    1    3    3    0    0 -0.27849174106E+01  0.72600290342E+01 -0.28130560519E+00  0.77809330845E+01  0.51100000000E-03 0.  1.
         12    1    3    3    0    0 -0.14905912001E+02  0.23183034089E+02  0.87635520811E+00  0.27575483325E+02  0.00000000000E+00 0. -1.
</event>
<event>
 7    1  0.1445801E-008  0.4614232E+02  0.7816164E-02  0.1320468E+00
        -11   -1    0    0    0    0  0.00000000000E+00  0.00000000000E+00  0.45593999997E+02  0.45594000000E+02  0.51100000000E-03 0.  1.
         11   -1    0    0    0    0 -0.00000000000E+00 -0.00000000000E+00 -0.45593999997E+02  0.45594000000E+02  0.51100000000E-03 0. -1.
    9900012    2    1    2    0    0 -0.29898688471E+02  0.72106470321E+01  0.32911828313E+02  0.46142318234E+02  0.10000004310E+02 0.  0.
         12    1    1    2    0    0  0.29898688471E+02 -0.72106470321E+01 -0.32911828313E+02  0.45045681766E+02  0.00000000000E+00 0. -1.
         11    1    3    3    0    0 -0.12605087326E+02  0.23878029968E+01  0.97721314089E+01  0.16127131865E+02  0.51100000000E-03 0. -1.
        -11    1    3    3    0    0 -0.14816174567E+02  0.29120376416E+01  0.14951558393E+02  0.21249660954E+02  0.51100000000E-03 0.  1.
        -12    1    3    3    0    0 -0.24774265776E+01  0.19108063938E+01  0.81881385116E+01  0.87655254153E+01  0.00000000000E+00 0.  1.
</event>
<event>
 7    1  0.1445801E-008  0.4614232E+02  0.7816164E-02  0.1320468E+00
        -11   -1    0    0    0    0  0.00000000000E+00  0.00000000000E+00  0.45593999997E+02  0.45594000000E+02  0.51100000000E-03 0. -1.
         11   -1    0    0    0    0 -0.00000000000E+00 -0.00000000000E+00 -0.45593999997E+02  0.45594000000E+02  0.51100000000E-03 0.  1.
    9900012    2    1    2    0    0 -0.42595640711E+02  0.14462608738E+02  0.23575469468E+01  0.46142315560E+02  0.99999799291E+01 0.  0.
         12    1    1    2    0    0  0.42595640711E+02 -0.14462608738E+02 -0.23575469468E+01  0.45045684440E+02  0.00000000000E+00 0. -1.
         11    1    3    3    0    0 -0.29782310143E+02  0.12105962313E+02  0.96586004098E+00  0.32163227556E+02  0.51100000000E-03 0. -1.
        -11    1    3    3    0    0 -0.89947568725E+01  0.10268316206E+01 -0.12646901364E+01  0.91410872315E+01  0.51100000000E-03 0.  1.
         12    1    3    3    0    0 -0.38185736953E+01  0.13298148044E+01  0.26563770422E+01  0.48380007721E+01  0.00000000000E+00 0. -1.
</event>
<event>
 7    1  0.1445801E-008  0.4614232E+02  0.7816164E-02  0.1320468E+00
        -11   -1    0    0    0    0  0.00000000000E+00  0.00000000000E+00  0.45593999997E+02  0.45594000000E+02  0.51100000000E-03 0.  1.
         11   -1    0    0    0    0 -0.00000000000E+00 -0.00000000000E+00 -0.45593999997E+02  0.45594000000E+02  0.51100000000E-03 0. -1.
    9900012    2    1    2    0    0  0.28389308481E+02  0.34754118693E+02  0.39130426084E+01  0.46142317581E+02  0.99999983536E+01 0.  0.
         12    1    1    2    0    0 -0.28389308481E+02 -0.34754118693E+02 -0.39130426084E+01  0.45045682419E+02  0.00000000000E+00 0. -1.
         11    1    3    3    0    0  0.27078611209E+01  0.43005801614E+00  0.19608401024E+00  0.27488017294E+01  0.51100000000E-03 0. -1.
        -11    1    3    3    0    0  0.90795414018E+01  0.12734930176E+02  0.40536977412E+01  0.16157010376E+02  0.51100000000E-03 0.  1.
        -12    1    3    3    0    0  0.16601905958E+02  0.21589130501E+02 -0.33673914305E+00  0.27236505475E+02  0.00000000000E+00 0.  1.
</event>
<event>
 7    1  0.1445801E-008  0.4614232E+02  0.7816164E-02  0.1320468E+00
        -11   -1    0    0    0    0  0.00000000000E+00  0.00000000000E+00  0.45593999997E+02  0.45594000000E+02  0.51100000000E-03 0.  1.
         11   -1    0    0    0    0 -0.00000000000E+00 -0.00000000000E+00 -0.45593999997E+02  0.45594000000E+02  0.51100000000E-03 0. -1.
    9900012    2    1    2    0    0 -0.91583018499E+01  0.16181718017E+02  0.41029147341E+02  0.46142318494E+02  0.10000006688E+02 0.  0.
         12    1    1    2    0    0  0.91583018499E+01 -0.16181718017E+02 -0.41029147341E+02  0.45045681506E+02  0.00000000000E+00 0. -1.
         11    1    3    3    0    0  0.40350360759E+00  0.84540451854E+01  0.16181902635E+02  0.18261644732E+02  0.51100000000E-03 0.  1.
        -11    1    3    3    0    0 -0.78656155354E+01  0.57544352553E+01  0.16788342026E+02  0.19412106045E+02  0.51100000000E-03 0. -1.
        -12    1    3    3    0    0 -0.16961899221E+01  0.19732375765E+01  0.80589026795E+01  0.84685677173E+01  0.00000000000E+00 0.  1.
</event>
<event>
 7    1  0.1445801E-008  0.4614232E+02  0.7816164E-02  0.1320468E+00
        -11   -1    0    0    0    0  0.00000000000E+00  0.00000000000E+00  0.45593999997E+02  0.45594000000E+02  0.51100000000E-03 0.  1.
         11   -1    0    0    0    0 -0.00000000000E+00 -0.00000000000E+00 -0.45593999997E+02  0.45594000000E+02  0.51100000000E-03 0. -1.
    9900012    2    1    2    0    0 -0.33240210300E+02 -0.12514790920E+02  0.27705268533E+02  0.46142317887E+02  0.10000001148E+02 0.  0.
         12    1    1    2    0    0  0.33240210300E+02  0.12514790920E+02 -0.27705268533E+02  0.45045682113E+02  0.00000000000E+00 0. -1.
         11    1    3    3    0    0 -0.11062715718E+02 -0.47585554765E+01  0.60454197033E+01  0.13474963040E+02  0.51100000000E-03 0. -1.
        -11    1    3    3    0    0 -0.19890870946E+02 -0.88230542619E+01  0.18098925049E+02  0.28303076188E+02  0.51100000000E-03 0.  1.
         12    1    3    3    0    0 -0.22866236347E+01  0.10668188180E+01  0.35609237807E+01  0.43642786585E+01  0.00000000000E+00 0. -1.
</event>
<event>
 7    1  0.1445801E-008  0.4614233E+02  0.7816164E-02  0.1320468E+00
        -11   -1    0    0    0    0  0.00000000000E+00  0.00000000000E+00  0.45593999997E+02  0.45594000000E+02  0.51100000000E-03 0. -1.
         11   -1    0    0    0    0 -0.00000000000E+00 -0.00000000000E+00 -0.45593999997E+02  0.45594000000E+02  0.51100000000E-03 0.  1.
    9900012    2    1    2    0    0  0.32105181096E+02  0.48441137210E+01 -0.31223464120E+02  0.46142325373E+02  0.10000069411E+02 0.  0.
         12    1    1    2    0    0 -0.32105181096E+02 -0.48441137210E+01  0.31223464120E+02  0.45045674627E+02  0.00000000000E+00 0. -1.
         11    1    3    3    0    0  0.87758310248E+01 -0.18687972227E+01 -0.11654043307E+02  0.14707968551E+02  0.51100000000E-03 0. -1.
        -11    1    3    3    0    0  0.11041266502E+02  0.37568935486E+01 -0.11839918995E+02  0.16619491483E+02  0.51100000000E-03 0.  1.
         12    1    3    3    0    0  0.12288083569E+02  0.29560173951E+01 -0.77295018188E+01  0.14814865339E+02  0.00000000000E+00 0. -1.
</event>
<event>
 7    1  0.1445801E-008  0.4614232E+02  0.7816164E-02  0.1320468E+00
        -11   -1    0    0    0    0  0.00000000000E+00  0.00000000000E+00  0.45593999997E+02  0.45594000000E+02  0.51100000000E-03 0.  1.
         11   -1    0    0    0    0 -0.00000000000E+00 -0.00000000000E+00 -0.45593999997E+02  0.45594000000E+02  0.51100000000E-03 0. -1.
    9900012    2    1    2    0    0  0.14029858564E+02  0.42800915569E+02  0.59845749132E+00  0.46142318118E+02  0.10000003253E+02 0.  0.
         12    1    1    2    0    0 -0.14029858564E+02 -0.42800915569E+02 -0.59845749132E+00  0.45045681882E+02  0.00000000000E+00 0. -1.
         11    1    3    3    0    0  0.17834848875E+00  0.51718670408E+01 -0.14954398474E+01  0.53866833459E+01  0.51100000000E-03 0. -1.
        -11    1    3    3    0    0  0.12367472200E+02  0.36865260521E+02  0.27044771803E+01  0.38978404264E+02  0.51100000000E-03 0.  1.
        -12    1    3    3    0    0  0.14840378751E+01  0.76378800704E+00 -0.61057984165E+00  0.17772305077E+01  0.00000000000E+00 0.  1.
</event>
<event>
 7    1  0.1445801E-008  0.4614232E+02  0.7816164E-02  0.1320468E+00
        -11   -1    0    0    0    0  0.00000000000E+00  0.00000000000E+00  0.45593999997E+02  0.45594000000E+02  0.51100000000E-03 0. -1.
         11   -1    0    0    0    0 -0.00000000000E+00 -0.00000000000E+00 -0.45593999997E+02  0.45594000000E+02  0.51100000000E-03 0.  1.
    9900012    2    1    2    0    0 -0.74427246431E+01  0.44333348764E+02  0.28763867544E+01  0.46142316927E+02  0.99999923914E+01 0.  0.
         12    1    1    2    0    0  0.74427246431E+01 -0.44333348764E+02 -0.28763867544E+01  0.45045683073E+02  0.00000000000E+00 0. -1.
         11    1    3    3    0    0 -0.86140439373E+00  0.86385773832E+01 -0.32935487598E+01  0.92851763812E+01  0.51100000000E-03 0. -1.
        -11    1    3    3    0    0 -0.35660178403E+01  0.20405395868E+02  0.43599568368E+01  0.21168511701E+02  0.51100000000E-03 0.  1.
         12    1    3    3    0    0 -0.30153024090E+01  0.15289375514E+02  0.18099786774E+01  0.15688628845E+02  0.00000000000E+00 0. -1.
</event>
<event>
 7    1  0.1445801E-008  0.4614232E+02  0.7816164E-02  0.1320468E+00
        -11   -1    0    0    0    0  0.00000000000E+00  0.00000000000E+00  0.45593999997E+02  0.45594000000E+02  0.51100000000E-03 0. -1.
         11   -1    0    0    0    0 -0.00000000000E+00 -0.00000000000E+00 -0.45593999997E+02  0.45594000000E+02  0.51100000000E-03 0.  1.
    9900012    2    1    2    0    0 -0.23402633489E+02 -0.22317115034E+02 -0.31358840037E+02  0.46142315122E+02  0.99999759345E+01 0.  0.
         12    1    1    2    0    0  0.23402633489E+02  0.22317115034E+02  0.31358840037E+02  0.45045684878E+02  0.00000000000E+00 0. -1.
         11    1    3    3    0    0 -0.12780064107E+02 -0.17780686201E+02 -0.18528213732E+02  0.28684099162E+02  0.51100000000E-03 0. -1.
        -11    1    3    3    0    0 -0.38642458290E+01 -0.13683683923E+01 -0.64302211662E+01  0.76257833952E+01  0.51100000000E-03 0.  1.
         12    1    3    3    0    0 -0.67583235532E+01 -0.31680604402E+01 -0.64004051386E+01  0.98324325647E+01  0.00000000000E+00 0. -1.
</event>
<event>
 7    1  0.1445801E-008  0.4614231E+02  0.7816164E-02  0.1320468E+00
        -11   -1    0    0    0    0  0.00000000000E+00  0.00000000000E+00  0.45593999997E+02  0.45594000000E+02  0.51100000000E-03 0.  1.
         11   -1    0    0    0    0 -0.00000000000E+00 -0.00000000000E+00 -0.45593999997E+02  0.45594000000E+02  0.51100000000E-03 0. -1.
    9900012    2    1    2    0    0  0.52234995108E+01 -0.37636043534E+01  0.44583230785E+02  0.46142310616E+02  0.99999348449E+01 0.  0.
         12    1    1    2    0    0 -0.52234995108E+01  0.37636043534E+01 -0.44583230785E+02  0.45045689384E+02  0.00000000000E+00 0. -1.
         11    1    3    3    0    0  0.53384935660E+01 -0.50906003867E+01  0.28978008641E+02  0.29902152279E+02  0.51100000000E-03 0. -1.
        -11    1    3    3    0    0  0.15438287398E-01 -0.15699630025E+01  0.46645595190E+01  0.49217007160E+01  0.51100000000E-03 0.  1.
         12    1    3    3    0    0 -0.13043234265E+00  0.28969590358E+01  0.10940662624E+02  0.11318457621E+02  0.00000000000E+00 0. -1.
</event>
<event>
 7    1  0.1445801E-008  0.4614232E+02  0.7816164E-02  0.1320468E+00
        -11   -1    0    0    0    0  0.00000000000E+00  0.00000000000E+00  0.45593999997E+02  0.45594000000E+02  0.51100000000E-03 0.  1.
         11   -1    0    0    0    0 -0.00000000000E+00 -0.00000000000E+00 -0.45593999997E+02  0.45594000000E+02  0.51100000000E-03 0. -1.
    9900012    2    1    2    0    0  0.20912869644E+02 -0.27750645195E+02  0.28664724663E+02  0.46142324675E+02  0.10000063044E+02 0.  0.
         12    1    1    2    0    0 -0.20912869644E+02  0.27750645195E+02 -0.28664724663E+02  0.45045675325E+02  0.00000000000E+00 0. -1.
         11    1    3    3    0    0  0.14040568924E+02 -0.20946261372E+02  0.15160585301E+02  0.29423235513E+02  0.51100000000E-03 0. -1.
        -11    1    3    3    0    0  0.39883940118E+01 -0.32420956523E+01  0.57562133003E+01  0.77170242213E+01  0.51100000000E-03 0.  1.
         12    1    3    3    0    0  0.28839067087E+01 -0.35622881706E+01  0.77479260626E+01  0.90020649401E+01  0.00000000000E+00 0. -1.
</event>
<event>
 7    1  0.1445801E-008  0.4614232E+02  0.7816164E-02  0.1320468E+00
        -11   -1    0    0    0    0  0.00000000000E+00  0.00000000000E+00  0.45593999997E+02  0.45594000000E+02  0.51100000000E-03 0.  1.
         11   -1    0    0    0    0 -0.00000000000E+00 -0.00000000000E+00 -0.45593999997E+02  0.45594000000E+02  0.51100000000E-03 0. -1.
    9900012    2    1    2    0    0 -0.87333949499E+01 -0.38079935711E+02  0.22422304952E+02  0.46142318182E+02  0.10000003839E+02 0.  0.
         12    1    1    2    0    0  0.87333949499E+01  0.38079935711E+02 -0.22422304952E+02  0.45045681818E+02  0.00000000000E+00 0. -1.
         11    1    3    3    0    0 -0.74467778215E+00 -0.93297834371E+01  0.18152294761E+01  0.95338587306E+01  0.51100000000E-03 0. -1.
        -11    1    3    3    0    0 -0.40640189335E+01 -0.22459495909E+02  0.16104502588E+02  0.27933854196E+02  0.51100000000E-03 0.  1.
         12    1    3    3    0    0 -0.39246982343E+01 -0.62906563650E+01  0.45025728872E+01  0.86746052555E+01  0.00000000000E+00 0. -1.
</event>
<event>
 7    1  0.1445801E-008  0.4614232E+02  0.7816164E-02  0.1320468E+00
        -11   -1    0    0    0    0  0.00000000000E+00  0.00000000000E+00  0.45593999997E+02  0.45594000000E+02  0.51100000000E-03 0. -1.
         11   -1    0    0    0    0 -0.00000000000E+00 -0.00000000000E+00 -0.45593999997E+02  0.45594000000E+02  0.51100000000E-03 0.  1.
    9900012    2    1    2    0    0 -0.34578445258E+02 -0.22036851257E+02 -0.18649981976E+02  0.46142317438E+02  0.99999970492E+01 0.  0.
         12    1    1    2    0    0  0.34578445258E+02  0.22036851257E+02  0.18649981976E+02  0.45045682562E+02  0.00000000000E+00 0. -1.
         11    1    3    3    0    0 -0.39189753405E+01 -0.89501999543E+00 -0.11824988798E+00  0.40216180586E+01  0.51100000000E-03 0.  1.
        -11    1    3    3    0    0 -0.54349834743E+01 -0.31613930076E+01 -0.60438446950E+01  0.87213250182E+01  0.51100000000E-03 0. -1.
        -12    1    3    3    0    0 -0.25224486444E+02 -0.17980438254E+02 -0.12487887393E+02  0.33399374361E+02  0.00000000000E+00 0.  1.
</event>
<event>
 7    1  0.1445801E-008  0.4614232E+02  0.7816164E-02  0.1320468E+00
        -11   -1    0    0    0    0  0.00000000000E+00  0.00000000000E+00  0.45593999997E+02  0.45594000000E+02  0.51100000000E-03 0. -1.
         11   -1    0    0    0    0 -0.00000000000E+00 -0.00000000000E+00 -0.45593999997E+02  0.45594000000E+02  0.51100000000E-03 0.  1.
    9900012    2    1    2    0    0 -0.40808851736E+02  0.13739589725E+02 -0.13227799740E+02  0.46142318833E+02  0.10000009776E+02 0.  0.
         12    1    1    2    0    0  0.40808851736E+02 -0.13739589725E+02  0.13227799740E+02  0.45045681167E+02  0.00000000000E+00 0. -1.
         11    1    3    3    0    0 -0.18518343988E+02  0.52370863953E+01 -0.84088939961E+01  0.21001562715E+02  0.51100000000E-03 0. -1.
        -11    1    3    3    0    0 -0.14988030239E+02  0.72112650805E+01 -0.67625037946E+00  0.16646342222E+02  0.51100000000E-03 0.  1.
        -12    1    3    3    0    0 -0.73024775085E+01  0.12912382495E+01 -0.41426553649E+01  0.84944138969E+01  0.00000000000E+00 0.  1.
</event>
<event>
 7    1  0.1445801E-008  0.4614232E+02  0.7816164E-02  0.1320468E+00
        -11   -1    0    0    0    0  0.00000000000E+00  0.00000000000E+00  0.45593999997E+02  0.45594000000E+02  0.51100000000E-03 0. -1.
         11   -1    0    0    0    0 -0.00000000000E+00 -0.00000000000E+00 -0.45593999997E+02  0.45594000000E+02  0.51100000000E-03 0.  1.
    9900012    2    1    2    0    0 -0.25620768525E+02  0.16618353705E+02 -0.33113745418E+02  0.46142316574E+02  0.99999891764E+01 0.  0.
         12    1    1    2    0    0  0.25620768525E+02 -0.16618353705E+02  0.33113745418E+02  0.45045683426E+02  0.00000000000E+00 0. -1.
         11    1    3    3    0    0 -0.18094500472E+02  0.93870447722E+01 -0.17457667070E+02  0.26838362406E+02  0.51100000000E-03 0. -1.
        -11    1    3    3    0    0 -0.28411510629E+01  0.47696247171E+01 -0.53075028668E+01  0.76805628860E+01  0.51100000000E-03 0.  1.
        -12    1    3    3    0    0 -0.46851169906E+01  0.24616842162E+01 -0.10348575481E+02  0.11623391282E+02  0.00000000000E+00 0.  1.
</event>
<event>
 7    1  0.1445801E-008  0.4614232E+02  0.7816164E-02  0.1320468E+00
        -11   -1    0    0    0    0  0.00000000000E+00  0.00000000000E+00  0.45593999997E+02  0.45594000000E+02  0.51100000000E-03 0.  1.
         11   -1    0    0    0    0 -0.00000000000E+00 -0.00000000000E+00 -0.45593999997E+02  0.45594000000E+02  0.51100000000E-03 0. -1.
    9900012    2    1    2    0    0 -0.27290983594E+02  0.53113426518E+01  0.35441577066E+02  0.46142317285E+02  0.99999956589E+01 0.  0.
         12    1    1    2    0    0  0.27290983594E+02 -0.53113426518E+01 -0.35441577066E+02  0.45045682715E+02  0.00000000000E+00 0. -1.
         11    1    3    3    0    0 -0.26298331808E+02  0.56155495600E+01  0.32150865710E+02  0.41914374848E+02  0.51100000000E-03 0. -1.
        -11    1    3    3    0    0  0.10477219424E+00 -0.25237443440E+00  0.31010236673E+01  0.31130400116E+01  0.51100000000E-03 0.  1.
         12    1    3    3    0    0 -0.10974239805E+01 -0.51832473774E-01  0.18968768884E+00  0.11149024252E+01  0.00000000000E+00 0. -1.
</event>
<event>
 7    1  0.1445801E-008  0.4614232E+02  0.7816164E-02  0.1320468E+00
        -11   -1    0    0    0    0  0.00000000000E+00  0.00000000000E+00  0.45593999997E+02  0.45594000000E+02  0.51100000000E-03 0. -1.
         11   -1    0    0    0    0 -0.00000000000E+00 -0.00000000000E+00 -0.45593999997E+02  0.45594000000E+02  0.51100000000E-03 0.  1.
    9900012    2    1    2    0    0 -0.40702276125E+01  0.18499875284E+02 -0.40869319045E+02  0.46142318991E+02  0.10000011217E+02 0.  0.
         12    1    1    2    0    0  0.40702276125E+01 -0.18499875284E+02  0.40869319045E+02  0.45045681009E+02  0.00000000000E+00 0. -1.
         11    1    3    3    0    0 -0.53906854024E+01  0.59031909888E+01 -0.19376603198E+02  0.20960913737E+02  0.51100000000E-03 0. -1.
        -11    1    3    3    0    0 -0.69394960434E+00  0.66665945053E+01 -0.13035085299E+02  0.14657370070E+02  0.51100000000E-03 0.  1.
         12    1    3    3    0    0  0.20144073942E+01  0.59300897898E+01 -0.84576305481E+01  0.10524035184E+02  0.00000000000E+00 0. -1.
</event>
<event>
 7    1  0.1445801E-008  0.4614232E+02  0.7816164E-02  0.1320468E+00
        -11   -1    0    0    0    0  0.00000000000E+00  0.00000000000E+00  0.45593999997E+02  0.45594000000E+02  0.51100000000E-03 0.  1.
         11   -1    0    0    0    0 -0.00000000000E+00 -0.00000000000E+00 -0.45593999997E+02  0.45594000000E+02  0.51100000000E-03 0. -1.
    9900012    2    1    2    0    0 -0.33047560034E+02  0.54018521819E+01  0.30129591640E+02  0.46142317370E+02  0.99999964367E+01 0.  0.
         12    1    1    2    0    0  0.33047560034E+02 -0.54018521819E+01 -0.30129591640E+02  0.45045682630E+02  0.00000000000E+00 0. -1.
         11    1    3    3    0    0 -0.95138207569E+01  0.32943265898E+01  0.47895854282E+01  0.11149237728E+02  0.51100000000E-03 0. -1.
        -11    1    3    3    0    0 -0.98980886113E+01  0.11958676019E+01  0.14259712346E+02  0.17399472806E+02  0.51100000000E-03 0.  1.
         12    1    3    3    0    0 -0.13635650666E+02  0.91165799018E+00  0.11080293866E+02  0.17593606836E+02  0.00000000000E+00 0. -1.
</event>
<event>
 7    1  0.1445801E-008  0.4614232E+02  0.7816164E-02  0.1320468E+00
        -11   -1    0    0    0    0  0.00000000000E+00  0.00000000000E+00  0.45593999997E+02  0.45594000000E+02  0.51100000000E-03 0.  1.
         11   -1    0    0    0    0 -0.00000000000E+00 -0.00000000000E+00 -0.45593999997E+02  0.45594000000E+02  0.51100000000E-03 0. -1.
    9900012    2    1    2    0    0  0.12185278835E+02 -0.22000225618E+02  0.37371413218E+02  0.46142317927E+02  0.10000001510E+02 0.  0.
         12    1    1    2    0    0 -0.12185278835E+02  0.22000225618E+02 -0.37371413218E+02  0.45045682073E+02  0.00000000000E+00 0. -1.
         11    1    3    3    0    0  0.13906154737E+01 -0.83107081423E+01  0.14189691285E+02  0.16503000341E+02  0.51100000000E-03 0. -1.
        -11    1    3    3    0    0  0.10780955416E+02 -0.13148326436E+02  0.19306294562E+02  0.25726260858E+02  0.51100000000E-03 0.  1.
         12    1    3    3    0    0  0.13707945727E-01 -0.54119103971E+00  0.38754273714E+01  0.39130567285E+01  0.00000000000E+00 0. -1.
</event>
<event>
 7    1  0.2116593E-008  0.4614232E+02  0.7816164E-02  0.1320468E+00
        -11   -1    0    0    0    0  0.00000000000E+00  0.00000000000E+00  0.45593999997E+02  0.45594000000E+02  0.51100000000E-03 0. -1.
         11   -1    0    0    0    0 -0.00000000000E+00 -0.00000000000E+00 -0.45593999997E+02  0.45594000000E+02  0.51100000000E-03 0.  1.
    9900012    2    1    2    0    0 -0.10525191181E+02  0.43629527483E+02  0.38467569365E+01  0.46142324773E+02  0.10000063936E+02 0.  0.
         12    1    1    2    0    0  0.10525191181E+02 -0.43629527483E+02 -0.38467569365E+01  0.45045675227E+02  0.00000000000E+00 0. -1.
         11    1    3    3    0    0  0.20948661075E+00  0.62587258055E+00  0.16290499391E+01  0.17576703594E+01  0.51100000000E-03 0. -1.
        -11    1    3    3    0    0 -0.74996898307E+01  0.29138277794E+02  0.12446029530E+01  0.30113678239E+02  0.51100000000E-03 0.  1.
         12    1    3    3    0    0 -0.32349879609E+01  0.13865377109E+02  0.97310404440E+00  0.14270976174E+02  0.00000000000E+00 0. -1.
</event>
<event>
 7    1  0.1445801E-008  0.4614232E+02  0.7816164E-02  0.1320468E+00
        -11   -1    0    0    0    0  0.00000000000E+00  0.00000000000E+00  0.45593999997E+02  0.45594000000E+02  0.51100000000E-03 0. -1.
         11   -1    0    0    0    0 -0.00000000000E+00 -0.00000000000E+00 -0.45593999997E+02  0.45594000000E+02  0.51100000000E-03 0.  1.
    9900012    2    1    2    0    0  0.13877153834E+02 -0.17128310434E+02 -0.39283064423E+02  0.46142316884E+02  0.99999920055E+01 0.  0.
         12    1    1    2    0    0 -0.13877153834E+02  0.17128310434E+02  0.39283064423E+02  0.45045683116E+02  0.00000000000E+00 0. -1.
         11    1    3    3    0    0  0.25319051106E+01 -0.44705204828E+01 -0.17281201043E+02  0.18028754994E+02  0.51100000000E-03 0. -1.
        -11    1    3    3    0    0  0.80549365171E+01 -0.11160137558E+02 -0.15981803864E+02  0.21091437306E+02  0.51100000000E-03 0.  1.
         12    1    3    3    0    0  0.32903122068E+01 -0.14976523932E+01 -0.60200595157E+01  0.70221245846E+01  0.00000000000E+00 0. -1.
</event>
<event>
 7    1  0.1445801E-008  0.4614232E+02  0.7816164E-02  0.1320468E+00
        -11   -1    0    0    0    0  0.00000000000E+00  0.00000000000E+00  0.45593999997E+02  0.45594000000E+02  0.51100000000E-03 0.  1.
         11   -1    0    0    0    0 -0.00000000000E+00 -0.00000000000E+00 -0.45593999997E+02  0.45594000000E+02  0.51100000000E-03 0. -1.
    9900012    2    1    2    0    0  0.14451478840E+01  0.18524371367E+02  0.41035017252E+02  0.46142318433E+02  0.10000006123E+02 0.  0.
         12    1    1    2    0    0 -0.14451478840E+01 -0.18524371367E+02 -0.41035017252E+02  0.45045681567E+02  0.00000000000E+00 0. -1.
         11    1    3    3    0    0 -0.70092759864E+00  0.11520488501E+02  0.18867178218E+02  0.22117490115E+02  0.51100000000E-03 0. -1.
        -11    1    3    3    0    0  0.97292246920E+00 -0.42867747142E+00  0.71368752972E+01  0.72156310725E+01  0.51100000000E-03 0.  1.
        -12    1    3    3    0    0  0.11731530134E+01  0.74325603378E+01  0.15030963737E+02  0.16809197245E+02  0.00000000000E+00 0.  1.
</event>
<event>
 7    1  0.1445801E-008  0.4614232E+02  0.7816164E-02  0.1320468E+00
        -11   -1    0    0    0    0  0.00000000000E+00  0.00000000000E+00  0.45593999997E+02  0.45594000000E+02  0.51100000000E-03 0.  1.
         11   -1    0    0    0    0 -0.00000000000E+00 -0.00000000000E+00 -0.45593999997E+02  0.45594000000E+02  0.51100000000E-03 0. -1.
    9900012    2    1    2    0    0  0.37573473396E+02 -0.20305760588E+02  0.14318650656E+02  0.46142316824E+02  0.99999914575E+01 0.  0.
         12    1    1    2    0    0 -0.37573473396E+02  0.20305760588E+02 -0.14318650656E+02  0.45045683176E+02  0.00000000000E+00 0. -1.
         11    1    3    3    0    0  0.13219337220E+02 -0.26129542502E+01  0.52080896954E+01  0.14446543012E+02  0.51100000000E-03 0. -1.
        -11    1    3    3    0    0  0.18821494000E+02 -0.11755714958E+02  0.74829789257E+01  0.23418805359E+02  0.51100000000E-03 0.  1.
         12    1    3    3    0    0  0.55326421767E+01 -0.59370913799E+01  0.16275820354E+01  0.82769684541E+01  0.00000000000E+00 0. -1.
</event>
<event>
 7    1  0.1445801E-008  0.4614232E+02  0.7816164E-02  0.1320468E+00
        -11   -1    0    0    0    0  0.00000000000E+00  0.00000000000E+00  0.45593999997E+02  0.45594000000E+02  0.51100000000E-03 0. -1.
         11   -1    0    0    0    0 -0.00000000000E+00 -0.00000000000E+00 -0.45593999997E+02  0.45594000000E+02  0.51100000000E-03 0.  1.
    9900012    2    1    2    0    0 -0.37433467594E+02  0.59337035929E+01 -0.24344201828E+02  0.46142317664E+02  0.99999991162E+01 0.  0.
         12    1    1    2    0    0  0.37433467594E+02 -0.59337035929E+01  0.24344201828E+02  0.45045682336E+02  0.00000000000E+00 0. -1.
         11    1    3    3    0    0 -0.30343180498E+01  0.24784140974E+01 -0.15855873699E+00  0.39210666405E+01  0.51100000000E-03 0. -1.
        -11    1    3    3    0    0 -0.27501523084E+02  0.22958032186E+01 -0.18772028350E+02  0.33376541657E+02  0.51100000000E-03 0.  1.
         12    1    3    3    0    0 -0.68976264609E+01  0.11594862769E+01 -0.54136147408E+01  0.88447093667E+01  0.00000000000E+00 0. -1.
</event>
<event>
 7    1  0.1445801E-008  0.4614232E+02  0.7816164E-02  0.1320468E+00
        -11   -1    0    0    0    0  0.00000000000E+00  0.00000000000E+00  0.45593999997E+02  0.45594000000E+02  0.51100000000E-03 0.  1.
         11   -1    0    0    0    0 -0.00000000000E+00 -0.00000000000E+00 -0.45593999997E+02  0.45594000000E+02  0.51100000000E-03 0. -1.
    9900012    2    1    2    0    0 -0.18194661479E+02  0.28039701137E+02  0.30196737020E+02  0.46142317933E+02  0.10000001568E+02 0.  0.
         12    1    1    2    0    0  0.18194661479E+02 -0.28039701137E+02 -0.30196737020E+02  0.45045682067E+02  0.00000000000E+00 0. -1.
         11    1    3    3    0    0 -0.43325534423E+00 -0.19350494055E+00 -0.19617720722E+00  0.51345896922E+00  0.51100000000E-03 0. -1.
        -11    1    3    3    0    0 -0.13508090884E+02  0.24983173946E+02  0.27549249530E+02  0.39567520135E+02  0.51100000000E-03 0.  1.
        -12    1    3    3    0    0 -0.42533152507E+01  0.32500321318E+01  0.28436646977E+01  0.60613388284E+01  0.00000000000E+00 0.  1.
</event>
<event>
 7    1  0.1445801E-008  0.4614232E+02  0.7816164E-02  0.1320468E+00
        -11   -1    0    0    0    0  0.00000000000E+00  0.00000000000E+00  0.45593999997E+02  0.45594000000E+02  0.51100000000E-03 0.  1.
         11   -1    0    0    0    0 -0.00000000000E+00 -0.00000000000E+00 -0.45593999997E+02  0.45594000000E+02  0.51100000000E-03 0. -1.
    9900012    2    1    2    0    0  0.36413663344E+02  0.21542375206E+02 -0.15462364923E+02  0.46142317225E+02  0.99999951142E+01 0.  0.
         12    1    1    2    0    0 -0.36413663344E+02 -0.21542375206E+02  0.15462364923E+02  0.45045682775E+02  0.00000000000E+00 0. -1.
         11    1    3    3    0    0  0.35274549428E+01 -0.37484988536E+00 -0.13999966003E+01  0.38135864421E+01  0.51100000000E-03 0. -1.
        -11    1    3    3    0    0  0.20293567413E+02  0.16570924915E+02 -0.82868931677E+01  0.27479028905E+02  0.51100000000E-03 0.  1.
        -12    1    3    3    0    0  0.12592640987E+02  0.53463001762E+01 -0.57754751547E+01  0.14849701878E+02  0.00000000000E+00 0.  1.
</event>
<event>
 7    1  0.1445801E-008  0.4614232E+02  0.7816164E-02  0.1320468E+00
        -11   -1    0    0    0    0  0.00000000000E+00  0.00000000000E+00  0.45593999997E+02  0.45594000000E+02  0.51100000000E-03 0.  1.
         11   -1    0    0    0    0 -0.00000000000E+00 -0.00000000000E+00 -0.45593999997E+02  0.45594000000E+02  0.51100000000E-03 0. -1.
    9900012    2    1    2    0    0  0.61366936609E+01  0.44580434738E+02 -0.20097672620E+01  0.46142319464E+02  0.10000015529E+02 0.  0.
         12    1    1    2    0    0 -0.61366936609E+01 -0.44580434738E+02  0.20097672620E+01  0.45045680536E+02  0.00000000000E+00 0. -1.
         11    1    3    3    0    0  0.44657877109E+01  0.11449967020E+02 -0.20409017291E+01  0.12458341975E+02  0.51100000000E-03 0. -1.
        -11    1    3    3    0    0  0.10467613248E+01  0.31258961184E+02 -0.13009499452E+01  0.31303527511E+02  0.51100000000E-03 0.  1.
        -12    1    3    3    0    0  0.62414462518E+00  0.18715065333E+01  0.13320844123E+01  0.23804499782E+01  0.00000000000E+00 0.  1.
</event>
<event>
 7    1  0.1564356E-008  0.4614232E+02  0.7816164E-02  0.1320468E+00
        -11   -1    0    0    0    0  0.00000000000E+00  0.00000000000E+00  0.45593999997E+02  0.45594000000E+02  0.51100000000E-03 0.  1.
         11   -1    0    0    0    0 -0.00000000000E+00 -0.00000000000E+00 -0.45593999997E+02  0.45594000000E+02  0.51100000000E-03 0. -1.
    9900012    2    1    2    0    0  0.41254905342E+02  0.51370470674E+01  0.17342351857E+02  0.46142316131E+02  0.99999851328E+01 0.  0.
         12    1    1    2    0    0 -0.41254905342E+02 -0.51370470674E+01 -0.17342351857E+02  0.45045683869E+02  0.00000000000E+00 0. -1.
         11    1    3    3    0    0  0.96134676872E+01  0.17989527448E+01  0.37454895496E+00  0.97875062775E+01  0.51100000000E-03 0. -1.
        -11    1    3    3    0    0  0.23896528951E+02  0.13969702103E+01  0.10777003053E+02  0.26251465040E+02  0.51100000000E-03 0.  1.
         12    1    3    3    0    0  0.77449087033E+01  0.19411241122E+01  0.61907998497E+01  0.10103344814E+02  0.00000000000E+00 0. -1.
</event>
<event>
 7    1  0.1445801E-008  0.4614232E+02  0.7816164E-02  0.1320468E+00
        -11   -1    0    0    0    0  0.00000000000E+00  0.00000000000E+00  0.45593999997E+02  0.45594000000E+02  0.51100000000E-03 0. -1.
         11   -1    0    0    0    0 -0.00000000000E+00 -0.00000000000E+00 -0.45593999997E+02  0.45594000000E+02  0.51100000000E-03 0.  1.
    9900012    2    1    2    0    0 -0.13507433579E+02  0.25743687045E+02 -0.34408214893E+02  0.46142318335E+02  0.10000005229E+02 0.  0.
         12    1    1    2    0    0  0.13507433579E+02 -0.25743687045E+02  0.34408214893E+02  0.45045681665E+02  0.00000000000E+00 0. -1.
         11    1    3    3    0    0 -0.69020553494E+01  0.86808402452E+01 -0.17763274659E+02  0.20941090761E+02  0.51100000000E-03 0. -1.
        -11    1    3    3    0    0 -0.49052947033E+00  0.67595159253E+01 -0.76431735837E+01  0.10215173880E+02  0.51100000000E-03 0.  1.
        -12    1    3    3    0    0 -0.61148487592E+01  0.10303330875E+02 -0.90017666504E+01  0.14986053693E+02  0.00000000000E+00 0.  1.
</event>
<event>
 7    1  0.1445801E-008  0.4614232E+02  0.7816164E-02  0.1320468E+00
        -11   -1    0    0    0    0  0.00000000000E+00  0.00000000000E+00  0.45593999997E+02  0.45594000000E+02  0.51100000000E-03 0. -1.
         11   -1    0    0    0    0 -0.00000000000E+00 -0.00000000000E+00 -0.45593999997E+02  0.45594000000E+02  0.51100000000E-03 0.  1.
    9900012    2    1    2    0    0  0.10404979311E+02  0.31312776599E+02 -0.30665289655E+02  0.46142316939E+02  0.99999925041E+01 0.  0.
         12    1    1    2    0    0 -0.10404979311E+02 -0.31312776599E+02  0.30665289655E+02  0.45045683061E+02  0.00000000000E+00 0. -1.
         11    1    3    3    0    0  0.75745416366E+01  0.13561030473E+02 -0.10704913706E+02  0.18864527723E+02  0.51100000000E-03 0. -1.
        -11    1    3    3    0    0  0.22502559093E+01  0.17481015990E+02 -0.19972564708E+02  0.26637434429E+02  0.51100000000E-03 0.  1.
         12    1    3    3    0    0  0.58018176499E+00  0.27073013650E+00  0.12188759461E-01  0.64035478689E+00  0.00000000000E+00 0. -1.
</event>
<event>
 7    1  0.1445801E-008  0.4614232E+02  0.7816164E-02  0.1320468E+00
        -11   -1    0    0    0    0  0.00000000000E+00  0.00000000000E+00  0.45593999997E+02  0.45594000000E+02  0.51100000000E-03 0. -1.
         11   -1    0    0    0    0 -0.00000000000E+00 -0.00000000000E+00 -0.45593999997E+02  0.45594000000E+02  0.51100000000E-03 0.  1.
    9900012    2    1    2    0    0 -0.32997168494E+02  0.12061705068E+02 -0.28192475677E+02  0.46142317160E+02  0.99999945154E+01 0.  0.
         12    1    1    2    0    0  0.32997168494E+02 -0.12061705068E+02  0.28192475677E+02  0.45045682840E+02  0.00000000000E+00 0. -1.
         11    1    3    3    0    0 -0.58661201693E+01  0.11099450088E+01 -0.85019838873E+01  0.10388795601E+02  0.51100000000E-03 0. -1.
        -11    1    3    3    0    0 -0.15784012369E+02  0.57377706430E+01 -0.78264216786E+01  0.18528624746E+02  0.51100000000E-03 0.  1.
        -12    1    3    3    0    0 -0.11347035956E+02  0.52139894160E+01 -0.11864070111E+02  0.17224896813E+02  0.00000000000E+00 0.  1.
</event>
<event>
 7    1  0.1445801E-008  0.4614232E+02  0.7816164E-02  0.1320468E+00
        -11   -1    0    0    0    0  0.00000000000E+00  0.00000000000E+00  0.45593999997E+02  0.45594000000E+02  0.51100000000E-03 0.  1.
         11   -1    0    0    0    0 -0.00000000000E+00 -0.00000000000E+00 -0.45593999997E+02  0.45594000000E+02  0.51100000000E-03 0. -1.
    9900012    2    1    2    0    0  0.40270300713E+02 -0.19269187123E+02  0.60095563051E+01  0.46142318088E+02  0.10000002981E+02 0.  0.
         12    1    1    2    0    0 -0.40270300713E+02  0.19269187123E+02 -0.60095563051E+01  0.45045681912E+02  0.00000000000E+00 0. -1.
         11    1    3    3    0    0  0.10526372503E+02 -0.38192794211E+01  0.13760891909E+00  0.11198676254E+02  0.51100000000E-03 0.  1.
        -11    1    3    3    0    0  0.11805955800E+02 -0.35823926776E+01 -0.96397338002E+00  0.12375111094E+02  0.51100000000E-03 0. -1.
        -12    1    3    3    0    0  0.17937972411E+02 -0.11867515024E+02  0.68359207660E+01  0.22568530740E+02  0.00000000000E+00 0.  1.
</event>
<event>
 7    1  0.1445801E-008  0.4614232E+02  0.7816164E-02  0.1320468E+00
        -11   -1    0    0    0    0  0.00000000000E+00  0.00000000000E+00  0.45593999997E+02  0.45594000000E+02  0.51100000000E-03 0.  1.
         11   -1    0    0    0    0 -0.00000000000E+00 -0.00000000000E+00 -0.45593999997E+02  0.45594000000E+02  0.51100000000E-03 0. -1.
    9900012    2    1    2    0    0  0.41421047742E+02  0.14319679139E+02  0.10409470624E+02  0.46142317794E+02  0.10000000301E+02 0.  0.
         12    1    1    2    0    0 -0.41421047742E+02 -0.14319679139E+02 -0.10409470624E+02  0.45045682206E+02  0.00000000000E+00 0. -1.
         11    1    3    3    0    0  0.11043037528E+02  0.54796039562E+01  0.15633661197E+01  0.12426538184E+02  0.51100000000E-03 0. -1.
        -11    1    3    3    0    0  0.29855739660E+02  0.97924765622E+01  0.87950762717E+01  0.32628379591E+02  0.51100000000E-03 0.  1.
         12    1    3    3    0    0  0.52227055488E+00 -0.95240137978E+00  0.51028232909E-01  0.10874000190E+01  0.00000000000E+00 0. -1.
</event>
<event>
 7    1  0.1445801E-008  0.4614232E+02  0.7816164E-02  0.1320468E+00
        -11   -1    0    0    0    0  0.00000000000E+00  0.00000000000E+00  0.45593999997E+02  0.45594000000E+02  0.51100000000E-03 0. -1.
         11   -1    0    0    0    0 -0.00000000000E+00 -0.00000000000E+00 -0.45593999997E+02  0.45594000000E+02  0.51100000000E-03 0.  1.
    9900012    2    1    2    0    0  0.13226173208E+02 -0.41593771467E+02 -0.11141815083E+02  0.46142317344E+02  0.99999962009E+01 0.  0.
         12    1    1    2    0    0 -0.13226173208E+02  0.41593771467E+02  0.11141815083E+02  0.45045682656E+02  0.00000000000E+00 0. -1.
         11    1    3    3    0    0  0.54229988023E+01 -0.29333949418E+02 -0.50999142150E+01  0.30263817171E+02  0.51100000000E-03 0. -1.
        -11    1    3    3    0    0  0.10896372029E+01 -0.67646162440E+00 -0.72366968674E+00  0.14726193126E+01  0.51100000000E-03 0.  1.
         12    1    3    3    0    0  0.67135372027E+01 -0.11583360424E+02 -0.53182311815E+01  0.14405880861E+02  0.00000000000E+00 0. -1.
</event>
<event>
 7    1  0.1445801E-008  0.4614232E+02  0.7816164E-02  0.1320468E+00
        -11   -1    0    0    0    0  0.00000000000E+00  0.00000000000E+00  0.45593999997E+02  0.45594000000E+02  0.51100000000E-03 0.  1.
         11   -1    0    0    0    0 -0.00000000000E+00 -0.00000000000E+00 -0.45593999997E+02  0.45594000000E+02  0.51100000000E-03 0. -1.
    9900012    2    1    2    0    0  0.15807542243E+01  0.19694136032E+02  0.40481547359E+02  0.46142318137E+02  0.10000003425E+02 0.  0.
         12    1    1    2    0    0 -0.15807542243E+01 -0.19694136032E+02 -0.40481547359E+02  0.45045681863E+02  0.00000000000E+00 0. -1.
         11    1    3    3    0    0  0.21493378015E+01  0.19623686544E+01  0.19832240359E+01  0.35218917585E+01  0.51100000000E-03 0. -1.
        -11    1    3    3    0    0 -0.24615290794E+00  0.14395953752E+02  0.26452470700E+02  0.30117059652E+02  0.51100000000E-03 0.  1.
         12    1    3    3    0    0 -0.32243066935E+00  0.33358136259E+01  0.12045852623E+02  0.12503366726E+02  0.00000000000E+00 0. -1.
</event>
<event>
 7    1  0.1445801E-008  0.4614232E+02  0.7816164E-02  0.1320468E+00
        -11   -1    0    0    0    0  0.00000000000E+00  0.00000000000E+00  0.45593999997E+02  0.45594000000E+02  0.51100000000E-03 0.  1.
         11   -1    0    0    0    0 -0.00000000000E+00 -0.00000000000E+00 -0.45593999997E+02  0.45594000000E+02  0.51100000000E-03 0. -1.
    9900012    2    1    2    0    0  0.62905153113E+01 -0.77031615521E+01  0.43934089369E+02  0.46142317749E+02  0.99999998910E+01 0.  0.
         12    1    1    2    0    0 -0.62905153113E+01  0.77031615521E+01 -0.43934089369E+02  0.45045682251E+02  0.00000000000E+00 0. -1.
         11    1    3    3    0    0  0.30846016203E+00 -0.35383357268E+01  0.20860923958E+02  0.21161122750E+02  0.51100000000E-03 0. -1.
        -11    1    3    3    0    0 -0.21152320779E+00  0.12652204194E+01  0.22813870054E+01  0.26172985513E+01  0.51100000000E-03 0.  1.
        -12    1    3    3    0    0  0.61935783570E+01 -0.54300462447E+01  0.20791778406E+02  0.22363896448E+02  0.00000000000E+00 0.  1.
</event>
<event>
 7    1  0.1445801E-008  0.4614232E+02  0.7816164E-02  0.1320468E+00
        -11   -1    0    0    0    0  0.00000000000E+00  0.00000000000E+00  0.45593999997E+02  0.45594000000E+02  0.51100000000E-03 0.  1.
         11   -1    0    0    0    0 -0.00000000000E+00 -0.00000000000E+00 -0.45593999997E+02  0.45594000000E+02  0.51100000000E-03 0. -1.
    9900012    2    1    2    0    0 -0.36237616288E+02 -0.17863303884E+02  0.19921119678E+02  0.46142317975E+02  0.10000001950E+02 0.  0.
         12    1    1    2    0    0  0.36237616288E+02  0.17863303884E+02 -0.19921119678E+02  0.45045682025E+02  0.00000000000E+00 0. -1.
         11    1    3    3    0    0 -0.36218135769E+00 -0.23776695975E+00 -0.80762680170E-01  0.44071684179E+00  0.51100000000E-03 0. -1.
        -11    1    3    3    0    0 -0.25820965532E+02 -0.16909649490E+02  0.16707461456E+02  0.35096976728E+02  0.51100000000E-03 0.  1.
        -12    1    3    3    0    0 -0.10054469398E+02 -0.71588743449E+00  0.32944209018E+01  0.10604624405E+02  0.00000000000E+00 0.  1.
</event>
<event>
 7    1  0.1445801E-008  0.4614232E+02  0.7816164E-02  0.1320468E+00
        -11   -1    0    0    0    0  0.00000000000E+00  0.00000000000E+00  0.45593999997E+02  0.45594000000E+02  0.51100000000E-03 0.  1.
         11   -1    0    0    0    0 -0.00000000000E+00 -0.00000000000E+00 -0.45593999997E+02  0.45594000000E+02  0.51100000000E-03 0. -1.
    9900012    2    1    2    0    0 -0.41136434492E+02 -0.15496431185E-01  0.18355026624E+02  0.46142317796E+02  0.10000000322E+02 0.  0.
         12    1    1    2    0    0  0.41136434492E+02  0.15496431185E-01 -0.18355026624E+02  0.45045682204E+02  0.00000000000E+00 0. -1.
         11    1    3    3    0    0 -0.21095971339E+02 -0.52376127712E-01  0.61810753376E+01  0.21982912514E+02  0.51100000000E-03 0.  1.
        -11    1    3    3    0    0 -0.52723622762E+01  0.19919400613E+01  0.53606445510E+01  0.77783121204E+01  0.51100000000E-03 0. -1.
         12    1    3    3    0    0 -0.14768100876E+02 -0.19550603648E+01  0.68133067352E+01  0.16381093162E+02  0.00000000000E+00 0. -1.
</event>
<event>
 7    1  0.1445801E-008  0.4614232E+02  0.7816164E-02  0.1320468E+00
        -11   -1    0    0    0    0  0.00000000000E+00  0.00000000000E+00  0.45593999997E+02  0.45594000000E+02  0.51100000000E-03 0. -1.
         11   -1    0    0    0    0 -0.00000000000E+00 -0.00000000000E+00 -0.45593999997E+02  0.45594000000E+02  0.51100000000E-03 0.  1.
    9900012    2    1    2    0    0 -0.39638024413E+02  0.18066808296E+02 -0.11468695608E+02  0.46142317407E+02  0.99999967675E+01 0.  0.
         12    1    1    2    0    0  0.39638024413E+02 -0.18066808296E+02  0.11468695608E+02  0.45045682593E+02  0.00000000000E+00 0. -1.
         11    1    3    3    0    0 -0.29898459314E+01  0.43425742410E+01 -0.92118836624E+00  0.53521694666E+01  0.51100000000E-03 0. -1.
        -11    1    3    3    0    0 -0.21311659409E+02  0.10382936671E+02 -0.64126188095E+01  0.24558377001E+02  0.51100000000E-03 0.  1.
         12    1    3    3    0    0 -0.15336519072E+02  0.33412973846E+01 -0.41348884324E+01  0.16231770939E+02  0.00000000000E+00 0. -1.
</event>
<event>
 7    1  0.1445801E-008  0.4614232E+02  0.7816164E-02  0.1320468E+00
        -11   -1    0    0    0    0  0.00000000000E+00  0.00000000000E+00  0.45593999997E+02  0.45594000000E+02  0.51100000000E-03 0. -1.
         11   -1    0    0    0    0 -0.00000000000E+00 -0.00000000000E+00 -0.45593999997E+02  0.45594000000E+02  0.51100000000E-03 0.  1.
    9900012    2    1    2    0    0  0.32541398125E+02  0.29654674687E+02 -0.95273898539E+01  0.46142317852E+02  0.10000000829E+02 0.  0.
         12    1    1    2    0    0 -0.32541398125E+02 -0.29654674687E+02  0.95273898539E+01  0.45045682148E+02  0.00000000000E+00 0. -1.
         11    1    3    3    0    0  0.76146784114E+01  0.66566849616E+01 -0.59087202037E+01  0.11713571475E+02  0.51100000000E-03 0. -1.
        -11    1    3    3    0    0  0.18927576088E+02  0.14749900522E+02 -0.17491505098E+01  0.24059763709E+02  0.51100000000E-03 0.  1.
         12    1    3    3    0    0  0.59991436257E+01  0.82480892034E+01 -0.18695191404E+01  0.10368982668E+02  0.00000000000E+00 0. -1.
</event>
<event>
 7    1  0.1445801E-008  0.4614232E+02  0.7816164E-02  0.1320468E+00
        -11   -1    0    0    0    0  0.00000000000E+00  0.00000000000E+00  0.45593999997E+02  0.45594000000E+02  0.51100000000E-03 0.  1.
         11   -1    0    0    0    0 -0.00000000000E+00 -0.00000000000E+00 -0.45593999997E+02  0.45594000000E+02  0.51100000000E-03 0. -1.
    9900012    2    1    2    0    0  0.69958148854E+01  0.29557740347E+02  0.33264275888E+02  0.46142317736E+02  0.99999997711E+01 0.  0.
         12    1    1    2    0    0 -0.69958148854E+01 -0.29557740347E+02 -0.33264275888E+02  0.45045682264E+02  0.00000000000E+00 0. -1.
         11    1    3    3    0    0 -0.75812204473E-01  0.10672014723E+02  0.14703594174E+02  0.18168470701E+02  0.51100000000E-03 0. -1.
        -11    1    3    3    0    0  0.75219621898E+01  0.18873919417E+02  0.17476749445E+02  0.26800028373E+02  0.51100000000E-03 0.  1.
         12    1    3    3    0    0 -0.45033509989E+00  0.11806206720E-01  0.10839322681E+01  0.11738186617E+01  0.00000000000E+00 0. -1.
</event>
<event>
 7    1  0.1445801E-008  0.4614232E+02  0.7816164E-02  0.1320468E+00
        -11   -1    0    0    0    0  0.00000000000E+00  0.00000000000E+00  0.45593999997E+02  0.45594000000E+02  0.51100000000E-03 0. -1.
         11   -1    0    0    0    0 -0.00000000000E+00 -0.00000000000E+00 -0.45593999997E+02  0.45594000000E+02  0.51100000000E-03 0.  1.
    9900012    2    1    2    0    0 -0.20740696221E+02 -0.27651299957E+02  0.28884989570E+02  0.46142317727E+02  0.99999996867E+01 0.  0.
         12    1    1    2    0    0  0.20740696221E+02  0.27651299957E+02 -0.28884989570E+02  0.45045682273E+02  0.00000000000E+00 0. -1.
         11    1    3    3    0    0 -0.13255961410E+02 -0.12895168568E+02  0.13705219144E+02  0.23018230110E+02  0.51100000000E-03 0. -1.
        -11    1    3    3    0    0 -0.20586126313E+01 -0.73555800399E+01  0.10010108876E+02  0.12591454390E+02  0.51100000000E-03 0.  1.
        -12    1    3    3    0    0 -0.54261221791E+01 -0.74005513484E+01  0.51696615498E+01  0.10532633227E+02  0.00000000000E+00 0.  1.
</event>
<event>
 7    1  0.1445801E-008  0.4614232E+02  0.7816164E-02  0.1320468E+00
        -11   -1    0    0    0    0  0.00000000000E+00  0.00000000000E+00  0.45593999997E+02  0.45594000000E+02  0.51100000000E-03 0.  1.
         11   -1    0    0    0    0 -0.00000000000E+00 -0.00000000000E+00 -0.45593999997E+02  0.45594000000E+02  0.51100000000E-03 0. -1.
    9900012    2    1    2    0    0  0.19556416612E+02  0.57480568243E+01  0.40169887727E+02  0.46142317988E+02  0.10000002067E+02 0.  0.
         12    1    1    2    0    0 -0.19556416612E+02 -0.57480568243E+01 -0.40169887727E+02  0.45045682012E+02  0.00000000000E+00 0. -1.
         11    1    3    3    0    0  0.21636661406E+00  0.10211405197E+01  0.50552433726E+01  0.51618822429E+01  0.51100000000E-03 0. -1.
        -11    1    3    3    0    0  0.19246384475E+02  0.51365350851E+01  0.31026368955E+02  0.36870623521E+02  0.51100000000E-03 0.  1.
        -12    1    3    3    0    0  0.93665523418E-01 -0.40961878056E+00  0.40882753992E+01  0.41098122238E+01  0.00000000000E+00 0.  1.
</event>
<event>
 7    1  0.1445801E-008  0.4614232E+02  0.7816164E-02  0.1320468E+00
        -11   -1    0    0    0    0  0.00000000000E+00  0.00000000000E+00  0.45593999997E+02  0.45594000000E+02  0.51100000000E-03 0.  1.
         11   -1    0    0    0    0 -0.00000000000E+00 -0.00000000000E+00 -0.45593999997E+02  0.45594000000E+02  0.51100000000E-03 0. -1.
    9900012    2    1    2    0    0 -0.42671717384E+02 -0.17672237534E+01  0.14321834279E+02  0.46142317839E+02  0.10000000706E+02 0.  0.
         12    1    1    2    0    0  0.42671717384E+02  0.17672237534E+01 -0.14321834279E+02  0.45045682161E+02  0.00000000000E+00 0. -1.
         11    1    3    3    0    0 -0.14144895655E+01 -0.67256105932E-01 -0.72275636869E+00  0.15898682789E+01  0.51100000000E-03 0. -1.
        -11    1    3    3    0    0 -0.25503055158E+02  0.13880220924E+01  0.11970446371E+02  0.28206807943E+02  0.51100000000E-03 0.  1.
        -12    1    3    3    0    0 -0.15754172660E+02 -0.30879897399E+01  0.30741442766E+01  0.16345641617E+02  0.00000000000E+00 0.  1.
</event>
<event>
 7    1  0.1445801E-008  0.4614232E+02  0.7816164E-02  0.1320468E+00
        -11   -1    0    0    0    0  0.00000000000E+00  0.00000000000E+00  0.45593999997E+02  0.45594000000E+02  0.51100000000E-03 0.  1.
         11   -1    0    0    0    0 -0.00000000000E+00 -0.00000000000E+00 -0.45593999997E+02  0.45594000000E+02  0.51100000000E-03 0. -1.
    9900012    2    1    2    0    0 -0.31260241892E+02  0.11801242389E+02  0.30209956879E+02  0.46142317191E+02  0.99999948043E+01 0.  0.
         12    1    1    2    0    0  0.31260241892E+02 -0.11801242389E+02 -0.30209956879E+02  0.45045682809E+02  0.00000000000E+00 0. -1.
         11    1    3    3    0    0 -0.11816267683E+02  0.46285324878E+01  0.62894080610E+01  0.14163479409E+02  0.51100000000E-03 0. -1.
        -11    1    3    3    0    0 -0.15888819251E+02  0.42248273368E+01  0.20221658622E+02  0.26061834566E+02  0.51100000000E-03 0.  1.
         12    1    3    3    0    0 -0.35551549573E+01  0.29478825645E+01  0.36988901956E+01  0.59170032164E+01  0.00000000000E+00 0. -1.
</event>
<event>
 7    1  0.1445801E-008  0.4614232E+02  0.7816164E-02  0.1320468E+00
        -11   -1    0    0    0    0  0.00000000000E+00  0.00000000000E+00  0.45593999997E+02  0.45594000000E+02  0.51100000000E-03 0.  1.
         11   -1    0    0    0    0 -0.00000000000E+00 -0.00000000000E+00 -0.45593999997E+02  0.45594000000E+02  0.51100000000E-03 0. -1.
    9900012    2    1    2    0    0 -0.17395186543E+02  0.97388275355E+01  0.40394012452E+02  0.46142317426E+02  0.99999969407E+01 0.  0.
         12    1    1    2    0    0  0.17395186543E+02 -0.97388275355E+01 -0.40394012452E+02  0.45045682574E+02  0.00000000000E+00 0. -1.
         11    1    3    3    0    0 -0.30887659411E+01 -0.73806587448E+00  0.51272603780E+01  0.60310874243E+01  0.51100000000E-03 0. -1.
        -11    1    3    3    0    0 -0.66940952111E+00  0.37320064784E+01  0.54761390256E+01  0.66606366325E+01  0.51100000000E-03 0.  1.
        -12    1    3    3    0    0 -0.13637011081E+02  0.67448869316E+01  0.29790613048E+02  0.33450593369E+02  0.00000000000E+00 0.  1.
</event>
<event>
 7    1  0.1445801E-008  0.4614232E+02  0.7816164E-02  0.1320468E+00
        -11   -1    0    0    0    0  0.00000000000E+00  0.00000000000E+00  0.45593999997E+02  0.45594000000E+02  0.51100000000E-03 0.  1.
         11   -1    0    0    0    0 -0.00000000000E+00 -0.00000000000E+00 -0.45593999997E+02  0.45594000000E+02  0.51100000000E-03 0. -1.
    9900012    2    1    2    0    0  0.13505278074E+02 -0.42403257223E+02  0.69774450705E+01  0.46142317647E+02  0.99999989585E+01 0.  0.
         12    1    1    2    0    0 -0.13505278074E+02  0.42403257223E+02 -0.69774450705E+01  0.45045682353E+02  0.00000000000E+00 0. -1.
         11    1    3    3    0    0  0.43055839378E+01 -0.14248961690E+02  0.54130754691E+01  0.15838950363E+02  0.51100000000E-03 0. -1.
        -11    1    3    3    0    0  0.18102035993E+01 -0.51628518008E+01 -0.21332066549E+01  0.58721756345E+01  0.51100000000E-03 0.  1.
        -12    1    3    3    0    0  0.73894905365E+01 -0.22991443732E+02  0.36975762563E+01  0.24431191650E+02  0.00000000000E+00 0.  1.
</event>
<event>
 7    1  0.1445801E-008  0.4614232E+02  0.7816164E-02  0.1320468E+00
        -11   -1    0    0    0    0  0.00000000000E+00  0.00000000000E+00  0.45593999997E+02  0.45594000000E+02  0.51100000000E-03 0. -1.
         11   -1    0    0    0    0 -0.00000000000E+00 -0.00000000000E+00 -0.45593999997E+02  0.45594000000E+02  0.51100000000E-03 0.  1.
    9900012    2    1    2    0    0  0.23175114389E+01  0.34777522880E+02 -0.28535357562E+02  0.46142316654E+02  0.99999899052E+01 0.  0.
         12    1    1    2    0    0 -0.23175114389E+01 -0.34777522880E+02  0.28535357562E+02  0.45045683346E+02  0.00000000000E+00 0. -1.
         11    1    3    3    0    0  0.24069783433E+01  0.10307134409E+02 -0.13525549204E+02  0.17174721133E+02  0.51100000000E-03 0. -1.
        -11    1    3    3    0    0 -0.17214115760E+01  0.12572298960E+02 -0.65737709373E+01  0.14291270887E+02  0.51100000000E-03 0.  1.
        -12    1    3    3    0    0  0.16319446715E+01  0.11898089511E+02 -0.84360374212E+01  0.14676324635E+02  0.00000000000E+00 0.  1.
</event>
<event>
 7    1  0.1445801E-008  0.4614232E+02  0.7816164E-02  0.1320468E+00
        -11   -1    0    0    0    0  0.00000000000E+00  0.00000000000E+00  0.45593999997E+02  0.45594000000E+02  0.51100000000E-03 0. -1.
         11   -1    0    0    0    0 -0.00000000000E+00 -0.00000000000E+00 -0.45593999997E+02  0.45594000000E+02  0.51100000000E-03 0.  1.
    9900012    2    1    2    0    0 -0.55330503616E+01 -0.13948171875E+01 -0.44682807779E+02  0.46142317940E+02  0.10000001629E+02 0.  0.
         12    1    1    2    0    0  0.55330503616E+01  0.13948171875E+01  0.44682807779E+02  0.45045682060E+02  0.00000000000E+00 0. -1.
         11    1    3    3    0    0 -0.31149775043E+01 -0.23980937068E+00 -0.12217887942E+02  0.12611002316E+02  0.51100000000E-03 0. -1.
        -11    1    3    3    0    0  0.10998307624E+01 -0.24854472820E+01 -0.25241356908E+02  0.25387264026E+02  0.51100000000E-03 0.  1.
         12    1    3    3    0    0 -0.35179036197E+01  0.13304394652E+01 -0.72235629285E+01  0.81440515980E+01  0.00000000000E+00 0. -1.
</event>
<event>
 7    1  0.1445801E-008  0.4614232E+02  0.7816164E-02  0.1320468E+00
        -11   -1    0    0    0    0  0.00000000000E+00  0.00000000000E+00  0.45593999997E+02  0.45594000000E+02  0.51100000000E-03 0. -1.
         11   -1    0    0    0    0 -0.00000000000E+00 -0.00000000000E+00 -0.45593999997E+02  0.45594000000E+02  0.51100000000E-03 0.  1.
    9900012    2    1    2    0    0  0.31597388268E+02  0.24333969794E+02 -0.20942221216E+02  0.46142315848E+02  0.99999825529E+01 0.  0.
         12    1    1    2    0    0 -0.31597388268E+02 -0.24333969794E+02  0.20942221216E+02  0.45045684152E+02  0.00000000000E+00 0. -1.
         11    1    3    3    0    0  0.75548401150E+01  0.20802035620E+01 -0.17503672336E+01  0.80291121387E+01  0.51100000000E-03 0. -1.
        -11    1    3    3    0    0  0.22043089793E+02  0.20301920782E+02 -0.16393355415E+02  0.34158569893E+02  0.51100000000E-03 0.  1.
         12    1    3    3    0    0  0.19994583595E+01  0.19518454498E+01 -0.27984985671E+01  0.39546338163E+01  0.00000000000E+00 0. -1.
</event>
<event>
 7    1  0.1445801E-008  0.4614233E+02  0.7816164E-02  0.1320468E+00
        -11   -1    0    0    0    0  0.00000000000E+00  0.00000000000E+00  0.45593999997E+02  0.45594000000E+02  0.51100000000E-03 0.  1.
         11   -1    0    0    0    0 -0.00000000000E+00 -0.00000000000E+00 -0.45593999997E+02  0.45594000000E+02  0.51100000000E-03 0. -1.
    9900012    2    1    2    0    0  0.26716093268E+02 -0.67999847289E+01  0.35624756632E+02  0.46142326324E+02  0.10000078080E+02 0.  0.
         12    1    1    2    0    0 -0.26716093268E+02  0.67999847289E+01 -0.35624756632E+02  0.45045673676E+02  0.00000000000E+00 0. -1.
         11    1    3    3    0    0  0.73628512280E+01 -0.21222854089E+01  0.54027634992E+01  0.93757947531E+01  0.51100000000E-03 0. -1.
        -11    1    3    3    0    0  0.27958323972E+01  0.91567025716E+00  0.78112968488E+01  0.83469449222E+01  0.51100000000E-03 0.  1.
        -12    1    3    3    0    0  0.16557409643E+02 -0.55933695771E+01  0.22410696285E+02  0.28419586648E+02  0.00000000000E+00 0.  1.
</event>
<event>
 7    1  0.1445801E-008  0.4614232E+02  0.7816164E-02  0.1320468E+00
        -11   -1    0    0    0    0  0.00000000000E+00  0.00000000000E+00  0.45593999997E+02  0.45594000000E+02  0.51100000000E-03 0.  1.
         11   -1    0    0    0    0 -0.00000000000E+00 -0.00000000000E+00 -0.45593999997E+02  0.45594000000E+02  0.51100000000E-03 0. -1.
    9900012    2    1    2    0    0  0.19465987454E+02  0.62382045803E+01  0.40140674487E+02  0.46142316386E+02  0.99999874618E+01 0.  0.
         12    1    1    2    0    0 -0.19465987454E+02 -0.62382045803E+01 -0.40140674487E+02  0.45045683614E+02  0.00000000000E+00 0. -1.
         11    1    3    3    0    0  0.55077694594E+01 -0.14669338596E+01  0.68896064004E+01  0.89417054291E+01  0.51100000000E-03 0. -1.
        -11    1    3    3    0    0  0.60891152147E+01  0.60707324032E+01  0.15810989976E+02  0.17997736533E+02  0.51100000000E-03 0.  1.
         12    1    3    3    0    0  0.78691027799E+01  0.16344060367E+01  0.17440078111E+02  0.19202874425E+02  0.00000000000E+00 0. -1.
</event>
<event>
 7    1  0.1445801E-008  0.4614232E+02  0.7816164E-02  0.1320468E+00
        -11   -1    0    0    0    0  0.00000000000E+00  0.00000000000E+00  0.45593999997E+02  0.45594000000E+02  0.51100000000E-03 0.  1.
         11   -1    0    0    0    0 -0.00000000000E+00 -0.00000000000E+00 -0.45593999997E+02  0.45594000000E+02  0.51100000000E-03 0. -1.
    9900012    2    1    2    0    0 -0.24303079487E+02 -0.37923694379E+02  0.51693149450E+00  0.46142317786E+02  0.10000000227E+02 0.  0.
         12    1    1    2    0    0  0.24303079487E+02  0.37923694379E+02 -0.51693149450E+00  0.45045682214E+02  0.00000000000E+00 0. -1.
         11    1    3    3    0    0 -0.12077106349E+01 -0.42583380300E+01  0.67434793724E+00  0.44773600656E+01  0.51100000000E-03 0. -1.
        -11    1    3    3    0    0 -0.16353446825E+02 -0.29303532544E+02  0.87289837988E+00  0.33569244770E+02  0.51100000000E-03 0.  1.
        -12    1    3    3    0    0 -0.67419220277E+01 -0.43618238059E+01 -0.10303148226E+01  0.80957129504E+01  0.00000000000E+00 0.  1.
</event>
<event>
 7    1  0.1445801E-008  0.4614232E+02  0.7816164E-02  0.1320468E+00
        -11   -1    0    0    0    0  0.00000000000E+00  0.00000000000E+00  0.45593999997E+02  0.45594000000E+02  0.51100000000E-03 0.  1.
         11   -1    0    0    0    0 -0.00000000000E+00 -0.00000000000E+00 -0.45593999997E+02  0.45594000000E+02  0.51100000000E-03 0. -1.
    9900012    2    1    2    0    0  0.43621661904E+02  0.85841961273E+01  0.72509054329E+01  0.46142318297E+02  0.10000004891E+02 0.  0.
         12    1    1    2    0    0 -0.43621661904E+02 -0.85841961273E+01 -0.72509054329E+01  0.45045681703E+02  0.00000000000E+00 0. -1.
         11    1    3    3    0    0  0.13456348020E+02  0.34169746137E+01  0.45301846473E+01  0.14603821100E+02  0.51100000000E-03 0. -1.
        -11    1    3    3    0    0  0.16954570578E+02  0.31094416996E+01  0.50614696346E+01  0.17965092995E+02  0.51100000000E-03 0.  1.
         12    1    3    3    0    0  0.13210743306E+02  0.20577798140E+01 -0.23407488490E+01  0.13573404202E+02  0.00000000000E+00 0. -1.
</event>
<event>
 7    1  0.1445801E-008  0.4614232E+02  0.7816164E-02  0.1320468E+00
        -11   -1    0    0    0    0  0.00000000000E+00  0.00000000000E+00  0.45593999997E+02  0.45594000000E+02  0.51100000000E-03 0.  1.
         11   -1    0    0    0    0 -0.00000000000E+00 -0.00000000000E+00 -0.45593999997E+02  0.45594000000E+02  0.51100000000E-03 0. -1.
    9900012    2    1    2    0    0 -0.39674753799E+02  0.97795772342E+01  0.18957513188E+02  0.46142317341E+02  0.99999961734E+01 0.  0.
         12    1    1    2    0    0  0.39674753799E+02 -0.97795772342E+01 -0.18957513188E+02  0.45045682659E+02  0.00000000000E+00 0. -1.
         11    1    3    3    0    0 -0.23943107193E+02  0.48193318220E+01  0.10563509914E+02  0.26609886945E+02  0.51100000000E-03 0.  1.
        -11    1    3    3    0    0 -0.68482259789E+01 -0.31100446846E+00  0.55449232641E+01  0.88170911929E+01  0.51100000000E-03 0. -1.
         12    1    3    3    0    0 -0.88834206272E+01  0.52712498807E+01  0.28490800100E+01  0.10715339204E+02  0.00000000000E+00 0. -1.
</event>
<event>
 7    1  0.1445801E-008  0.4614232E+02  0.7816164E-02  0.1320468E+00
        -11   -1    0    0    0    0  0.00000000000E+00  0.00000000000E+00  0.45593999997E+02  0.45594000000E+02  0.51100000000E-03 0.  1.
         11   -1    0    0    0    0 -0.00000000000E+00 -0.00000000000E+00 -0.45593999997E+02  0.45594000000E+02  0.51100000000E-03 0. -1.
    9900012    2    1    2    0    0 -0.43631503751E+02  0.10272138000E+02  0.44596500014E+01  0.46142318556E+02  0.10000007247E+02 0.  0.
         12    1    1    2    0    0  0.43631503751E+02 -0.10272138000E+02 -0.44596500014E+01  0.45045681444E+02  0.00000000000E+00 0. -1.
         11    1    3    3    0    0 -0.19006530929E+02  0.47438841721E+00  0.49113649998E+00  0.19018792750E+02  0.51100000000E-03 0. -1.
        -11    1    3    3    0    0 -0.14842484056E+02  0.80494612767E+01  0.28454114971E+01  0.17122778006E+02  0.51100000000E-03 0.  1.
        -12    1    3    3    0    0 -0.97824887654E+01  0.17482883063E+01  0.11231020043E+01  0.10000747800E+02  0.00000000000E+00 0.  1.
</event>
<event>
 7    1  0.1445801E-008  0.4614232E+02  0.7816164E-02  0.1320468E+00
        -11   -1    0    0    0    0  0.00000000000E+00  0.00000000000E+00  0.45593999997E+02  0.45594000000E+02  0.51100000000E-03 0.  1.
         11   -1    0    0    0    0 -0.00000000000E+00 -0.00000000000E+00 -0.45593999997E+02  0.45594000000E+02  0.51100000000E-03 0. -1.
    9900012    2    1    2    0    0  0.27250465088E+01 -0.33665273569E+01  0.44836971353E+02  0.46142318908E+02  0.10000010457E+02 0.  0.
         12    1    1    2    0    0 -0.27250465088E+01  0.33665273569E+01 -0.44836971353E+02  0.45045681092E+02  0.00000000000E+00 0. -1.
         11    1    3    3    0    0  0.48568112854E+01 -0.49248105076E+00  0.22027216373E+02  0.22561680231E+02  0.51100000000E-03 0. -1.
        -11    1    3    3    0    0 -0.34457287274E+01 -0.10731626806E+01  0.16457576232E+02  0.16848636156E+02  0.51100000000E-03 0.  1.
        -12    1    3    3    0    0  0.13139639508E+01 -0.18008836256E+01  0.63521787477E+01  0.67320025207E+01  0.00000000000E+00 0.  1.
</event>
<event>
 7    1  0.1445801E-008  0.4614232E+02  0.7816164E-02  0.1320468E+00
        -11   -1    0    0    0    0  0.00000000000E+00  0.00000000000E+00  0.45593999997E+02  0.45594000000E+02  0.51100000000E-03 0.  1.
         11   -1    0    0    0    0 -0.00000000000E+00 -0.00000000000E+00 -0.45593999997E+02  0.45594000000E+02  0.51100000000E-03 0. -1.
    9900012    2    1    2    0    0  0.10177103261E+02  0.36574447788E+02  0.24245614906E+02  0.46142317588E+02  0.99999984218E+01 0.  0.
         12    1    1    2    0    0 -0.10177103261E+02 -0.36574447788E+02 -0.24245614906E+02  0.45045682412E+02  0.00000000000E+00 0. -1.
         11    1    3    3    0    0  0.38296153677E+01  0.14486660294E+02  0.52825782601E+01  0.15888200455E+02  0.51100000000E-03 0. -1.
        -11    1    3    3    0    0  0.11481465606E+01  0.33939293900E+01  0.78923425902E+00  0.36687720297E+01  0.51100000000E-03 0.  1.
         12    1    3    3    0    0  0.51993413329E+01  0.18693858104E+02  0.18173802386E+02  0.26585345104E+02  0.00000000000E+00 0. -1.
</event>
<event>
 7    1  0.1445801E-008  0.4614232E+02  0.7816164E-02  0.1320468E+00
        -11   -1    0    0    0    0  0.00000000000E+00  0.00000000000E+00  0.45593999997E+02  0.45594000000E+02  0.51100000000E-03 0.  1.
         11   -1    0    0    0    0 -0.00000000000E+00 -0.00000000000E+00 -0.45593999997E+02  0.45594000000E+02  0.51100000000E-03 0. -1.
    9900012    2    1    2    0    0  0.34304090847E+02 -0.69014565873E+01  0.28367460926E+02  0.46142316619E+02  0.99999895893E+01 0.  0.
         12    1    1    2    0    0 -0.34304090847E+02  0.69014565873E+01 -0.28367460926E+02  0.45045683381E+02  0.00000000000E+00 0. -1.
         11    1    3    3    0    0  0.48317412352E+01 -0.38008910164E+01  0.67035825387E+01  0.90956316436E+01  0.51100000000E-03 0. -1.
        -11    1    3    3    0    0  0.90154197590E+01 -0.29856794331E-01  0.92742139386E+01  0.12934053089E+02  0.51100000000E-03 0.  1.
         12    1    3    3    0    0  0.20456929852E+02 -0.30707087765E+01  0.12389664449E+02  0.24112631887E+02  0.00000000000E+00 0. -1.
</event>
<event>
 7    1  0.1445801E-008  0.4614232E+02  0.7816164E-02  0.1320468E+00
        -11   -1    0    0    0    0  0.00000000000E+00  0.00000000000E+00  0.45593999997E+02  0.45594000000E+02  0.51100000000E-03 0. -1.
         11   -1    0    0    0    0 -0.00000000000E+00 -0.00000000000E+00 -0.45593999997E+02  0.45594000000E+02  0.51100000000E-03 0.  1.
    9900012    2    1    2    0    0 -0.41998574673E+02 -0.16105949291E+01 -0.16206146829E+02  0.46142317792E+02  0.10000000282E+02 0.  0.
         12    1    1    2    0    0  0.41998574673E+02  0.16105949291E+01  0.16206146829E+02  0.45045682208E+02  0.00000000000E+00 0. -1.
         11    1    3    3    0    0 -0.88468760239E+01 -0.25522184384E+01 -0.31182232345E+01  0.97213348230E+01  0.51100000000E-03 0. -1.
        -11    1    3    3    0    0 -0.27772211032E+02  0.30747926030E+01 -0.90746039944E+01  0.29378537967E+02  0.51100000000E-03 0.  1.
        -12    1    3    3    0    0 -0.53794876169E+01 -0.21331690937E+01 -0.40133195997E+01  0.70424450024E+01  0.00000000000E+00 0.  1.
</event>
<event>
 7    1  0.1445801E-008  0.4614231E+02  0.7816164E-02  0.1320468E+00
        -11   -1    0    0    0    0  0.00000000000E+00  0.00000000000E+00  0.45593999997E+02  0.45594000000E+02  0.51100000000E-03 0.  1.
         11   -1    0    0    0    0 -0.00000000000E+00 -0.00000000000E+00 -0.45593999997E+02  0.45594000000E+02  0.51100000000E-03 0. -1.
    9900012    2    1    2    0    0 -0.26662059092E+02  0.33395756066E+00  0.36306154081E+02  0.46142314892E+02  0.99999738381E+01 0.  0.
         12    1    1    2    0    0  0.26662059092E+02 -0.33395756066E+00 -0.36306154081E+02  0.45045685108E+02  0.00000000000E+00 0. -1.
         11    1    3    3    0    0 -0.47695304313E+01  0.16962742057E+01  0.34432242373E+01  0.61222185624E+01  0.51100000000E-03 0. -1.
        -11    1    3    3    0    0 -0.11388588200E+02 -0.38860069570E+01  0.16984067396E+02  0.20814887384E+02  0.51100000000E-03 0.  1.
        -12    1    3    3    0    0 -0.10503940461E+02  0.25236903119E+01  0.15878862448E+02  0.19205208945E+02  0.00000000000E+00 0.  1.
</event>
<event>
 7    1  0.1445801E-008  0.4614232E+02  0.7816164E-02  0.1320468E+00
        -11   -1    0    0    0    0  0.00000000000E+00  0.00000000000E+00  0.45593999997E+02  0.45594000000E+02  0.51100000000E-03 0.  1.
         11   -1    0    0    0    0 -0.00000000000E+00 -0.00000000000E+00 -0.45593999997E+02  0.45594000000E+02  0.51100000000E-03 0. -1.
    9900012    2    1    2    0    0 -0.36174436128E+02  0.55656009725E+01  0.26259240631E+02  0.46142318055E+02  0.10000002681E+02 0.  0.
         12    1    1    2    0    0  0.36174436128E+02 -0.55656009725E+01 -0.26259240631E+02  0.45045681945E+02  0.00000000000E+00 0. -1.
         11    1    3    3    0    0 -0.49331036483E+01 -0.24581762264E+01  0.31692918184E+01  0.63578732966E+01  0.51100000000E-03 0. -1.
        -11    1    3    3    0    0 -0.23381196531E+02  0.59461628141E+01  0.18842484521E+02  0.30611704079E+02  0.51100000000E-03 0.  1.
         12    1    3    3    0    0 -0.78601359488E+01  0.20776143848E+01  0.42474642916E+01  0.91727406795E+01  0.00000000000E+00 0. -1.
</event>
<event>
 7    1  0.1445801E-008  0.4614232E+02  0.7816164E-02  0.1320468E+00
        -11   -1    0    0    0    0  0.00000000000E+00  0.00000000000E+00  0.45593999997E+02  0.45594000000E+02  0.51100000000E-03 0. -1.
         11   -1    0    0    0    0 -0.00000000000E+00 -0.00000000000E+00 -0.45593999997E+02  0.45594000000E+02  0.51100000000E-03 0.  1.
    9900012    2    1    2    0    0 -0.37543613518E+02  0.11075786493E+02 -0.22291648886E+02  0.46142316827E+02  0.99999914851E+01 0.  0.
         12    1    1    2    0    0  0.37543613518E+02 -0.11075786493E+02  0.22291648886E+02  0.45045683173E+02  0.00000000000E+00 0. -1.
         11    1    3    3    0    0 -0.15041522546E+02  0.50064467053E+01 -0.57808518780E+01  0.16873949087E+02  0.51100000000E-03 0. -1.
        -11    1    3    3    0    0 -0.15092368406E+02  0.45952110937E+01 -0.14553699564E+02  0.21464056475E+02  0.51100000000E-03 0.  1.
        -12    1    3    3    0    0 -0.74097225666E+01  0.14741286944E+01 -0.19570974440E+01  0.78043112654E+01  0.00000000000E+00 0.  1.
</event>
<event>
 7    1  0.1445801E-008  0.4614231E+02  0.7816164E-02  0.1320468E+00
        -11   -1    0    0    0    0  0.00000000000E+00  0.00000000000E+00  0.45593999997E+02  0.45594000000E+02  0.51100000000E-03 0.  1.
         11   -1    0    0    0    0 -0.00000000000E+00 -0.00000000000E+00 -0.45593999997E+02  0.45594000000E+02  0.51100000000E-03 0. -1.
    9900012    2    1    2    0    0 -0.18734063575E+02 -0.80368864350E+01  0.40169113745E+02  0.46142307857E+02  0.99999096836E+01 0.  0.
         12    1    1    2    0    0  0.18734063575E+02  0.80368864350E+01 -0.40169113745E+02  0.45045692143E+02  0.00000000000E+00 0. -1.
         11    1    3    3    0    0 -0.73147478428E+01  0.20106094525E+00  0.93125010314E+01  0.11843506121E+02  0.51100000000E-03 0. -1.
        -11    1    3    3    0    0 -0.73582918328E+01 -0.80510196199E+01  0.22143741913E+02  0.24684178774E+02  0.51100000000E-03 0.  1.
        -12    1    3    3    0    0 -0.40610238996E+01 -0.18692776031E+00  0.87128708009E+01  0.96146229616E+01  0.00000000000E+00 0.  1.
</event>
<event>
 7    1  0.1445801E-008  0.4614232E+02  0.7816164E-02  0.1320468E+00
        -11   -1    0    0    0    0  0.00000000000E+00  0.00000000000E+00  0.45593999997E+02  0.45594000000E+02  0.51100000000E-03 0.  1.
         11   -1    0    0    0    0 -0.00000000000E+00 -0.00000000000E+00 -0.45593999997E+02  0.45594000000E+02  0.51100000000E-03 0. -1.
    9900012    2    1    2    0    0 -0.26443561121E+02 -0.25977666151E+02  0.25593211269E+02  0.46142317339E+02  0.99999961468E+01 0.  0.
         12    1    1    2    0    0  0.26443561121E+02  0.25977666151E+02 -0.25593211269E+02  0.45045682661E+02  0.00000000000E+00 0. -1.
         11    1    3    3    0    0 -0.12812228886E+02 -0.86649971731E+01  0.63848760802E+01  0.16733261124E+02  0.51100000000E-03 0. -1.
        -11    1    3    3    0    0 -0.13682105012E+02 -0.17314238354E+02  0.19291786257E+02  0.29311360674E+02  0.51100000000E-03 0.  1.
         12    1    3    3    0    0  0.50772776218E-01  0.15693767233E-02 -0.83451068372E-01  0.97695540127E-01  0.00000000000E+00 0. -1.
</event>
<event>
 7    1  0.1445801E-008  0.4614232E+02  0.7816164E-02  0.1320468E+00
        -11   -1    0    0    0    0  0.00000000000E+00  0.00000000000E+00  0.45593999997E+02  0.45594000000E+02  0.51100000000E-03 0.  1.
         11   -1    0    0    0    0 -0.00000000000E+00 -0.00000000000E+00 -0.45593999997E+02  0.45594000000E+02  0.51100000000E-03 0. -1.
    9900012    2    1    2    0    0  0.32378850817E+02 -0.31305217608E+02  0.84075268929E+00  0.46142317689E+02  0.99999993455E+01 0.  0.
         12    1    1    2    0    0 -0.32378850817E+02  0.31305217608E+02 -0.84075268929E+00  0.45045682311E+02  0.00000000000E+00 0. -1.
         11    1    3    3    0    0  0.16371820287E+02 -0.15172726017E+02  0.53157733682E+01  0.22945708990E+02  0.51100000000E-03 0. -1.
        -11    1    3    3    0    0  0.14843320960E+02 -0.14995323891E+02 -0.44789175785E+01  0.21569529866E+02  0.51100000000E-03 0.  1.
        -12    1    3    3    0    0  0.11637095707E+01 -0.11371677012E+01  0.38968996500E-02  0.16270788338E+01  0.00000000000E+00 0.  1.
</event>
<event>
 7    1  0.1445801E-008  0.4614232E+02  0.7816164E-02  0.1320468E+00
        -11   -1    0    0    0    0  0.00000000000E+00  0.00000000000E+00  0.45593999997E+02  0.45594000000E+02  0.51100000000E-03 0.  1.
         11   -1    0    0    0    0 -0.00000000000E+00 -0.00000000000E+00 -0.45593999997E+02  0.45594000000E+02  0.51100000000E-03 0. -1.
    9900012    2    1    2    0    0  0.52126645177E+01 -0.20203535942E+02  0.39921908347E+02  0.46142317610E+02  0.99999986240E+01 0.  0.
         12    1    1    2    0    0 -0.52126645177E+01  0.20203535942E+02 -0.39921908347E+02  0.45045682390E+02  0.00000000000E+00 0. -1.
         11    1    3    3    0    0 -0.21515854307E+01 -0.46556456396E+01  0.73360058943E+01  0.89510523923E+01  0.51100000000E-03 0. -1.
        -11    1    3    3    0    0  0.55022108822E+01 -0.14000743608E+02  0.30448415564E+02  0.33961760213E+02  0.51100000000E-03 0.  1.
         12    1    3    3    0    0  0.18620390662E+01 -0.15471466939E+01  0.21374868885E+01  0.32295050046E+01  0.00000000000E+00 0. -1.
</event>
<event>
 7    1  0.1445801E-008  0.4614232E+02  0.7816164E-02  0.1320468E+00
        -11   -1    0    0    0    0  0.00000000000E+00  0.00000000000E+00  0.45593999997E+02  0.45594000000E+02  0.51100000000E-03 0.  1.
         11   -1    0    0    0    0 -0.00000000000E+00 -0.00000000000E+00 -0.45593999997E+02  0.45594000000E+02  0.51100000000E-03 0. -1.
    9900012    2    1    2    0    0  0.19965811478E+01 -0.30516810695E+02  0.33073425722E+02  0.46142316962E+02  0.99999927175E+01 0.  0.
         12    1    1    2    0    0 -0.19965811478E+01  0.30516810695E+02 -0.33073425722E+02  0.45045683038E+02  0.00000000000E+00 0. -1.
         11    1    3    3    0    0 -0.92057377211E+00 -0.69733488087E+01  0.36042648520E+01  0.79035292789E+01  0.51100000000E-03 0. -1.
        -11    1    3    3    0    0  0.28038410306E+01 -0.23674638968E+02  0.29610668677E+02  0.38015020118E+02  0.51100000000E-03 0.  1.
        -12    1    3    3    0    0  0.11331388928E+00  0.13117708164E+00 -0.14150780634E+00  0.22376756581E+00  0.00000000000E+00 0.  1.
</event>
<event>
 7    1  0.1445801E-008  0.4614232E+02  0.7816164E-02  0.1320468E+00
        -11   -1    0    0    0    0  0.00000000000E+00  0.00000000000E+00  0.45593999997E+02  0.45594000000E+02  0.51100000000E-03 0.  1.
         11   -1    0    0    0    0 -0.00000000000E+00 -0.00000000000E+00 -0.45593999997E+02  0.45594000000E+02  0.51100000000E-03 0. -1.
    9900012    2    1    2    0    0  0.16063765893E+01 -0.27248635725E+02  0.35833570983E+02  0.46142318697E+02  0.10000008533E+02 0.  0.
         12    1    1    2    0    0 -0.16063765893E+01  0.27248635725E+02 -0.35833570983E+02  0.45045681303E+02  0.00000000000E+00 0. -1.
         11    1    3    3    0    0 -0.20409643160E+01 -0.10188087992E+02  0.95739844461E+01  0.14128830479E+02  0.51100000000E-03 0. -1.
        -11    1    3    3    0    0  0.34297197553E+01 -0.51558203858E+01  0.67722191949E+01  0.91765142911E+01  0.51100000000E-03 0.  1.
        -12    1    3    3    0    0  0.21762115005E+00 -0.11904727348E+02  0.19487367342E+02  0.22836973927E+02  0.00000000000E+00 0.  1.
</event>
<event>
 7    1  0.1445801E-008  0.4614232E+02  0.7816164E-02  0.1320468E+00
        -11   -1    0    0    0    0  0.00000000000E+00  0.00000000000E+00  0.45593999997E+02  0.45594000000E+02  0.51100000000E-03 0.  1.
         11   -1    0    0    0    0 -0.00000000000E+00 -0.00000000000E+00 -0.45593999997E+02  0.45594000000E+02  0.51100000000E-03 0. -1.
    9900012    2    1    2    0    0  0.17811369740E+02  0.67776106070E+01  0.40815837668E+02  0.46142317609E+02  0.99999986101E+01 0.  0.
         12    1    1    2    0    0 -0.17811369740E+02 -0.67776106070E+01 -0.40815837668E+02  0.45045682391E+02  0.00000000000E+00 0. -1.
         11    1    3    3    0    0  0.14761066447E+02  0.39176289864E+01  0.23528626554E+02  0.28050546649E+02  0.51100000000E-03 0. -1.
        -11    1    3    3    0    0  0.37161877807E+01  0.20690658556E+01  0.12847656291E+02  0.13533416331E+02  0.51100000000E-03 0.  1.
         12    1    3    3    0    0 -0.66588448811E+00  0.79091576500E+00  0.44395548230E+01  0.45583546292E+01  0.00000000000E+00 0. -1.
</event>
<event>
 7    1  0.1445801E-008  0.4614232E+02  0.7816164E-02  0.1320468E+00
        -11   -1    0    0    0    0  0.00000000000E+00  0.00000000000E+00  0.45593999997E+02  0.45594000000E+02  0.51100000000E-03 0. -1.
         11   -1    0    0    0    0 -0.00000000000E+00 -0.00000000000E+00 -0.45593999997E+02  0.45594000000E+02  0.51100000000E-03 0.  1.
    9900012    2    1    2    0    0 -0.98912517385E+00 -0.44019090485E+02 -0.95107811126E+01  0.46142315933E+02  0.99999833259E+01 0.  0.
         12    1    1    2    0    0  0.98912517385E+00  0.44019090485E+02  0.95107811126E+01  0.45045684067E+02  0.00000000000E+00 0. -1.
         11    1    3    3    0    0  0.76181539432E+00 -0.17608882854E+02 -0.22541541941E+00  0.17626795807E+02  0.51100000000E-03 0. -1.
        -11    1    3    3    0    0  0.15107106146E+01 -0.82220556085E+01 -0.41712893629E+01  0.93425960096E+01  0.51100000000E-03 0.  1.
         12    1    3    3    0    0 -0.32616511827E+01 -0.18188152023E+02 -0.51140763303E+01  0.19172924116E+02  0.00000000000E+00 0. -1.
</event>
<event>
 7    1  0.1445801E-008  0.4614232E+02  0.7816164E-02  0.1320468E+00
        -11   -1    0    0    0    0  0.00000000000E+00  0.00000000000E+00  0.45593999997E+02  0.45594000000E+02  0.51100000000E-03 0.  1.
         11   -1    0    0    0    0 -0.00000000000E+00 -0.00000000000E+00 -0.45593999997E+02  0.45594000000E+02  0.51100000000E-03 0. -1.
    9900012    2    1    2    0    0 -0.98862767499E+01 -0.30107882463E+02  0.32013909747E+02  0.46142317946E+02  0.10000001686E+02 0.  0.
         12    1    1    2    0    0  0.98862767499E+01  0.30107882463E+02 -0.32013909747E+02  0.45045682054E+02  0.00000000000E+00 0. -1.
         11    1    3    3    0    0 -0.60783433308E+01 -0.69487796684E+01  0.69268612558E+01  0.11541802444E+02  0.51100000000E-03 0. -1.
        -11    1    3    3    0    0 -0.75937898502E+00 -0.14417357061E+02  0.13466916284E+02  0.19743218469E+02  0.51100000000E-03 0.  1.
        -12    1    3    3    0    0 -0.30485544340E+01 -0.87417457343E+01  0.11620132207E+02  0.14857297033E+02  0.00000000000E+00 0.  1.
</event>
<event>
 7    1  0.1445801E-008  0.4614232E+02  0.7816164E-02  0.1320468E+00
        -11   -1    0    0    0    0  0.00000000000E+00  0.00000000000E+00  0.45593999997E+02  0.45594000000E+02  0.51100000000E-03 0.  1.
         11   -1    0    0    0    0 -0.00000000000E+00 -0.00000000000E+00 -0.45593999997E+02  0.45594000000E+02  0.51100000000E-03 0. -1.
    9900012    2    1    2    0    0 -0.62945352752E+00  0.44845593461E+02  0.41940525438E+01  0.46142317173E+02  0.99999946372E+01 0.  0.
         12    1    1    2    0    0  0.62945352752E+00 -0.44845593461E+02 -0.41940525438E+01  0.45045682827E+02  0.00000000000E+00 0. -1.
         11    1    3    3    0    0 -0.28164026657E+01  0.34616573321E+02  0.42753799652E+01  0.34993115703E+02  0.51100000000E-03 0. -1.
        -11    1    3    3    0    0  0.16452296998E+01  0.26511748553E+01  0.13817166782E+01  0.34124258407E+01  0.51100000000E-03 0.  1.
         12    1    3    3    0    0  0.54171943841E+00  0.75778452842E+01 -0.14630440995E+01  0.77367756293E+01  0.00000000000E+00 0. -1.
</event>
<event>
 7    1  0.1445801E-008  0.4614232E+02  0.7816164E-02  0.1320468E+00
        -11   -1    0    0    0    0  0.00000000000E+00  0.00000000000E+00  0.45593999997E+02  0.45594000000E+02  0.51100000000E-03 0.  1.
         11   -1    0    0    0    0 -0.00000000000E+00 -0.00000000000E+00 -0.45593999997E+02  0.45594000000E+02  0.51100000000E-03 0. -1.
    9900012    2    1    2    0    0  0.34975371897E+02  0.19181603492E+02  0.20926130692E+02  0.46142317659E+02  0.99999990671E+01 0.  0.
         12    1    1    2    0    0 -0.34975371897E+02 -0.19181603492E+02 -0.20926130692E+02  0.45045682341E+02  0.00000000000E+00 0. -1.
         11    1    3    3    0    0  0.64735346328E+01  0.66509000068E+01  0.74715939668E+01  0.11914941805E+02  0.51100000000E-03 0. -1.
        -11    1    3    3    0    0  0.69005229615E+01  0.42558698750E+01  0.53644768045E+01  0.97214843097E+01  0.51100000000E-03 0.  1.
         12    1    3    3    0    0  0.21601314302E+02  0.82748336100E+01  0.80900599210E+01  0.24505891544E+02  0.00000000000E+00 0. -1.
</event>
<event>
 7    1  0.1445801E-008  0.4614232E+02  0.7816164E-02  0.1320468E+00
        -11   -1    0    0    0    0  0.00000000000E+00  0.00000000000E+00  0.45593999997E+02  0.45594000000E+02  0.51100000000E-03 0.  1.
         11   -1    0    0    0    0 -0.00000000000E+00 -0.00000000000E+00 -0.45593999997E+02  0.45594000000E+02  0.51100000000E-03 0. -1.
    9900012    2    1    2    0    0 -0.24958206188E+02  0.25891544676E+02  0.27126176667E+02  0.46142316495E+02  0.99999884558E+01 0.  0.
         12    1    1    2    0    0  0.24958206188E+02 -0.25891544676E+02 -0.27126176667E+02  0.45045683505E+02  0.00000000000E+00 0. -1.
         11    1    3    3    0    0 -0.65430839417E+01  0.28728107232E+01  0.40504807881E+01  0.82140966512E+01  0.51100000000E-03 0. -1.
        -11    1    3    3    0    0 -0.71270581699E+01  0.68934529782E+01  0.45941471504E+01  0.10927984280E+02  0.51100000000E-03 0.  1.
        -12    1    3    3    0    0 -0.11288064077E+02  0.16125280974E+02  0.18481548729E+02  0.27000235564E+02  0.00000000000E+00 0.  1.
</event>
<event>
 7    1  0.1445801E-008  0.4614232E+02  0.7816164E-02  0.1320468E+00
        -11   -1    0    0    0    0  0.00000000000E+00  0.00000000000E+00  0.45593999997E+02  0.45594000000E+02  0.51100000000E-03 0. -1.
         11   -1    0    0    0    0 -0.00000000000E+00 -0.00000000000E+00 -0.45593999997E+02  0.45594000000E+02  0.51100000000E-03 0.  1.
    9900012    2    1    2    0    0  0.18217373818E+02  0.39388647828E+02  0.12073738906E+02  0.46142318101E+02  0.10000003100E+02 0.  0.
         12    1    1    2    0    0 -0.18217373818E+02 -0.39388647828E+02 -0.12073738906E+02  0.45045681899E+02  0.00000000000E+00 0. -1.
         11    1    3    3    0    0  0.16588792432E+01  0.35775887024E+01  0.34971636508E+01  0.52707850581E+01  0.51100000000E-03 0. -1.
        -11    1    3    3    0    0  0.10401791336E+02  0.15160178571E+02  0.32018277674E+01  0.18662260812E+02  0.51100000000E-03 0.  1.
         12    1    3    3    0    0  0.61567032383E+01  0.20650880556E+02  0.53747474878E+01  0.22209272231E+02  0.00000000000E+00 0. -1.
</event>
<event>
 7    1  0.1445801E-008  0.4614232E+02  0.7816164E-02  0.1320468E+00
        -11   -1    0    0    0    0  0.00000000000E+00  0.00000000000E+00  0.45593999997E+02  0.45594000000E+02  0.51100000000E-03 0. -1.
         11   -1    0    0    0    0 -0.00000000000E+00 -0.00000000000E+00 -0.45593999997E+02  0.45594000000E+02  0.51100000000E-03 0.  1.
    9900012    2    1    2    0    0 -0.13388449032E+02 -0.16921159039E+02 -0.39541589445E+02  0.46142317781E+02  0.10000000181E+02 0.  0.
         12    1    1    2    0    0  0.13388449032E+02  0.16921159039E+02  0.39541589445E+02  0.45045682219E+02  0.00000000000E+00 0. -1.
         11    1    3    3    0    0 -0.54594628687E+01 -0.54667374369E+01 -0.19454166418E+02  0.20932165304E+02  0.51100000000E-03 0. -1.
        -11    1    3    3    0    0 -0.72492911963E+01 -0.11394487831E+02 -0.20395528202E+02  0.24461482921E+02  0.51100000000E-03 0.  1.
         12    1    3    3    0    0 -0.67969496744E+00 -0.59933771407E-01  0.30810517521E+00  0.74866955642E+00  0.00000000000E+00 0. -1.
</event>
<event>
 7    1  0.1445801E-008  0.4614232E+02  0.7816164E-02  0.1320468E+00
        -11   -1    0    0    0    0  0.00000000000E+00  0.00000000000E+00  0.45593999997E+02  0.45594000000E+02  0.51100000000E-03 0.  1.
         11   -1    0    0    0    0 -0.00000000000E+00 -0.00000000000E+00 -0.45593999997E+02  0.45594000000E+02  0.51100000000E-03 0. -1.
    9900012    2    1    2    0    0 -0.35891103288E+01  0.39291875818E+02  0.21734313254E+02  0.46142316624E+02  0.99999896290E+01 0.  0.
         12    1    1    2    0    0  0.35891103288E+01 -0.39291875818E+02 -0.21734313254E+02  0.45045683376E+02  0.00000000000E+00 0. -1.
         11    1    3    3    0    0 -0.10639437510E+01  0.11371201023E+01  0.23982689604E+01  0.28594951827E+01  0.51100000000E-03 0. -1.
        -11    1    3    3    0    0 -0.11634699119E+01  0.11698302814E+01  0.34827942196E+00  0.16862573765E+01  0.51100000000E-03 0.  1.
        -12    1    3    3    0    0 -0.13616966660E+01  0.36984925434E+02  0.18987764871E+02  0.41596564065E+02  0.00000000000E+00 0.  1.
</event>
<event>
 7    1  0.1445801E-008  0.4614232E+02  0.7816164E-02  0.1320468E+00
        -11   -1    0    0    0    0  0.00000000000E+00  0.00000000000E+00  0.45593999997E+02  0.45594000000E+02  0.51100000000E-03 0. -1.
         11   -1    0    0    0    0 -0.00000000000E+00 -0.00000000000E+00 -0.45593999997E+02  0.45594000000E+02  0.51100000000E-03 0.  1.
    9900012    2    1    2    0    0  0.26689926451E+02 -0.28423231255E+02 -0.22558397195E+02  0.46142317266E+02  0.99999954878E+01 0.  0.
         12    1    1    2    0    0 -0.26689926451E+02  0.28423231255E+02  0.22558397195E+02  0.45045682734E+02  0.00000000000E+00 0. -1.
         11    1    3    3    0    0  0.23902796164E+01 -0.20703135634E+01  0.78954208364E+00  0.32592962213E+01  0.51100000000E-03 0. -1.
        -11    1    3    3    0    0  0.66543513914E+01 -0.78882295031E+01 -0.52344807743E+01  0.11571704558E+02  0.51100000000E-03 0.  1.
         12    1    3    3    0    0  0.17645295443E+02 -0.18464688189E+02 -0.18113458504E+02  0.31311316487E+02  0.00000000000E+00 0. -1.
</event>
<event>
 7    1  0.1445801E-008  0.4614232E+02  0.7816164E-02  0.1320468E+00
        -11   -1    0    0    0    0  0.00000000000E+00  0.00000000000E+00  0.45593999997E+02  0.45594000000E+02  0.51100000000E-03 0.  1.
         11   -1    0    0    0    0 -0.00000000000E+00 -0.00000000000E+00 -0.45593999997E+02  0.45594000000E+02  0.51100000000E-03 0. -1.
    9900012    2    1    2    0    0 -0.19056621758E+02  0.21834370285E+02  0.34485057105E+02  0.46142315166E+02  0.99999763381E+01 0.  0.
         12    1    1    2    0    0  0.19056621758E+02 -0.21834370285E+02 -0.34485057105E+02  0.45045684834E+02  0.00000000000E+00 0. -1.
         11    1    3    3    0    0 -0.13723100703E+02  0.16654053671E+02  0.18353583968E+02  0.28329049425E+02  0.51100000000E-03 0.  1.
        -11    1    3    3    0    0 -0.32383531561E+01  0.26478927203E+01  0.10340622741E+02  0.11154673727E+02  0.51100000000E-03 0. -1.
        -12    1    3    3    0    0 -0.20951678990E+01  0.25324238935E+01  0.57908503962E+01  0.66585920143E+01  0.00000000000E+00 0.  1.
</event>
<event>
 7    1  0.1821505E-008  0.4614231E+02  0.7816164E-02  0.1320468E+00
        -11   -1    0    0    0    0  0.00000000000E+00  0.00000000000E+00  0.45593999997E+02  0.45594000000E+02  0.51100000000E-03 0. -1.
         11   -1    0    0    0    0 -0.00000000000E+00 -0.00000000000E+00 -0.45593999997E+02  0.45594000000E+02  0.51100000000E-03 0.  1.
    9900012    2    1    2    0    0 -0.65837283719E+01 -0.88951873896E+01 -0.43665135314E+02  0.46142313415E+02  0.99999603678E+01 0.  0.
         12    1    1    2    0    0  0.65837283719E+01  0.88951873896E+01  0.43665135314E+02  0.45045686585E+02  0.00000000000E+00 0. -1.
         11    1    3    3    0    0 -0.13343607333E+01  0.12159062400E+01 -0.14690125323E+01  0.23274330564E+01  0.51100000000E-03 0. -1.
        -11    1    3    3    0    0 -0.41447295633E+01 -0.47522525112E+01 -0.23931056315E+02  0.24747891702E+02  0.51100000000E-03 0.  1.
         12    1    3    3    0    0 -0.11046380754E+01 -0.53588411184E+01 -0.18265066467E+02  0.19066988657E+02  0.00000000000E+00 0. -1.
</event>
<event>
 7    1  0.1445801E-008  0.4614232E+02  0.7816164E-02  0.1320468E+00
        -11   -1    0    0    0    0  0.00000000000E+00  0.00000000000E+00  0.45593999997E+02  0.45594000000E+02  0.51100000000E-03 0. -1.
         11   -1    0    0    0    0 -0.00000000000E+00 -0.00000000000E+00 -0.45593999997E+02  0.45594000000E+02  0.51100000000E-03 0.  1.
    9900012    2    1    2    0    0  0.19778133113E+02 -0.15877248140E+02 -0.37227034298E+02  0.46142316072E+02  0.99999845966E+01 0.  0.
         12    1    1    2    0    0 -0.19778133113E+02  0.15877248140E+02  0.37227034298E+02  0.45045683928E+02  0.00000000000E+00 0. -1.
         11    1    3    3    0    0  0.62170030170E+00 -0.24061825658E+01 -0.13414775683E+01  0.28241437875E+01  0.51100000000E-03 0. -1.
        -11    1    3    3    0    0  0.11637800910E+02 -0.11003335526E+02 -0.27226843666E+02  0.31588175304E+02  0.51100000000E-03 0.  1.
         12    1    3    3    0    0  0.75186319014E+01 -0.24677300481E+01 -0.86587130633E+01  0.11729996981E+02  0.00000000000E+00 0. -1.
</event>
<event>
 7    1  0.1445801E-008  0.4614232E+02  0.7816164E-02  0.1320468E+00
        -11   -1    0    0    0    0  0.00000000000E+00  0.00000000000E+00  0.45593999997E+02  0.45594000000E+02  0.51100000000E-03 0.  1.
         11   -1    0    0    0    0 -0.00000000000E+00 -0.00000000000E+00 -0.45593999997E+02  0.45594000000E+02  0.51100000000E-03 0. -1.
    9900012    2    1    2    0    0  0.22801855668E+01 -0.41431075607E+02  0.17532262282E+02  0.46142317711E+02  0.99999995419E+01 0.  0.
         12    1    1    2    0    0 -0.22801855668E+01  0.41431075607E+02 -0.17532262282E+02  0.45045682289E+02  0.00000000000E+00 0. -1.
         11    1    3    3    0    0  0.57857250674E+01 -0.30481131193E+02  0.12819833539E+02  0.33569660493E+02  0.51100000000E-03 0. -1.
        -11    1    3    3    0    0 -0.21086786130E+01 -0.57091363755E+01  0.14974334757E+01  0.62676208343E+01  0.51100000000E-03 0.  1.
         12    1    3    3    0    0 -0.13968608876E+01 -0.52408080383E+01  0.32149952670E+01  0.63050363837E+01  0.00000000000E+00 0. -1.
</event>
<event>
 7    1  0.1445801E-008  0.4614233E+02  0.7816164E-02  0.1320468E+00
        -11   -1    0    0    0    0  0.00000000000E+00  0.00000000000E+00  0.45593999997E+02  0.45594000000E+02  0.51100000000E-03 0.  1.
         11   -1    0    0    0    0 -0.00000000000E+00 -0.00000000000E+00 -0.45593999997E+02  0.45594000000E+02  0.51100000000E-03 0. -1.
    9900012    2    1    2    0    0 -0.95081963648E+01 -0.14383593348E+02  0.41615129359E+02  0.46142328207E+02  0.10000095252E+02 0.  0.
         12    1    1    2    0    0  0.95081963648E+01  0.14383593348E+02 -0.41615129359E+02  0.45045671793E+02  0.00000000000E+00 0. -1.
         11    1    3    3    0    0  0.76852193994E+00 -0.53335553289E+01  0.67343051537E+01  0.86248654820E+01  0.51100000000E-03 0. -1.
        -11    1    3    3    0    0 -0.77935003008E+01 -0.63757245459E+01  0.27457934120E+02  0.29245968215E+02  0.51100000000E-03 0.  1.
        -12    1    3    3    0    0 -0.24832180039E+01 -0.26743134736E+01  0.74228900852E+01  0.82714945099E+01  0.00000000000E+00 0.  1.
</event>
<event>
 7    1  0.1445801E-008  0.4614232E+02  0.7816164E-02  0.1320468E+00
        -11   -1    0    0    0    0  0.00000000000E+00  0.00000000000E+00  0.45593999997E+02  0.45594000000E+02  0.51100000000E-03 0. -1.
         11   -1    0    0    0    0 -0.00000000000E+00 -0.00000000000E+00 -0.45593999997E+02  0.45594000000E+02  0.51100000000E-03 0.  1.
    9900012    2    1    2    0    0  0.35519181004E+02 -0.26083865705E+02 -0.93345224545E+01  0.46142316758E+02  0.99999908492E+01 0.  0.
         12    1    1    2    0    0 -0.35519181004E+02  0.26083865705E+02  0.93345224545E+01  0.45045683242E+02  0.00000000000E+00 0. -1.
         11    1    3    3    0    0  0.21056703335E+01  0.12675396803E+00 -0.14935869517E+01  0.25847081779E+01  0.51100000000E-03 0. -1.
        -11    1    3    3    0    0  0.17422913712E+02 -0.11741853332E+02 -0.14247880178E+01  0.21058467728E+02  0.51100000000E-03 0.  1.
        -12    1    3    3    0    0  0.15990596959E+02 -0.14468766341E+02 -0.64161474850E+01  0.22499140852E+02  0.00000000000E+00 0.  1.
</event>
<event>
 7    1  0.1445801E-008  0.4614232E+02  0.7816164E-02  0.1320468E+00
        -11   -1    0    0    0    0  0.00000000000E+00  0.00000000000E+00  0.45593999997E+02  0.45594000000E+02  0.51100000000E-03 0. -1.
         11   -1    0    0    0    0 -0.00000000000E+00 -0.00000000000E+00 -0.45593999997E+02  0.45594000000E+02  0.51100000000E-03 0.  1.
    9900012    2    1    2    0    0  0.27845358934E+02  0.33472974796E+02 -0.11545971030E+02  0.46142317600E+02  0.99999985327E+01 0.  0.
         12    1    1    2    0    0 -0.27845358934E+02 -0.33472974796E+02  0.11545971030E+02  0.45045682400E+02  0.00000000000E+00 0. -1.
         11    1    3    3    0    0  0.94636995213E+01  0.14222853604E+02 -0.84234371485E+01  0.19047453030E+02  0.51100000000E-03 0. -1.
        -11    1    3    3    0    0  0.10258773713E+02  0.13500320666E+02 -0.22553607570E+01  0.17105196538E+02  0.51100000000E-03 0.  1.
         12    1    3    3    0    0  0.81228857000E+01  0.57498005255E+01 -0.86717312436E+00  0.99896680328E+01  0.00000000000E+00 0. -1.
</event>
<event>
 7    1  0.1445801E-008  0.4614232E+02  0.7816164E-02  0.1320468E+00
        -11   -1    0    0    0    0  0.00000000000E+00  0.00000000000E+00  0.45593999997E+02  0.45594000000E+02  0.51100000000E-03 0.  1.
         11   -1    0    0    0    0 -0.00000000000E+00 -0.00000000000E+00 -0.45593999997E+02  0.45594000000E+02  0.51100000000E-03 0. -1.
    9900012    2    1    2    0    0  0.85037167878E+01  0.42470673477E+02 -0.12371022624E+02  0.46142317570E+02  0.99999982578E+01 0.  0.
         12    1    1    2    0    0 -0.85037167878E+01 -0.42470673477E+02  0.12371022624E+02  0.45045682430E+02  0.00000000000E+00 0. -1.
         11    1    3    3    0    0  0.49573001052E+01  0.95330010056E+01 -0.66618929014E+00  0.10765534865E+02  0.51100000000E-03 0. -1.
        -11    1    3    3    0    0  0.21614314010E+01  0.12343401123E+02 -0.63719477449E+01  0.14058202421E+02  0.51100000000E-03 0.  1.
         12    1    3    3    0    0  0.13849852816E+01  0.20594271348E+02 -0.53328855891E+01  0.21318580283E+02  0.00000000000E+00 0. -1.
</event>
<event>
 7    1  0.1445801E-008  0.4614232E+02  0.7816164E-02  0.1320468E+00
        -11   -1    0    0    0    0  0.00000000000E+00  0.00000000000E+00  0.45593999997E+02  0.45594000000E+02  0.51100000000E-03 0.  1.
         11   -1    0    0    0    0 -0.00000000000E+00 -0.00000000000E+00 -0.45593999997E+02  0.45594000000E+02  0.51100000000E-03 0. -1.
    9900012    2    1    2    0    0 -0.27421802669E+02  0.34538340183E+01  0.35570064341E+02  0.46142315320E+02  0.99999777374E+01 0.  0.
         12    1    1    2    0    0  0.27421802669E+02 -0.34538340183E+01 -0.35570064341E+02  0.45045684680E+02  0.00000000000E+00 0. -1.
         11    1    3    3    0    0 -0.12120888711E+01  0.22977605545E+01  0.21854796905E+01  0.33948762475E+01  0.51100000000E-03 0. -1.
        -11    1    3    3    0    0 -0.25591043486E+02  0.51493088848E+00  0.33033737067E+02  0.41789884487E+02  0.51100000000E-03 0.  1.
        -12    1    3    3    0    0 -0.61867031195E+00  0.64114257535E+00  0.35084758355E+00  0.95755458523E+00  0.00000000000E+00 0.  1.
</event>
<event>
 7    1  0.1445801E-008  0.4614232E+02  0.7816164E-02  0.1320468E+00
        -11   -1    0    0    0    0  0.00000000000E+00  0.00000000000E+00  0.45593999997E+02  0.45594000000E+02  0.51100000000E-03 0. -1.
         11   -1    0    0    0    0 -0.00000000000E+00 -0.00000000000E+00 -0.45593999997E+02  0.45594000000E+02  0.51100000000E-03 0.  1.
    9900012    2    1    2    0    0  0.10381126225E+02  0.42723340021E+02 -0.98011163090E+01  0.46142318241E+02  0.10000004378E+02 0.  0.
         12    1    1    2    0    0 -0.10381126225E+02 -0.42723340021E+02  0.98011163090E+01  0.45045681759E+02  0.00000000000E+00 0. -1.
         11    1    3    3    0    0  0.69618351242E+01  0.18460019295E+02 -0.68290701126E+01  0.20877635391E+02  0.51100000000E-03 0. -1.
        -11    1    3    3    0    0  0.44308139807E+01  0.15666179696E+02 -0.32581230171E+01  0.16603513624E+02  0.51100000000E-03 0.  1.
         12    1    3    3    0    0 -0.10115228798E+01  0.85971410294E+01  0.28607682062E+00  0.86611692261E+01  0.00000000000E+00 0. -1.
</event>
<event>
 7    1  0.1445801E-008  0.4614232E+02  0.7816164E-02  0.1320468E+00
        -11   -1    0    0    0    0  0.00000000000E+00  0.00000000000E+00  0.45593999997E+02  0.45594000000E+02  0.51100000000E-03 0.  1.
         11   -1    0    0    0    0 -0.00000000000E+00 -0.00000000000E+00 -0.45593999997E+02  0.45594000000E+02  0.51100000000E-03 0. -1.
    9900012    2    1    2    0    0  0.69546345205E+01  0.70869139141E+01  0.43937708173E+02  0.46142317747E+02  0.99999998675E+01 0.  0.
         12    1    1    2    0    0 -0.69546345205E+01 -0.70869139141E+01 -0.43937708173E+02  0.45045682253E+02  0.00000000000E+00 0. -1.
         11    1    3    3    0    0  0.26065324523E+01  0.20867300773E+01  0.33574082324E+02  0.33739701510E+02  0.51100000000E-03 0. -1.
        -11    1    3    3    0    0  0.14717681121E+01  0.12904947095E+01  0.19199957405E+01  0.27418719655E+01  0.51100000000E-03 0.  1.
         12    1    3    3    0    0  0.28763339561E+01  0.37096891274E+01  0.84436301092E+01  0.96607442710E+01  0.00000000000E+00 0. -1.
</event>
<event>
 7    1  0.1445801E-008  0.4614232E+02  0.7816164E-02  0.1320468E+00
        -11   -1    0    0    0    0  0.00000000000E+00  0.00000000000E+00  0.45593999997E+02  0.45594000000E+02  0.51100000000E-03 0.  1.
         11   -1    0    0    0    0 -0.00000000000E+00 -0.00000000000E+00 -0.45593999997E+02  0.45594000000E+02  0.51100000000E-03 0. -1.
    9900012    2    1    2    0    0  0.30608205858E+01 -0.43204689961E+02  0.12373334829E+02  0.46142320162E+02  0.10000021894E+02 0.  0.
         12    1    1    2    0    0 -0.30608205858E+01  0.43204689961E+02 -0.12373334829E+02  0.45045679838E+02  0.00000000000E+00 0. -1.
         11    1    3    3    0    0 -0.63484495317E+00 -0.14538382864E+02  0.17596117822E+01  0.14658234488E+02  0.51100000000E-03 0. -1.
        -11    1    3    3    0    0  0.20492623842E+01 -0.13796734964E+02  0.86063043790E+01  0.16389565196E+02  0.51100000000E-03 0.  1.
        -12    1    3    3    0    0  0.16464031548E+01 -0.14869572132E+02  0.20074186675E+01  0.15094520478E+02  0.00000000000E+00 0.  1.
</event>
<event>
 7    1  0.1445801E-008  0.4614232E+02  0.7816164E-02  0.1320468E+00
        -11   -1    0    0    0    0  0.00000000000E+00  0.00000000000E+00  0.45593999997E+02  0.45594000000E+02  0.51100000000E-03 0.  1.
         11   -1    0    0    0    0 -0.00000000000E+00 -0.00000000000E+00 -0.45593999997E+02  0.45594000000E+02  0.51100000000E-03 0. -1.
    9900012    2    1    2    0    0  0.36259126737E+02  0.25566278678E+02  0.77945186987E+01  0.46142318754E+02  0.10000009057E+02 0.  0.
         12    1    1    2    0    0 -0.36259126737E+02 -0.25566278678E+02 -0.77945186987E+01  0.45045681246E+02  0.00000000000E+00 0. -1.
         11    1    3    3    0    0  0.21623808975E+02  0.14565746525E+02  0.62959159664E+01  0.26821421375E+02  0.51100000000E-03 0. -1.
        -11    1    3    3    0    0  0.10024726714E+02  0.41554427423E+01 -0.37309341316E+00  0.10858270996E+02  0.51100000000E-03 0.  1.
         12    1    3    3    0    0  0.46105910474E+01  0.68450894104E+01  0.18716961455E+01  0.84626263833E+01  0.00000000000E+00 0. -1.
</event>
<event>
 7    1  0.1445801E-008  0.4614232E+02  0.7816164E-02  0.1320468E+00
        -11   -1    0    0    0    0  0.00000000000E+00  0.00000000000E+00  0.45593999997E+02  0.45594000000E+02  0.51100000000E-03 0.  1.
         11   -1    0    0    0    0 -0.00000000000E+00 -0.00000000000E+00 -0.45593999997E+02  0.45594000000E+02  0.51100000000E-03 0. -1.
    9900012    2    1    2    0    0 -0.41247962847E+02 -0.21288676459E+01  0.17977401439E+02  0.46142317865E+02  0.10000000952E+02 0.  0.
         12    1    1    2    0    0  0.41247962847E+02  0.21288676459E+01 -0.17977401439E+02  0.45045682135E+02  0.00000000000E+00 0. -1.
         11    1    3    3    0    0 -0.11752013093E+02 -0.28314189128E+01  0.57151231317E+01  0.13371214510E+02  0.51100000000E-03 0. -1.
        -11    1    3    3    0    0 -0.27066513501E+02 -0.14835988045E+01  0.11258478795E+02  0.29352181581E+02  0.51100000000E-03 0.  1.
         12    1    3    3    0    0 -0.24294362522E+01  0.21861500714E+01  0.10037995125E+01  0.34189217744E+01  0.00000000000E+00 0. -1.
</event>
<event>
 7    1  0.1445801E-008  0.4614232E+02  0.7816164E-02  0.1320468E+00
        -11   -1    0    0    0    0  0.00000000000E+00  0.00000000000E+00  0.45593999997E+02  0.45594000000E+02  0.51100000000E-03 0.  1.
         11   -1    0    0    0    0 -0.00000000000E+00 -0.00000000000E+00 -0.45593999997E+02  0.45594000000E+02  0.51100000000E-03 0. -1.
    9900012    2    1    2    0    0 -0.21857503806E+01  0.22141176953E+02  0.39167643048E+02  0.46142317815E+02  0.10000000492E+02 0.  0.
         12    1    1    2    0    0  0.21857503806E+01 -0.22141176953E+02 -0.39167643048E+02  0.45045682185E+02  0.00000000000E+00 0. -1.
         11    1    3    3    0    0 -0.11807541162E+01  0.15270543273E+02  0.23194271529E+02  0.27794925871E+02  0.51100000000E-03 0. -1.
        -11    1    3    3    0    0 -0.17507691405E+01  0.69260236833E+01  0.16076683078E+02  0.17592462468E+02  0.51100000000E-03 0.  1.
         12    1    3    3    0    0  0.74577287621E+00 -0.55390003712E-01 -0.10331155910E+00  0.75492947594E+00  0.00000000000E+00 0. -1.
</event>
<event>
 7    1  0.1445801E-008  0.4614232E+02  0.7816164E-02  0.1320468E+00
        -11   -1    0    0    0    0  0.00000000000E+00  0.00000000000E+00  0.45593999997E+02  0.45594000000E+02  0.51100000000E-03 0.  1.
         11   -1    0    0    0    0 -0.00000000000E+00 -0.00000000000E+00 -0.45593999997E+02  0.45594000000E+02  0.51100000000E-03 0. -1.
    9900012    2    1    2    0    0 -0.15013579479E+02 -0.14112074985E+02  0.40056900783E+02  0.46142317304E+02  0.99999958352E+01 0.  0.
         12    1    1    2    0    0  0.15013579479E+02  0.14112074985E+02 -0.40056900783E+02  0.45045682696E+02  0.00000000000E+00 0. -1.
         11    1    3    3    0    0 -0.13344273628E+02 -0.13246802173E+02  0.33602641621E+02  0.38505648035E+02  0.51100000000E-03 0. -1.
        -11    1    3    3    0    0 -0.94685500032E+00 -0.20299918724E+01  0.55753396150E+01  0.60084784661E+01  0.51100000000E-03 0.  1.
         12    1    3    3    0    0 -0.72245085100E+00  0.11647190598E+01  0.87891954719E+00  0.16281908030E+01  0.00000000000E+00 0. -1.
</event>
<event>
 7    1  0.1445801E-008  0.4614232E+02  0.7816164E-02  0.1320468E+00
        -11   -1    0    0    0    0  0.00000000000E+00  0.00000000000E+00  0.45593999997E+02  0.45594000000E+02  0.51100000000E-03 0. -1.
         11   -1    0    0    0    0 -0.00000000000E+00 -0.00000000000E+00 -0.45593999997E+02  0.45594000000E+02  0.51100000000E-03 0.  1.
    9900012    2    1    2    0    0 -0.39484231120E+02 -0.99871161386E+01  0.19244907262E+02  0.46142318171E+02  0.10000003734E+02 0.  0.
         12    1    1    2    0    0  0.39484231120E+02  0.99871161386E+01 -0.19244907262E+02  0.45045681829E+02  0.00000000000E+00 0. -1.
         11    1    3    3    0    0 -0.82709934534E+01  0.16750191918E+00  0.16409588141E+01  0.84338683704E+01  0.51100000000E-03 0. -1.
        -11    1    3    3    0    0 -0.21214492366E+02 -0.80016496026E+01  0.91923657513E+01  0.24465908343E+02  0.51100000000E-03 0.  1.
        -12    1    3    3    0    0 -0.99987453014E+01 -0.21529684552E+01  0.84115826970E+01  0.13242541457E+02  0.00000000000E+00 0.  1.
</event>
<event>
 7    1  0.1445801E-008  0.4614232E+02  0.7816164E-02  0.1320468E+00
        -11   -1    0    0    0    0  0.00000000000E+00  0.00000000000E+00  0.45593999997E+02  0.45594000000E+02  0.51100000000E-03 0. -1.
         11   -1    0    0    0    0 -0.00000000000E+00 -0.00000000000E+00 -0.45593999997E+02  0.45594000000E+02  0.51100000000E-03 0.  1.
    9900012    2    1    2    0    0 -0.76432930073E+01  0.39054987365E+02 -0.21104538140E+02  0.46142317674E+02  0.99999992078E+01 0.  0.
         12    1    1    2    0    0  0.76432930073E+01 -0.39054987365E+02  0.21104538140E+02  0.45045682326E+02  0.00000000000E+00 0. -1.
         11    1    3    3    0    0 -0.88483327852E+01  0.25502796339E+02 -0.12018822715E+02  0.29548903768E+02  0.51100000000E-03 0. -1.
        -11    1    3    3    0    0  0.12003955908E+01  0.65258446139E+01 -0.29357672691E+01  0.72557788844E+01  0.51100000000E-03 0.  1.
        -12    1    3    3    0    0  0.46441871007E-02  0.70263464116E+01 -0.61499481565E+01  0.93376350213E+01  0.00000000000E+00 0.  1.
</event>
<event>
 7    1  0.1445801E-008  0.4614232E+02  0.7816164E-02  0.1320468E+00
        -11   -1    0    0    0    0  0.00000000000E+00  0.00000000000E+00  0.45593999997E+02  0.45594000000E+02  0.51100000000E-03 0.  1.
         11   -1    0    0    0    0 -0.00000000000E+00 -0.00000000000E+00 -0.45593999997E+02  0.45594000000E+02  0.51100000000E-03 0. -1.
    9900012    2    1    2    0    0  0.28377231684E+02  0.16205068184E+01  0.34945961160E+02  0.46142317390E+02  0.99999966200E+01 0.  0.
         12    1    1    2    0    0 -0.28377231684E+02 -0.16205068184E+01 -0.34945961160E+02  0.45045682610E+02  0.00000000000E+00 0. -1.
         11    1    3    3    0    0  0.10344953678E+02  0.29145796399E+01  0.17096241337E+02  0.20193917628E+02  0.51100000000E-03 0. -1.
        -11    1    3    3    0    0  0.23676356423E+01  0.13539704794E+01  0.13490938403E+01  0.30428586962E+01  0.51100000000E-03 0.  1.
         12    1    3    3    0    0  0.15664642364E+02 -0.26480433010E+01  0.16500625983E+02  0.22905541066E+02  0.00000000000E+00 0. -1.
</event>
<event>
 7    1  0.1445801E-008  0.4614232E+02  0.7816164E-02  0.1320468E+00
        -11   -1    0    0    0    0  0.00000000000E+00  0.00000000000E+00  0.45593999997E+02  0.45594000000E+02  0.51100000000E-03 0.  1.
         11   -1    0    0    0    0 -0.00000000000E+00 -0.00000000000E+00 -0.45593999997E+02  0.45594000000E+02  0.51100000000E-03 0. -1.
    9900012    2    1    2    0    0 -0.18822204910E+02 -0.96907894329E+01  0.39760869634E+02  0.46142317060E+02  0.99999936057E+01 0.  0.
         12    1    1    2    0    0  0.18822204910E+02  0.96907894329E+01 -0.39760869634E+02  0.45045682940E+02  0.00000000000E+00 0. -1.
         11    1    3    3    0    0 -0.40718593511E+01 -0.61692566483E+00  0.37681940054E+01  0.55821073238E+01  0.51100000000E-03 0. -1.
        -11    1    3    3    0    0 -0.13454991374E+02 -0.55416134335E+01  0.24820659530E+02  0.28771712012E+02  0.51100000000E-03 0.  1.
        -12    1    3    3    0    0 -0.12953541844E+01 -0.35322503345E+01  0.11172016099E+02  0.11788497724E+02  0.00000000000E+00 0.  1.
</event>
<event>
 7    1  0.1445801E-008  0.4614233E+02  0.7816164E-02  0.1320468E+00
        -11   -1    0    0    0    0  0.00000000000E+00  0.00000000000E+00  0.45593999997E+02  0.45594000000E+02  0.51100000000E-03 0.  1.
         11   -1    0    0    0    0 -0.00000000000E+00 -0.00000000000E+00 -0.45593999997E+02  0.45594000000E+02  0.51100000000E-03 0. -1.
    9900012    2    1    2    0    0 -0.29581900325E+02 -0.27756671118E+02  0.19585479567E+02  0.46142327308E+02  0.10000087054E+02 0.  0.
         12    1    1    2    0    0  0.29581900325E+02  0.27756671118E+02 -0.19585479567E+02  0.45045672692E+02  0.00000000000E+00 0. -1.
         11    1    3    3    0    0 -0.17773329877E+02 -0.12300775750E+02  0.12668956708E+02  0.25053997751E+02  0.51100000000E-03 0. -1.
        -11    1    3    3    0    0 -0.17514103981E+01 -0.47530772291E+01  0.30049858955E+01  0.58897471951E+01  0.51100000000E-03 0.  1.
         12    1    3    3    0    0 -0.10057160051E+02 -0.10702818139E+02  0.39115369636E+01  0.15198582362E+02  0.00000000000E+00 0. -1.
</event>
<event>
 7    1  0.1445801E-008  0.4614232E+02  0.7816164E-02  0.1320468E+00
        -11   -1    0    0    0    0  0.00000000000E+00  0.00000000000E+00  0.45593999997E+02  0.45594000000E+02  0.51100000000E-03 0.  1.
         11   -1    0    0    0    0 -0.00000000000E+00 -0.00000000000E+00 -0.45593999997E+02  0.45594000000E+02  0.51100000000E-03 0. -1.
    9900012    2    1    2    0    0 -0.25533223922E+02  0.26252816555E+02  0.26228946114E+02  0.46142317463E+02  0.99999972854E+01 0.  0.
         12    1    1    2    0    0  0.25533223922E+02 -0.26252816555E+02 -0.26228946114E+02  0.45045682537E+02  0.00000000000E+00 0. -1.
         11    1    3    3    0    0 -0.61115043629E+01  0.11675842719E+02  0.12897859725E+02  0.18439917964E+02  0.51100000000E-03 0. -1.
        -11    1    3    3    0    0 -0.86582512732E+01  0.65644821539E+01  0.59928023990E+01  0.12408522149E+02  0.51100000000E-03 0.  1.
         12    1    3    3    0    0 -0.10763468286E+02  0.80124916825E+01  0.73382839903E+01  0.15293877351E+02  0.00000000000E+00 0. -1.
</event>
<event>
 7    1  0.1445801E-008  0.4614232E+02  0.7816164E-02  0.1320468E+00
        -11   -1    0    0    0    0  0.00000000000E+00  0.00000000000E+00  0.45593999997E+02  0.45594000000E+02  0.51100000000E-03 0.  1.
         11   -1    0    0    0    0 -0.00000000000E+00 -0.00000000000E+00 -0.45593999997E+02  0.45594000000E+02  0.51100000000E-03 0. -1.
    9900012    2    1    2    0    0 -0.41398649469E+00  0.22214802401E+02  0.39184749997E+02  0.46142318044E+02  0.10000002581E+02 0.  0.
         12    1    1    2    0    0  0.41398649469E+00 -0.22214802401E+02 -0.39184749997E+02  0.45045681956E+02  0.00000000000E+00 0. -1.
         11    1    3    3    0    0  0.90050624886E+00  0.40764016602E-01  0.26714160940E+01  0.28194037345E+01  0.51100000000E-03 0. -1.
        -11    1    3    3    0    0 -0.18560077465E+01  0.22316799302E+02  0.33751765037E+02  0.40505134726E+02  0.51100000000E-03 0.  1.
        -12    1    3    3    0    0  0.54151500298E+00 -0.14276091753E+00  0.27615688662E+01  0.28177795834E+01  0.00000000000E+00 0.  1.
</event>
<event>
 7    1  0.1445801E-008  0.4614232E+02  0.7816164E-02  0.1320468E+00
        -11   -1    0    0    0    0  0.00000000000E+00  0.00000000000E+00  0.45593999997E+02  0.45594000000E+02  0.51100000000E-03 0. -1.
         11   -1    0    0    0    0 -0.00000000000E+00 -0.00000000000E+00 -0.45593999997E+02  0.45594000000E+02  0.51100000000E-03 0.  1.
    9900012    2    1    2    0    0  0.34209746184E+01  0.28269424148E+02 -0.34903438665E+02  0.46142318302E+02  0.10000004934E+02 0.  0.
         12    1    1    2    0    0 -0.34209746184E+01 -0.28269424148E+02  0.34903438665E+02  0.45045681698E+02  0.00000000000E+00 0. -1.
         11    1    3    3    0    0 -0.18468990439E+01  0.37620562475E+01 -0.33657033095E+01  0.53751337022E+01  0.51100000000E-03 0. -1.
        -11    1    3    3    0    0  0.28242892112E+01  0.11992109209E+02 -0.20423859329E+02  0.23852071671E+02  0.51100000000E-03 0.  1.
        -12    1    3    3    0    0  0.24435844511E+01  0.12515258692E+02 -0.11113876026E+02  0.16915112929E+02  0.00000000000E+00 0.  1.
</event>
<event>
 7    1  0.1445801E-008  0.4614232E+02  0.7816164E-02  0.1320468E+00
        -11   -1    0    0    0    0  0.00000000000E+00  0.00000000000E+00  0.45593999997E+02  0.45594000000E+02  0.51100000000E-03 0.  1.
         11   -1    0    0    0    0 -0.00000000000E+00 -0.00000000000E+00 -0.45593999997E+02  0.45594000000E+02  0.51100000000E-03 0. -1.
    9900012    2    1    2    0    0 -0.20909207408E+02 -0.16335412583E+02  0.36401550337E+02  0.46142317348E+02  0.99999962289E+01 0.  0.
         12    1    1    2    0    0  0.20909207408E+02  0.16335412583E+02 -0.36401550337E+02  0.45045682652E+02  0.00000000000E+00 0. -1.
         11    1    3    3    0    0  0.10505122253E+00 -0.19309231702E+01  0.27645504525E+01  0.33737574771E+01  0.51100000000E-03 0. -1.
        -11    1    3    3    0    0 -0.19846061360E+02 -0.14912254329E+02  0.30140665729E+02  0.39047422598E+02  0.51100000000E-03 0.  1.
        -12    1    3    3    0    0 -0.11681972704E+01  0.50776491681E+00  0.34963341557E+01  0.37211372726E+01  0.00000000000E+00 0.  1.
</event>
<event>
 7    1  0.1445801E-008  0.4614232E+02  0.7816164E-02  0.1320468E+00
        -11   -1    0    0    0    0  0.00000000000E+00  0.00000000000E+00  0.45593999997E+02  0.45594000000E+02  0.51100000000E-03 0. -1.
         11   -1    0    0    0    0 -0.00000000000E+00 -0.00000000000E+00 -0.45593999997E+02  0.45594000000E+02  0.51100000000E-03 0.  1.
    9900012    2    1    2    0    0 -0.26684678875E+02  0.25238091936E+02 -0.26078346720E+02  0.46142317200E+02  0.99999948869E+01 0.  0.
         12    1    1    2    0    0  0.26684678875E+02 -0.25238091936E+02  0.26078346720E+02  0.45045682800E+02  0.00000000000E+00 0. -1.
         11    1    3    3    0    0 -0.46282913106E+01  0.11190314685E+01 -0.17121872391E+01  0.50601281887E+01  0.51100000000E-03 0. -1.
        -11    1    3    3    0    0 -0.12349290612E+02  0.11538049386E+02 -0.15241535206E+02  0.22758206387E+02  0.51100000000E-03 0.  1.
        -12    1    3    3    0    0 -0.97070969521E+01  0.12581011081E+02 -0.91246242753E+01  0.18323982625E+02  0.00000000000E+00 0.  1.
</event>
<event>
 7    1  0.1445801E-008  0.4614232E+02  0.7816164E-02  0.1320468E+00
        -11   -1    0    0    0    0  0.00000000000E+00  0.00000000000E+00  0.45593999997E+02  0.45594000000E+02  0.51100000000E-03 0.  1.
         11   -1    0    0    0    0 -0.00000000000E+00 -0.00000000000E+00 -0.45593999997E+02  0.45594000000E+02  0.51100000000E-03 0. -1.
    9900012    2    1    2    0    0  0.91646637826E+01 -0.22709378702E+02  0.37807492859E+02  0.46142318081E+02  0.10000002919E+02 0.  0.
         12    1    1    2    0    0 -0.91646637826E+01  0.22709378702E+02 -0.37807492859E+02  0.45045681919E+02  0.00000000000E+00 0. -1.
         11    1    3    3    0    0  0.48890759748E+01 -0.77718396225E+01  0.20682025944E+02  0.22628538451E+02  0.51100000000E-03 0. -1.
        -11    1    3    3    0    0  0.21526172471E+01 -0.12687928484E+02  0.14982670877E+02  0.19750891552E+02  0.51100000000E-03 0.  1.
         12    1    3    3    0    0  0.21229705607E+01 -0.22496105955E+01  0.21427960373E+01  0.37628880784E+01  0.00000000000E+00 0. -1.
</event>
<event>
 7    1  0.1445801E-008  0.4614232E+02  0.7816164E-02  0.1320468E+00
        -11   -1    0    0    0    0  0.00000000000E+00  0.00000000000E+00  0.45593999997E+02  0.45594000000E+02  0.51100000000E-03 0.  1.
         11   -1    0    0    0    0 -0.00000000000E+00 -0.00000000000E+00 -0.45593999997E+02  0.45594000000E+02  0.51100000000E-03 0. -1.
    9900012    2    1    2    0    0  0.44876585550E+01 -0.16628763510E+02  0.41622813657E+02  0.46142317943E+02  0.10000001662E+02 0.  0.
         12    1    1    2    0    0 -0.44876585550E+01  0.16628763510E+02 -0.41622813657E+02  0.45045682057E+02  0.00000000000E+00 0. -1.
         11    1    3    3    0    0  0.21528160091E+00 -0.64813912850E+01  0.82057107431E+01  0.10458894216E+02  0.51100000000E-03 0. -1.
        -11    1    3    3    0    0  0.35092729935E+01 -0.78973688082E+01  0.16751355456E+02  0.18849173481E+02  0.51100000000E-03 0.  1.
         12    1    3    3    0    0  0.76310396061E+00 -0.22500034172E+01  0.16665747458E+02  0.16834250246E+02  0.00000000000E+00 0. -1.
</event>
<event>
 7    1  0.1445801E-008  0.4614232E+02  0.7816164E-02  0.1320468E+00
        -11   -1    0    0    0    0  0.00000000000E+00  0.00000000000E+00  0.45593999997E+02  0.45594000000E+02  0.51100000000E-03 0.  1.
         11   -1    0    0    0    0 -0.00000000000E+00 -0.00000000000E+00 -0.45593999997E+02  0.45594000000E+02  0.51100000000E-03 0. -1.
    9900012    2    1    2    0    0 -0.29173491638E+01  0.44917354660E+02  0.17417531929E+01  0.46142318964E+02  0.10000010969E+02 0.  0.
         12    1    1    2    0    0  0.29173491638E+01 -0.44917354660E+02 -0.17417531929E+01  0.45045681036E+02  0.00000000000E+00 0. -1.
         11    1    3    3    0    0  0.98429988645E+00  0.12114343598E+02 -0.22301300427E+00  0.12156311206E+02  0.51100000000E-03 0. -1.
        -11    1    3    3    0    0 -0.59062759003E+01  0.26739021163E+02  0.29727956407E+00  0.27385173419E+02  0.51100000000E-03 0.  1.
        -12    1    3    3    0    0  0.20046268500E+01  0.60639898989E+01  0.16674866331E+01  0.66008343392E+01  0.00000000000E+00 0.  1.
</event>
<event>
 7    1  0.1445801E-008  0.4614232E+02  0.7816164E-02  0.1320468E+00
        -11   -1    0    0    0    0  0.00000000000E+00  0.00000000000E+00  0.45593999997E+02  0.45594000000E+02  0.51100000000E-03 0.  1.
         11   -1    0    0    0    0 -0.00000000000E+00 -0.00000000000E+00 -0.45593999997E+02  0.45594000000E+02  0.51100000000E-03 0. -1.
    9900012    2    1    2    0    0 -0.43592634217E+02  0.10864682497E+02 -0.32794191069E+01  0.46142315707E+02  0.99999812706E+01 0.  0.
         12    1    1    2    0    0  0.43592634217E+02 -0.10864682497E+02  0.32794191069E+01  0.45045684293E+02  0.00000000000E+00 0. -1.
         11    1    3    3    0    0 -0.19002451131E+02  0.22598543934E+01  0.26744793398E+01  0.19322342789E+02  0.51100000000E-03 0. -1.
        -11    1    3    3    0    0 -0.88135699765E+01  0.34904035606E+01 -0.11231380398E+01  0.95458562771E+01  0.51100000000E-03 0.  1.
         12    1    3    3    0    0 -0.15776613109E+02  0.51144245432E+01 -0.48307604069E+01  0.17274116641E+02  0.00000000000E+00 0. -1.
</event>
<event>
 7    1  0.1445801E-008  0.4614232E+02  0.7816164E-02  0.1320468E+00
        -11   -1    0    0    0    0  0.00000000000E+00  0.00000000000E+00  0.45593999997E+02  0.45594000000E+02  0.51100000000E-03 0. -1.
         11   -1    0    0    0    0 -0.00000000000E+00 -0.00000000000E+00 -0.45593999997E+02  0.45594000000E+02  0.51100000000E-03 0.  1.
    9900012    2    1    2    0    0 -0.57729338197E+01  0.24102283814E+02 -0.37614712624E+02  0.46142318124E+02  0.10000003308E+02 0.  0.
         12    1    1    2    0    0  0.57729338197E+01 -0.24102283814E+02  0.37614712624E+02  0.45045681876E+02  0.00000000000E+00 0. -1.
         11    1    3    3    0    0 -0.50616402517E+00  0.89495197874E+00 -0.56115568834E+01  0.57049725662E+01  0.51100000000E-03 0. -1.
        -11    1    3    3    0    0 -0.65713279934E+01  0.14604936477E+02 -0.20981974705E+02  0.26395639486E+02  0.51100000000E-03 0.  1.
         12    1    3    3    0    0  0.13045581988E+01  0.86023953578E+01 -0.11021181035E+02  0.14041706071E+02  0.00000000000E+00 0. -1.
</event>
<event>
 7    1  0.1445801E-008  0.4614232E+02  0.7816164E-02  0.1320468E+00
        -11   -1    0    0    0    0  0.00000000000E+00  0.00000000000E+00  0.45593999997E+02  0.45594000000E+02  0.51100000000E-03 0. -1.
         11   -1    0    0    0    0 -0.00000000000E+00 -0.00000000000E+00 -0.45593999997E+02  0.45594000000E+02  0.51100000000E-03 0.  1.
    9900012    2    1    2    0    0 -0.97269072685E+01  0.42396386112E+02 -0.11706716713E+02  0.46142317670E+02  0.99999991654E+01 0.  0.
         12    1    1    2    0    0  0.97269072685E+01 -0.42396386112E+02  0.11706716713E+02  0.45045682330E+02  0.00000000000E+00 0. -1.
         11    1    3    3    0    0 -0.29565973014E+01  0.88826345837E+01  0.50136032058E-01  0.93619003750E+01  0.51100000000E-03 0. -1.
        -11    1    3    3    0    0 -0.61577605407E+01  0.14711350068E+02 -0.40781343942E+01  0.16461258035E+02  0.51100000000E-03 0.  1.
         12    1    3    3    0    0 -0.61254942643E+00  0.18802401461E+02 -0.76787183512E+01  0.20319159260E+02  0.00000000000E+00 0. -1.
</event>
<event>
 7    1  0.1445801E-008  0.4614232E+02  0.7816164E-02  0.1320468E+00
        -11   -1    0    0    0    0  0.00000000000E+00  0.00000000000E+00  0.45593999997E+02  0.45594000000E+02  0.51100000000E-03 0.  1.
         11   -1    0    0    0    0 -0.00000000000E+00 -0.00000000000E+00 -0.45593999997E+02  0.45594000000E+02  0.51100000000E-03 0. -1.
    9900012    2    1    2    0    0  0.24250357552E+02  0.72371303618E+01  0.37264690646E+02  0.46142322447E+02  0.10000042731E+02 0.  0.
         12    1    1    2    0    0 -0.24250357552E+02 -0.72371303618E+01 -0.37264690646E+02  0.45045677553E+02  0.00000000000E+00 0. -1.
         11    1    3    3    0    0  0.98810468469E+01  0.21042824072E+00  0.13636377125E+02  0.16841322638E+02  0.51100000000E-03 0. -1.
        -11    1    3    3    0    0  0.57834946582E+01  0.12642512250E+01  0.40910554856E+01  0.71961015049E+01  0.51100000000E-03 0.  1.
         12    1    3    3    0    0  0.85858160470E+01  0.57624508961E+01  0.19537258035E+02  0.22104898304E+02  0.00000000000E+00 0. -1.
</event>
<event>
 7    1  0.1445801E-008  0.4614232E+02  0.7816164E-02  0.1320468E+00
        -11   -1    0    0    0    0  0.00000000000E+00  0.00000000000E+00  0.45593999997E+02  0.45594000000E+02  0.51100000000E-03 0. -1.
         11   -1    0    0    0    0 -0.00000000000E+00 -0.00000000000E+00 -0.45593999997E+02  0.45594000000E+02  0.51100000000E-03 0.  1.
    9900012    2    1    2    0    0  0.38863666593E+02 -0.20120023260E+02 -0.10673029516E+02  0.46142317897E+02  0.10000001243E+02 0.  0.
         12    1    1    2    0    0 -0.38863666593E+02  0.20120023260E+02  0.10673029516E+02  0.45045682103E+02  0.00000000000E+00 0. -1.
         11    1    3    3    0    0  0.31076360083E+01  0.21646839572E+00 -0.62820389048E+00  0.31778767307E+01  0.51100000000E-03 0. -1.
        -11    1    3    3    0    0  0.26226171905E+02 -0.12138253091E+02 -0.93516435558E+01  0.30374372723E+02  0.51100000000E-03 0.  1.
         12    1    3    3    0    0  0.95298586799E+01 -0.81982385652E+01 -0.69318207005E+00  0.12590068444E+02  0.00000000000E+00 0. -1.
</event>
<event>
 7    1  0.1445801E-008  0.4614232E+02  0.7816164E-02  0.1320468E+00
        -11   -1    0    0    0    0  0.00000000000E+00  0.00000000000E+00  0.45593999997E+02  0.45594000000E+02  0.51100000000E-03 0. -1.
         11   -1    0    0    0    0 -0.00000000000E+00 -0.00000000000E+00 -0.45593999997E+02  0.45594000000E+02  0.51100000000E-03 0.  1.
    9900012    2    1    2    0    0 -0.14284690810E+02 -0.25540695815E+02 -0.34245203436E+02  0.46142317714E+02  0.99999995712E+01 0.  0.
         12    1    1    2    0    0  0.14284690810E+02  0.25540695815E+02  0.34245203436E+02  0.45045682286E+02  0.00000000000E+00 0. -1.
         11    1    3    3    0    0 -0.94435162869E+01 -0.11087818809E+02 -0.14175381087E+02  0.20323905998E+02  0.51100000000E-03 0. -1.
        -11    1    3    3    0    0 -0.35809609054E+01 -0.76200456300E+01 -0.15055810329E+02  0.17250095690E+02  0.51100000000E-03 0.  1.
        -12    1    3    3    0    0 -0.12602136177E+01 -0.68328313764E+01 -0.50140120199E+01  0.85683160257E+01  0.00000000000E+00 0.  1.
</event>
<event>
 7    1  0.1445801E-008  0.4614232E+02  0.7816164E-02  0.1320468E+00
        -11   -1    0    0    0    0  0.00000000000E+00  0.00000000000E+00  0.45593999997E+02  0.45594000000E+02  0.51100000000E-03 0.  1.
         11   -1    0    0    0    0 -0.00000000000E+00 -0.00000000000E+00 -0.45593999997E+02  0.45594000000E+02  0.51100000000E-03 0. -1.
    9900012    2    1    2    0    0 -0.65496698742E+01 -0.16544696659E+02  0.41382223144E+02  0.46142317017E+02  0.99999932168E+01 0.  0.
         12    1    1    2    0    0  0.65496698742E+01  0.16544696659E+02 -0.41382223144E+02  0.45045682983E+02  0.00000000000E+00 0. -1.
         11    1    3    3    0    0 -0.37452739653E+00 -0.47951579862E+01  0.22082627744E+02  0.22600359714E+02  0.51100000000E-03 0. -1.
        -11    1    3    3    0    0 -0.36889520418E+01 -0.91967317958E+01  0.13808829016E+02  0.16996234935E+02  0.51100000000E-03 0.  1.
         12    1    3    3    0    0 -0.24861904358E+01 -0.25528068773E+01  0.54907663843E+01  0.65457223683E+01  0.00000000000E+00 0. -1.
</event>
<event>
 7    1  0.1445801E-008  0.4614232E+02  0.7816164E-02  0.1320468E+00
        -11   -1    0    0    0    0  0.00000000000E+00  0.00000000000E+00  0.45593999997E+02  0.45594000000E+02  0.51100000000E-03 0.  1.
         11   -1    0    0    0    0 -0.00000000000E+00 -0.00000000000E+00 -0.45593999997E+02  0.45594000000E+02  0.51100000000E-03 0. -1.
    9900012    2    1    2    0    0 -0.14539200790E+02  0.28061794738E+01  0.42542337523E+02  0.46142317801E+02  0.10000000362E+02 0.  0.
         12    1    1    2    0    0  0.14539200790E+02 -0.28061794738E+01 -0.42542337523E+02  0.45045682199E+02  0.00000000000E+00 0. -1.
         11    1    3    3    0    0  0.10462329966E+01  0.78778834508E+00  0.45674471873E+01  0.47515037651E+01  0.51100000000E-03 0. -1.
        -11    1    3    3    0    0 -0.10227820218E+02  0.32360336615E+01  0.28295578106E+02  0.30260865171E+02  0.51100000000E-03 0.  1.
         12    1    3    3    0    0 -0.53576135688E+01 -0.12176425327E+01  0.96793122296E+01  0.11129948865E+02  0.00000000000E+00 0. -1.
</event>
<event>
 7    1  0.1445801E-008  0.4614232E+02  0.7816164E-02  0.1320468E+00
        -11   -1    0    0    0    0  0.00000000000E+00  0.00000000000E+00  0.45593999997E+02  0.45594000000E+02  0.51100000000E-03 0.  1.
         11   -1    0    0    0    0 -0.00000000000E+00 -0.00000000000E+00 -0.45593999997E+02  0.45594000000E+02  0.51100000000E-03 0. -1.
    9900012    2    1    2    0    0 -0.32683070662E+02  0.20211920675E+02  0.23503376181E+02  0.46142317219E+02  0.99999950574E+01 0.  0.
         12    1    1    2    0    0  0.32683070662E+02 -0.20211920675E+02 -0.23503376181E+02  0.45045682781E+02  0.00000000000E+00 0. -1.
         11    1    3    3    0    0 -0.21218637942E+02  0.14076081978E+02  0.13259748694E+02  0.28708667953E+02  0.51100000000E-03 0. -1.
        -11    1    3    3    0    0 -0.38947516199E+01  0.48677201495E+01  0.60517982374E+01  0.86883860298E+01  0.51100000000E-03 0.  1.
         12    1    3    3    0    0 -0.75696811002E+01  0.12681185480E+01  0.41918292501E+01  0.87452632364E+01  0.00000000000E+00 0. -1.
</event>
<event>
 7    1  0.1932529E-008  0.4614232E+02  0.7816164E-02  0.1320468E+00
        -11   -1    0    0    0    0  0.00000000000E+00  0.00000000000E+00  0.45593999997E+02  0.45594000000E+02  0.51100000000E-03 0.  1.
         11   -1    0    0    0    0 -0.00000000000E+00 -0.00000000000E+00 -0.45593999997E+02  0.45594000000E+02  0.51100000000E-03 0. -1.
    9900012    2    1    2    0    0  0.20457073678E+02  0.33300308278E+02  0.22398908469E+02  0.46142317682E+02  0.99999992759E+01 0.  0.
         12    1    1    2    0    0 -0.20457073678E+02 -0.33300308278E+02 -0.22398908469E+02  0.45045682318E+02  0.00000000000E+00 0. -1.
         11    1    3    3    0    0  0.51869318665E+00  0.67838525884E+01  0.25723080394E+01  0.72736832124E+01  0.51100000000E-03 0. -1.
        -11    1    3    3    0    0  0.13559740655E+02  0.20776253482E+02  0.13880256925E+02  0.28428521030E+02  0.51100000000E-03 0.  1.
         12    1    3    3    0    0  0.63786398363E+01  0.57402022078E+01  0.59463435047E+01  0.10440113439E+02  0.00000000000E+00 0. -1.
</event>
<event>
 7    1  0.1445801E-008  0.4614232E+02  0.7816164E-02  0.1320468E+00
        -11   -1    0    0    0    0  0.00000000000E+00  0.00000000000E+00  0.45593999997E+02  0.45594000000E+02  0.51100000000E-03 0.  1.
         11   -1    0    0    0    0 -0.00000000000E+00 -0.00000000000E+00 -0.45593999997E+02  0.45594000000E+02  0.51100000000E-03 0. -1.
    9900012    2    1    2    0    0  0.21429106247E+01 -0.44422989361E+02 -0.71497754168E+01  0.46142319428E+02  0.10000015196E+02 0.  0.
         12    1    1    2    0    0 -0.21429106247E+01  0.44422989361E+02  0.71497754168E+01  0.45045680572E+02  0.00000000000E+00 0. -1.
         11    1    3    3    0    0  0.45519417377E+00 -0.32294266583E+01 -0.20262319010E+01  0.38395330777E+01  0.51100000000E-03 0. -1.
        -11    1    3    3    0    0 -0.28092733423E+01 -0.79657501834E+01 -0.59365159684E+00  0.84674444300E+01  0.51100000000E-03 0.  1.
        -12    1    3    3    0    0  0.44969897932E+01 -0.33227812519E+02 -0.45298919189E+01  0.33835341920E+02  0.00000000000E+00 0.  1.
</event>
<event>
 7    1  0.1445801E-008  0.4614232E+02  0.7816164E-02  0.1320468E+00
        -11   -1    0    0    0    0  0.00000000000E+00  0.00000000000E+00  0.45593999997E+02  0.45594000000E+02  0.51100000000E-03 0.  1.
         11   -1    0    0    0    0 -0.00000000000E+00 -0.00000000000E+00 -0.45593999997E+02  0.45594000000E+02  0.51100000000E-03 0. -1.
    9900012    2    1    2    0    0 -0.37674256981E+02 -0.21686934453E+02  0.11808506030E+02  0.46142316748E+02  0.99999907583E+01 0.  0.
         12    1    1    2    0    0  0.37674256981E+02  0.21686934453E+02 -0.11808506030E+02  0.45045683252E+02  0.00000000000E+00 0. -1.
         11    1    3    3    0    0 -0.11118931633E+01 -0.21459911391E+00  0.92907220906E+00  0.14647643554E+01  0.51100000000E-03 0. -1.
        -11    1    3    3    0    0 -0.29652455925E+02 -0.17518653075E+02  0.12337744031E+02  0.36584030340E+02  0.51100000000E-03 0.  1.
        -12    1    3    3    0    0 -0.69099078928E+01 -0.39536822643E+01 -0.14583102100E+01  0.80935220518E+01  0.00000000000E+00 0.  1.
</event>
<event>
 7    1  0.1445801E-008  0.4614232E+02  0.7816164E-02  0.1320468E+00
        -11   -1    0    0    0    0  0.00000000000E+00  0.00000000000E+00  0.45593999997E+02  0.45594000000E+02  0.51100000000E-03 0. -1.
         11   -1    0    0    0    0 -0.00000000000E+00 -0.00000000000E+00 -0.45593999997E+02  0.45594000000E+02  0.51100000000E-03 0.  1.
    9900012    2    1    2    0    0 -0.43450616814E+02  0.92727591555E+01  0.74278637455E+01  0.46142319589E+02  0.10000016664E+02 0.  0.
         12    1    1    2    0    0  0.43450616814E+02 -0.92727591555E+01 -0.74278637455E+01  0.45045680411E+02  0.00000000000E+00 0. -1.
         11    1    3    3    0    0 -0.12220820042E+02  0.40548307138E+01  0.63709518636E+01  0.14365901382E+02  0.51100000000E-03 0. -1.
        -11    1    3    3    0    0 -0.16824341005E+02  0.34505733969E+01 -0.48415056257E+00  0.17181365168E+02  0.51100000000E-03 0.  1.
        -12    1    3    3    0    0 -0.14405455768E+02  0.17673550448E+01  0.15410624444E+01  0.14595053038E+02  0.00000000000E+00 0.  1.
</event>
<event>
 7    1  0.1445801E-008  0.4614231E+02  0.7816164E-02  0.1320468E+00
        -11   -1    0    0    0    0  0.00000000000E+00  0.00000000000E+00  0.45593999997E+02  0.45594000000E+02  0.51100000000E-03 0.  1.
         11   -1    0    0    0    0 -0.00000000000E+00 -0.00000000000E+00 -0.45593999997E+02  0.45594000000E+02  0.51100000000E-03 0. -1.
    9900012    2    1    2    0    0 -0.13850237743E+02  0.34248294967E+02  0.25774776526E+02  0.46142313207E+02  0.99999584751E+01 0.  0.
         12    1    1    2    0    0  0.13850237743E+02 -0.34248294967E+02 -0.25774776526E+02  0.45045686793E+02  0.00000000000E+00 0. -1.
         11    1    3    3    0    0 -0.38692083304E+01  0.10226169186E+02  0.47827733169E+01  0.11933994729E+02  0.51100000000E-03 0. -1.
        -11    1    3    3    0    0 -0.11710775449E+00  0.53302511390E+00  0.29265458025E+01  0.29769952290E+01  0.51100000000E-03 0.  1.
        -12    1    3    3    0    0 -0.98639216578E+01  0.23489100667E+02  0.18065457407E+02  0.31231323249E+02  0.00000000000E+00 0.  1.
</event>
<event>
 7    1  0.1445801E-008  0.4614232E+02  0.7816164E-02  0.1320468E+00
        -11   -1    0    0    0    0  0.00000000000E+00  0.00000000000E+00  0.45593999997E+02  0.45594000000E+02  0.51100000000E-03 0. -1.
         11   -1    0    0    0    0 -0.00000000000E+00 -0.00000000000E+00 -0.45593999997E+02  0.45594000000E+02  0.51100000000E-03 0.  1.
    9900012    2    1    2    0    0 -0.43184549798E+02  0.11375948968E+02  0.58988099828E+01  0.46142317461E+02  0.99999972659E+01 0.  0.
         12    1    1    2    0    0  0.43184549798E+02 -0.11375948968E+02 -0.58988099828E+01  0.45045682539E+02  0.00000000000E+00 0. -1.
         11    1    3    3    0    0 -0.23040898869E+01  0.82483431089E-02  0.90001586493E+00  0.24736465108E+01  0.51100000000E-03 0. -1.
        -11    1    3    3    0    0 -0.13869207846E+02  0.40547717684E+01 -0.25767166419E+01  0.14677723573E+02  0.51100000000E-03 0.  1.
        -12    1    3    3    0    0 -0.27011252065E+02  0.73129288567E+01  0.75755107598E+01  0.28990947378E+02  0.00000000000E+00 0.  1.
</event>
<event>
 7    1  0.1445801E-008  0.4614232E+02  0.7816164E-02  0.1320468E+00
        -11   -1    0    0    0    0  0.00000000000E+00  0.00000000000E+00  0.45593999997E+02  0.45594000000E+02  0.51100000000E-03 0.  1.
         11   -1    0    0    0    0 -0.00000000000E+00 -0.00000000000E+00 -0.45593999997E+02  0.45594000000E+02  0.51100000000E-03 0. -1.
    9900012    2    1    2    0    0 -0.29731102668E+02  0.20739806433E+02  0.26740146033E+02  0.46142318225E+02  0.10000004229E+02 0.  0.
         12    1    1    2    0    0  0.29731102668E+02 -0.20739806433E+02 -0.26740146033E+02  0.45045681775E+02  0.00000000000E+00 0. -1.
         11    1    3    3    0    0 -0.91873334348E+01  0.32422739641E+01  0.69419730144E+01  0.11962876982E+02  0.51100000000E-03 0. -1.
        -11    1    3    3    0    0 -0.12339307524E+02  0.10358134036E+02  0.15874517825E+02  0.22617465979E+02  0.51100000000E-03 0.  1.
         12    1    3    3    0    0 -0.82044617088E+01  0.71393984332E+01  0.39236551937E+01  0.11561975264E+02  0.00000000000E+00 0. -1.
</event>
<event>
 7    1  0.1445801E-008  0.4614232E+02  0.7816164E-02  0.1320468E+00
        -11   -1    0    0    0    0  0.00000000000E+00  0.00000000000E+00  0.45593999997E+02  0.45594000000E+02  0.51100000000E-03 0. -1.
         11   -1    0    0    0    0 -0.00000000000E+00 -0.00000000000E+00 -0.45593999997E+02  0.45594000000E+02  0.51100000000E-03 0.  1.
    9900012    2    1    2    0    0 -0.78713085128E+01 -0.27564244185E+02 -0.34747207881E+02  0.46142317513E+02  0.99999977383E+01 0.  0.
         12    1    1    2    0    0  0.78713085128E+01  0.27564244185E+02  0.34747207881E+02  0.45045682487E+02  0.00000000000E+00 0. -1.
         11    1    3    3    0    0 -0.43935228374E+01 -0.11639182406E+02 -0.97091694751E+01  0.15781051364E+02  0.51100000000E-03 0. -1.
        -11    1    3    3    0    0 -0.40987065540E+01 -0.83276567312E+01 -0.11048809989E+02  0.14430019560E+02  0.51100000000E-03 0.  1.
        -12    1    3    3    0    0  0.62092087856E+00 -0.75974050474E+01 -0.13989228417E+02  0.15931246589E+02  0.00000000000E+00 0.  1.
</event>
<event>
 7    1  0.1445801E-008  0.4614232E+02  0.7816164E-02  0.1320468E+00
        -11   -1    0    0    0    0  0.00000000000E+00  0.00000000000E+00  0.45593999997E+02  0.45594000000E+02  0.51100000000E-03 0. -1.
         11   -1    0    0    0    0 -0.00000000000E+00 -0.00000000000E+00 -0.45593999997E+02  0.45594000000E+02  0.51100000000E-03 0.  1.
    9900012    2    1    2    0    0 -0.19517868195E+02 -0.33480261733E+02 -0.22961667834E+02  0.46142319915E+02  0.10000019638E+02 0.  0.
         12    1    1    2    0    0  0.19517868195E+02  0.33480261733E+02  0.22961667834E+02  0.45045680085E+02  0.00000000000E+00 0. -1.
         11    1    3    3    0    0 -0.38204392639E+01 -0.49669509715E+01 -0.27865606180E+01  0.68579354373E+01  0.51100000000E-03 0. -1.
        -11    1    3    3    0    0 -0.12988472261E+01 -0.71769506357E+01 -0.14059173088E+01  0.74278010396E+01  0.51100000000E-03 0.  1.
        -12    1    3    3    0    0 -0.14398581705E+02 -0.21336360126E+02 -0.18769189907E+02  0.31856583438E+02  0.00000000000E+00 0.  1.
</event>
<event>
 7    1  0.1877158E-008  0.4614232E+02  0.7816164E-02  0.1320468E+00
        -11   -1    0    0    0    0  0.00000000000E+00  0.00000000000E+00  0.45593999997E+02  0.45594000000E+02  0.51100000000E-03 0. -1.
         11   -1    0    0    0    0 -0.00000000000E+00 -0.00000000000E+00 -0.45593999997E+02  0.45594000000E+02  0.51100000000E-03 0.  1.
    9900012    2    1    2    0    0 -0.15056188499E+02  0.62072496255E+01 -0.41998747507E+02  0.46142317053E+02  0.99999935411E+01 0.  0.
         12    1    1    2    0    0  0.15056188499E+02 -0.62072496255E+01  0.41998747507E+02  0.45045682947E+02  0.00000000000E+00 0. -1.
         11    1    3    3    0    0 -0.62719964246E+00  0.95178985321E+00  0.23693491863E+00  0.11642258084E+01  0.51100000000E-03 0. -1.
        -11    1    3    3    0    0 -0.12305002088E+02  0.50042814892E+01 -0.35134079889E+02  0.37561409445E+02  0.51100000000E-03 0.  1.
         12    1    3    3    0    0 -0.21239867692E+01  0.25117828309E+00 -0.71016025362E+01  0.74166817991E+01  0.00000000000E+00 0. -1.
</event>
<event>
 7    1  0.1445801E-008  0.4614232E+02  0.7816164E-02  0.1320468E+00
        -11   -1    0    0    0    0  0.00000000000E+00  0.00000000000E+00  0.45593999997E+02  0.45594000000E+02  0.51100000000E-03 0.  1.
         11   -1    0    0    0    0 -0.00000000000E+00 -0.00000000000E+00 -0.45593999997E+02  0.45594000000E+02  0.51100000000E-03 0. -1.
    9900012    2    1    2    0    0 -0.18619283886E+02 -0.18889481251E+02  0.36409110029E+02  0.46142317327E+02  0.99999960402E+01 0.  0.
         12    1    1    2    0    0  0.18619283886E+02  0.18889481251E+02 -0.36409110029E+02  0.45045682673E+02  0.00000000000E+00 0. -1.
         11    1    3    3    0    0 -0.74126295998E+01 -0.29509093153E+01  0.14680674569E+02  0.16708595077E+02  0.51100000000E-03 0. -1.
        -11    1    3    3    0    0 -0.34786904832E+01 -0.70771836374E+01  0.66682320473E+01  0.10327300451E+02  0.51100000000E-03 0.  1.
         12    1    3    3    0    0 -0.77279638032E+01 -0.88613882988E+01  0.15060203413E+02  0.19106421799E+02  0.00000000000E+00 0. -1.
</event>
<event>
 7    1  0.1445801E-008  0.4614232E+02  0.7816164E-02  0.1320468E+00
        -11   -1    0    0    0    0  0.00000000000E+00  0.00000000000E+00  0.45593999997E+02  0.45594000000E+02  0.51100000000E-03 0. -1.
         11   -1    0    0    0    0 -0.00000000000E+00 -0.00000000000E+00 -0.45593999997E+02  0.45594000000E+02  0.51100000000E-03 0.  1.
    9900012    2    1    2    0    0 -0.28562854134E+02 -0.25067387481E+02 -0.24184766502E+02  0.46142317830E+02  0.10000000627E+02 0.  0.
         12    1    1    2    0    0  0.28562854134E+02  0.25067387481E+02  0.24184766502E+02  0.45045682170E+02  0.00000000000E+00 0. -1.
         11    1    3    3    0    0 -0.55349139399E+01 -0.96532789163E+01 -0.91794357530E+01  0.14425086037E+02  0.51100000000E-03 0. -1.
        -11    1    3    3    0    0 -0.90124695127E+01 -0.81092818418E+01 -0.70228890405E+01  0.14010925360E+02  0.51100000000E-03 0.  1.
        -12    1    3    3    0    0 -0.14015470682E+02 -0.73048267229E+01 -0.79824417082E+01  0.17706306433E+02  0.00000000000E+00 0.  1.
</event>
<event>
 7    1  0.1445801E-008  0.4614232E+02  0.7816164E-02  0.1320468E+00
        -11   -1    0    0    0    0  0.00000000000E+00  0.00000000000E+00  0.45593999997E+02  0.45594000000E+02  0.51100000000E-03 0.  1.
         11   -1    0    0    0    0 -0.00000000000E+00 -0.00000000000E+00 -0.45593999997E+02  0.45594000000E+02  0.51100000000E-03 0. -1.
    9900012    2    1    2    0    0 -0.42691244287E+02 -0.56636674865E+01  0.13209617950E+02  0.46142317914E+02  0.10000001398E+02 0.  0.
         12    1    1    2    0    0  0.42691244287E+02  0.56636674865E+01 -0.13209617950E+02  0.45045682086E+02  0.00000000000E+00 0. -1.
         11    1    3    3    0    0 -0.15948564793E+02 -0.26832091420E+00  0.81495656340E+01  0.17912122581E+02  0.51100000000E-03 0. -1.
        -11    1    3    3    0    0 -0.73321244992E+01 -0.16848122352E+01 -0.92957018181E+00  0.75804183871E+01  0.51100000000E-03 0.  1.
        -12    1    3    3    0    0 -0.19410554994E+02 -0.37105343371E+01  0.59896224981E+01  0.20649776946E+02  0.00000000000E+00 0.  1.
</event>
<event>
 7    1  0.1445801E-008  0.4614232E+02  0.7816164E-02  0.1320468E+00
        -11   -1    0    0    0    0  0.00000000000E+00  0.00000000000E+00  0.45593999997E+02  0.45594000000E+02  0.51100000000E-03 0.  1.
         11   -1    0    0    0    0 -0.00000000000E+00 -0.00000000000E+00 -0.45593999997E+02  0.45594000000E+02  0.51100000000E-03 0. -1.
    9900012    2    1    2    0    0  0.39097741109E+02 -0.17814433805E+01  0.22300372127E+02  0.46142317661E+02  0.99999990881E+01 0.  0.
         12    1    1    2    0    0 -0.39097741109E+02  0.17814433805E+01 -0.22300372127E+02  0.45045682339E+02  0.00000000000E+00 0. -1.
         11    1    3    3    0    0  0.23212510844E+01 -0.20804619050E+01  0.37485547239E+01  0.48752631841E+01  0.51100000000E-03 0. -1.
        -11    1    3    3    0    0  0.27136947920E+02  0.36194833564E+00  0.12453145858E+02  0.29860103667E+02  0.51100000000E-03 0.  1.
        -12    1    3    3    0    0  0.96395421051E+01 -0.62929811127E-01  0.60986715457E+01  0.11406950810E+02  0.00000000000E+00 0.  1.
</event>
<event>
 7    1  0.1445801E-008  0.4614232E+02  0.7816164E-02  0.1320468E+00
        -11   -1    0    0    0    0  0.00000000000E+00  0.00000000000E+00  0.45593999997E+02  0.45594000000E+02  0.51100000000E-03 0. -1.
         11   -1    0    0    0    0 -0.00000000000E+00 -0.00000000000E+00 -0.45593999997E+02  0.45594000000E+02  0.51100000000E-03 0.  1.
    9900012    2    1    2    0    0 -0.21669802043E+01 -0.24318591598E+02 -0.37855299283E+02  0.46142318916E+02  0.10000010530E+02 0.  0.
         12    1    1    2    0    0  0.21669802043E+01  0.24318591598E+02  0.37855299283E+02  0.45045681084E+02  0.00000000000E+00 0. -1.
         11    1    3    3    0    0  0.15520252682E+01 -0.27907196405E+01 -0.93653167171E+01  0.98947489113E+01  0.51100000000E-03 0. -1.
        -11    1    3    3    0    0 -0.22807843271E+01 -0.15507174554E+02 -0.16524358084E+02  0.22775619643E+02  0.51100000000E-03 0.  1.
        -12    1    3    3    0    0 -0.14382211454E+01 -0.60206974036E+01 -0.11965624482E+02  0.13471950361E+02  0.00000000000E+00 0.  1.
</event>
<event>
 7    1  0.1445801E-008  0.4614232E+02  0.7816164E-02  0.1320468E+00
        -11   -1    0    0    0    0  0.00000000000E+00  0.00000000000E+00  0.45593999997E+02  0.45594000000E+02  0.51100000000E-03 0. -1.
         11   -1    0    0    0    0 -0.00000000000E+00 -0.00000000000E+00 -0.45593999997E+02  0.45594000000E+02  0.51100000000E-03 0.  1.
    9900012    2    1    2    0    0  0.13467897948E+02 -0.33764731762E+02 -0.26602108141E+02  0.46142317148E+02  0.99999944074E+01 0.  0.
         12    1    1    2    0    0 -0.13467897948E+02  0.33764731762E+02  0.26602108141E+02  0.45045682852E+02  0.00000000000E+00 0. -1.
         11    1    3    3    0    0  0.10754853795E+02 -0.13930128681E+02 -0.12804169278E+02  0.21763779920E+02  0.51100000000E-03 0. -1.
        -11    1    3    3    0    0  0.65923609303E+00 -0.93657333818E+01 -0.72341708391E+01  0.11852627641E+02  0.51100000000E-03 0.  1.
         12    1    3    3    0    0  0.20538080602E+01 -0.10468869699E+02 -0.65637680234E+01  0.12525909587E+02  0.00000000000E+00 0. -1.
</event>
<event>
 7    1  0.1445801E-008  0.4614232E+02  0.7816164E-02  0.1320468E+00
        -11   -1    0    0    0    0  0.00000000000E+00  0.00000000000E+00  0.45593999997E+02  0.45594000000E+02  0.51100000000E-03 0.  1.
         11   -1    0    0    0    0 -0.00000000000E+00 -0.00000000000E+00 -0.45593999997E+02  0.45594000000E+02  0.51100000000E-03 0. -1.
    9900012    2    1    2    0    0  0.24057479905E+02 -0.75859386290E+01  0.37320297482E+02  0.46142318649E+02  0.10000008096E+02 0.  0.
         12    1    1    2    0    0 -0.24057479905E+02  0.75859386290E+01 -0.37320297482E+02  0.45045681351E+02  0.00000000000E+00 0. -1.
         11    1    3    3    0    0  0.31043301763E+01  0.26238385747E-01  0.46924212816E+01  0.56263995629E+01  0.51100000000E-03 0. -1.
        -11    1    3    3    0    0  0.84810380635E+01 -0.14150547029E+01  0.19779743615E+02  0.21567768642E+02  0.51100000000E-03 0.  1.
        -12    1    3    3    0    0  0.12472111665E+02 -0.61971223118E+01  0.12848132585E+02  0.18948150444E+02  0.00000000000E+00 0.  1.
</event>
<event>
 7    1  0.1445801E-008  0.4614232E+02  0.7816164E-02  0.1320468E+00
        -11   -1    0    0    0    0  0.00000000000E+00  0.00000000000E+00  0.45593999997E+02  0.45594000000E+02  0.51100000000E-03 0.  1.
         11   -1    0    0    0    0 -0.00000000000E+00 -0.00000000000E+00 -0.45593999997E+02  0.45594000000E+02  0.51100000000E-03 0. -1.
    9900012    2    1    2    0    0  0.22289354143E+02 -0.26551696884E+02  0.28762922163E+02  0.46142316446E+02  0.99999880036E+01 0.  0.
         12    1    1    2    0    0 -0.22289354143E+02  0.26551696884E+02 -0.28762922163E+02  0.45045683554E+02  0.00000000000E+00 0. -1.
         11    1    3    3    0    0  0.46120666085E+00 -0.19404936560E+01  0.23902614083E+01  0.31131297875E+01  0.51100000000E-03 0. -1.
        -11    1    3    3    0    0  0.62437412903E+01 -0.20367765226E+01  0.52259603098E+01  0.83930581628E+01  0.51100000000E-03 0.  1.
        -12    1    3    3    0    0  0.15584406192E+02 -0.22574426705E+02  0.21146700445E+02  0.34636128495E+02  0.00000000000E+00 0.  1.
</event>
<event>
 7    1  0.1445801E-008  0.4614232E+02  0.7816164E-02  0.1320468E+00
        -11   -1    0    0    0    0  0.00000000000E+00  0.00000000000E+00  0.45593999997E+02  0.45594000000E+02  0.51100000000E-03 0. -1.
         11   -1    0    0    0    0 -0.00000000000E+00 -0.00000000000E+00 -0.45593999997E+02  0.45594000000E+02  0.51100000000E-03 0.  1.
    9900012    2    1    2    0    0 -0.18575946543E+02 -0.36451839393E+02  0.18849699224E+02  0.46142317122E+02  0.99999941746E+01 0.  0.
         12    1    1    2    0    0  0.18575946543E+02  0.36451839393E+02 -0.18849699224E+02  0.45045682878E+02  0.00000000000E+00 0. -1.
         11    1    3    3    0    0 -0.10565815889E+02 -0.12735025063E+02  0.98322088750E+01  0.19248107969E+02  0.51100000000E-03 0. -1.
        -11    1    3    3    0    0 -0.81886271274E+01 -0.21680813466E+02  0.75366643570E+01  0.24370322047E+02  0.51100000000E-03 0.  1.
         12    1    3    3    0    0  0.17849647336E+00 -0.20360008640E+01  0.14808259919E+01  0.25238871067E+01  0.00000000000E+00 0. -1.
</event>
<event>
 7    1  0.1445801E-008  0.4614232E+02  0.7816164E-02  0.1320468E+00
        -11   -1    0    0    0    0  0.00000000000E+00  0.00000000000E+00  0.45593999997E+02  0.45594000000E+02  0.51100000000E-03 0.  1.
         11   -1    0    0    0    0 -0.00000000000E+00 -0.00000000000E+00 -0.45593999997E+02  0.45594000000E+02  0.51100000000E-03 0. -1.
    9900012    2    1    2    0    0 -0.19970981740E+02  0.53282322964E+01  0.40023534956E+02  0.46142317394E+02  0.99999966532E+01 0.  0.
         12    1    1    2    0    0  0.19970981740E+02 -0.53282322964E+01 -0.40023534956E+02  0.45045682606E+02  0.00000000000E+00 0. -1.
         11    1    3    3    0    0 -0.66683628591E+01 -0.19023777540E+01  0.12586431830E+02  0.14370259942E+02  0.51100000000E-03 0. -1.
        -11    1    3    3    0    0 -0.11368326883E+02  0.70425094737E+01  0.19810301621E+02  0.23901544853E+02  0.51100000000E-03 0.  1.
        -12    1    3    3    0    0 -0.19342919973E+01  0.18810057677E+00  0.76268015056E+01  0.78705125985E+01  0.00000000000E+00 0.  1.
</event>
<event>
 7    1  0.1445801E-008  0.4614232E+02  0.7816164E-02  0.1320468E+00
        -11   -1    0    0    0    0  0.00000000000E+00  0.00000000000E+00  0.45593999997E+02  0.45594000000E+02  0.51100000000E-03 0.  1.
         11   -1    0    0    0    0 -0.00000000000E+00 -0.00000000000E+00 -0.45593999997E+02  0.45594000000E+02  0.51100000000E-03 0. -1.
    9900012    2    1    2    0    0 -0.11715688748E+01  0.20298809969E+02  0.40195763204E+02  0.46142316086E+02  0.99999847211E+01 0.  0.
         12    1    1    2    0    0  0.11715688748E+01 -0.20298809969E+02 -0.40195763204E+02  0.45045683914E+02  0.00000000000E+00 0. -1.
         11    1    3    3    0    0  0.25708894756E+01  0.21985766340E+01  0.91816199810E+01  0.97849556795E+01  0.51100000000E-03 0. -1.
        -11    1    3    3    0    0 -0.45307579101E+01  0.16827678796E+02  0.27781948395E+02  0.32795353295E+02  0.51100000000E-03 0.  1.
        -12    1    3    3    0    0  0.78829955972E+00  0.12725545388E+01  0.32321948280E+01  0.35620071107E+01  0.00000000000E+00 0.  1.
</event>
<event>
 7    1  0.1445801E-008  0.4614232E+02  0.7816164E-02  0.1320468E+00
        -11   -1    0    0    0    0  0.00000000000E+00  0.00000000000E+00  0.45593999997E+02  0.45594000000E+02  0.51100000000E-03 0.  1.
         11   -1    0    0    0    0 -0.00000000000E+00 -0.00000000000E+00 -0.45593999997E+02  0.45594000000E+02  0.51100000000E-03 0. -1.
    9900012    2    1    2    0    0  0.29137391615E+02  0.31600124260E+02  0.13474348027E+02  0.46142317652E+02  0.99999990053E+01 0.  0.
         12    1    1    2    0    0 -0.29137391615E+02 -0.31600124260E+02 -0.13474348027E+02  0.45045682348E+02  0.00000000000E+00 0. -1.
         11    1    3    3    0    0  0.39477687792E+01  0.67445187020E+01  0.79404710095E+00  0.78551843973E+01  0.51100000000E-03 0. -1.
        -11    1    3    3    0    0  0.64157571624E+01  0.31299963484E+01  0.44714954575E+01  0.84233656572E+01  0.51100000000E-03 0.  1.
        -12    1    3    3    0    0  0.18773865674E+02  0.21725609210E+02  0.82088054690E+01  0.29863767597E+02  0.00000000000E+00 0.  1.
</event>
<event>
 7    1  0.1445801E-008  0.4614232E+02  0.7816164E-02  0.1320468E+00
        -11   -1    0    0    0    0  0.00000000000E+00  0.00000000000E+00  0.45593999997E+02  0.45594000000E+02  0.51100000000E-03 0. -1.
         11   -1    0    0    0    0 -0.00000000000E+00 -0.00000000000E+00 -0.45593999997E+02  0.45594000000E+02  0.51100000000E-03 0.  1.
    9900012    2    1    2    0    0  0.21787085417E+02  0.25410329490E+01 -0.39344370918E+02  0.46142318050E+02  0.10000002636E+02 0.  0.
         12    1    1    2    0    0 -0.21787085417E+02 -0.25410329490E+01  0.39344370918E+02  0.45045681950E+02  0.00000000000E+00 0. -1.
         11    1    3    3    0    0  0.11743755305E+02  0.32960406164E+01 -0.13132423040E+02  0.17923175153E+02  0.51100000000E-03 0. -1.
        -11    1    3    3    0    0  0.59970936426E+01  0.88891392399E+00 -0.16138008973E+02  0.17239217905E+02  0.51100000000E-03 0.  1.
        -12    1    3    3    0    0  0.40462364697E+01 -0.16439215914E+01 -0.10073938905E+02  0.10979924992E+02  0.00000000000E+00 0.  1.
</event>
<event>
 7    1  0.1445801E-008  0.4614232E+02  0.7816164E-02  0.1320468E+00
        -11   -1    0    0    0    0  0.00000000000E+00  0.00000000000E+00  0.45593999997E+02  0.45594000000E+02  0.51100000000E-03 0. -1.
         11   -1    0    0    0    0 -0.00000000000E+00 -0.00000000000E+00 -0.45593999997E+02  0.45594000000E+02  0.51100000000E-03 0.  1.
    9900012    2    1    2    0    0 -0.33501219820E+02  0.88327668332E+01 -0.28788257015E+02  0.46142320503E+02  0.10000025003E+02 0.  0.
         12    1    1    2    0    0  0.33501219820E+02 -0.88327668332E+01  0.28788257015E+02  0.45045679497E+02  0.00000000000E+00 0. -1.
         11    1    3    3    0    0 -0.29219558757E+01 -0.35401991295E+00 -0.96022244729E+00  0.30959947751E+01  0.51100000000E-03 0.  1.
        -11    1    3    3    0    0 -0.14012575811E+02  0.84798494207E+00 -0.93586654089E+01  0.16871750882E+02  0.51100000000E-03 0. -1.
        -12    1    3    3    0    0 -0.16566688133E+02  0.83388018041E+01 -0.18469369159E+02  0.26174574846E+02  0.00000000000E+00 0.  1.
</event>
<event>
 7    1  0.1445801E-008  0.4614231E+02  0.7816164E-02  0.1320468E+00
        -11   -1    0    0    0    0  0.00000000000E+00  0.00000000000E+00  0.45593999997E+02  0.45594000000E+02  0.51100000000E-03 0.  1.
         11   -1    0    0    0    0 -0.00000000000E+00 -0.00000000000E+00 -0.45593999997E+02  0.45594000000E+02  0.51100000000E-03 0. -1.
    9900012    2    1    2    0    0  0.44386891532E+02  0.75274295596E+01 -0.15020625271E+01  0.46142306227E+02  0.99998948207E+01 0.  0.
         12    1    1    2    0    0 -0.44386891532E+02 -0.75274295596E+01  0.15020625271E+01  0.45045693773E+02  0.00000000000E+00 0. -1.
         11    1    3    3    0    0  0.10498967583E+02  0.10059109968E+00  0.31647772707E+01  0.10966050078E+02  0.51100000000E-03 0. -1.
        -11    1    3    3    0    0  0.22052506917E+02  0.40618714306E+01 -0.45005708664E+01  0.22870658041E+02  0.51100000000E-03 0.  1.
         12    1    3    3    0    0  0.11835417032E+02  0.33649670294E+01 -0.16626893143E+00  0.12305598108E+02  0.00000000000E+00 0. -1.
</event>
<event>
 7    1  0.1445801E-008  0.4614232E+02  0.7816164E-02  0.1320468E+00
        -11   -1    0    0    0    0  0.00000000000E+00  0.00000000000E+00  0.45593999997E+02  0.45594000000E+02  0.51100000000E-03 0.  1.
         11   -1    0    0    0    0 -0.00000000000E+00 -0.00000000000E+00 -0.45593999997E+02  0.45594000000E+02  0.51100000000E-03 0. -1.
    9900012    2    1    2    0    0  0.17082894067E+02 -0.20813144359E+02  0.36112342007E+02  0.46142317709E+02  0.99999995264E+01 0.  0.
         12    1    1    2    0    0 -0.17082894067E+02  0.20813144359E+02 -0.36112342007E+02  0.45045682291E+02  0.00000000000E+00 0. -1.
         11    1    3    3    0    0  0.24507074228E+01 -0.26850013324E+01  0.10210777749E+02  0.10838596843E+02  0.51100000000E-03 0.  1.
        -11    1    3    3    0    0  0.69828863844E+01 -0.13041381436E+02  0.16456030510E+02  0.22127794116E+02  0.51100000000E-03 0. -1.
        -12    1    3    3    0    0  0.76493002601E+01 -0.50867615909E+01  0.94455337474E+01  0.13175926750E+02  0.00000000000E+00 0.  1.
</event>
<event>
 7    1  0.1445801E-008  0.4614232E+02  0.7816164E-02  0.1320468E+00
        -11   -1    0    0    0    0  0.00000000000E+00  0.00000000000E+00  0.45593999997E+02  0.45594000000E+02  0.51100000000E-03 0. -1.
         11   -1    0    0    0    0 -0.00000000000E+00 -0.00000000000E+00 -0.45593999997E+02  0.45594000000E+02  0.51100000000E-03 0.  1.
    9900012    2    1    2    0    0  0.35364550663E+01 -0.30947813301E+02 -0.32539819784E+02  0.46142317254E+02  0.99999953721E+01 0.  0.
         12    1    1    2    0    0 -0.35364550663E+01  0.30947813301E+02  0.32539819784E+02  0.45045682746E+02  0.00000000000E+00 0. -1.
         11    1    3    3    0    0 -0.19876993259E+01 -0.62748370587E+01 -0.11228062683E+02  0.13015141974E+02  0.51100000000E-03 0. -1.
        -11    1    3    3    0    0  0.35836553853E+01 -0.13422071860E+02 -0.12753691224E+02  0.18858717852E+02  0.51100000000E-03 0.  1.
         12    1    3    3    0    0  0.19404990069E+01 -0.11250904383E+02 -0.85580658771E+01  0.14268457428E+02  0.00000000000E+00 0. -1.
</event>
<event>
 7    1  0.1445801E-008  0.4614232E+02  0.7816164E-02  0.1320468E+00
        -11   -1    0    0    0    0  0.00000000000E+00  0.00000000000E+00  0.45593999997E+02  0.45594000000E+02  0.51100000000E-03 0.  1.
         11   -1    0    0    0    0 -0.00000000000E+00 -0.00000000000E+00 -0.45593999997E+02  0.45594000000E+02  0.51100000000E-03 0. -1.
    9900012    2    1    2    0    0  0.38170761018E+02  0.65025536980E+01  0.23017889413E+02  0.46142318361E+02  0.10000005472E+02 0.  0.
         12    1    1    2    0    0 -0.38170761018E+02 -0.65025536980E+01 -0.23017889413E+02  0.45045681639E+02  0.00000000000E+00 0. -1.
         11    1    3    3    0    0  0.85037722786E+01  0.33938322605E+01  0.19015775706E+01  0.93513762568E+01  0.51100000000E-03 0. -1.
        -11    1    3    3    0    0  0.18980599610E+02  0.36251661841E+01  0.15041047244E+02  0.24487508936E+02  0.51100000000E-03 0.  1.
         12    1    3    3    0    0  0.10686389129E+02 -0.51644474662E+00  0.60752645986E+01  0.12303433169E+02  0.00000000000E+00 0. -1.
</event>
<event>
 7    1  0.1445801E-008  0.4614232E+02  0.7816164E-02  0.1320468E+00
        -11   -1    0    0    0    0  0.00000000000E+00  0.00000000000E+00  0.45593999997E+02  0.45594000000E+02  0.51100000000E-03 0. -1.
         11   -1    0    0    0    0 -0.00000000000E+00 -0.00000000000E+00 -0.45593999997E+02  0.45594000000E+02  0.51100000000E-03 0.  1.
    9900012    2    1    2    0    0  0.25355193288E+02  0.21699825765E+02 -0.30254672514E+02  0.46142317922E+02  0.10000001469E+02 0.  0.
         12    1    1    2    0    0 -0.25355193288E+02 -0.21699825765E+02  0.30254672514E+02  0.45045682078E+02  0.00000000000E+00 0. -1.
         11    1    3    3    0    0  0.15068419830E+02  0.78679924574E+01 -0.12958749421E+02  0.21375026743E+02  0.51100000000E-03 0. -1.
        -11    1    3    3    0    0  0.52249399948E+01  0.73611575586E+01 -0.61582925063E+01  0.10927543430E+02  0.51100000000E-03 0.  1.
         12    1    3    3    0    0  0.50618334633E+01  0.64706757495E+01 -0.11137630587E+02  0.13839747749E+02  0.00000000000E+00 0. -1.
</event>
<event>
 7    1  0.1445801E-008  0.4614232E+02  0.7816164E-02  0.1320468E+00
        -11   -1    0    0    0    0  0.00000000000E+00  0.00000000000E+00  0.45593999997E+02  0.45594000000E+02  0.51100000000E-03 0.  1.
         11   -1    0    0    0    0 -0.00000000000E+00 -0.00000000000E+00 -0.45593999997E+02  0.45594000000E+02  0.51100000000E-03 0. -1.
    9900012    2    1    2    0    0 -0.18684143152E+02  0.63410660525E+01  0.40494531907E+02  0.46142318316E+02  0.10000005058E+02 0.  0.
         12    1    1    2    0    0  0.18684143152E+02 -0.63410660525E+01 -0.40494531907E+02  0.45045681684E+02  0.00000000000E+00 0. -1.
         11    1    3    3    0    0 -0.88647121417E+01  0.73639137183E+01  0.23504941196E+02  0.26178094039E+02  0.51100000000E-03 0. -1.
        -11    1    3    3    0    0 -0.40489571597E+01  0.56957632281E+00  0.97344162245E+01  0.10558282567E+02  0.51100000000E-03 0.  1.
         12    1    3    3    0    0 -0.57704738510E+01 -0.15924239887E+01  0.72551744863E+01  0.94059417100E+01  0.00000000000E+00 0. -1.
</event>
<event>
 7    1  0.1445801E-008  0.4614232E+02  0.7816164E-02  0.1320468E+00
        -11   -1    0    0    0    0  0.00000000000E+00  0.00000000000E+00  0.45593999997E+02  0.45594000000E+02  0.51100000000E-03 0.  1.
         11   -1    0    0    0    0 -0.00000000000E+00 -0.00000000000E+00 -0.45593999997E+02  0.45594000000E+02  0.51100000000E-03 0. -1.
    9900012    2    1    2    0    0 -0.26656496104E+01  0.63200113492E+01  0.44520393650E+02  0.46142315611E+02  0.99999803951E+01 0.  0.
         12    1    1    2    0    0  0.26656496104E+01 -0.63200113492E+01 -0.44520393650E+02  0.45045684389E+02  0.00000000000E+00 0. -1.
         11    1    3    3    0    0  0.79185648489E+00 -0.45519190843E+00  0.17970318448E+01  0.20158273931E+01  0.51100000000E-03 0. -1.
        -11    1    3    3    0    0 -0.34689823807E+01  0.73096670124E+01  0.22749830789E+02  0.24145804434E+02  0.51100000000E-03 0.  1.
        -12    1    3    3    0    0  0.11476285479E-01 -0.53446375477E+00  0.19973531016E+02  0.19980683784E+02  0.00000000000E+00 0.  1.
</event>
<event>
 7    1  0.1445801E-008  0.4614232E+02  0.7816164E-02  0.1320468E+00
        -11   -1    0    0    0    0  0.00000000000E+00  0.00000000000E+00  0.45593999997E+02  0.45594000000E+02  0.51100000000E-03 0.  1.
         11   -1    0    0    0    0 -0.00000000000E+00 -0.00000000000E+00 -0.45593999997E+02  0.45594000000E+02  0.51100000000E-03 0. -1.
    9900012    2    1    2    0    0 -0.34484315268E+02 -0.26232280246E+02 -0.12321228495E+02  0.46142320984E+02  0.10000029387E+02 0.  0.
         12    1    1    2    0    0  0.34484315268E+02  0.26232280246E+02  0.12321228495E+02  0.45045679016E+02  0.00000000000E+00 0. -1.
         11    1    3    3    0    0 -0.14676331987E+02 -0.10702215068E+02 -0.79885396247E+01  0.19843106953E+02  0.51100000000E-03 0. -1.
        -11    1    3    3    0    0 -0.12368517729E+02 -0.13277190256E+02 -0.35182498193E+01  0.18483562805E+02  0.51100000000E-03 0.  1.
         12    1    3    3    0    0 -0.74394655523E+01 -0.22528749213E+01 -0.81443905097E+00  0.78156512257E+01  0.00000000000E+00 0. -1.
</event>
<event>
 7    1  0.1445801E-008  0.4614232E+02  0.7816164E-02  0.1320468E+00
        -11   -1    0    0    0    0  0.00000000000E+00  0.00000000000E+00  0.45593999997E+02  0.45594000000E+02  0.51100000000E-03 0.  1.
         11   -1    0    0    0    0 -0.00000000000E+00 -0.00000000000E+00 -0.45593999997E+02  0.45594000000E+02  0.51100000000E-03 0. -1.
    9900012    2    1    2    0    0  0.64779498901E+01 -0.15080702719E+02  0.41949043417E+02  0.46142315713E+02  0.99999813247E+01 0.  0.
         12    1    1    2    0    0 -0.64779498901E+01  0.15080702719E+02 -0.41949043417E+02  0.45045684287E+02  0.00000000000E+00 0. -1.
         11    1    3    3    0    0  0.52761774968E+01 -0.10630706205E+02  0.20446715631E+02  0.23641449697E+02  0.51100000000E-03 0. -1.
        -11    1    3    3    0    0 -0.13957634859E+00 -0.18197401996E+01  0.17118223487E+02  0.17215240677E+02  0.51100000000E-03 0.  1.
        -12    1    3    3    0    0  0.13413487418E+01 -0.26302563146E+01  0.43841042981E+01  0.52856253390E+01  0.00000000000E+00 0.  1.
</event>
<event>
 7    1  0.1445801E-008  0.4614232E+02  0.7816164E-02  0.1320468E+00
        -11   -1    0    0    0    0  0.00000000000E+00  0.00000000000E+00  0.45593999997E+02  0.45594000000E+02  0.51100000000E-03 0. -1.
         11   -1    0    0    0    0 -0.00000000000E+00 -0.00000000000E+00 -0.45593999997E+02  0.45594000000E+02  0.51100000000E-03 0.  1.
    9900012    2    1    2    0    0  0.34667490853E+02 -0.87636485272E+01 -0.27394834729E+02  0.46142318439E+02  0.10000006177E+02 0.  0.
         12    1    1    2    0    0 -0.34667490853E+02  0.87636485272E+01  0.27394834729E+02  0.45045681561E+02  0.00000000000E+00 0. -1.
         11    1    3    3    0    0  0.11206851123E+02 -0.57454064192E+01 -0.10061940781E+02  0.16119735096E+02  0.51100000000E-03 0. -1.
        -11    1    3    3    0    0  0.10636087070E+02 -0.68521500339E+00 -0.11687660570E+02  0.15817625537E+02  0.51100000000E-03 0.  1.
        -12    1    3    3    0    0  0.12824552659E+02 -0.23330271046E+01 -0.56452333781E+01  0.14204957806E+02  0.00000000000E+00 0.  1.
</event>
<event>
 7    1  0.1445801E-008  0.4614232E+02  0.7816164E-02  0.1320468E+00
        -11   -1    0    0    0    0  0.00000000000E+00  0.00000000000E+00  0.45593999997E+02  0.45594000000E+02  0.51100000000E-03 0.  1.
         11   -1    0    0    0    0 -0.00000000000E+00 -0.00000000000E+00 -0.45593999997E+02  0.45594000000E+02  0.51100000000E-03 0. -1.
    9900012    2    1    2    0    0  0.10787249860E+02 -0.43136664880E+02  0.72095046304E+01  0.46142316816E+02  0.99999913783E+01 0.  0.
         12    1    1    2    0    0 -0.10787249860E+02  0.43136664880E+02 -0.72095046304E+01  0.45045683184E+02  0.00000000000E+00 0. -1.
         11    1    3    3    0    0 -0.32449118356E+00 -0.44987695997E+01 -0.38532991055E+00  0.45268865505E+01  0.51100000000E-03 0. -1.
        -11    1    3    3    0    0  0.10044438441E+02 -0.33514490563E+02  0.91348320027E+01  0.36160157318E+02  0.51100000000E-03 0.  1.
        -12    1    3    3    0    0  0.10673026026E+01 -0.51234047177E+01 -0.15399974617E+01  0.54552729472E+01  0.00000000000E+00 0.  1.
</event>
<event>
 7    1  0.1445801E-008  0.4614231E+02  0.7816164E-02  0.1320468E+00
        -11   -1    0    0    0    0  0.00000000000E+00  0.00000000000E+00  0.45593999997E+02  0.45594000000E+02  0.51100000000E-03 0.  1.
         11   -1    0    0    0    0 -0.00000000000E+00 -0.00000000000E+00 -0.45593999997E+02  0.45594000000E+02  0.51100000000E-03 0. -1.
    9900012    2    1    2    0    0  0.42766956832E+02  0.87253481586E+01  0.11134162220E+02  0.46142313575E+02  0.99999618259E+01 0.  0.
         12    1    1    2    0    0 -0.42766956832E+02 -0.87253481586E+01 -0.11134162220E+02  0.45045686425E+02  0.00000000000E+00 0. -1.
         11    1    3    3    0    0  0.15007703403E+02  0.67521600568E+01  0.35433713592E+01  0.16833844116E+02  0.51100000000E-03 0. -1.
        -11    1    3    3    0    0  0.96511716944E+01 -0.70693927536E+00  0.47640607067E+01  0.10786155612E+02  0.51100000000E-03 0.  1.
        -12    1    3    3    0    0  0.18108081735E+02  0.26801273772E+01  0.28267301539E+01  0.18522313847E+02  0.00000000000E+00 0.  1.
</event>
<event>
 7    1  0.1445801E-008  0.4614232E+02  0.7816164E-02  0.1320468E+00
        -11   -1    0    0    0    0  0.00000000000E+00  0.00000000000E+00  0.45593999997E+02  0.45594000000E+02  0.51100000000E-03 0.  1.
         11   -1    0    0    0    0 -0.00000000000E+00 -0.00000000000E+00 -0.45593999997E+02  0.45594000000E+02  0.51100000000E-03 0. -1.
    9900012    2    1    2    0    0  0.40415540523E+02  0.13161104017E+02  0.14915861660E+02  0.46142317590E+02  0.99999984380E+01 0.  0.
         12    1    1    2    0    0 -0.40415540523E+02 -0.13161104017E+02 -0.14915861660E+02  0.45045682410E+02  0.00000000000E+00 0. -1.
         11    1    3    3    0    0  0.16781924898E+01 -0.11152060458E+01  0.12375223494E+01  0.23646302848E+01  0.51100000000E-03 0. -1.
        -11    1    3    3    0    0  0.30071040012E+02  0.11774667953E+02  0.12711769716E+02  0.34705897804E+02  0.51100000000E-03 0.  1.
        -12    1    3    3    0    0  0.86663080211E+01  0.25016421097E+01  0.96656959436E+00  0.90717895006E+01  0.00000000000E+00 0.  1.
</event>
<event>
 7    1  0.1445801E-008  0.4614232E+02  0.7816164E-02  0.1320468E+00
        -11   -1    0    0    0    0  0.00000000000E+00  0.00000000000E+00  0.45593999997E+02  0.45594000000E+02  0.51100000000E-03 0.  1.
         11   -1    0    0    0    0 -0.00000000000E+00 -0.00000000000E+00 -0.45593999997E+02  0.45594000000E+02  0.51100000000E-03 0. -1.
    9900012    2    1    2    0    0  0.41101558636E+02  0.10997091594E+01  0.18400155530E+02  0.46142320894E+02  0.10000028570E+02 0.  0.
         12    1    1    2    0    0 -0.41101558636E+02 -0.10997091594E+01 -0.18400155530E+02  0.45045679106E+02  0.00000000000E+00 0. -1.
         11    1    3    3    0    0  0.27328181595E+02 -0.39438747540E+01  0.12040084736E+02  0.30122206063E+02  0.51100000000E-03 0. -1.
        -11    1    3    3    0    0  0.56970864057E+01  0.18767652624E+01  0.31076396738E+01  0.67554767387E+01  0.51100000000E-03 0.  1.
         12    1    3    3    0    0  0.80762906353E+01  0.31668186510E+01  0.32524311206E+01  0.92646380927E+01  0.00000000000E+00 0. -1.
</event>
<event>
 7    1  0.1445801E-008  0.4614232E+02  0.7816164E-02  0.1320468E+00
        -11   -1    0    0    0    0  0.00000000000E+00  0.00000000000E+00  0.45593999997E+02  0.45594000000E+02  0.51100000000E-03 0.  1.
         11   -1    0    0    0    0 -0.00000000000E+00 -0.00000000000E+00 -0.45593999997E+02  0.45594000000E+02  0.51100000000E-03 0. -1.
    9900012    2    1    2    0    0 -0.49520298441E+01  0.11605239834E+02  0.43242447735E+02  0.46142317884E+02  0.10000001120E+02 0.  0.
         12    1    1    2    0    0  0.49520298441E+01 -0.11605239834E+02 -0.43242447735E+02  0.45045682116E+02  0.00000000000E+00 0. -1.
         11    1    3    3    0    0  0.19715748598E+00 -0.79615058964E+00  0.49701735162E+00  0.95903771802E+00  0.51100000000E-03 0. -1.
        -11    1    3    3    0    0 -0.30947688392E+01  0.12129601565E+02  0.37881773865E+02  0.39896536438E+02  0.51100000000E-03 0.  1.
         12    1    3    3    0    0 -0.20544184909E+01  0.27178885863E+00  0.48636565181E+01  0.52867437280E+01  0.00000000000E+00 0. -1.
</event>
<event>
 7    1  0.1445801E-008  0.4614231E+02  0.7816164E-02  0.1320468E+00
        -11   -1    0    0    0    0  0.00000000000E+00  0.00000000000E+00  0.45593999997E+02  0.45594000000E+02  0.51100000000E-03 0.  1.
         11   -1    0    0    0    0 -0.00000000000E+00 -0.00000000000E+00 -0.45593999997E+02  0.45594000000E+02  0.51100000000E-03 0. -1.
    9900012    2    1    2    0    0  0.44931501984E+02  0.31739542493E+01 -0.44712233004E+00  0.46142314585E+02  0.99999710390E+01 0.  0.
         12    1    1    2    0    0 -0.44931501984E+02 -0.31739542493E+01  0.44712233004E+00  0.45045685415E+02  0.00000000000E+00 0. -1.
         11    1    3    3    0    0  0.28091850802E+01 -0.90425364600E+00 -0.65110428810E+00  0.30221072990E+01  0.51100000000E-03 0. -1.
        -11    1    3    3    0    0  0.41800558094E+02  0.31261457354E+01  0.84929477193E+00  0.41925895888E+02  0.51100000000E-03 0.  1.
        -12    1    3    3    0    0  0.32175880949E+00  0.95206215987E+00 -0.64531281387E+00  0.11943113980E+01  0.00000000000E+00 0.  1.
</event>
<event>
 7    1  0.1445801E-008  0.4614232E+02  0.7816164E-02  0.1320468E+00
        -11   -1    0    0    0    0  0.00000000000E+00  0.00000000000E+00  0.45593999997E+02  0.45594000000E+02  0.51100000000E-03 0.  1.
         11   -1    0    0    0    0 -0.00000000000E+00 -0.00000000000E+00 -0.45593999997E+02  0.45594000000E+02  0.51100000000E-03 0. -1.
    9900012    2    1    2    0    0 -0.35635362975E+02 -0.21397374411E+01  0.27471001016E+02  0.46142317992E+02  0.10000002108E+02 0.  0.
         12    1    1    2    0    0  0.35635362975E+02  0.21397374411E+01 -0.27471001016E+02  0.45045682008E+02  0.00000000000E+00 0. -1.
         11    1    3    3    0    0  0.24579298000E+00  0.21015891929E+00  0.79020652493E+00  0.85381940335E+00  0.51100000000E-03 0. -1.
        -11    1    3    3    0    0 -0.61948135987E+01  0.21560310844E+01  0.43979714638E+01  0.78972361505E+01  0.51100000000E-03 0.  1.
        -12    1    3    3    0    0 -0.29686342357E+02 -0.45059274449E+01  0.22282823028E+02  0.37391262438E+02  0.00000000000E+00 0.  1.
</event>
<event>
 7    1  0.1445801E-008  0.4614232E+02  0.7816164E-02  0.1320468E+00
        -11   -1    0    0    0    0  0.00000000000E+00  0.00000000000E+00  0.45593999997E+02  0.45594000000E+02  0.51100000000E-03 0.  1.
         11   -1    0    0    0    0 -0.00000000000E+00 -0.00000000000E+00 -0.45593999997E+02  0.45594000000E+02  0.51100000000E-03 0. -1.
    9900012    2    1    2    0    0  0.44508578065E+02 -0.30684809430E+01  0.62196531144E+01  0.46142321167E+02  0.10000031059E+02 0.  0.
         12    1    1    2    0    0 -0.44508578065E+02  0.30684809430E+01 -0.62196531144E+01  0.45045678833E+02  0.00000000000E+00 0. -1.
         11    1    3    3    0    0  0.79093552675E+01  0.14573862450E+01  0.22024760578E+01  0.83386315700E+01  0.51100000000E-03 0. -1.
        -11    1    3    3    0    0  0.35768429028E+02 -0.32216982127E+01  0.32020606902E+01  0.36055693689E+02  0.51100000000E-03 0.  1.
        -12    1    3    3    0    0  0.83079376967E+00 -0.13041689753E+01  0.81511636639E+00  0.17479959081E+01  0.00000000000E+00 0.  1.
</event>
<event>
 7    1  0.1445801E-008  0.4614232E+02  0.7816164E-02  0.1320468E+00
        -11   -1    0    0    0    0  0.00000000000E+00  0.00000000000E+00  0.45593999997E+02  0.45594000000E+02  0.51100000000E-03 0.  1.
         11   -1    0    0    0    0 -0.00000000000E+00 -0.00000000000E+00 -0.45593999997E+02  0.45594000000E+02  0.51100000000E-03 0. -1.
    9900012    2    1    2    0    0  0.21050735621E+02 -0.38727164303E+02  0.92836824362E+01  0.46142317802E+02  0.10000000368E+02 0.  0.
         12    1    1    2    0    0 -0.21050735621E+02  0.38727164303E+02 -0.92836824362E+01  0.45045682198E+02  0.00000000000E+00 0. -1.
         11    1    3    3    0    0  0.12133712467E+02 -0.17205535907E+02  0.12575144651E+01  0.21091201649E+02  0.51100000000E-03 0. -1.
        -11    1    3    3    0    0  0.18722380833E+01 -0.99470828548E+01  0.43077224553E+01  0.11000282077E+02  0.51100000000E-03 0.  1.
        -12    1    3    3    0    0  0.70447850705E+01 -0.11574545541E+02  0.37184455157E+01  0.14050834076E+02  0.00000000000E+00 0.  1.
</event>
<event>
 7    1  0.1445801E-008  0.4614232E+02  0.7816164E-02  0.1320468E+00
        -11   -1    0    0    0    0  0.00000000000E+00  0.00000000000E+00  0.45593999997E+02  0.45594000000E+02  0.51100000000E-03 0.  1.
         11   -1    0    0    0    0 -0.00000000000E+00 -0.00000000000E+00 -0.45593999997E+02  0.45594000000E+02  0.51100000000E-03 0. -1.
    9900012    2    1    2    0    0 -0.13292996219E+02 -0.20112478010E+02  0.38051255014E+02  0.46142317317E+02  0.99999959538E+01 0.  0.
         12    1    1    2    0    0  0.13292996219E+02  0.20112478010E+02 -0.38051255014E+02  0.45045682683E+02  0.00000000000E+00 0. -1.
         11    1    3    3    0    0 -0.47910242590E-01 -0.88285633103E+00 -0.87229617158E-01  0.88844806253E+00  0.51100000000E-03 0. -1.
        -11    1    3    3    0    0 -0.12984985167E+02 -0.19760000045E+02  0.36289041887E+02  0.43312377017E+02  0.51100000000E-03 0.  1.
        -12    1    3    3    0    0 -0.26010080959E+00  0.53037836626E+00  0.18494427448E+01  0.19414922376E+01  0.00000000000E+00 0.  1.
</event>
<event>
 7    1  0.1445801E-008  0.4614232E+02  0.7816164E-02  0.1320468E+00
        -11   -1    0    0    0    0  0.00000000000E+00  0.00000000000E+00  0.45593999997E+02  0.45594000000E+02  0.51100000000E-03 0.  1.
         11   -1    0    0    0    0 -0.00000000000E+00 -0.00000000000E+00 -0.45593999997E+02  0.45594000000E+02  0.51100000000E-03 0. -1.
    9900012    2    1    2    0    0  0.49327446663E+00 -0.71233123511E+01  0.44476156404E+02  0.46142318886E+02  0.10000010258E+02 0.  0.
         12    1    1    2    0    0 -0.49327446663E+00  0.71233123511E+01 -0.44476156404E+02  0.45045681114E+02  0.00000000000E+00 0. -1.
         11    1    3    3    0    0 -0.35460705858E+01 -0.61890715393E+01  0.18717843652E+02  0.20030898491E+02  0.51100000000E-03 0. -1.
        -11    1    3    3    0    0  0.21758909271E+01 -0.78414365701E+00  0.16936487965E+02  0.17093683262E+02  0.51100000000E-03 0.  1.
         12    1    3    3    0    0  0.18634541253E+01 -0.15009715487E+00  0.88218247870E+01  0.90177371333E+01  0.00000000000E+00 0. -1.
</event>
<event>
 7    1  0.1445801E-008  0.4614232E+02  0.7816164E-02  0.1320468E+00
        -11   -1    0    0    0    0  0.00000000000E+00  0.00000000000E+00  0.45593999997E+02  0.45594000000E+02  0.51100000000E-03 0.  1.
         11   -1    0    0    0    0 -0.00000000000E+00 -0.00000000000E+00 -0.45593999997E+02  0.45594000000E+02  0.51100000000E-03 0. -1.
    9900012    2    1    2    0    0 -0.51526338729E+01 -0.36826027281E+02  0.25424547579E+02  0.46142317180E+02  0.99999947013E+01 0.  0.
         12    1    1    2    0    0  0.51526338729E+01  0.36826027281E+02 -0.25424547579E+02  0.45045682820E+02  0.00000000000E+00 0. -1.
         11    1    3    3    0    0 -0.11558515159E+01 -0.12237799294E+02  0.11053933864E+02  0.16531460262E+02  0.51100000000E-03 0. -1.
        -11    1    3    3    0    0 -0.55682867520E+01 -0.17742218821E+02  0.12272314756E+02  0.22280077553E+02  0.51100000000E-03 0.  1.
         12    1    3    3    0    0  0.15715043949E+01 -0.68460091663E+01  0.20982989588E+01  0.73307793643E+01  0.00000000000E+00 0. -1.
</event>
<event>
 7    1  0.1445801E-008  0.4614232E+02  0.7816164E-02  0.1320468E+00
        -11   -1    0    0    0    0  0.00000000000E+00  0.00000000000E+00  0.45593999997E+02  0.45594000000E+02  0.51100000000E-03 0.  1.
         11   -1    0    0    0    0 -0.00000000000E+00 -0.00000000000E+00 -0.45593999997E+02  0.45594000000E+02  0.51100000000E-03 0. -1.
    9900012    2    1    2    0    0  0.21800907776E+02  0.11376955809E+02  0.37741206948E+02  0.46142318684E+02  0.10000008420E+02 0.  0.
         12    1    1    2    0    0 -0.21800907776E+02 -0.11376955809E+02 -0.37741206948E+02  0.45045681316E+02  0.00000000000E+00 0. -1.
         11    1    3    3    0    0  0.16707293641E+00  0.19299371951E+01  0.67167307920E+01  0.69904966731E+01  0.51100000000E-03 0. -1.
        -11    1    3    3    0    0  0.86022641443E+01  0.57027985953E+01  0.13675333253E+02  0.17132880670E+02  0.51100000000E-03 0.  1.
         12    1    3    3    0    0  0.13031570695E+02  0.37442200188E+01  0.17349142903E+02  0.22018941341E+02  0.00000000000E+00 0. -1.
</event>
<event>
 7    1  0.1445801E-008  0.4614232E+02  0.7816164E-02  0.1320468E+00
        -11   -1    0    0    0    0  0.00000000000E+00  0.00000000000E+00  0.45593999997E+02  0.45594000000E+02  0.51100000000E-03 0. -1.
         11   -1    0    0    0    0 -0.00000000000E+00 -0.00000000000E+00 -0.45593999997E+02  0.45594000000E+02  0.51100000000E-03 0.  1.
    9900012    2    1    2    0    0  0.11567670868E+01 -0.44915894989E+02  0.32152383933E+01  0.46142317736E+02  0.99999997683E+01 0.  0.
         12    1    1    2    0    0 -0.11567670868E+01  0.44915894989E+02 -0.32152383933E+01  0.45045682264E+02  0.00000000000E+00 0. -1.
         11    1    3    3    0    0  0.33774196747E+00 -0.15288755252E+02  0.35445342304E+01  0.15697892533E+02  0.51100000000E-03 0. -1.
        -11    1    3    3    0    0  0.31434506039E+01 -0.21980065591E+02  0.14684030883E+01  0.22252208272E+02  0.51100000000E-03 0.  1.
         12    1    3    3    0    0 -0.23244254845E+01 -0.76470741457E+01 -0.17976989254E+01  0.81922169313E+01  0.00000000000E+00 0. -1.
</event>
<event>
 7    1  0.1445801E-008  0.4614232E+02  0.7816164E-02  0.1320468E+00
        -11   -1    0    0    0    0  0.00000000000E+00  0.00000000000E+00  0.45593999997E+02  0.45594000000E+02  0.51100000000E-03 0. -1.
         11   -1    0    0    0    0 -0.00000000000E+00 -0.00000000000E+00 -0.45593999997E+02  0.45594000000E+02  0.51100000000E-03 0.  1.
    9900012    2    1    2    0    0 -0.14656056066E+02  0.42176193661E+02  0.59566973202E+01  0.46142317253E+02  0.99999953712E+01 0.  0.
         12    1    1    2    0    0  0.14656056066E+02 -0.42176193661E+02 -0.59566973202E+01  0.45045682747E+02  0.00000000000E+00 0. -1.
         11    1    3    3    0    0 -0.22503868338E+01  0.97374525055E+01  0.54392497834E+01  0.11378385679E+02  0.51100000000E-03 0. -1.
        -11    1    3    3    0    0 -0.84215204471E+01  0.22616769932E+02  0.99040169485E+00  0.24154113202E+02  0.51100000000E-03 0.  1.
         12    1    3    3    0    0 -0.39841487847E+01  0.98219712241E+01 -0.47295415813E+00  0.10609818373E+02  0.00000000000E+00 0. -1.
</event>
<event>
 7    1  0.1445801E-008  0.4614232E+02  0.7816164E-02  0.1320468E+00
        -11   -1    0    0    0    0  0.00000000000E+00  0.00000000000E+00  0.45593999997E+02  0.45594000000E+02  0.51100000000E-03 0.  1.
         11   -1    0    0    0    0 -0.00000000000E+00 -0.00000000000E+00 -0.45593999997E+02  0.45594000000E+02  0.51100000000E-03 0. -1.
    9900012    2    1    2    0    0 -0.11005402328E+02 -0.69120874914E+01  0.43130239469E+02  0.46142318847E+02  0.10000009906E+02 0.  0.
         12    1    1    2    0    0  0.11005402328E+02  0.69120874914E+01 -0.43130239469E+02  0.45045681153E+02  0.00000000000E+00 0. -1.
         11    1    3    3    0    0 -0.19474970690E+01  0.13912935772E+01  0.59657947209E+01  0.64279973215E+01  0.51100000000E-03 0. -1.
        -11    1    3    3    0    0 -0.77595783321E+01 -0.64031238206E+01  0.19913155567E+02  0.22310195325E+02  0.51100000000E-03 0.  1.
        -12    1    3    3    0    0 -0.12983269265E+01 -0.19002572480E+01  0.17251289181E+02  0.17404126201E+02  0.00000000000E+00 0.  1.
</event>
<event>
 7    1  0.1445801E-008  0.4614232E+02  0.7816164E-02  0.1320468E+00
        -11   -1    0    0    0    0  0.00000000000E+00  0.00000000000E+00  0.45593999997E+02  0.45594000000E+02  0.51100000000E-03 0.  1.
         11   -1    0    0    0    0 -0.00000000000E+00 -0.00000000000E+00 -0.45593999997E+02  0.45594000000E+02  0.51100000000E-03 0. -1.
    9900012    2    1    2    0    0 -0.24799272478E+02  0.91100468864E+01  0.36484467408E+02  0.46142320610E+02  0.10000025977E+02 0.  0.
         12    1    1    2    0    0  0.24799272478E+02 -0.91100468864E+01 -0.36484467408E+02  0.45045679390E+02  0.00000000000E+00 0. -1.
         11    1    3    3    0    0 -0.94261991003E+01  0.33497804034E+01  0.78429222454E+01  0.12711635923E+02  0.51100000000E-03 0. -1.
        -11    1    3    3    0    0 -0.15585403282E+02  0.61818476749E+01  0.27752013490E+02  0.32423668657E+02  0.51100000000E-03 0.  1.
        -12    1    3    3    0    0  0.21232990422E+00 -0.42158119187E+00  0.88953167209E+00  0.10070160303E+01  0.00000000000E+00 0.  1.
</event>
<event>
 7    1  0.1445801E-008  0.4614233E+02  0.7816164E-02  0.1320468E+00
        -11   -1    0    0    0    0  0.00000000000E+00  0.00000000000E+00  0.45593999997E+02  0.45594000000E+02  0.51100000000E-03 0.  1.
         11   -1    0    0    0    0 -0.00000000000E+00 -0.00000000000E+00 -0.45593999997E+02  0.45594000000E+02  0.51100000000E-03 0. -1.
    9900012    2    1    2    0    0 -0.29035523154E+02  0.13873341478E+02  0.31521123218E+02  0.46142329648E+02  0.10000108389E+02 0.  0.
         12    1    1    2    0    0  0.29035523154E+02 -0.13873341478E+02 -0.31521123218E+02  0.45045670352E+02  0.00000000000E+00 0. -1.
         11    1    3    3    0    0  0.35318832061E+00  0.15059499618E+01  0.96945521180E+00  0.18255056686E+01  0.51100000000E-03 0. -1.
        -11    1    3    3    0    0 -0.19576989649E+02  0.98018100839E+01  0.22190709606E+02  0.31173090924E+02  0.51100000000E-03 0.  1.
         12    1    3    3    0    0 -0.98117218254E+01  0.25655814323E+01  0.83609583998E+01  0.13143733055E+02  0.00000000000E+00 0. -1.
</event>
<event>
 7    1  0.1445801E-008  0.4614232E+02  0.7816164E-02  0.1320468E+00
        -11   -1    0    0    0    0  0.00000000000E+00  0.00000000000E+00  0.45593999997E+02  0.45594000000E+02  0.51100000000E-03 0. -1.
         11   -1    0    0    0    0 -0.00000000000E+00 -0.00000000000E+00 -0.45593999997E+02  0.45594000000E+02  0.51100000000E-03 0.  1.
    9900012    2    1    2    0    0 -0.14068077539E+02  0.22184768607E+02 -0.36592875270E+02  0.46142320026E+02  0.10000020655E+02 0.  0.
         12    1    1    2    0    0  0.14068077539E+02 -0.22184768607E+02  0.36592875270E+02  0.45045679974E+02  0.00000000000E+00 0. -1.
         11    1    3    3    0    0 -0.60614324172E+01  0.10200853707E+02 -0.13550307949E+02  0.18011363776E+02  0.51100000000E-03 0.  1.
        -11    1    3    3    0    0 -0.14409879446E+01  0.82969965212E+01 -0.14273078955E+02  0.16572186961E+02  0.51100000000E-03 0. -1.
         12    1    3    3    0    0 -0.65656571770E+01  0.36869183792E+01 -0.87694883656E+01  0.11558769290E+02  0.00000000000E+00 0. -1.
</event>
<event>
 7    1  0.1445801E-008  0.4614232E+02  0.7816164E-02  0.1320468E+00
        -11   -1    0    0    0    0  0.00000000000E+00  0.00000000000E+00  0.45593999997E+02  0.45594000000E+02  0.51100000000E-03 0.  1.
         11   -1    0    0    0    0 -0.00000000000E+00 -0.00000000000E+00 -0.45593999997E+02  0.45594000000E+02  0.51100000000E-03 0. -1.
    9900012    2    1    2    0    0  0.97893030699E+01  0.42325092818E+02  0.11910903147E+02  0.46142317072E+02  0.99999937188E+01 0.  0.
         12    1    1    2    0    0 -0.97893030699E+01 -0.42325092818E+02 -0.11910903147E+02  0.45045682928E+02  0.00000000000E+00 0. -1.
         11    1    3    3    0    0  0.39251097332E+01  0.41421046958E+01  0.81813688133E+00  0.57647953950E+01  0.51100000000E-03 0. -1.
        -11    1    3    3    0    0  0.31955389993E+01  0.28445307467E+02  0.94771713484E+01  0.30152342586E+02  0.51100000000E-03 0.  1.
        -12    1    3    3    0    0  0.26686543374E+01  0.97376806554E+01  0.16155949175E+01  0.10225179092E+02  0.00000000000E+00 0.  1.
</event>
<event>
 7    1  0.1445801E-008  0.4614232E+02  0.7816164E-02  0.1320468E+00
        -11   -1    0    0    0    0  0.00000000000E+00  0.00000000000E+00  0.45593999997E+02  0.45594000000E+02  0.51100000000E-03 0.  1.
         11   -1    0    0    0    0 -0.00000000000E+00 -0.00000000000E+00 -0.45593999997E+02  0.45594000000E+02  0.51100000000E-03 0. -1.
    9900012    2    1    2    0    0 -0.35153773067E+02  0.18954674930E+02  0.20833770337E+02  0.46142318198E+02  0.10000003983E+02 0.  0.
         12    1    1    2    0    0  0.35153773067E+02 -0.18954674930E+02 -0.20833770337E+02  0.45045681802E+02  0.00000000000E+00 0. -1.
         11    1    3    3    0    0 -0.21156695551E+02  0.11493076998E+02  0.16954911397E+02  0.29447675736E+02  0.51100000000E-03 0. -1.
        -11    1    3    3    0    0 -0.10388277375E+02  0.70232393793E+01  0.36123037307E+01  0.13049556954E+02  0.51100000000E-03 0.  1.
         12    1    3    3    0    0 -0.36088001411E+01  0.43835855275E+00  0.26655520987E+00  0.36450855078E+01  0.00000000000E+00 0. -1.
</event>
<event>
 7    1  0.2070109E-008  0.4614231E+02  0.7816164E-02  0.1320468E+00
        -11   -1    0    0    0    0  0.00000000000E+00  0.00000000000E+00  0.45593999997E+02  0.45594000000E+02  0.51100000000E-03 0. -1.
         11   -1    0    0    0    0 -0.00000000000E+00 -0.00000000000E+00 -0.45593999997E+02  0.45594000000E+02  0.51100000000E-03 0.  1.
    9900012    2    1    2    0    0  0.37246964643E+02 -0.16879365593E+02 -0.18890854407E+02  0.46142314988E+02  0.99999747144E+01 0.  0.
         12    1    1    2    0    0 -0.37246964643E+02  0.16879365593E+02  0.18890854407E+02  0.45045685012E+02  0.00000000000E+00 0. -1.
         11    1    3    3    0    0  0.11536238725E+02 -0.51046978748E+01 -0.12519827382E+01  0.12677152888E+02  0.51100000000E-03 0. -1.
        -11    1    3    3    0    0  0.22792976889E+02 -0.11430819728E+02 -0.15678804676E+02  0.29933398595E+02  0.51100000000E-03 0.  1.
         12    1    3    3    0    0  0.29177490293E+01 -0.34384798965E+00 -0.19600669926E+01  0.35317635048E+01  0.00000000000E+00 0. -1.
</event>
<event>
 7    1  0.1445801E-008  0.4614232E+02  0.7816164E-02  0.1320468E+00
        -11   -1    0    0    0    0  0.00000000000E+00  0.00000000000E+00  0.45593999997E+02  0.45594000000E+02  0.51100000000E-03 0.  1.
         11   -1    0    0    0    0 -0.00000000000E+00 -0.00000000000E+00 -0.45593999997E+02  0.45594000000E+02  0.51100000000E-03 0. -1.
    9900012    2    1    2    0    0  0.30346183913E+02 -0.95581052879E+01  0.31888324707E+02  0.46142317550E+02  0.99999980711E+01 0.  0.
         12    1    1    2    0    0 -0.30346183913E+02  0.95581052879E+01 -0.31888324707E+02  0.45045682450E+02  0.00000000000E+00 0. -1.
         11    1    3    3    0    0  0.66471320267E+01 -0.41984071689E+00  0.28160644670E+01  0.72312412317E+01  0.51100000000E-03 0. -1.
        -11    1    3    3    0    0  0.21893573351E+02 -0.84302182415E+01  0.28447593746E+02  0.36873604704E+02  0.51100000000E-03 0.  1.
        -12    1    3    3    0    0  0.18054785360E+01 -0.70804632955E+00  0.62466649403E+00  0.20374716139E+01  0.00000000000E+00 0.  1.
</event>
<event>
 7    1  0.1445801E-008  0.4614232E+02  0.7816164E-02  0.1320468E+00
        -11   -1    0    0    0    0  0.00000000000E+00  0.00000000000E+00  0.45593999997E+02  0.45594000000E+02  0.51100000000E-03 0. -1.
         11   -1    0    0    0    0 -0.00000000000E+00 -0.00000000000E+00 -0.45593999997E+02  0.45594000000E+02  0.51100000000E-03 0.  1.
    9900012    2    1    2    0    0 -0.28655703074E+02  0.24718563945E+02 -0.24432698770E+02  0.46142317728E+02  0.99999997002E+01 0.  0.
         12    1    1    2    0    0  0.28655703074E+02 -0.24718563945E+02  0.24432698770E+02  0.45045682272E+02  0.00000000000E+00 0. -1.
         11    1    3    3    0    0 -0.38544747788E+01  0.10138545199E+01 -0.40931405831E+01  0.57130269475E+01  0.51100000000E-03 0. -1.
        -11    1    3    3    0    0 -0.15207152849E+02  0.10906297338E+02 -0.13271599121E+02  0.22942104587E+02  0.51100000000E-03 0.  1.
        -12    1    3    3    0    0 -0.95940754453E+01  0.12798412087E+02 -0.70679590657E+01  0.17487186193E+02  0.00000000000E+00 0.  1.
</event>
<event>
 7    1  0.1445801E-008  0.4614232E+02  0.7816164E-02  0.1320468E+00
        -11   -1    0    0    0    0  0.00000000000E+00  0.00000000000E+00  0.45593999997E+02  0.45594000000E+02  0.51100000000E-03 0.  1.
         11   -1    0    0    0    0 -0.00000000000E+00 -0.00000000000E+00 -0.45593999997E+02  0.45594000000E+02  0.51100000000E-03 0. -1.
    9900012    2    1    2    0    0  0.21798207453E+02 -0.23947746122E+02  0.31312243977E+02  0.46142323011E+02  0.10000047877E+02 0.  0.
         12    1    1    2    0    0 -0.21798207453E+02  0.23947746122E+02 -0.31312243977E+02  0.45045676989E+02  0.00000000000E+00 0. -1.
         11    1    3    3    0    0 -0.15348677100E+00 -0.53684413333E-01  0.33446343999E-01  0.16600940984E+00  0.51100000000E-03 0. -1.
        -11    1    3    3    0    0  0.20608541101E+02 -0.18965423230E+02  0.22965642474E+02  0.36219055469E+02  0.51100000000E-03 0.  1.
        -12    1    3    3    0    0  0.13431531235E+01 -0.49286384789E+01  0.83131551586E+01  0.97572581323E+01  0.00000000000E+00 0.  1.
</event>
<event>
 7    1  0.1445801E-008  0.4614232E+02  0.7816164E-02  0.1320468E+00
        -11   -1    0    0    0    0  0.00000000000E+00  0.00000000000E+00  0.45593999997E+02  0.45594000000E+02  0.51100000000E-03 0.  1.
         11   -1    0    0    0    0 -0.00000000000E+00 -0.00000000000E+00 -0.45593999997E+02  0.45594000000E+02  0.51100000000E-03 0. -1.
    9900012    2    1    2    0    0  0.60434200481E+01  0.11134479425E+02  0.43227468132E+02  0.46142316977E+02  0.99999928459E+01 0.  0.
         12    1    1    2    0    0 -0.60434200481E+01 -0.11134479425E+02 -0.43227468132E+02  0.45045683023E+02  0.00000000000E+00 0. -1.
         11    1    3    3    0    0  0.46549043737E+01  0.42333758766E+01  0.10269771515E+02  0.12043994905E+02  0.51100000000E-03 0. -1.
        -11    1    3    3    0    0  0.95921953232E+00  0.76058525521E+01  0.31536786359E+02  0.32455168915E+02  0.51100000000E-03 0.  1.
        -12    1    3    3    0    0  0.42929614202E+00 -0.70474900377E+00  0.14209102582E+01  0.16431531571E+01  0.00000000000E+00 0.  1.
</event>
<event>
 7    1  0.1445801E-008  0.4614232E+02  0.7816164E-02  0.1320468E+00
        -11   -1    0    0    0    0  0.00000000000E+00  0.00000000000E+00  0.45593999997E+02  0.45594000000E+02  0.51100000000E-03 0.  1.
         11   -1    0    0    0    0 -0.00000000000E+00 -0.00000000000E+00 -0.45593999997E+02  0.45594000000E+02  0.51100000000E-03 0. -1.
    9900012    2    1    2    0    0  0.35564152804E+01 -0.10379198730E+02  0.43689101976E+02  0.46142317772E+02  0.10000000102E+02 0.  0.
         12    1    1    2    0    0 -0.35564152804E+01  0.10379198730E+02 -0.43689101976E+02  0.45045682228E+02  0.00000000000E+00 0. -1.
         11    1    3    3    0    0  0.30912485425E+01 -0.56497225713E+01  0.10730152521E+02  0.12514445896E+02  0.51100000000E-03 0. -1.
        -11    1    3    3    0    0 -0.84196299534E+00 -0.52059253887E+01  0.25338449328E+02  0.25881413706E+02  0.51100000000E-03 0.  1.
         12    1    3    3    0    0  0.13071297332E+01  0.47644922962E+00  0.76205001268E+01  0.77464581707E+01  0.00000000000E+00 0. -1.
</event>
<event>
 7    1  0.1445801E-008  0.4614232E+02  0.7816164E-02  0.1320468E+00
        -11   -1    0    0    0    0  0.00000000000E+00  0.00000000000E+00  0.45593999997E+02  0.45594000000E+02  0.51100000000E-03 0.  1.
         11   -1    0    0    0    0 -0.00000000000E+00 -0.00000000000E+00 -0.45593999997E+02  0.45594000000E+02  0.51100000000E-03 0. -1.
    9900012    2    1    2    0    0 -0.20106338607E+02  0.26885043240E+00  0.40308514427E+02  0.46142317987E+02  0.10000002058E+02 0.  0.
         12    1    1    2    0    0  0.20106338607E+02 -0.26885043240E+00 -0.40308514427E+02  0.45045682013E+02  0.00000000000E+00 0. -1.
         11    1    3    3    0    0 -0.64291124569E+01 -0.16917803423E+01  0.11219527821E+02  0.13041219748E+02  0.51100000000E-03 0. -1.
        -11    1    3    3    0    0 -0.82684965305E+01 -0.38765191436E+00  0.23733378184E+02  0.25135463974E+02  0.51100000000E-03 0.  1.
        -12    1    3    3    0    0 -0.54087296201E+01  0.23482826890E+01  0.53556084206E+01  0.79656342651E+01  0.00000000000E+00 0.  1.
</event>
<event>
 7    1  0.1445801E-008  0.4614232E+02  0.7816164E-02  0.1320468E+00
        -11   -1    0    0    0    0  0.00000000000E+00  0.00000000000E+00  0.45593999997E+02  0.45594000000E+02  0.51100000000E-03 0.  1.
         11   -1    0    0    0    0 -0.00000000000E+00 -0.00000000000E+00 -0.45593999997E+02  0.45594000000E+02  0.51100000000E-03 0. -1.
    9900012    2    1    2    0    0 -0.16596441293E+02  0.31272785864E+02  0.27851113356E+02  0.46142317472E+02  0.99999973594E+01 0.  0.
         12    1    1    2    0    0  0.16596441293E+02 -0.31272785864E+02 -0.27851113356E+02  0.45045682528E+02  0.00000000000E+00 0. -1.
         11    1    3    3    0    0 -0.90389474330E+01  0.96456093097E+01  0.77041532513E+01  0.15300141412E+02  0.51100000000E-03 0. -1.
        -11    1    3    3    0    0  0.34308003528E+00  0.39960097820E+01  0.29768143005E+01  0.49947193844E+01  0.51100000000E-03 0.  1.
        -12    1    3    3    0    0 -0.79005738956E+01  0.17631166772E+02  0.17170145804E+02  0.25847456675E+02  0.00000000000E+00 0.  1.
</event>
<event>
 7    1  0.1445801E-008  0.4614232E+02  0.7816164E-02  0.1320468E+00
        -11   -1    0    0    0    0  0.00000000000E+00  0.00000000000E+00  0.45593999997E+02  0.45594000000E+02  0.51100000000E-03 0.  1.
         11   -1    0    0    0    0 -0.00000000000E+00 -0.00000000000E+00 -0.45593999997E+02  0.45594000000E+02  0.51100000000E-03 0. -1.
    9900012    2    1    2    0    0 -0.23127790974E+02 -0.24914019562E+02  0.29555208551E+02  0.46142318314E+02  0.10000005038E+02 0.  0.
         12    1    1    2    0    0  0.23127790974E+02  0.24914019562E+02 -0.29555208551E+02  0.45045681686E+02  0.00000000000E+00 0. -1.
         11    1    3    3    0    0 -0.24697096851E+01 -0.17155548355E+00  0.11600789574E+01  0.27339862218E+01  0.51100000000E-03 0. -1.
        -11    1    3    3    0    0 -0.16366546521E+02 -0.16572386209E+02  0.17521425193E+02  0.29146323451E+02  0.51100000000E-03 0.  1.
        -12    1    3    3    0    0 -0.42915347681E+01 -0.81700778696E+01  0.10873704401E+02  0.14262008640E+02  0.00000000000E+00 0.  1.
</event>
<event>
 7    1  0.1445801E-008  0.4614232E+02  0.7816164E-02  0.1320468E+00
        -11   -1    0    0    0    0  0.00000000000E+00  0.00000000000E+00  0.45593999997E+02  0.45594000000E+02  0.51100000000E-03 0. -1.
         11   -1    0    0    0    0 -0.00000000000E+00 -0.00000000000E+00 -0.45593999997E+02  0.45594000000E+02  0.51100000000E-03 0.  1.
    9900012    2    1    2    0    0  0.51656372185E+01 -0.40609043801E+02 -0.18797214540E+02  0.46142317401E+02  0.99999967156E+01 0.  0.
         12    1    1    2    0    0 -0.51656372185E+01  0.40609043801E+02  0.18797214540E+02  0.45045682599E+02  0.00000000000E+00 0. -1.
         11    1    3    3    0    0  0.32740583780E+01 -0.11993818975E+02 -0.24656489517E+01  0.12674800862E+02  0.51100000000E-03 0. -1.
        -11    1    3    3    0    0  0.90155120049E+00 -0.10043093640E+02 -0.88648018058E+01  0.13426140017E+02  0.51100000000E-03 0.  1.
        -12    1    3    3    0    0  0.99002764000E+00 -0.18572131186E+02 -0.74667637829E+01  0.20041376522E+02  0.00000000000E+00 0.  1.
</event>
<event>
 7    1  0.1445801E-008  0.4614232E+02  0.7816164E-02  0.1320468E+00
        -11   -1    0    0    0    0  0.00000000000E+00  0.00000000000E+00  0.45593999997E+02  0.45594000000E+02  0.51100000000E-03 0.  1.
         11   -1    0    0    0    0 -0.00000000000E+00 -0.00000000000E+00 -0.45593999997E+02  0.45594000000E+02  0.51100000000E-03 0. -1.
    9900012    2    1    2    0    0  0.61216936083E+01 -0.30475251463E+02  0.32602108517E+02  0.46142316920E+02  0.99999923323E+01 0.  0.
         12    1    1    2    0    0 -0.61216936083E+01  0.30475251463E+02 -0.32602108517E+02  0.45045683080E+02  0.00000000000E+00 0. -1.
         11    1    3    3    0    0 -0.14078965922E+01 -0.32373590546E+01  0.33572534399E+01  0.48717365881E+01  0.51100000000E-03 0. -1.
        -11    1    3    3    0    0 -0.23974508223E+00 -0.69023754349E+00 -0.30719082779E+00  0.79263613133E+00  0.51100000000E-03 0.  1.
        -12    1    3    3    0    0  0.77693352827E+01 -0.26547654865E+02  0.29552045905E+02  0.40477944201E+02  0.00000000000E+00 0.  1.
</event>
<event>
 7    1  0.1445801E-008  0.4614232E+02  0.7816164E-02  0.1320468E+00
        -11   -1    0    0    0    0  0.00000000000E+00  0.00000000000E+00  0.45593999997E+02  0.45594000000E+02  0.51100000000E-03 0.  1.
         11   -1    0    0    0    0 -0.00000000000E+00 -0.00000000000E+00 -0.45593999997E+02  0.45594000000E+02  0.51100000000E-03 0. -1.
    9900012    2    1    2    0    0 -0.28374545580E+02 -0.17783215465E+02  0.30128990554E+02  0.46142315845E+02  0.99999825310E+01 0.  0.
         12    1    1    2    0    0  0.28374545580E+02  0.17783215465E+02 -0.30128990554E+02  0.45045684155E+02  0.00000000000E+00 0. -1.
         11    1    3    3    0    0 -0.89758302599E+01 -0.95656833289E+01  0.87327066184E+01  0.15758426049E+02  0.51100000000E-03 0. -1.
        -11    1    3    3    0    0 -0.68916809709E+01 -0.22317871694E+01  0.10464409831E+02  0.12727136911E+02  0.51100000000E-03 0.  1.
         12    1    3    3    0    0 -0.12507034349E+02 -0.59857449672E+01  0.10931874105E+02  0.17656752886E+02  0.00000000000E+00 0. -1.
</event>
<event>
 7    1  0.1445801E-008  0.4614232E+02  0.7816164E-02  0.1320468E+00
        -11   -1    0    0    0    0  0.00000000000E+00  0.00000000000E+00  0.45593999997E+02  0.45594000000E+02  0.51100000000E-03 0. -1.
         11   -1    0    0    0    0 -0.00000000000E+00 -0.00000000000E+00 -0.45593999997E+02  0.45594000000E+02  0.51100000000E-03 0.  1.
    9900012    2    1    2    0    0  0.15119713570E+02 -0.17475971257E+02 -0.38666500035E+02  0.46142317246E+02  0.99999952983E+01 0.  0.
         12    1    1    2    0    0 -0.15119713570E+02  0.17475971257E+02  0.38666500035E+02  0.45045682754E+02  0.00000000000E+00 0. -1.
         11    1    3    3    0    0 -0.25036121704E+00 -0.82107670104E+00 -0.32274382969E+01  0.33396415839E+01  0.51100000000E-03 0. -1.
        -11    1    3    3    0    0  0.11485197468E+02 -0.90100765713E+01 -0.27412502507E+02  0.31056988500E+02  0.51100000000E-03 0.  1.
        -12    1    3    3    0    0  0.38848773187E+01 -0.76448179851E+01 -0.80265592311E+01  0.11745687162E+02  0.00000000000E+00 0.  1.
</event>
<event>
 7    1  0.1445801E-008  0.4614232E+02  0.7816164E-02  0.1320468E+00
        -11   -1    0    0    0    0  0.00000000000E+00  0.00000000000E+00  0.45593999997E+02  0.45594000000E+02  0.51100000000E-03 0.  1.
         11   -1    0    0    0    0 -0.00000000000E+00 -0.00000000000E+00 -0.45593999997E+02  0.45594000000E+02  0.51100000000E-03 0. -1.
    9900012    2    1    2    0    0 -0.39662227290E+01 -0.18839563676E+02  0.40724112692E+02  0.46142318334E+02  0.10000005222E+02 0.  0.
         12    1    1    2    0    0  0.39662227290E+01  0.18839563676E+02 -0.40724112692E+02  0.45045681666E+02  0.00000000000E+00 0. -1.
         11    1    3    3    0    0 -0.48987706578E+01 -0.13296610456E+02  0.32062022612E+02  0.35053831428E+02  0.51100000000E-03 0.  1.
        -11    1    3    3    0    0  0.13236279977E+01 -0.87727077147E+00  0.47554512645E+00  0.16576303904E+01  0.51100000000E-03 0. -1.
        -12    1    3    3    0    0 -0.39108006887E+00 -0.46656824491E+01  0.81865449537E+01  0.94308565154E+01  0.00000000000E+00 0.  1.
</event>
<event>
 7    1  0.1445801E-008  0.4614232E+02  0.7816164E-02  0.1320468E+00
        -11   -1    0    0    0    0  0.00000000000E+00  0.00000000000E+00  0.45593999997E+02  0.45594000000E+02  0.51100000000E-03 0. -1.
         11   -1    0    0    0    0 -0.00000000000E+00 -0.00000000000E+00 -0.45593999997E+02  0.45594000000E+02  0.51100000000E-03 0.  1.
    9900012    2    1    2    0    0 -0.18689898543E+02  0.38118348947E+02 -0.15059638386E+02  0.46142317162E+02  0.99999945375E+01 0.  0.
         12    1    1    2    0    0  0.18689898543E+02 -0.38118348947E+02  0.15059638386E+02  0.45045682838E+02  0.00000000000E+00 0. -1.
         11    1    3    3    0    0 -0.10346598000E+02  0.19448137953E+02 -0.40445615512E+01  0.22397335521E+02  0.51100000000E-03 0. -1.
        -11    1    3    3    0    0 -0.48324748659E+01  0.10886608004E+02 -0.36195594994E+01  0.12448785419E+02  0.51100000000E-03 0.  1.
         12    1    3    3    0    0 -0.35108256763E+01  0.77836029895E+01 -0.73955173359E+01  0.11296196222E+02  0.00000000000E+00 0. -1.
</event>
<event>
 7    1  0.1445801E-008  0.4614232E+02  0.7816164E-02  0.1320468E+00
        -11   -1    0    0    0    0  0.00000000000E+00  0.00000000000E+00  0.45593999997E+02  0.45594000000E+02  0.51100000000E-03 0.  1.
         11   -1    0    0    0    0 -0.00000000000E+00 -0.00000000000E+00 -0.45593999997E+02  0.45594000000E+02  0.51100000000E-03 0. -1.
    9900012    2    1    2    0    0  0.12700255037E+02 -0.18208822876E+02  0.39195099762E+02  0.46142317034E+02  0.99999933717E+01 0.  0.
         12    1    1    2    0    0 -0.12700255037E+02  0.18208822876E+02 -0.39195099762E+02  0.45045682966E+02  0.00000000000E+00 0. -1.
         11    1    3    3    0    0  0.11889785724E+02 -0.14691444575E+02  0.29152224534E+02  0.34742736562E+02  0.51100000000E-03 0. -1.
        -11    1    3    3    0    0  0.19605702549E+01 -0.37169768747E+01  0.73907661498E+01  0.85019513851E+01  0.51100000000E-03 0.  1.
         12    1    3    3    0    0 -0.11501009416E+01  0.19959857427E+00  0.26521090776E+01  0.28976290871E+01  0.00000000000E+00 0. -1.
</event>
<event>
 7    1  0.1445801E-008  0.4614232E+02  0.7816164E-02  0.1320468E+00
        -11   -1    0    0    0    0  0.00000000000E+00  0.00000000000E+00  0.45593999997E+02  0.45594000000E+02  0.51100000000E-03 0.  1.
         11   -1    0    0    0    0 -0.00000000000E+00 -0.00000000000E+00 -0.45593999997E+02  0.45594000000E+02  0.51100000000E-03 0. -1.
    9900012    2    1    2    0    0  0.41475147180E+02  0.10031732398E+02  0.14432256900E+02  0.46142317324E+02  0.99999960119E+01 0.  0.
         12    1    1    2    0    0 -0.41475147180E+02 -0.10031732398E+02 -0.14432256900E+02  0.45045682676E+02  0.00000000000E+00 0. -1.
         11    1    3    3    0    0  0.14981511725E+02  0.48005121893E+01  0.73702617704E+00  0.15749089456E+02  0.51100000000E-03 0. -1.
        -11    1    3    3    0    0  0.18069363850E+02  0.31409927248E+01  0.79822635887E+01  0.20002106826E+02  0.51100000000E-03 0.  1.
         12    1    3    3    0    0  0.84242716060E+01  0.20902274836E+01  0.57129671344E+01  0.10391121042E+02  0.00000000000E+00 0. -1.
</event>
<event>
 7    1  0.1445801E-008  0.4614232E+02  0.7816164E-02  0.1320468E+00
        -11   -1    0    0    0    0  0.00000000000E+00  0.00000000000E+00  0.45593999997E+02  0.45594000000E+02  0.51100000000E-03 0. -1.
         11   -1    0    0    0    0 -0.00000000000E+00 -0.00000000000E+00 -0.45593999997E+02  0.45594000000E+02  0.51100000000E-03 0.  1.
    9900012    2    1    2    0    0 -0.42101063928E+02 -0.15171473939E+02  0.51420099888E+01  0.46142317942E+02  0.10000001647E+02 0.  0.
         12    1    1    2    0    0  0.42101063928E+02  0.15171473939E+02 -0.51420099888E+01  0.45045682058E+02  0.00000000000E+00 0. -1.
         11    1    3    3    0    0 -0.68858098984E-01  0.94274705442E-01  0.22839343570E+00  0.25650142392E+00  0.51100000000E-03 0. -1.
        -11    1    3    3    0    0 -0.36320894125E+02 -0.11714912543E+02  0.11534208768E+01  0.38180844752E+02  0.51100000000E-03 0.  1.
        -12    1    3    3    0    0 -0.57113117041E+01 -0.35508361007E+01  0.37601956763E+01  0.77049717663E+01  0.00000000000E+00 0.  1.
</event>
<event>
 7    1  0.1445801E-008  0.4614231E+02  0.7816164E-02  0.1320468E+00
        -11   -1    0    0    0    0  0.00000000000E+00  0.00000000000E+00  0.45593999997E+02  0.45594000000E+02  0.51100000000E-03 0.  1.
         11   -1    0    0    0    0 -0.00000000000E+00 -0.00000000000E+00 -0.45593999997E+02  0.45594000000E+02  0.51100000000E-03 0. -1.
    9900012    2    1    2    0    0 -0.90646241615E+01 -0.27226820266E+01  0.44040133234E+02  0.46142314925E+02  0.99999741373E+01 0.  0.
         12    1    1    2    0    0  0.90646241615E+01  0.27226820266E+01 -0.44040133234E+02  0.45045685075E+02  0.00000000000E+00 0. -1.
         11    1    3    3    0    0 -0.33683863098E+01 -0.17352587130E+00  0.48572497290E+01  0.59134603027E+01  0.51100000000E-03 0. -1.
        -11    1    3    3    0    0 -0.94403869815E+00 -0.28137028463E+01  0.58693498919E+01  0.65770358966E+01  0.51100000000E-03 0.  1.
        -12    1    3    3    0    0 -0.47521991535E+01  0.26454669101E+00  0.33313533613E+02  0.33651818726E+02  0.00000000000E+00 0.  1.
</event>
<event>
 7    1  0.1445801E-008  0.4614232E+02  0.7816164E-02  0.1320468E+00
        -11   -1    0    0    0    0  0.00000000000E+00  0.00000000000E+00  0.45593999997E+02  0.45594000000E+02  0.51100000000E-03 0.  1.
         11   -1    0    0    0    0 -0.00000000000E+00 -0.00000000000E+00 -0.45593999997E+02  0.45594000000E+02  0.51100000000E-03 0. -1.
    9900012    2    1    2    0    0  0.33845455173E+02  0.19647455024E+02  0.22306417226E+02  0.46142316808E+02  0.99999913058E+01 0.  0.
         12    1    1    2    0    0 -0.33845455173E+02 -0.19647455024E+02 -0.22306417226E+02  0.45045683192E+02  0.00000000000E+00 0. -1.
         11    1    3    3    0    0  0.16148942737E+02  0.60407984991E+01  0.10447306129E+02  0.20160005051E+02  0.51100000000E-03 0.  1.
        -11    1    3    3    0    0  0.39940450377E+01  0.66065042293E+01  0.43421708865E+01  0.88573552578E+01  0.51100000000E-03 0. -1.
         12    1    3    3    0    0  0.13702467398E+02  0.70001522960E+01  0.75169402105E+01  0.17124956499E+02  0.00000000000E+00 0. -1.
</event>
<event>
 7    1  0.1445801E-008  0.4614232E+02  0.7816164E-02  0.1320468E+00
        -11   -1    0    0    0    0  0.00000000000E+00  0.00000000000E+00  0.45593999997E+02  0.45594000000E+02  0.51100000000E-03 0. -1.
         11   -1    0    0    0    0 -0.00000000000E+00 -0.00000000000E+00 -0.45593999997E+02  0.45594000000E+02  0.51100000000E-03 0.  1.
    9900012    2    1    2    0    0  0.22925805508E+02 -0.24777420962E+02 -0.29826167377E+02  0.46142318652E+02  0.10000008123E+02 0.  0.
         12    1    1    2    0    0 -0.22925805508E+02  0.24777420962E+02  0.29826167377E+02  0.45045681348E+02  0.00000000000E+00 0. -1.
         11    1    3    3    0    0  0.22250815402E+00 -0.35123761768E+00  0.56411098705E+00  0.70078470982E+00  0.51100000000E-03 0. -1.
        -11    1    3    3    0    0  0.19547597352E+02 -0.21932044570E+02 -0.24216869337E+02  0.38073348973E+02  0.51100000000E-03 0.  1.
         12    1    3    3    0    0  0.31557000016E+01 -0.24941387743E+01 -0.61734090265E+01  0.73681849687E+01  0.00000000000E+00 0. -1.
</event>
<event>
 7    1  0.1445801E-008  0.4614232E+02  0.7816164E-02  0.1320468E+00
        -11   -1    0    0    0    0  0.00000000000E+00  0.00000000000E+00  0.45593999997E+02  0.45594000000E+02  0.51100000000E-03 0.  1.
         11   -1    0    0    0    0 -0.00000000000E+00 -0.00000000000E+00 -0.45593999997E+02  0.45594000000E+02  0.51100000000E-03 0. -1.
    9900012    2    1    2    0    0 -0.79978074442E+01  0.72327629393E+01  0.43735977571E+02  0.46142317435E+02  0.99999970226E+01 0.  0.
         12    1    1    2    0    0  0.79978074442E+01 -0.72327629393E+01 -0.43735977571E+02  0.45045682565E+02  0.00000000000E+00 0. -1.
         11    1    3    3    0    0 -0.60714632767E+01  0.22765661316E+01  0.14166326286E+02  0.15579801679E+02  0.51100000000E-03 0. -1.
        -11    1    3    3    0    0 -0.25703901841E+01  0.53909827773E+01  0.28974741020E+02  0.29583867537E+02  0.51100000000E-03 0.  1.
         12    1    3    3    0    0  0.64404601669E+00 -0.43478596954E+00  0.59491026560E+00  0.97864821823E+00  0.00000000000E+00 0. -1.
</event>
<event>
 7    1  0.1445801E-008  0.4614232E+02  0.7816164E-02  0.1320468E+00
        -11   -1    0    0    0    0  0.00000000000E+00  0.00000000000E+00  0.45593999997E+02  0.45594000000E+02  0.51100000000E-03 0.  1.
         11   -1    0    0    0    0 -0.00000000000E+00 -0.00000000000E+00 -0.45593999997E+02  0.45594000000E+02  0.51100000000E-03 0. -1.
    9900012    2    1    2    0    0  0.16940893325E+02  0.41196064854E+02 -0.67084911711E+01  0.46142317855E+02  0.10000000860E+02 0.  0.
         12    1    1    2    0    0 -0.16940893325E+02 -0.41196064854E+02  0.67084911711E+01  0.45045682145E+02  0.00000000000E+00 0. -1.
         11    1    3    3    0    0  0.56985227969E+01  0.11545670050E+02  0.14068730491E+01  0.12952024977E+02  0.51100000000E-03 0. -1.
        -11    1    3    3    0    0  0.47189588680E+01  0.92666656286E+01 -0.50816018854E+01  0.11574210239E+02  0.51100000000E-03 0.  1.
         12    1    3    3    0    0  0.65234116601E+01  0.20383729175E+02 -0.30337623348E+01  0.21616082640E+02  0.00000000000E+00 0. -1.
</event>
<event>
 7    1  0.1445801E-008  0.4614232E+02  0.7816164E-02  0.1320468E+00
        -11   -1    0    0    0    0  0.00000000000E+00  0.00000000000E+00  0.45593999997E+02  0.45594000000E+02  0.51100000000E-03 0. -1.
         11   -1    0    0    0    0 -0.00000000000E+00 -0.00000000000E+00 -0.45593999997E+02  0.45594000000E+02  0.51100000000E-03 0.  1.
    9900012    2    1    2    0    0 -0.21371054831E+02 -0.36418637542E+02  0.15686756238E+02  0.46142318007E+02  0.10000002241E+02 0.  0.
         12    1    1    2    0    0  0.21371054831E+02  0.36418637542E+02 -0.15686756238E+02  0.45045681993E+02  0.00000000000E+00 0. -1.
         11    1    3    3    0    0 -0.17155657501E+01 -0.20412003401E+01  0.39721865974E+01  0.47841332858E+01  0.51100000000E-03 0. -1.
        -11    1    3    3    0    0 -0.97126883164E+01 -0.18900106058E+02  0.69149798352E+01  0.22346527017E+02  0.51100000000E-03 0.  1.
         12    1    3    3    0    0 -0.99428007642E+01 -0.15477331144E+02  0.47995898052E+01  0.19011657705E+02  0.00000000000E+00 0. -1.
</event>
<event>
 7    1  0.1445801E-008  0.4614232E+02  0.7816164E-02  0.1320468E+00
        -11   -1    0    0    0    0  0.00000000000E+00  0.00000000000E+00  0.45593999997E+02  0.45594000000E+02  0.51100000000E-03 0.  1.
         11   -1    0    0    0    0 -0.00000000000E+00 -0.00000000000E+00 -0.45593999997E+02  0.45594000000E+02  0.51100000000E-03 0. -1.
    9900012    2    1    2    0    0 -0.40149094633E+02 -0.16580402758E+02  0.11927027313E+02  0.46142317233E+02  0.99999951817E+01 0.  0.
         12    1    1    2    0    0  0.40149094633E+02  0.16580402758E+02 -0.11927027313E+02  0.45045682767E+02  0.00000000000E+00 0. -1.
         11    1    3    3    0    0 -0.42416479348E+01 -0.52017037910E+01  0.10588427739E+01  0.67948839441E+01  0.51100000000E-03 0. -1.
        -11    1    3    3    0    0 -0.18969732964E+02 -0.45990683041E+01  0.45738655010E+01  0.20048003489E+02  0.51100000000E-03 0.  1.
        -12    1    3    3    0    0 -0.16937713734E+02 -0.67796306631E+01  0.62943190383E+01  0.19299429800E+02  0.00000000000E+00 0.  1.
</event>
<event>
 7    1  0.1445801E-008  0.4614232E+02  0.7816164E-02  0.1320468E+00
        -11   -1    0    0    0    0  0.00000000000E+00  0.00000000000E+00  0.45593999997E+02  0.45594000000E+02  0.51100000000E-03 0.  1.
         11   -1    0    0    0    0 -0.00000000000E+00 -0.00000000000E+00 -0.45593999997E+02  0.45594000000E+02  0.51100000000E-03 0. -1.
    9900012    2    1    2    0    0  0.21432703948E+02 -0.11384496811E+02  0.37949255447E+02  0.46142317020E+02  0.99999932424E+01 0.  0.
         12    1    1    2    0    0 -0.21432703948E+02  0.11384496811E+02 -0.37949255447E+02  0.45045682980E+02  0.00000000000E+00 0. -1.
         11    1    3    3    0    0  0.12724579051E+02 -0.97247519290E+01  0.17140138632E+02  0.23457835891E+02  0.51100000000E-03 0. -1.
        -11    1    3    3    0    0  0.33945273642E+01 -0.14616580821E+01  0.92498580474E+01  0.99608802088E+01  0.51100000000E-03 0.  1.
         12    1    3    3    0    0  0.53135975324E+01 -0.19808679939E+00  0.11559258768E+02  0.12723600920E+02  0.00000000000E+00 0. -1.
</event>
<event>
 7    1  0.1445801E-008  0.4614232E+02  0.7816164E-02  0.1320468E+00
        -11   -1    0    0    0    0  0.00000000000E+00  0.00000000000E+00  0.45593999997E+02  0.45594000000E+02  0.51100000000E-03 0.  1.
         11   -1    0    0    0    0 -0.00000000000E+00 -0.00000000000E+00 -0.45593999997E+02  0.45594000000E+02  0.51100000000E-03 0. -1.
    9900012    2    1    2    0    0 -0.42238291877E+01  0.82328424183E+01  0.44085066986E+02  0.46142316983E+02  0.99999929055E+01 0.  0.
         12    1    1    2    0    0  0.42238291877E+01 -0.82328424183E+01 -0.44085066986E+02  0.45045683017E+02  0.00000000000E+00 0. -1.
         11    1    3    3    0    0 -0.31490335961E+01  0.44079483466E+01  0.13592940672E+02  0.14632650395E+02  0.51100000000E-03 0. -1.
        -11    1    3    3    0    0  0.10665418564E+01  0.42446582254E+01  0.10183489315E+02  0.11084136857E+02  0.51100000000E-03 0.  1.
        -12    1    3    3    0    0 -0.21413374479E+01 -0.41976415372E+00  0.20308637000E+02  0.20425529731E+02  0.00000000000E+00 0.  1.
</event>
<event>
 7    1  0.1445801E-008  0.4614232E+02  0.7816164E-02  0.1320468E+00
        -11   -1    0    0    0    0  0.00000000000E+00  0.00000000000E+00  0.45593999997E+02  0.45594000000E+02  0.51100000000E-03 0.  1.
         11   -1    0    0    0    0 -0.00000000000E+00 -0.00000000000E+00 -0.45593999997E+02  0.45594000000E+02  0.51100000000E-03 0. -1.
    9900012    2    1    2    0    0 -0.41787361502E+02  0.16557884407E+02  0.29608052177E+01  0.46142317800E+02  0.10000000351E+02 0.  0.
         12    1    1    2    0    0  0.41787361502E+02 -0.16557884407E+02 -0.29608052177E+01  0.45045682200E+02  0.00000000000E+00 0. -1.
         11    1    3    3    0    0 -0.12450092580E+01  0.31497432957E+00 -0.88127520739E+00  0.15575311018E+01  0.51100000000E-03 0. -1.
        -11    1    3    3    0    0 -0.34524338812E+02  0.15095680633E+02  0.67095493636E+00  0.37686333397E+02  0.51100000000E-03 0.  1.
        -12    1    3    3    0    0 -0.60180134325E+01  0.11472294452E+01  0.31711254887E+01  0.68984533005E+01  0.00000000000E+00 0.  1.
</event>
<event>
 7    1  0.1445801E-008  0.4614232E+02  0.7816164E-02  0.1320468E+00
        -11   -1    0    0    0    0  0.00000000000E+00  0.00000000000E+00  0.45593999997E+02  0.45594000000E+02  0.51100000000E-03 0. -1.
         11   -1    0    0    0    0 -0.00000000000E+00 -0.00000000000E+00 -0.45593999997E+02  0.45594000000E+02  0.51100000000E-03 0.  1.
    9900012    2    1    2    0    0  0.32565038688E+02  0.28583019809E+02 -0.12314329537E+02  0.46142317875E+02  0.10000001042E+02 0.  0.
         12    1    1    2    0    0 -0.32565038688E+02 -0.28583019809E+02  0.12314329537E+02  0.45045682125E+02  0.00000000000E+00 0. -1.
         11    1    3    3    0    0  0.38547579072E+01  0.59818841155E+01  0.11172718748E+01  0.72034986498E+01  0.51100000000E-03 0. -1.
        -11    1    3    3    0    0  0.11000009500E+02  0.91020493792E+01 -0.54935803231E+01  0.15297938977E+02  0.51100000000E-03 0.  1.
         12    1    3    3    0    0  0.17710271280E+02  0.13499086314E+02 -0.79380210887E+01  0.23640880249E+02  0.00000000000E+00 0. -1.
</event>
<event>
 7    1  0.1445801E-008  0.4614232E+02  0.7816164E-02  0.1320468E+00
        -11   -1    0    0    0    0  0.00000000000E+00  0.00000000000E+00  0.45593999997E+02  0.45594000000E+02  0.51100000000E-03 0.  1.
         11   -1    0    0    0    0 -0.00000000000E+00 -0.00000000000E+00 -0.45593999997E+02  0.45594000000E+02  0.51100000000E-03 0. -1.
    9900012    2    1    2    0    0 -0.33258242818E+02 -0.16085405329E+01  0.30338350956E+02  0.46142315892E+02  0.99999829591E+01 0.  0.
         12    1    1    2    0    0  0.33258242818E+02  0.16085405329E+01 -0.30338350956E+02  0.45045684108E+02  0.00000000000E+00 0. -1.
         11    1    3    3    0    0 -0.13222524534E+02 -0.43108191766E+01  0.92775880048E+01  0.16718012934E+02  0.51100000000E-03 0. -1.
        -11    1    3    3    0    0 -0.12723773994E+02  0.92372166250E+00  0.15458464908E+02  0.20042749909E+02  0.51100000000E-03 0.  1.
        -12    1    3    3    0    0 -0.73119442913E+01  0.17785569811E+01  0.56022980433E+01  0.93815530495E+01  0.00000000000E+00 0.  1.
</event>
<event>
 7    1  0.1445801E-008  0.4614232E+02  0.7816164E-02  0.1320468E+00
        -11   -1    0    0    0    0  0.00000000000E+00  0.00000000000E+00  0.45593999997E+02  0.45594000000E+02  0.51100000000E-03 0. -1.
         11   -1    0    0    0    0 -0.00000000000E+00 -0.00000000000E+00 -0.45593999997E+02  0.45594000000E+02  0.51100000000E-03 0.  1.
    9900012    2    1    2    0    0 -0.95516665653E+01 -0.83700291117E+01 -0.43218302754E+02  0.46142318581E+02  0.10000007478E+02 0.  0.
         12    1    1    2    0    0  0.95516665653E+01  0.83700291117E+01  0.43218302754E+02  0.45045681419E+02  0.00000000000E+00 0. -1.
         11    1    3    3    0    0 -0.31868627700E+01 -0.84652938749E-01 -0.12420659071E+02  0.12823261381E+02  0.51100000000E-03 0. -1.
        -11    1    3    3    0    0 -0.60043043293E+01 -0.51001229079E+01 -0.27923927699E+02  0.29013939108E+02  0.51100000000E-03 0.  1.
         12    1    3    3    0    0 -0.36049946608E+00 -0.31852532651E+01 -0.28737159850E+01  0.43051180925E+01  0.00000000000E+00 0. -1.
</event>
<event>
 7    1  0.1445801E-008  0.4614232E+02  0.7816164E-02  0.1320468E+00
        -11   -1    0    0    0    0  0.00000000000E+00  0.00000000000E+00  0.45593999997E+02  0.45594000000E+02  0.51100000000E-03 0.  1.
         11   -1    0    0    0    0 -0.00000000000E+00 -0.00000000000E+00 -0.45593999997E+02  0.45594000000E+02  0.51100000000E-03 0. -1.
    9900012    2    1    2    0    0 -0.13075492422E+02  0.39284665878E+02  0.17744298607E+02  0.46142316430E+02  0.99999878635E+01 0.  0.
         12    1    1    2    0    0  0.13075492422E+02 -0.39284665878E+02 -0.17744298607E+02  0.45045683570E+02  0.00000000000E+00 0. -1.
         11    1    3    3    0    0 -0.10665642220E+01  0.30328843370E+01  0.36072161367E+01  0.48319721811E+01  0.51100000000E-03 0. -1.
        -11    1    3    3    0    0 -0.49347415211E+01  0.24907089610E+02  0.82072093432E+01  0.26684697341E+02  0.51100000000E-03 0.  1.
         12    1    3    3    0    0 -0.70741866787E+01  0.11344691931E+02  0.59298731270E+01  0.14625646908E+02  0.00000000000E+00 0. -1.
</event>
<event>
 7    1  0.1445801E-008  0.4614232E+02  0.7816164E-02  0.1320468E+00
        -11   -1    0    0    0    0  0.00000000000E+00  0.00000000000E+00  0.45593999997E+02  0.45594000000E+02  0.51100000000E-03 0.  1.
         11   -1    0    0    0    0 -0.00000000000E+00 -0.00000000000E+00 -0.45593999997E+02  0.45594000000E+02  0.51100000000E-03 0. -1.
    9900012    2    1    2    0    0  0.44661694678E+01 -0.73433311477E+01  0.44218121740E+02  0.46142317939E+02  0.10000001625E+02 0.  0.
         12    1    1    2    0    0 -0.44661694678E+01  0.73433311477E+01 -0.44218121740E+02  0.45045682061E+02  0.00000000000E+00 0. -1.
         11    1    3    3    0    0  0.33057696044E+00  0.97896747312E+00  0.36443094187E+01  0.37879611720E+01  0.51100000000E-03 0. -1.
        -11    1    3    3    0    0  0.37631054216E+01 -0.94108380135E+01  0.28933702338E+02  0.30657527066E+02  0.51100000000E-03 0.  1.
        -12    1    3    3    0    0  0.37248708573E+00  0.10885393927E+01  0.11640109984E+02  0.11696829702E+02  0.00000000000E+00 0.  1.
</event>
<event>
 7    1  0.1445801E-008  0.4614231E+02  0.7816164E-02  0.1320468E+00
        -11   -1    0    0    0    0  0.00000000000E+00  0.00000000000E+00  0.45593999997E+02  0.45594000000E+02  0.51100000000E-03 0.  1.
         11   -1    0    0    0    0 -0.00000000000E+00 -0.00000000000E+00 -0.45593999997E+02  0.45594000000E+02  0.51100000000E-03 0. -1.
    9900012    2    1    2    0    0  0.10347953301E+02 -0.43082215856E+02  0.81213475176E+01  0.46142314900E+02  0.99999739123E+01 0.  0.
         12    1    1    2    0    0 -0.10347953301E+02  0.43082215856E+02 -0.81213475176E+01  0.45045685100E+02  0.00000000000E+00 0. -1.
         11    1    3    3    0    0  0.98595026940E+00 -0.79688103373E+01  0.39386566927E+01  0.89435481175E+01  0.51100000000E-03 0. -1.
        -11    1    3    3    0    0  0.77079383613E+01 -0.18478515388E+02  0.23967393125E+00  0.20023118852E+02  0.51100000000E-03 0.  1.
        -12    1    3    3    0    0  0.16540646706E+01 -0.16634890131E+02  0.39430168937E+01  0.17175647931E+02  0.00000000000E+00 0.  1.
</event>
<event>
 7    1  0.1445801E-008  0.4614232E+02  0.7816164E-02  0.1320468E+00
        -11   -1    0    0    0    0  0.00000000000E+00  0.00000000000E+00  0.45593999997E+02  0.45594000000E+02  0.51100000000E-03 0.  1.
         11   -1    0    0    0    0 -0.00000000000E+00 -0.00000000000E+00 -0.45593999997E+02  0.45594000000E+02  0.51100000000E-03 0. -1.
    9900012    2    1    2    0    0  0.24933300809E+02  0.37469597204E+02  0.18635846025E+01  0.46142321501E+02  0.10000034103E+02 0.  0.
         12    1    1    2    0    0 -0.24933300809E+02 -0.37469597204E+02 -0.18635846025E+01  0.45045678499E+02  0.00000000000E+00 0. -1.
         11    1    3    3    0    0  0.15313544080E+02  0.20822591854E+02  0.35905522581E+01  0.26095536584E+02  0.51100000000E-03 0. -1.
        -11    1    3    3    0    0  0.39092396599E+01  0.10898446192E+02  0.66744207309E+00  0.11597575751E+02  0.51100000000E-03 0.  1.
         12    1    3    3    0    0  0.57105170689E+01  0.57485591580E+01 -0.23944097287E+01  0.84492091664E+01  0.00000000000E+00 0. -1.
</event>
<event>
 7    1  0.1445801E-008  0.4614232E+02  0.7816164E-02  0.1320468E+00
        -11   -1    0    0    0    0  0.00000000000E+00  0.00000000000E+00  0.45593999997E+02  0.45594000000E+02  0.51100000000E-03 0. -1.
         11   -1    0    0    0    0 -0.00000000000E+00 -0.00000000000E+00 -0.45593999997E+02  0.45594000000E+02  0.51100000000E-03 0.  1.
    9900012    2    1    2    0    0 -0.31677891867E+02 -0.31894506558E+02 -0.28921911045E+01  0.46142321504E+02  0.10000034133E+02 0.  0.
         12    1    1    2    0    0  0.31677891867E+02  0.31894506558E+02  0.28921911045E+01  0.45045678496E+02  0.00000000000E+00 0. -1.
         11    1    3    3    0    0 -0.97046237198E+01 -0.76716218050E+01  0.27178194625E+01  0.12665703516E+02  0.51100000000E-03 0. -1.
        -11    1    3    3    0    0 -0.21047599222E+02 -0.22923484856E+02 -0.43078653395E+01  0.31417277014E+02  0.51100000000E-03 0.  1.
        -12    1    3    3    0    0 -0.92566892523E+00 -0.12993998977E+01 -0.13021452275E+01  0.20593409739E+01  0.00000000000E+00 0.  1.
</event>
<event>
 7    1  0.1445801E-008  0.4614232E+02  0.7816164E-02  0.1320468E+00
        -11   -1    0    0    0    0  0.00000000000E+00  0.00000000000E+00  0.45593999997E+02  0.45594000000E+02  0.51100000000E-03 0. -1.
         11   -1    0    0    0    0 -0.00000000000E+00 -0.00000000000E+00 -0.45593999997E+02  0.45594000000E+02  0.51100000000E-03 0.  1.
    9900012    2    1    2    0    0  0.29335715615E+02 -0.15326345905E+02 -0.30555397833E+02  0.46142318451E+02  0.10000006295E+02 0.  0.
         12    1    1    2    0    0 -0.29335715615E+02  0.15326345905E+02  0.30555397833E+02  0.45045681549E+02  0.00000000000E+00 0. -1.
         11    1    3    3    0    0  0.72150522962E+01 -0.11593976661E+01 -0.93923159807E+01  0.11900284968E+02  0.51100000000E-03 0. -1.
        -11    1    3    3    0    0  0.12180906769E+02 -0.61383499916E+01 -0.14203070688E+02  0.19692157006E+02  0.51100000000E-03 0.  1.
         12    1    3    3    0    0  0.99397565492E+01 -0.80285982475E+01 -0.69600111648E+01  0.14549876477E+02  0.00000000000E+00 0. -1.
</event>
<event>
 7    1  0.1445801E-008  0.4614232E+02  0.7816164E-02  0.1320468E+00
        -11   -1    0    0    0    0  0.00000000000E+00  0.00000000000E+00  0.45593999997E+02  0.45594000000E+02  0.51100000000E-03 0.  1.
         11   -1    0    0    0    0 -0.00000000000E+00 -0.00000000000E+00 -0.45593999997E+02  0.45594000000E+02  0.51100000000E-03 0. -1.
    9900012    2    1    2    0    0  0.16525191622E+02  0.10341226507E+02  0.40608995903E+02  0.46142317942E+02  0.10000001650E+02 0.  0.
         12    1    1    2    0    0 -0.16525191622E+02 -0.10341226507E+02 -0.40608995903E+02  0.45045682058E+02  0.00000000000E+00 0. -1.
         11    1    3    3    0    0  0.44575448982E+01  0.17879872866E+01  0.49501782894E+01  0.68971639400E+01  0.51100000000E-03 0. -1.
        -11    1    3    3    0    0  0.76716596014E+00 -0.41473346764E+00  0.80245309595E+01  0.80717807726E+01  0.51100000000E-03 0.  1.
        -12    1    3    3    0    0  0.11300480764E+02  0.89679726880E+01  0.27634286654E+02  0.31173373230E+02  0.00000000000E+00 0.  1.
</event>
<event>
 7    1  0.1445801E-008  0.4614232E+02  0.7816164E-02  0.1320468E+00
        -11   -1    0    0    0    0  0.00000000000E+00  0.00000000000E+00  0.45593999997E+02  0.45594000000E+02  0.51100000000E-03 0.  1.
         11   -1    0    0    0    0 -0.00000000000E+00 -0.00000000000E+00 -0.45593999997E+02  0.45594000000E+02  0.51100000000E-03 0. -1.
    9900012    2    1    2    0    0  0.10059099888E+02 -0.88456375097E+01  0.43007937813E+02  0.46142317538E+02  0.99999979653E+01 0.  0.
         12    1    1    2    0    0 -0.10059099888E+02  0.88456375097E+01 -0.43007937813E+02  0.45045682462E+02  0.00000000000E+00 0. -1.
         11    1    3    3    0    0  0.51372117738E+01 -0.35866853570E-01  0.18119285234E+02  0.18833500177E+02  0.51100000000E-03 0. -1.
        -11    1    3    3    0    0  0.57891763161E+01 -0.85550618494E+01  0.22635346966E+02  0.24880968192E+02  0.51100000000E-03 0.  1.
        -12    1    3    3    0    0 -0.86728820160E+00 -0.25470880677E+00  0.22533056131E+01  0.24278491689E+01  0.00000000000E+00 0.  1.
</event>
<event>
 7    1  0.1445801E-008  0.4614232E+02  0.7816164E-02  0.1320468E+00
        -11   -1    0    0    0    0  0.00000000000E+00  0.00000000000E+00  0.45593999997E+02  0.45594000000E+02  0.51100000000E-03 0.  1.
         11   -1    0    0    0    0 -0.00000000000E+00 -0.00000000000E+00 -0.45593999997E+02  0.45594000000E+02  0.51100000000E-03 0. -1.
    9900012    2    1    2    0    0 -0.24446811358E+02 -0.12144160525E+02  0.35832754054E+02  0.46142317815E+02  0.10000000489E+02 0.  0.
         12    1    1    2    0    0  0.24446811358E+02  0.12144160525E+02 -0.35832754054E+02  0.45045682185E+02  0.00000000000E+00 0. -1.
         11    1    3    3    0    0 -0.12882959257E+02 -0.97745826447E+01  0.19937821912E+02  0.25671576655E+02  0.51100000000E-03 0. -1.
        -11    1    3    3    0    0 -0.25749243146E+01 -0.24286812771E+01  0.68954870262E+01  0.77509012096E+01  0.51100000000E-03 0.  1.
         12    1    3    3    0    0 -0.89889277862E+01  0.59103397220E-01  0.89994451160E+01  0.12719839950E+02  0.00000000000E+00 0. -1.
</event>
<event>
 7    1  0.1445801E-008  0.4614232E+02  0.7816164E-02  0.1320468E+00
        -11   -1    0    0    0    0  0.00000000000E+00  0.00000000000E+00  0.45593999997E+02  0.45594000000E+02  0.51100000000E-03 0.  1.
         11   -1    0    0    0    0 -0.00000000000E+00 -0.00000000000E+00 -0.45593999997E+02  0.45594000000E+02  0.51100000000E-03 0. -1.
    9900012    2    1    2    0    0  0.40237531348E+02 -0.20219768905E+02  0.11024658365E+01  0.46142318581E+02  0.10000007480E+02 0.  0.
         12    1    1    2    0    0 -0.40237531348E+02  0.20219768905E+02 -0.11024658365E+01  0.45045681419E+02  0.00000000000E+00 0. -1.
         11    1    3    3    0    0  0.24955083185E+02 -0.11364392893E+02 -0.17935944198E+00  0.27421483779E+02  0.51100000000E-03 0. -1.
        -11    1    3    3    0    0  0.11640291207E+01  0.77461883245E+00  0.82772756498E+00  0.16248480890E+01  0.51100000000E-03 0.  1.
        -12    1    3    3    0    0  0.14118419042E+02 -0.96299948445E+01  0.45409771351E+00  0.17095986713E+02  0.00000000000E+00 0.  1.
</event>
<event>
 7    1  0.1445801E-008  0.4614232E+02  0.7816164E-02  0.1320468E+00
        -11   -1    0    0    0    0  0.00000000000E+00  0.00000000000E+00  0.45593999997E+02  0.45594000000E+02  0.51100000000E-03 0. -1.
         11   -1    0    0    0    0 -0.00000000000E+00 -0.00000000000E+00 -0.45593999997E+02  0.45594000000E+02  0.51100000000E-03 0.  1.
    9900012    2    1    2    0    0  0.22594315114E+02  0.26845619694E+02 -0.28247533523E+02  0.46142317384E+02  0.99999965633E+01 0.  0.
         12    1    1    2    0    0 -0.22594315114E+02 -0.26845619694E+02  0.28247533523E+02  0.45045682616E+02  0.00000000000E+00 0. -1.
         11    1    3    3    0    0  0.12380471213E+02  0.13495285399E+02 -0.14988603523E+02  0.23665524108E+02  0.51100000000E-03 0. -1.
        -11    1    3    3    0    0  0.37047339543E+01  0.86826626115E+01 -0.40506480267E+01  0.10272362600E+02  0.51100000000E-03 0.  1.
        -12    1    3    3    0    0  0.65091099459E+01  0.46676716837E+01 -0.92082819730E+01  0.12204430676E+02  0.00000000000E+00 0.  1.
</event>
<event>
 7    1  0.1445801E-008  0.4614233E+02  0.7816164E-02  0.1320468E+00
        -11   -1    0    0    0    0  0.00000000000E+00  0.00000000000E+00  0.45593999997E+02  0.45594000000E+02  0.51100000000E-03 0. -1.
         11   -1    0    0    0    0 -0.00000000000E+00 -0.00000000000E+00 -0.45593999997E+02  0.45594000000E+02  0.51100000000E-03 0.  1.
    9900012    2    1    2    0    0  0.26891386715E+02 -0.35189962589E+02  0.82238697516E+01  0.46142332282E+02  0.10000132409E+02 0.  0.
         12    1    1    2    0    0 -0.26891386715E+02  0.35189962589E+02 -0.82238697516E+01  0.45045667718E+02  0.00000000000E+00 0. -1.
         11    1    3    3    0    0  0.10279382718E+02 -0.78403734779E+01  0.52550392370E+01  0.13955378998E+02  0.51100000000E-03 0. -1.
        -11    1    3    3    0    0  0.48639253884E+01 -0.76282295350E+01  0.16294130471E+01  0.91925319233E+01  0.51100000000E-03 0.  1.
         12    1    3    3    0    0  0.11748078609E+02 -0.19721359576E+02  0.13394174675E+01  0.22994421360E+02  0.00000000000E+00 0. -1.
</event>
<event>
 7    1  0.1445801E-008  0.4614232E+02  0.7816164E-02  0.1320468E+00
        -11   -1    0    0    0    0  0.00000000000E+00  0.00000000000E+00  0.45593999997E+02  0.45594000000E+02  0.51100000000E-03 0. -1.
         11   -1    0    0    0    0 -0.00000000000E+00 -0.00000000000E+00 -0.45593999997E+02  0.45594000000E+02  0.51100000000E-03 0.  1.
    9900012    2    1    2    0    0 -0.27602098193E+02 -0.34777661696E+02  0.75994553177E+01  0.46142319865E+02  0.10000019184E+02 0.  0.
         12    1    1    2    0    0  0.27602098193E+02  0.34777661696E+02 -0.75994553177E+01  0.45045680135E+02  0.00000000000E+00 0. -1.
         11    1    3    3    0    0 -0.76217124121E+01 -0.60213119805E+01  0.43993902276E+01  0.10663082701E+02  0.51100000000E-03 0. -1.
        -11    1    3    3    0    0 -0.18649025692E+02 -0.25722086804E+02  0.16311916290E+01  0.31813089998E+02  0.51100000000E-03 0.  1.
        -12    1    3    3    0    0 -0.13313600884E+01 -0.30342629115E+01  0.15688734611E+01  0.36661471653E+01  0.00000000000E+00 0.  1.
</event>
<event>
 7    1  0.1445801E-008  0.4614232E+02  0.7816164E-02  0.1320468E+00
        -11   -1    0    0    0    0  0.00000000000E+00  0.00000000000E+00  0.45593999997E+02  0.45594000000E+02  0.51100000000E-03 0. -1.
         11   -1    0    0    0    0 -0.00000000000E+00 -0.00000000000E+00 -0.45593999997E+02  0.45594000000E+02  0.51100000000E-03 0.  1.
    9900012    2    1    2    0    0 -0.96077798318E+01  0.19246375283E+02 -0.39577532360E+02  0.46142318048E+02  0.10000002614E+02 0.  0.
         12    1    1    2    0    0  0.96077798318E+01 -0.19246375283E+02  0.39577532360E+02  0.45045681952E+02  0.00000000000E+00 0. -1.
         11    1    3    3    0    0 -0.66297794977E+01  0.68709350363E+01 -0.21614632978E+02  0.23629559528E+02  0.51100000000E-03 0. -1.
        -11    1    3    3    0    0 -0.37182827106E+01  0.11787667120E+02 -0.15191513210E+02  0.19584606106E+02  0.51100000000E-03 0.  1.
        -12    1    3    3    0    0  0.74028237649E+00  0.58777312731E+00 -0.27713861718E+01  0.29281524140E+01  0.00000000000E+00 0.  1.
</event>
<event>
 7    1  0.1445801E-008  0.4614232E+02  0.7816164E-02  0.1320468E+00
        -11   -1    0    0    0    0  0.00000000000E+00  0.00000000000E+00  0.45593999997E+02  0.45594000000E+02  0.51100000000E-03 0.  1.
         11   -1    0    0    0    0 -0.00000000000E+00 -0.00000000000E+00 -0.45593999997E+02  0.45594000000E+02  0.51100000000E-03 0. -1.
    9900012    2    1    2    0    0  0.21965553128E+02  0.38491852472E+02  0.80625722452E+01  0.46142319828E+02  0.10000018846E+02 0.  0.
         12    1    1    2    0    0 -0.21965553128E+02 -0.38491852472E+02 -0.80625722452E+01  0.45045680172E+02  0.00000000000E+00 0. -1.
         11    1    3    3    0    0 -0.71070850990E+00  0.23215794249E+01  0.10853526503E+01  0.26594789431E+01  0.51100000000E-03 0. -1.
        -11    1    3    3    0    0  0.21587627391E+02  0.33139682502E+02  0.73933515861E+01  0.40235877779E+02  0.51100000000E-03 0.  1.
        -12    1    3    3    0    0  0.10886342474E+01  0.30305905449E+01 -0.41613199127E+00  0.32469631056E+01  0.00000000000E+00 0.  1.
</event>
<event>
 7    1  0.1445801E-008  0.4614232E+02  0.7816164E-02  0.1320468E+00
        -11   -1    0    0    0    0  0.00000000000E+00  0.00000000000E+00  0.45593999997E+02  0.45594000000E+02  0.51100000000E-03 0.  1.
         11   -1    0    0    0    0 -0.00000000000E+00 -0.00000000000E+00 -0.45593999997E+02  0.45594000000E+02  0.51100000000E-03 0. -1.
    9900012    2    1    2    0    0  0.31837156803E+02  0.26817128218E+02  0.17214835546E+02  0.46142317831E+02  0.10000000641E+02 0.  0.
         12    1    1    2    0    0 -0.31837156803E+02 -0.26817128218E+02 -0.17214835546E+02  0.45045682169E+02  0.00000000000E+00 0. -1.
         11    1    3    3    0    0  0.21503976498E+01  0.83731500648E+00  0.31013797040E+01  0.38657292717E+01  0.51100000000E-03 0. -1.
        -11    1    3    3    0    0  0.24071431334E+02  0.22052178922E+02  0.13723769353E+02  0.35412910741E+02  0.51100000000E-03 0.  1.
        -12    1    3    3    0    0  0.56153278198E+01  0.39276342892E+01  0.38968648899E+00  0.68636778182E+01  0.00000000000E+00 0.  1.
</event>
<event>
 7    1  0.1519022E-008  0.4614232E+02  0.7816164E-02  0.1320468E+00
        -11   -1    0    0    0    0  0.00000000000E+00  0.00000000000E+00  0.45593999997E+02  0.45594000000E+02  0.51100000000E-03 0. -1.
         11   -1    0    0    0    0 -0.00000000000E+00 -0.00000000000E+00 -0.45593999997E+02  0.45594000000E+02  0.51100000000E-03 0.  1.
    9900012    2    1    2    0    0  0.14056184942E+02  0.39492404489E+02 -0.16488989600E+02  0.46142321789E+02  0.10000036730E+02 0.  0.
         12    1    1    2    0    0 -0.14056184942E+02 -0.39492404489E+02  0.16488989600E+02  0.45045678211E+02  0.00000000000E+00 0. -1.
         11    1    3    3    0    0  0.37681367573E+00  0.74584994769E+01 -0.37458752352E+00  0.74774005555E+01  0.51100000000E-03 0. -1.
        -11    1    3    3    0    0  0.70888004692E+01  0.22218643425E+02 -0.10894957903E+02  0.25741393041E+02  0.51100000000E-03 0.  1.
         12    1    3    3    0    0  0.65905707974E+01  0.98152615873E+01 -0.52194441740E+01  0.12923528193E+02  0.00000000000E+00 0. -1.
</event>
<event>
 7    1  0.1445801E-008  0.4614232E+02  0.7816164E-02  0.1320468E+00
        -11   -1    0    0    0    0  0.00000000000E+00  0.00000000000E+00  0.45593999997E+02  0.45594000000E+02  0.51100000000E-03 0.  1.
         11   -1    0    0    0    0 -0.00000000000E+00 -0.00000000000E+00 -0.45593999997E+02  0.45594000000E+02  0.51100000000E-03 0. -1.
    9900012    2    1    2    0    0  0.21197547379E+02  0.31078373333E+02  0.24777249179E+02  0.46142318956E+02  0.10000010892E+02 0.  0.
         12    1    1    2    0    0 -0.21197547379E+02 -0.31078373333E+02 -0.24777249179E+02  0.45045681044E+02  0.00000000000E+00 0. -1.
         11    1    3    3    0    0  0.59830368908E+01  0.11333404203E+02  0.46144288581E+01  0.13621150290E+02  0.51100000000E-03 0.  1.
        -11    1    3    3    0    0  0.12532105644E+02  0.14110342336E+02  0.17496609346E+02  0.25734932904E+02  0.51100000000E-03 0. -1.
         12    1    3    3    0    0  0.26824048447E+01  0.56346267938E+01  0.26662109746E+01  0.67862357620E+01  0.00000000000E+00 0. -1.
</event>
<event>
 7    1  0.1445801E-008  0.4614232E+02  0.7816164E-02  0.1320468E+00
        -11   -1    0    0    0    0  0.00000000000E+00  0.00000000000E+00  0.45593999997E+02  0.45594000000E+02  0.51100000000E-03 0.  1.
         11   -1    0    0    0    0 -0.00000000000E+00 -0.00000000000E+00 -0.45593999997E+02  0.45594000000E+02  0.51100000000E-03 0. -1.
    9900012    2    1    2    0    0  0.21867787293E+02 -0.24511879486E+02  0.30823386806E+02  0.46142317286E+02  0.99999956637E+01 0.  0.
         12    1    1    2    0    0 -0.21867787293E+02  0.24511879486E+02 -0.30823386806E+02  0.45045682714E+02  0.00000000000E+00 0. -1.
         11    1    3    3    0    0  0.21837198120E+01 -0.40680894132E+01  0.69717269912E+01  0.83619950485E+01  0.51100000000E-03 0. -1.
        -11    1    3    3    0    0  0.56279993060E+01 -0.10753084830E+02  0.84676371007E+01  0.14798786703E+02  0.51100000000E-03 0.  1.
        -12    1    3    3    0    0  0.14056068175E+02 -0.96907052428E+01  0.15384022714E+02  0.22981535534E+02  0.00000000000E+00 0.  1.
</event>
<event>
 7    1  0.1445801E-008  0.4614232E+02  0.7816164E-02  0.1320468E+00
        -11   -1    0    0    0    0  0.00000000000E+00  0.00000000000E+00  0.45593999997E+02  0.45594000000E+02  0.51100000000E-03 0.  1.
         11   -1    0    0    0    0 -0.00000000000E+00 -0.00000000000E+00 -0.45593999997E+02  0.45594000000E+02  0.51100000000E-03 0. -1.
    9900012    2    1    2    0    0  0.29771049140E+02  0.11036657602E+02  0.31952938681E+02  0.46142317984E+02  0.10000002034E+02 0.  0.
         12    1    1    2    0    0 -0.29771049140E+02 -0.11036657602E+02 -0.31952938681E+02  0.45045682016E+02  0.00000000000E+00 0. -1.
         11    1    3    3    0    0  0.74027666503E+01  0.19307598258E+01  0.10401415027E+02  0.12911941079E+02  0.51100000000E-03 0. -1.
        -11    1    3    3    0    0  0.22572214320E+02  0.79177461152E+01  0.21229435511E+02  0.31982565488E+02  0.51100000000E-03 0.  1.
        -12    1    3    3    0    0 -0.20393183003E+00  0.11881516612E+01  0.32208814255E+00  0.12478114171E+01  0.00000000000E+00 0.  1.
</event>
<event>
 7    1  0.1445801E-008  0.4614232E+02  0.7816164E-02  0.1320468E+00
        -11   -1    0    0    0    0  0.00000000000E+00  0.00000000000E+00  0.45593999997E+02  0.45594000000E+02  0.51100000000E-03 0.  1.
         11   -1    0    0    0    0 -0.00000000000E+00 -0.00000000000E+00 -0.45593999997E+02  0.45594000000E+02  0.51100000000E-03 0. -1.
    9900012    2    1    2    0    0  0.33493763978E+02 -0.30101520088E+02 -0.10861587602E+01  0.46142317877E+02  0.10000001061E+02 0.  0.
         12    1    1    2    0    0 -0.33493763978E+02  0.30101520088E+02  0.10861587602E+01  0.45045682123E+02  0.00000000000E+00 0. -1.
         11    1    3    3    0    0  0.48123295957E+00 -0.16593286894E+01 -0.51753411760E+00  0.18035516863E+01  0.51100000000E-03 0. -1.
        -11    1    3    3    0    0  0.22229532776E+02 -0.23882326655E+02 -0.52664349646E+00  0.32631196845E+02  0.51100000000E-03 0.  1.
        -12    1    3    3    0    0  0.10782998242E+02 -0.45598647431E+01 -0.41981146195E-01  0.11707569346E+02  0.00000000000E+00 0.  1.
</event>
<event>
 7    1  0.1445801E-008  0.4614232E+02  0.7816164E-02  0.1320468E+00
        -11   -1    0    0    0    0  0.00000000000E+00  0.00000000000E+00  0.45593999997E+02  0.45594000000E+02  0.51100000000E-03 0.  1.
         11   -1    0    0    0    0 -0.00000000000E+00 -0.00000000000E+00 -0.45593999997E+02  0.45594000000E+02  0.51100000000E-03 0. -1.
    9900012    2    1    2    0    0 -0.24855772260E+02 -0.33746538059E+02  0.16506825748E+02  0.46142317167E+02  0.99999945818E+01 0.  0.
         12    1    1    2    0    0  0.24855772260E+02  0.33746538059E+02 -0.16506825748E+02  0.45045682833E+02  0.00000000000E+00 0. -1.
         11    1    3    3    0    0 -0.19592034236E+01 -0.22268662922E+01 -0.95306938632E+00  0.31154057608E+01  0.51100000000E-03 0. -1.
        -11    1    3    3    0    0 -0.12894369289E+02 -0.20952492052E+02  0.90048690361E+01  0.26198460817E+02  0.51100000000E-03 0.  1.
        -12    1    3    3    0    0 -0.10002199547E+02 -0.10567179715E+02  0.84550260985E+01  0.16828450589E+02  0.00000000000E+00 0.  1.
</event>
<event>
 7    1  0.1445801E-008  0.4614232E+02  0.7816164E-02  0.1320468E+00
        -11   -1    0    0    0    0  0.00000000000E+00  0.00000000000E+00  0.45593999997E+02  0.45594000000E+02  0.51100000000E-03 0.  1.
         11   -1    0    0    0    0 -0.00000000000E+00 -0.00000000000E+00 -0.45593999997E+02  0.45594000000E+02  0.51100000000E-03 0. -1.
    9900012    2    1    2    0    0  0.53459640178E+01  0.10013062096E+02  0.43592117973E+02  0.46142317708E+02  0.99999995125E+01 0.  0.
         12    1    1    2    0    0 -0.53459640178E+01 -0.10013062096E+02 -0.43592117973E+02  0.45045682292E+02  0.00000000000E+00 0. -1.
         11    1    3    3    0    0 -0.87430488847E+00  0.57119196632E+00  0.24638370772E+01  0.26760348848E+01  0.51100000000E-03 0. -1.
        -11    1    3    3    0    0  0.36165307353E+01  0.61270065542E+01  0.11381223634E+02  0.13422062269E+02  0.51100000000E-03 0.  1.
        -12    1    3    3    0    0  0.26037381710E+01  0.33148635759E+01  0.29747057261E+02  0.30044220554E+02  0.00000000000E+00 0.  1.
</event>
<event>
 7    1  0.1445801E-008  0.4614232E+02  0.7816164E-02  0.1320468E+00
        -11   -1    0    0    0    0  0.00000000000E+00  0.00000000000E+00  0.45593999997E+02  0.45594000000E+02  0.51100000000E-03 0. -1.
         11   -1    0    0    0    0 -0.00000000000E+00 -0.00000000000E+00 -0.45593999997E+02  0.45594000000E+02  0.51100000000E-03 0.  1.
    9900012    2    1    2    0    0 -0.22084569370E+02  0.94530394046E+01 -0.38105450866E+02  0.46142317144E+02  0.99999943738E+01 0.  0.
         12    1    1    2    0    0  0.22084569370E+02 -0.94530394046E+01  0.38105450866E+02  0.45045682856E+02  0.00000000000E+00 0. -1.
         11    1    3    3    0    0 -0.10851005880E+01 -0.37572020870E+00 -0.51533178602E+00  0.12586405651E+01  0.51100000000E-03 0. -1.
        -11    1    3    3    0    0 -0.20405016643E+02  0.10953497804E+02 -0.36392346890E+02  0.43136373640E+02  0.51100000000E-03 0.  1.
        -12    1    3    3    0    0 -0.59445213866E+00 -0.11247381906E+01 -0.11977721899E+01  0.17473029392E+01  0.00000000000E+00 0.  1.
</event>
<event>
 7    1  0.1445801E-008  0.4614232E+02  0.7816164E-02  0.1320468E+00
        -11   -1    0    0    0    0  0.00000000000E+00  0.00000000000E+00  0.45593999997E+02  0.45594000000E+02  0.51100000000E-03 0.  1.
         11   -1    0    0    0    0 -0.00000000000E+00 -0.00000000000E+00 -0.45593999997E+02  0.45594000000E+02  0.51100000000E-03 0. -1.
    9900012    2    1    2    0    0 -0.36435263516E+02  0.41425114935E+01  0.26161511465E+02  0.46142317509E+02  0.99999977023E+01 0.  0.
         12    1    1    2    0    0  0.36435263516E+02 -0.41425114935E+01 -0.26161511465E+02  0.45045682491E+02  0.00000000000E+00 0. -1.
         11    1    3    3    0    0 -0.23588509055E+02  0.43150068696E+01  0.18124844106E+02  0.30059058832E+02  0.51100000000E-03 0. -1.
        -11    1    3    3    0    0 -0.27354117633E+01 -0.18518109282E+01  0.36823545644E+01  0.49468592690E+01  0.51100000000E-03 0.  1.
         12    1    3    3    0    0 -0.10111342698E+02  0.16793155521E+01  0.43543127947E+01  0.11136399408E+02  0.00000000000E+00 0. -1.
</event>
<event>
 7    1  0.1445801E-008  0.4614232E+02  0.7816164E-02  0.1320468E+00
        -11   -1    0    0    0    0  0.00000000000E+00  0.00000000000E+00  0.45593999997E+02  0.45594000000E+02  0.51100000000E-03 0.  1.
         11   -1    0    0    0    0 -0.00000000000E+00 -0.00000000000E+00 -0.45593999997E+02  0.45594000000E+02  0.51100000000E-03 0. -1.
    9900012    2    1    2    0    0  0.30910246843E+02  0.31179695847E+02  0.10074558428E+02  0.46142317404E+02  0.99999967391E+01 0.  0.
         12    1    1    2    0    0 -0.30910246843E+02 -0.31179695847E+02 -0.10074558428E+02  0.45045682596E+02  0.00000000000E+00 0. -1.
         11    1    3    3    0    0  0.15720826843E+02  0.94684003526E+01  0.42032557859E+01  0.18827170826E+02  0.51100000000E-03 0. -1.
        -11    1    3    3    0    0  0.94586677077E+01  0.15433453623E+02  0.49452531241E+01  0.18764685296E+02  0.51100000000E-03 0.  1.
         12    1    3    3    0    0  0.57307522928E+01  0.62778418718E+01  0.92604951836E+00  0.85504612811E+01  0.00000000000E+00 0. -1.
</event>
<event>
 7    1  0.1445801E-008  0.4614232E+02  0.7816164E-02  0.1320468E+00
        -11   -1    0    0    0    0  0.00000000000E+00  0.00000000000E+00  0.45593999997E+02  0.45594000000E+02  0.51100000000E-03 0. -1.
         11   -1    0    0    0    0 -0.00000000000E+00 -0.00000000000E+00 -0.45593999997E+02  0.45594000000E+02  0.51100000000E-03 0.  1.
    9900012    2    1    2    0    0  0.88285551560E+01  0.13418057161E+02 -0.42084745460E+02  0.46142318247E+02  0.10000004434E+02 0.  0.
         12    1    1    2    0    0 -0.88285551560E+01 -0.13418057161E+02  0.42084745460E+02  0.45045681753E+02  0.00000000000E+00 0. -1.
         11    1    3    3    0    0 -0.10326975328E+01 -0.42251017878E+00 -0.76109890160E+01  0.76923424981E+01  0.51100000000E-03 0. -1.
        -11    1    3    3    0    0  0.24402694448E+01  0.33605874991E+01 -0.94997678132E+01  0.10367933838E+02  0.51100000000E-03 0.  1.
         12    1    3    3    0    0  0.74209832440E+01  0.10479979841E+02 -0.24973988631E+02  0.28082041911E+02  0.00000000000E+00 0. -1.
</event>
<event>
 7    1  0.1445801E-008  0.4614232E+02  0.7816164E-02  0.1320468E+00
        -11   -1    0    0    0    0  0.00000000000E+00  0.00000000000E+00  0.45593999997E+02  0.45594000000E+02  0.51100000000E-03 0. -1.
         11   -1    0    0    0    0 -0.00000000000E+00 -0.00000000000E+00 -0.45593999997E+02  0.45594000000E+02  0.51100000000E-03 0.  1.
    9900012    2    1    2    0    0  0.19242528077E+02 -0.31378700318E+02 -0.25965665782E+02  0.46142317411E+02  0.99999968049E+01 0.  0.
         12    1    1    2    0    0 -0.19242528077E+02  0.31378700318E+02  0.25965665782E+02  0.45045682589E+02  0.00000000000E+00 0. -1.
         11    1    3    3    0    0  0.58400005123E+01 -0.75426599181E+01 -0.80412626698E+01  0.12476346829E+02  0.51100000000E-03 0. -1.
        -11    1    3    3    0    0  0.38684268569E+01 -0.13330896984E+02 -0.11781359715E+02  0.18206536676E+02  0.51100000000E-03 0.  1.
        -12    1    3    3    0    0  0.95341007075E+01 -0.10505143416E+02 -0.61430433979E+01  0.15459433905E+02  0.00000000000E+00 0.  1.
</event>
<event>
 7    1  0.1445801E-008  0.4614233E+02  0.7816164E-02  0.1320468E+00
        -11   -1    0    0    0    0  0.00000000000E+00  0.00000000000E+00  0.45593999997E+02  0.45594000000E+02  0.51100000000E-03 0. -1.
         11   -1    0    0    0    0 -0.00000000000E+00 -0.00000000000E+00 -0.45593999997E+02  0.45594000000E+02  0.51100000000E-03 0.  1.
    9900012    2    1    2    0    0 -0.24053551592E+02 -0.91837087449E+01 -0.36962127324E+02  0.46142326436E+02  0.10000079102E+02 0.  0.
         12    1    1    2    0    0  0.24053551592E+02  0.91837087449E+01  0.36962127324E+02  0.45045673564E+02  0.00000000000E+00 0. -1.
         11    1    3    3    0    0  0.62117106060E+00 -0.40260031562E+00 -0.20184480805E+01  0.21499007920E+01  0.51100000000E-03 0. -1.
        -11    1    3    3    0    0 -0.12843756157E+02 -0.21386586060E+01 -0.14890534948E+02  0.19780393428E+02  0.51100000000E-03 0.  1.
         12    1    3    3    0    0 -0.11830966496E+02 -0.66424498233E+01 -0.20053144296E+02  0.24212032216E+02  0.00000000000E+00 0. -1.
</event>
<event>
 7    1  0.1445801E-008  0.4614232E+02  0.7816164E-02  0.1320468E+00
        -11   -1    0    0    0    0  0.00000000000E+00  0.00000000000E+00  0.45593999997E+02  0.45594000000E+02  0.51100000000E-03 0. -1.
         11   -1    0    0    0    0 -0.00000000000E+00 -0.00000000000E+00 -0.45593999997E+02  0.45594000000E+02  0.51100000000E-03 0.  1.
    9900012    2    1    2    0    0 -0.75414619956E+01  0.16424010978E+02 -0.41261261499E+02  0.46142317786E+02  0.10000000227E+02 0.  0.
         12    1    1    2    0    0  0.75414619956E+01 -0.16424010978E+02  0.41261261499E+02  0.45045682214E+02  0.00000000000E+00 0. -1.
         11    1    3    3    0    0 -0.17579624022E+01  0.64343490623E+01 -0.19594765839E+02  0.20698940268E+02  0.51100000000E-03 0. -1.
        -11    1    3    3    0    0 -0.68737899670E+01  0.71126722630E+01 -0.18775092110E+02  0.21221290706E+02  0.51100000000E-03 0.  1.
        -12    1    3    3    0    0  0.10902903735E+01  0.28769896526E+01 -0.28914035497E+01  0.42220868119E+01  0.00000000000E+00 0.  1.
</event>
<event>
 7    1  0.1445801E-008  0.4614232E+02  0.7816164E-02  0.1320468E+00
        -11   -1    0    0    0    0  0.00000000000E+00  0.00000000000E+00  0.45593999997E+02  0.45594000000E+02  0.51100000000E-03 0. -1.
         11   -1    0    0    0    0 -0.00000000000E+00 -0.00000000000E+00 -0.45593999997E+02  0.45594000000E+02  0.51100000000E-03 0.  1.
    9900012    2    1    2    0    0  0.21898220286E+02  0.30917237026E+02 -0.24366081550E+02  0.46142317331E+02  0.99999960805E+01 0.  0.
         12    1    1    2    0    0 -0.21898220286E+02 -0.30917237026E+02  0.24366081550E+02  0.45045682669E+02  0.00000000000E+00 0. -1.
         11    1    3    3    0    0 -0.27632653029E+00 -0.24639804262E+00 -0.11027155188E+01  0.11632068274E+01  0.51100000000E-03 0. -1.
        -11    1    3    3    0    0  0.21288668983E+02  0.30076978005E+02 -0.21285439708E+02  0.42554693946E+02  0.51100000000E-03 0.  1.
         12    1    3    3    0    0  0.88587783249E+00  0.10866570634E+01 -0.19779263227E+01  0.24244165578E+01  0.00000000000E+00 0. -1.
</event>
<event>
 7    1  0.1445801E-008  0.4614232E+02  0.7816164E-02  0.1320468E+00
        -11   -1    0    0    0    0  0.00000000000E+00  0.00000000000E+00  0.45593999997E+02  0.45594000000E+02  0.51100000000E-03 0.  1.
         11   -1    0    0    0    0 -0.00000000000E+00 -0.00000000000E+00 -0.45593999997E+02  0.45594000000E+02  0.51100000000E-03 0. -1.
    9900012    2    1    2    0    0  0.79409637275E+01 -0.40802202939E+02  0.17356118498E+02  0.46142317423E+02  0.99999969125E+01 0.  0.
         12    1    1    2    0    0 -0.79409637275E+01  0.40802202939E+02 -0.17356118498E+02  0.45045682577E+02  0.00000000000E+00 0. -1.
         11    1    3    3    0    0  0.18274992781E+01 -0.13364229183E+02  0.10087368230E+01  0.13526267982E+02  0.51100000000E-03 0. -1.
        -11    1    3    3    0    0  0.39880010948E+01 -0.14376577806E+02  0.98140378976E+01  0.17857924915E+02  0.51100000000E-03 0.  1.
        -12    1    3    3    0    0  0.21254633547E+01 -0.13061395949E+02  0.65333437770E+01  0.14758124526E+02  0.00000000000E+00 0.  1.
</event>
<event>
 7    1  0.1445801E-008  0.4614232E+02  0.7816164E-02  0.1320468E+00
        -11   -1    0    0    0    0  0.00000000000E+00  0.00000000000E+00  0.45593999997E+02  0.45594000000E+02  0.51100000000E-03 0. -1.
         11   -1    0    0    0    0 -0.00000000000E+00 -0.00000000000E+00 -0.45593999997E+02  0.45594000000E+02  0.51100000000E-03 0.  1.
    9900012    2    1    2    0    0 -0.23384054496E+02  0.31067399760E+02  0.22740187032E+02  0.46142318312E+02  0.10000005020E+02 0.  0.
         12    1    1    2    0    0  0.23384054496E+02 -0.31067399760E+02 -0.22740187032E+02  0.45045681688E+02  0.00000000000E+00 0. -1.
         11    1    3    3    0    0 -0.26199073587E+01  0.58770355593E+01  0.63247270399E+00  0.64655613458E+01  0.51100000000E-03 0. -1.
        -11    1    3    3    0    0 -0.13831237927E+02  0.17498284471E+02  0.12593354069E+02  0.25614169301E+02  0.51100000000E-03 0.  1.
         12    1    3    3    0    0 -0.69329092107E+01  0.76920797292E+01  0.95143602592E+01  0.14062587665E+02  0.00000000000E+00 0. -1.
</event>
<event>
 7    1  0.1445801E-008  0.4614232E+02  0.7816164E-02  0.1320468E+00
        -11   -1    0    0    0    0  0.00000000000E+00  0.00000000000E+00  0.45593999997E+02  0.45594000000E+02  0.51100000000E-03 0.  1.
         11   -1    0    0    0    0 -0.00000000000E+00 -0.00000000000E+00 -0.45593999997E+02  0.45594000000E+02  0.51100000000E-03 0. -1.
    9900012    2    1    2    0    0  0.34249735876E+02  0.28365830304E+02  0.71727785197E+01  0.46142317764E+02  0.10000000026E+02 0.  0.
         12    1    1    2    0    0 -0.34249735876E+02 -0.28365830304E+02 -0.71727785197E+01  0.45045682236E+02  0.00000000000E+00 0. -1.
         11    1    3    3    0    0  0.30938686725E+01  0.30328612437E+01  0.36351902222E+01  0.56555175625E+01  0.51100000000E-03 0. -1.
        -11    1    3    3    0    0  0.30059452607E+02  0.23628527314E+02  0.38821078078E+01  0.38431090998E+02  0.51100000000E-03 0.  1.
         12    1    3    3    0    0  0.10964145971E+01  0.17044417463E+01 -0.34451951038E+00  0.20557092032E+01  0.00000000000E+00 0. -1.
</event>
<event>
 7    1  0.1445801E-008  0.4614232E+02  0.7816164E-02  0.1320468E+00
        -11   -1    0    0    0    0  0.00000000000E+00  0.00000000000E+00  0.45593999997E+02  0.45594000000E+02  0.51100000000E-03 0.  1.
         11   -1    0    0    0    0 -0.00000000000E+00 -0.00000000000E+00 -0.45593999997E+02  0.45594000000E+02  0.51100000000E-03 0. -1.
    9900012    2    1    2    0    0  0.31749688429E+02  0.27544302995E+02  0.16198221928E+02  0.46142315007E+02  0.99999748868E+01 0.  0.
         12    1    1    2    0    0 -0.31749688429E+02 -0.27544302995E+02 -0.16198221928E+02  0.45045684993E+02  0.00000000000E+00 0. -1.
         11    1    3    3    0    0  0.27101637729E+01  0.67309203158E+01  0.33530793538E+01  0.79933358111E+01  0.51100000000E-03 0. -1.
        -11    1    3    3    0    0  0.91087946352E+01  0.50909738756E+01  0.24581758323E+01  0.10720577568E+02  0.51100000000E-03 0.  1.
         12    1    3    3    0    0  0.19930730021E+02  0.15722408804E+02  0.10386966742E+02  0.27428401628E+02  0.00000000000E+00 0. -1.
</event>
<event>
 7    1  0.1445801E-008  0.4614232E+02  0.7816164E-02  0.1320468E+00
        -11   -1    0    0    0    0  0.00000000000E+00  0.00000000000E+00  0.45593999997E+02  0.45594000000E+02  0.51100000000E-03 0.  1.
         11   -1    0    0    0    0 -0.00000000000E+00 -0.00000000000E+00 -0.45593999997E+02  0.45594000000E+02  0.51100000000E-03 0. -1.
    9900012    2    1    2    0    0  0.60011779623E+01 -0.44636226258E+02 -0.84065314818E+00  0.46142317308E+02  0.99999958680E+01 0.  0.
         12    1    1    2    0    0 -0.60011779623E+01  0.44636226258E+02  0.84065314818E+00  0.45045682692E+02  0.00000000000E+00 0. -1.
         11    1    3    3    0    0  0.22165262791E+00 -0.15902987282E+02  0.31449435253E+01  0.16212489149E+02  0.51100000000E-03 0. -1.
        -11    1    3    3    0    0  0.60667657354E+01 -0.26448494683E+02 -0.26417752115E+01  0.27263666188E+02  0.51100000000E-03 0.  1.
        -12    1    3    3    0    0 -0.28724040104E+00 -0.22847442930E+01 -0.13438214620E+01  0.26661619708E+01  0.00000000000E+00 0.  1.
</event>
<event>
 7    1  0.1445801E-008  0.4614232E+02  0.7816164E-02  0.1320468E+00
        -11   -1    0    0    0    0  0.00000000000E+00  0.00000000000E+00  0.45593999997E+02  0.45594000000E+02  0.51100000000E-03 0.  1.
         11   -1    0    0    0    0 -0.00000000000E+00 -0.00000000000E+00 -0.45593999997E+02  0.45594000000E+02  0.51100000000E-03 0. -1.
    9900012    2    1    2    0    0  0.19577223164E+02  0.40004503294E+01  0.40371304827E+02  0.46142317376E+02  0.99999964903E+01 0.  0.
         12    1    1    2    0    0 -0.19577223164E+02 -0.40004503294E+01 -0.40371304827E+02  0.45045682624E+02  0.00000000000E+00 0. -1.
         11    1    3    3    0    0 -0.10580124757E+01  0.86123913082E+00  0.15829587540E+01  0.20897085723E+01  0.51100000000E-03 0. -1.
        -11    1    3    3    0    0  0.16435591636E+02  0.22732255570E+01  0.31114651813E+02  0.35262129609E+02  0.51100000000E-03 0.  1.
         12    1    3    3    0    0  0.41996440034E+01  0.86598564154E+00  0.76736942598E+01  0.87904791951E+01  0.00000000000E+00 0. -1.
</event>
<event>
 7    1  0.1445801E-008  0.4614232E+02  0.7816164E-02  0.1320468E+00
        -11   -1    0    0    0    0  0.00000000000E+00  0.00000000000E+00  0.45593999997E+02  0.45594000000E+02  0.51100000000E-03 0. -1.
         11   -1    0    0    0    0 -0.00000000000E+00 -0.00000000000E+00 -0.45593999997E+02  0.45594000000E+02  0.51100000000E-03 0.  1.
    9900012    2    1    2    0    0  0.48801782422E+01  0.43785968717E+02  0.93854308455E+01  0.46142317540E+02  0.99999979806E+01 0.  0.
         12    1    1    2    0    0 -0.48801782422E+01 -0.43785968717E+02 -0.93854308455E+01  0.45045682460E+02  0.00000000000E+00 0. -1.
         11    1    3    3    0    0  0.26873218253E+01  0.47294287993E+01  0.21105145206E+01  0.58346779828E+01  0.51100000000E-03 0. -1.
        -11    1    3    3    0    0  0.11694407180E+01  0.26298823761E+01 -0.79044426760E+00  0.29847404085E+01  0.51100000000E-03 0.  1.
        -12    1    3    3    0    0  0.10234156989E+01  0.36426657542E+02  0.80653605925E+01  0.37322899148E+02  0.00000000000E+00 0.  1.
</event>
<event>
 7    1  0.1445801E-008  0.4614233E+02  0.7816164E-02  0.1320468E+00
        -11   -1    0    0    0    0  0.00000000000E+00  0.00000000000E+00  0.45593999997E+02  0.45594000000E+02  0.51100000000E-03 0.  1.
         11   -1    0    0    0    0 -0.00000000000E+00 -0.00000000000E+00 -0.45593999997E+02  0.45594000000E+02  0.51100000000E-03 0. -1.
    9900012    2    1    2    0    0 -0.18514232829E+02 -0.64320941129E+01  0.40558149776E+02  0.46142332448E+02  0.10000133925E+02 0.  0.
         12    1    1    2    0    0  0.18514232829E+02  0.64320941129E+01 -0.40558149776E+02  0.45045667552E+02  0.00000000000E+00 0. -1.
         11    1    3    3    0    0 -0.60216313672E+01  0.20403760905E+01  0.16234355242E+02  0.17434949650E+02  0.51100000000E-03 0. -1.
        -11    1    3    3    0    0 -0.88514609154E+01 -0.58115716001E+01  0.18795027823E+02  0.21572570452E+02  0.51100000000E-03 0.  1.
         12    1    3    3    0    0 -0.36411405465E+01 -0.26608986033E+01  0.55287667116E+01  0.71348123456E+01  0.00000000000E+00 0. -1.
</event>
<event>
 7    1  0.1445801E-008  0.4614232E+02  0.7816164E-02  0.1320468E+00
        -11   -1    0    0    0    0  0.00000000000E+00  0.00000000000E+00  0.45593999997E+02  0.45594000000E+02  0.51100000000E-03 0.  1.
         11   -1    0    0    0    0 -0.00000000000E+00 -0.00000000000E+00 -0.45593999997E+02  0.45594000000E+02  0.51100000000E-03 0. -1.
    9900012    2    1    2    0    0  0.25512644536E+02  0.11504893491E+01  0.37106533869E+02  0.46142317491E+02  0.99999975380E+01 0.  0.
         12    1    1    2    0    0 -0.25512644536E+02 -0.11504893491E+01 -0.37106533869E+02  0.45045682509E+02  0.00000000000E+00 0. -1.
         11    1    3    3    0    0  0.15475126674E+02  0.35758295288E+01  0.17831450807E+02  0.23879420859E+02  0.51100000000E-03 0. -1.
        -11    1    3    3    0    0  0.23358216905E+01 -0.25056534620E+01  0.54513473730E+01  0.64382878690E+01  0.51100000000E-03 0.  1.
         12    1    3    3    0    0  0.77016961717E+01  0.80313282324E-01  0.13823735688E+02  0.15824608764E+02  0.00000000000E+00 0. -1.
</event>
<event>
 7    1  0.1513202E-008  0.4614232E+02  0.7816164E-02  0.1320468E+00
        -11   -1    0    0    0    0  0.00000000000E+00  0.00000000000E+00  0.45593999997E+02  0.45594000000E+02  0.51100000000E-03 0.  1.
         11   -1    0    0    0    0 -0.00000000000E+00 -0.00000000000E+00 -0.45593999997E+02  0.45594000000E+02  0.51100000000E-03 0. -1.
    9900012    2    1    2    0    0  0.39250552964E+02 -0.12467278517E+02 -0.18250321782E+02  0.46142321109E+02  0.10000030528E+02 0.  0.
         12    1    1    2    0    0 -0.39250552964E+02  0.12467278517E+02  0.18250321782E+02  0.45045678891E+02  0.00000000000E+00 0. -1.
         11    1    3    3    0    0  0.75108069822E+01 -0.27603669059E+01  0.11625268099E+00  0.80028346182E+01  0.51100000000E-03 0. -1.
        -11    1    3    3    0    0  0.27399998138E+02 -0.69434310459E+01 -0.15121820144E+02  0.32056833552E+02  0.51100000000E-03 0.  1.
         12    1    3    3    0    0  0.43397478440E+01 -0.27634805652E+01 -0.32447543188E+01  0.60826529387E+01  0.00000000000E+00 0. -1.
</event>
<event>
 7    1  0.1445801E-008  0.4614232E+02  0.7816164E-02  0.1320468E+00
        -11   -1    0    0    0    0  0.00000000000E+00  0.00000000000E+00  0.45593999997E+02  0.45594000000E+02  0.51100000000E-03 0.  1.
         11   -1    0    0    0    0 -0.00000000000E+00 -0.00000000000E+00 -0.45593999997E+02  0.45594000000E+02  0.51100000000E-03 0. -1.
    9900012    2    1    2    0    0 -0.15084148172E+02  0.23359003800E+02  0.35439225926E+02  0.46142319643E+02  0.10000017162E+02 0.  0.
         12    1    1    2    0    0  0.15084148172E+02 -0.23359003800E+02 -0.35439225926E+02  0.45045680357E+02  0.00000000000E+00 0. -1.
         11    1    3    3    0    0 -0.16487836513E+01  0.24485456229E+01  0.75007801443E+01  0.80607422878E+01  0.51100000000E-03 0. -1.
        -11    1    3    3    0    0 -0.65624339644E+01  0.48318507381E+01  0.11400564370E+02  0.14013750009E+02  0.51100000000E-03 0.  1.
        -12    1    3    3    0    0 -0.68729305561E+01  0.16078607439E+02  0.16537881411E+02  0.24067827346E+02  0.00000000000E+00 0.  1.
</event>
<event>
 7    1  0.1445801E-008  0.4614232E+02  0.7816164E-02  0.1320468E+00
        -11   -1    0    0    0    0  0.00000000000E+00  0.00000000000E+00  0.45593999997E+02  0.45594000000E+02  0.51100000000E-03 0.  1.
         11   -1    0    0    0    0 -0.00000000000E+00 -0.00000000000E+00 -0.45593999997E+02  0.45594000000E+02  0.51100000000E-03 0. -1.
    9900012    2    1    2    0    0 -0.20798539142E+02  0.26391956371E+02  0.29999980037E+02  0.46142318811E+02  0.10000009577E+02 0.  0.
         12    1    1    2    0    0  0.20798539142E+02 -0.26391956371E+02 -0.29999980037E+02  0.45045681189E+02  0.00000000000E+00 0. -1.
         11    1    3    3    0    0 -0.36614470549E+01  0.87531134272E+01  0.47870405821E+01  0.10627273733E+02  0.51100000000E-03 0. -1.
        -11    1    3    3    0    0 -0.14821578571E+02  0.16875770446E+02  0.21636543100E+02  0.31186708981E+02  0.51100000000E-03 0.  1.
         12    1    3    3    0    0 -0.23155135162E+01  0.76307249729E+00  0.35763963551E+01  0.43283360970E+01  0.00000000000E+00 0. -1.
</event>
<event>
 7    1  0.1445801E-008  0.4614232E+02  0.7816164E-02  0.1320468E+00
        -11   -1    0    0    0    0  0.00000000000E+00  0.00000000000E+00  0.45593999997E+02  0.45594000000E+02  0.51100000000E-03 0.  1.
         11   -1    0    0    0    0 -0.00000000000E+00 -0.00000000000E+00 -0.45593999997E+02  0.45594000000E+02  0.51100000000E-03 0. -1.
    9900012    2    1    2    0    0  0.10642716444E+02  0.35290030072E+02  0.25893238451E+02  0.46142318372E+02  0.10000005574E+02 0.  0.
         12    1    1    2    0    0 -0.10642716444E+02 -0.35290030072E+02 -0.25893238451E+02  0.45045681628E+02  0.00000000000E+00 0. -1.
         11    1    3    3    0    0  0.35978032452E+01  0.60008842693E+01  0.29413218924E+01  0.75898731834E+01  0.51100000000E-03 0. -1.
        -11    1    3    3    0    0 -0.86747215389E+00  0.24410227414E+01  0.42869402150E+00  0.26258101201E+01  0.51100000000E-03 0.  1.
        -12    1    3    3    0    0  0.79123853530E+01  0.26848123061E+02  0.22523222538E+02  0.35926635069E+02  0.00000000000E+00 0.  1.
</event>
<event>
 7    1  0.1445801E-008  0.4614232E+02  0.7816164E-02  0.1320468E+00
        -11   -1    0    0    0    0  0.00000000000E+00  0.00000000000E+00  0.45593999997E+02  0.45594000000E+02  0.51100000000E-03 0. -1.
         11   -1    0    0    0    0 -0.00000000000E+00 -0.00000000000E+00 -0.45593999997E+02  0.45594000000E+02  0.51100000000E-03 0.  1.
    9900012    2    1    2    0    0  0.33827342097E+01  0.31045546501E+02 -0.32462969604E+02  0.46142320476E+02  0.10000024755E+02 0.  0.
         12    1    1    2    0    0 -0.33827342097E+01 -0.31045546501E+02  0.32462969604E+02  0.45045679524E+02  0.00000000000E+00 0. -1.
         11    1    3    3    0    0  0.98854280319E+00  0.18187605889E+01 -0.39445976708E-01  0.20704258498E+01  0.51100000000E-03 0. -1.
        -11    1    3    3    0    0  0.25897034230E+01  0.10062471308E+02 -0.85407196737E+01  0.13450047786E+02  0.51100000000E-03 0.  1.
         12    1    3    3    0    0 -0.19551201645E+00  0.19164314604E+02 -0.23882803954E+02  0.30621846840E+02  0.00000000000E+00 0. -1.
</event>
<event>
 7    1  0.1445801E-008  0.4614232E+02  0.7816164E-02  0.1320468E+00
        -11   -1    0    0    0    0  0.00000000000E+00  0.00000000000E+00  0.45593999997E+02  0.45594000000E+02  0.51100000000E-03 0.  1.
         11   -1    0    0    0    0 -0.00000000000E+00 -0.00000000000E+00 -0.45593999997E+02  0.45594000000E+02  0.51100000000E-03 0. -1.
    9900012    2    1    2    0    0 -0.29084460834E+02  0.24619653163E+02  0.24022499309E+02  0.46142315890E+02  0.99999829395E+01 0.  0.
         12    1    1    2    0    0  0.29084460834E+02 -0.24619653163E+02 -0.24022499309E+02  0.45045684110E+02  0.00000000000E+00 0. -1.
         11    1    3    3    0    0 -0.10188380671E+01  0.29742227539E+01  0.34267337674E+01  0.46504340195E+01  0.51100000000E-03 0. -1.
        -11    1    3    3    0    0 -0.18444383108E+02  0.16706484058E+02  0.16819843450E+02  0.30036794299E+02  0.51100000000E-03 0.  1.
        -12    1    3    3    0    0 -0.96212396591E+01  0.49389463515E+01  0.37759220916E+01  0.11455087572E+02  0.00000000000E+00 0.  1.
</event>
<event>
 7    1  0.1445801E-008  0.4614232E+02  0.7816164E-02  0.1320468E+00
        -11   -1    0    0    0    0  0.00000000000E+00  0.00000000000E+00  0.45593999997E+02  0.45594000000E+02  0.51100000000E-03 0.  1.
         11   -1    0    0    0    0 -0.00000000000E+00 -0.00000000000E+00 -0.45593999997E+02  0.45594000000E+02  0.51100000000E-03 0. -1.
    9900012    2    1    2    0    0  0.16163526871E+02  0.35562179673E+02  0.22431791930E+02  0.46142317486E+02  0.99999974883E+01 0.  0.
         12    1    1    2    0    0 -0.16163526871E+02 -0.35562179673E+02 -0.22431791930E+02  0.45045682514E+02  0.00000000000E+00 0. -1.
         11    1    3    3    0    0 -0.12638353775E+01  0.41904333805E+01  0.26961245460E+01  0.51406322186E+01  0.51100000000E-03 0. -1.
        -11    1    3    3    0    0  0.15550784561E+02  0.29037715341E+02  0.17900082352E+02  0.37489048550E+02  0.51100000000E-03 0.  1.
         12    1    3    3    0    0  0.18765776873E+01  0.23340309508E+01  0.18355850326E+01  0.35126367173E+01  0.00000000000E+00 0. -1.
</event>
<event>
 7    1  0.1445801E-008  0.4614233E+02  0.7816164E-02  0.1320468E+00
        -11   -1    0    0    0    0  0.00000000000E+00  0.00000000000E+00  0.45593999997E+02  0.45594000000E+02  0.51100000000E-03 0.  1.
         11   -1    0    0    0    0 -0.00000000000E+00 -0.00000000000E+00 -0.45593999997E+02  0.45594000000E+02  0.51100000000E-03 0. -1.
    9900012    2    1    2    0    0  0.18083081795E+02  0.36848104487E+02  0.18556179752E+02  0.46142329193E+02  0.10000104247E+02 0.  0.
         12    1    1    2    0    0 -0.18083081795E+02 -0.36848104487E+02 -0.18556179752E+02  0.45045670807E+02  0.00000000000E+00 0. -1.
         11    1    3    3    0    0  0.59197806676E+01  0.52770158522E+01  0.34017028500E+01  0.86291530290E+01  0.51100000000E-03 0. -1.
        -11    1    3    3    0    0  0.99520156508E+01  0.26581957971E+02  0.14883194662E+02  0.32049221343E+02  0.51100000000E-03 0.  1.
        -12    1    3    3    0    0  0.22112854760E+01  0.49891306638E+01  0.27128223988E+00  0.54639548214E+01  0.00000000000E+00 0.  1.
</event>
<event>
 7    1  0.1445801E-008  0.4614232E+02  0.7816164E-02  0.1320468E+00
        -11   -1    0    0    0    0  0.00000000000E+00  0.00000000000E+00  0.45593999997E+02  0.45594000000E+02  0.51100000000E-03 0.  1.
         11   -1    0    0    0    0 -0.00000000000E+00 -0.00000000000E+00 -0.45593999997E+02  0.45594000000E+02  0.51100000000E-03 0. -1.
    9900012    2    1    2    0    0 -0.69341776547E+01  0.23564024354E+02  0.37759335330E+02  0.46142317987E+02  0.10000002057E+02 0.  0.
         12    1    1    2    0    0  0.69341776547E+01 -0.23564024354E+02 -0.37759335330E+02  0.45045682013E+02  0.00000000000E+00 0. -1.
         11    1    3    3    0    0 -0.46555251620E+00  0.59206867741E+01  0.32074347270E+01  0.67497339808E+01  0.51100000000E-03 0. -1.
        -11    1    3    3    0    0 -0.64303314588E+01  0.16490770494E+02  0.31535777288E+02  0.36163516471E+02  0.51100000000E-03 0.  1.
         12    1    3    3    0    0 -0.38293679714E-01  0.11525670861E+01  0.30161233147E+01  0.32290675346E+01  0.00000000000E+00 0. -1.
</event>
<event>
 7    1  0.1445801E-008  0.4614232E+02  0.7816164E-02  0.1320468E+00
        -11   -1    0    0    0    0  0.00000000000E+00  0.00000000000E+00  0.45593999997E+02  0.45594000000E+02  0.51100000000E-03 0.  1.
         11   -1    0    0    0    0 -0.00000000000E+00 -0.00000000000E+00 -0.45593999997E+02  0.45594000000E+02  0.51100000000E-03 0. -1.
    9900012    2    1    2    0    0  0.28616741557E+02  0.48860801415E+01  0.34443023186E+02  0.46142317380E+02  0.99999965261E+01 0.  0.
         12    1    1    2    0    0 -0.28616741557E+02 -0.48860801415E+01 -0.34443023186E+02  0.45045682620E+02  0.00000000000E+00 0. -1.
         11    1    3    3    0    0  0.13833212258E+02  0.10614159309E+01  0.12801504118E+02  0.18877575933E+02  0.51100000000E-03 0. -1.
        -11    1    3    3    0    0  0.14100924087E+02  0.38895995243E+01  0.22054398097E+02  0.26464344319E+02  0.51100000000E-03 0.  1.
         12    1    3    3    0    0  0.68260521261E+00 -0.64935313707E-01 -0.41287902860E+00  0.80039712862E+00  0.00000000000E+00 0. -1.
</event>
<event>
 7    1  0.1445801E-008  0.4614232E+02  0.7816164E-02  0.1320468E+00
        -11   -1    0    0    0    0  0.00000000000E+00  0.00000000000E+00  0.45593999997E+02  0.45594000000E+02  0.51100000000E-03 0.  1.
         11   -1    0    0    0    0 -0.00000000000E+00 -0.00000000000E+00 -0.45593999997E+02  0.45594000000E+02  0.51100000000E-03 0. -1.
    9900012    2    1    2    0    0  0.98212466277E+01 -0.42600835275E+02 -0.10854733856E+02  0.46142319868E+02  0.10000019213E+02 0.  0.
         12    1    1    2    0    0 -0.98212466277E+01  0.42600835275E+02  0.10854733856E+02  0.45045680132E+02  0.00000000000E+00 0. -1.
         11    1    3    3    0    0  0.61840931222E+01 -0.13667092863E+02 -0.10863060041E+01  0.15040362232E+02  0.51100000000E-03 0. -1.
        -11    1    3    3    0    0  0.30138870995E+01 -0.24117428918E+02 -0.98994344786E+01  0.26243717273E+02  0.51100000000E-03 0.  1.
        -12    1    3    3    0    0  0.62326640606E+00 -0.48163134950E+01  0.13100662695E+00  0.48582403637E+01  0.00000000000E+00 0.  1.
</event>
<event>
 7    1  0.1445801E-008  0.4614232E+02  0.7816164E-02  0.1320468E+00
        -11   -1    0    0    0    0  0.00000000000E+00  0.00000000000E+00  0.45593999997E+02  0.45594000000E+02  0.51100000000E-03 0. -1.
         11   -1    0    0    0    0 -0.00000000000E+00 -0.00000000000E+00 -0.45593999997E+02  0.45594000000E+02  0.51100000000E-03 0.  1.
    9900012    2    1    2    0    0 -0.37857197609E+02 -0.21890441119E+02  0.10805304836E+02  0.46142318345E+02  0.10000005324E+02 0.  0.
         12    1    1    2    0    0  0.37857197609E+02  0.21890441119E+02 -0.10805304836E+02  0.45045681655E+02  0.00000000000E+00 0. -1.
         11    1    3    3    0    0 -0.63619184148E+01 -0.59083258561E+01 -0.18209770313E+00  0.86842086671E+01  0.51100000000E-03 0. -1.
        -11    1    3    3    0    0 -0.20423412385E+02 -0.11630599875E+02  0.99312446347E+01  0.25515020030E+02  0.51100000000E-03 0.  1.
        -12    1    3    3    0    0 -0.11071866809E+02 -0.43515153881E+01  0.10561579043E+01  0.11943089648E+02  0.00000000000E+00 0.  1.
</event>
<event>
 7    1  0.1445801E-008  0.4614232E+02  0.7816164E-02  0.1320468E+00
        -11   -1    0    0    0    0  0.00000000000E+00  0.00000000000E+00  0.45593999997E+02  0.45594000000E+02  0.51100000000E-03 0. -1.
         11   -1    0    0    0    0 -0.00000000000E+00 -0.00000000000E+00 -0.45593999997E+02  0.45594000000E+02  0.51100000000E-03 0.  1.
    9900012    2    1    2    0    0 -0.24064233448E+02 -0.36802340347E+02 -0.97782371899E+01  0.46142317532E+02  0.99999979107E+01 0.  0.
         12    1    1    2    0    0  0.24064233448E+02  0.36802340347E+02  0.97782371899E+01  0.45045682468E+02  0.00000000000E+00 0. -1.
         11    1    3    3    0    0 -0.13892495657E+02 -0.24888743033E+02 -0.26737460305E+01  0.28628654936E+02  0.51100000000E-03 0. -1.
        -11    1    3    3    0    0 -0.97744664306E+01 -0.12092520608E+02 -0.67453118754E+01  0.16948996467E+02  0.51100000000E-03 0.  1.
         12    1    3    3    0    0 -0.39727136107E+00  0.17892329468E+00 -0.35917928393E+00  0.56466612942E+00  0.00000000000E+00 0. -1.
</event>
<event>
 7    1  0.1445801E-008  0.4614232E+02  0.7816164E-02  0.1320468E+00
        -11   -1    0    0    0    0  0.00000000000E+00  0.00000000000E+00  0.45593999997E+02  0.45594000000E+02  0.51100000000E-03 0. -1.
         11   -1    0    0    0    0 -0.00000000000E+00 -0.00000000000E+00 -0.45593999997E+02  0.45594000000E+02  0.51100000000E-03 0.  1.
    9900012    2    1    2    0    0  0.41993043925E+02  0.11020357525E+02 -0.12010387737E+02  0.46142318391E+02  0.10000005741E+02 0.  0.
         12    1    1    2    0    0 -0.41993043925E+02 -0.11020357525E+02  0.12010387737E+02  0.45045681609E+02  0.00000000000E+00 0. -1.
         11    1    3    3    0    0  0.26464276264E+02  0.87726678199E+01 -0.50869544619E+01  0.28340690267E+02  0.51100000000E-03 0. -1.
        -11    1    3    3    0    0  0.66403155636E+01 -0.10193198758E+01 -0.14814817851E+01  0.68795052391E+01  0.51100000000E-03 0.  1.
         12    1    3    3    0    0  0.88884520974E+01  0.32670095806E+01 -0.54419514901E+01  0.10922122885E+02  0.00000000000E+00 0. -1.
</event>
<event>
 7    1  0.1445801E-008  0.4614232E+02  0.7816164E-02  0.1320468E+00
        -11   -1    0    0    0    0  0.00000000000E+00  0.00000000000E+00  0.45593999997E+02  0.45594000000E+02  0.51100000000E-03 0. -1.
         11   -1    0    0    0    0 -0.00000000000E+00 -0.00000000000E+00 -0.45593999997E+02  0.45594000000E+02  0.51100000000E-03 0.  1.
    9900012    2    1    2    0    0 -0.76204095944E+01  0.41387904785E+02  0.16065000321E+02  0.46142317186E+02  0.99999947552E+01 0.  0.
         12    1    1    2    0    0  0.76204095944E+01 -0.41387904785E+02 -0.16065000321E+02  0.45045682814E+02  0.00000000000E+00 0. -1.
         11    1    3    3    0    0 -0.30726022065E+01  0.27216261568E+02  0.13648231315E+02  0.30601307102E+02  0.51100000000E-03 0. -1.
        -11    1    3    3    0    0 -0.48295344568E+01  0.11963471105E+02  0.10851826944E+01  0.12947071704E+02  0.51100000000E-03 0.  1.
         12    1    3    3    0    0  0.28172706894E+00  0.22081721117E+01  0.13315863122E+01  0.25939383808E+01  0.00000000000E+00 0. -1.
</event>
<event>
 7    1  0.1445801E-008  0.4614232E+02  0.7816164E-02  0.1320468E+00
        -11   -1    0    0    0    0  0.00000000000E+00  0.00000000000E+00  0.45593999997E+02  0.45594000000E+02  0.51100000000E-03 0.  1.
         11   -1    0    0    0    0 -0.00000000000E+00 -0.00000000000E+00 -0.45593999997E+02  0.45594000000E+02  0.51100000000E-03 0. -1.
    9900012    2    1    2    0    0 -0.30442246217E+02  0.31363035869E+02 -0.10896928015E+02  0.46142318588E+02  0.10000007542E+02 0.  0.
         12    1    1    2    0    0  0.30442246217E+02 -0.31363035869E+02  0.10896928015E+02  0.45045681412E+02  0.00000000000E+00 0. -1.
         11    1    3    3    0    0 -0.25624080974E+02  0.22103010799E+02 -0.56484774180E+01  0.34308044386E+02  0.51100000000E-03 0. -1.
        -11    1    3    3    0    0 -0.41185295425E+01  0.61959803146E+01 -0.33215959182E+01  0.81477271282E+01  0.51100000000E-03 0.  1.
         12    1    3    3    0    0 -0.69963570028E+00  0.30640447554E+01 -0.19268546788E+01  0.36865470741E+01  0.00000000000E+00 0. -1.
</event>
<event>
 7    1  0.1445801E-008  0.4614232E+02  0.7816164E-02  0.1320468E+00
        -11   -1    0    0    0    0  0.00000000000E+00  0.00000000000E+00  0.45593999997E+02  0.45594000000E+02  0.51100000000E-03 0.  1.
         11   -1    0    0    0    0 -0.00000000000E+00 -0.00000000000E+00 -0.45593999997E+02  0.45594000000E+02  0.51100000000E-03 0. -1.
    9900012    2    1    2    0    0 -0.93369821198E+00 -0.91331032316E+01  0.44100205320E+02  0.46142317896E+02  0.10000001226E+02 0.  0.
         12    1    1    2    0    0  0.93369821198E+00  0.91331032316E+01 -0.44100205320E+02  0.45045682104E+02  0.00000000000E+00 0. -1.
         11    1    3    3    0    0  0.12416363973E+01 -0.66968595506E+00  0.18636824018E+02  0.18690140448E+02  0.51100000000E-03 0. -1.
        -11    1    3    3    0    0 -0.35739716365E+01 -0.78686378803E+01  0.20136587477E+02  0.21912801985E+02  0.51100000000E-03 0.  1.
        -12    1    3    3    0    0  0.13986370272E+01 -0.59477939626E+00  0.53267938250E+01  0.55393754629E+01  0.00000000000E+00 0.  1.
</event>
<event>
 7    1  0.1445801E-008  0.4614232E+02  0.7816164E-02  0.1320468E+00
        -11   -1    0    0    0    0  0.00000000000E+00  0.00000000000E+00  0.45593999997E+02  0.45594000000E+02  0.51100000000E-03 0.  1.
         11   -1    0    0    0    0 -0.00000000000E+00 -0.00000000000E+00 -0.45593999997E+02  0.45594000000E+02  0.51100000000E-03 0. -1.
    9900012    2    1    2    0    0 -0.16558125666E+01 -0.44096198689E+02  0.90496961824E+01  0.46142318131E+02  0.10000003374E+02 0.  0.
         12    1    1    2    0    0  0.16558125666E+01  0.44096198689E+02 -0.90496961824E+01  0.45045681869E+02  0.00000000000E+00 0. -1.
         11    1    3    3    0    0 -0.48811554894E+01 -0.21007370640E+02  0.54165681031E+01  0.22236782825E+02  0.51100000000E-03 0. -1.
        -11    1    3    3    0    0  0.40876603678E+01 -0.18810511308E+02  0.32793670968E+01  0.19526867433E+02  0.51100000000E-03 0.  1.
        -12    1    3    3    0    0 -0.86231744494E+00 -0.42783167403E+01  0.35376098253E+00  0.43786678726E+01  0.00000000000E+00 0.  1.
</event>
<event>
 7    1  0.1445801E-008  0.4614232E+02  0.7816164E-02  0.1320468E+00
        -11   -1    0    0    0    0  0.00000000000E+00  0.00000000000E+00  0.45593999997E+02  0.45594000000E+02  0.51100000000E-03 0.  1.
         11   -1    0    0    0    0 -0.00000000000E+00 -0.00000000000E+00 -0.45593999997E+02  0.45594000000E+02  0.51100000000E-03 0. -1.
    9900012    2    1    2    0    0 -0.58105873728E+01 -0.34843226003E+02  0.27951747236E+02  0.46142317660E+02  0.99999990794E+01 0.  0.
         12    1    1    2    0    0  0.58105873728E+01  0.34843226003E+02 -0.27951747236E+02  0.45045682340E+02  0.00000000000E+00 0. -1.
         11    1    3    3    0    0  0.38132509583E+00 -0.12433816401E+02  0.10702489283E+02  0.16410011464E+02  0.51100000000E-03 0. -1.
        -11    1    3    3    0    0 -0.59428440523E+01 -0.22763810373E+02  0.16111051467E+02  0.28514460152E+02  0.51100000000E-03 0.  1.
         12    1    3    3    0    0 -0.24906841639E+00  0.35440077139E+00  0.11382064856E+01  0.12178460439E+01  0.00000000000E+00 0. -1.
</event>
<event>
 7    1  0.1445801E-008  0.4614232E+02  0.7816164E-02  0.1320468E+00
        -11   -1    0    0    0    0  0.00000000000E+00  0.00000000000E+00  0.45593999997E+02  0.45594000000E+02  0.51100000000E-03 0.  1.
         11   -1    0    0    0    0 -0.00000000000E+00 -0.00000000000E+00 -0.45593999997E+02  0.45594000000E+02  0.51100000000E-03 0. -1.
    9900012    2    1    2    0    0  0.33527371268E+02 -0.63874984214E+01  0.29397764266E+02  0.46142319807E+02  0.10000018652E+02 0.  0.
         12    1    1    2    0    0 -0.33527371268E+02  0.63874984214E+01 -0.29397764266E+02  0.45045680193E+02  0.00000000000E+00 0. -1.
         11    1    3    3    0    0  0.76820942174E+01 -0.91767107869E+00  0.88462625138E+01  0.11752150973E+02  0.51100000000E-03 0. -1.
        -11    1    3    3    0    0  0.89055787202E+01 -0.96922592706E-01  0.11197288879E+02  0.14307271048E+02  0.51100000000E-03 0.  1.
        -12    1    3    3    0    0  0.16939698331E+02 -0.53729047500E+01  0.93542128730E+01  0.20082897785E+02  0.00000000000E+00 0.  1.
</event>
<event>
 7    1  0.1452748E-008  0.4614232E+02  0.7816164E-02  0.1320468E+00
        -11   -1    0    0    0    0  0.00000000000E+00  0.00000000000E+00  0.45593999997E+02  0.45594000000E+02  0.51100000000E-03 0.  1.
         11   -1    0    0    0    0 -0.00000000000E+00 -0.00000000000E+00 -0.45593999997E+02  0.45594000000E+02  0.51100000000E-03 0. -1.
    9900012    2    1    2    0    0  0.41296880841E+02  0.15857324268E+02 -0.84986124434E+01  0.46142317481E+02  0.99999974446E+01 0.  0.
         12    1    1    2    0    0 -0.41296880841E+02 -0.15857324268E+02  0.84986124434E+01  0.45045682519E+02  0.00000000000E+00 0. -1.
         11    1    3    3    0    0  0.26883592606E+01  0.17050401556E+01  0.19254437703E+01  0.37204531202E+01  0.51100000000E-03 0. -1.
        -11    1    3    3    0    0  0.16951653216E+02  0.60985415986E+01 -0.45829246139E+01  0.18589081598E+02  0.51100000000E-03 0.  1.
         12    1    3    3    0    0  0.21656868365E+02  0.80537425142E+01 -0.58411315997E+01  0.23832782763E+02  0.00000000000E+00 0. -1.
</event>
<event>
 7    1  0.1445801E-008  0.4614232E+02  0.7816164E-02  0.1320468E+00
        -11   -1    0    0    0    0  0.00000000000E+00  0.00000000000E+00  0.45593999997E+02  0.45594000000E+02  0.51100000000E-03 0. -1.
         11   -1    0    0    0    0 -0.00000000000E+00 -0.00000000000E+00 -0.45593999997E+02  0.45594000000E+02  0.51100000000E-03 0.  1.
    9900012    2    1    2    0    0  0.41352821968E+02 -0.56030213352E+01 -0.16960656577E+02  0.46142316474E+02  0.99999882631E+01 0.  0.
         12    1    1    2    0    0 -0.41352821968E+02  0.56030213352E+01  0.16960656577E+02  0.45045683526E+02  0.00000000000E+00 0. -1.
         11    1    3    3    0    0  0.70594565556E+01 -0.31536863552E+00 -0.56211427509E+01  0.90295420883E+01  0.51100000000E-03 0. -1.
        -11    1    3    3    0    0  0.21340010426E+02 -0.65061708388E+00 -0.48166864106E+01  0.21886521328E+02  0.51100000000E-03 0.  1.
        -12    1    3    3    0    0  0.12953354986E+02 -0.46370356158E+01 -0.65228274152E+01  0.15226253058E+02  0.00000000000E+00 0.  1.
</event>
<event>
 7    1  0.1445801E-008  0.4614232E+02  0.7816164E-02  0.1320468E+00
        -11   -1    0    0    0    0  0.00000000000E+00  0.00000000000E+00  0.45593999997E+02  0.45594000000E+02  0.51100000000E-03 0. -1.
         11   -1    0    0    0    0 -0.00000000000E+00 -0.00000000000E+00 -0.45593999997E+02  0.45594000000E+02  0.51100000000E-03 0.  1.
    9900012    2    1    2    0    0  0.28811416127E+02  0.96590669035E+01 -0.33252341896E+02  0.46142317474E+02  0.99999973794E+01 0.  0.
         12    1    1    2    0    0 -0.28811416127E+02 -0.96590669035E+01  0.33252341896E+02  0.45045682526E+02  0.00000000000E+00 0. -1.
         11    1    3    3    0    0  0.12819803494E+02  0.26173695822E+01 -0.11904097731E+02  0.17689135881E+02  0.51100000000E-03 0. -1.
        -11    1    3    3    0    0  0.28192056605E+01  0.46268291165E+01 -0.62458668573E+01  0.82683929085E+01  0.51100000000E-03 0.  1.
        -12    1    3    3    0    0  0.13172406973E+02  0.24148682048E+01 -0.15102377307E+02  0.20184788684E+02  0.00000000000E+00 0.  1.
</event>
<event>
 7    1  0.1445801E-008  0.4614232E+02  0.7816164E-02  0.1320468E+00
        -11   -1    0    0    0    0  0.00000000000E+00  0.00000000000E+00  0.45593999997E+02  0.45594000000E+02  0.51100000000E-03 0.  1.
         11   -1    0    0    0    0 -0.00000000000E+00 -0.00000000000E+00 -0.45593999997E+02  0.45594000000E+02  0.51100000000E-03 0. -1.
    9900012    2    1    2    0    0 -0.39096291250E+02 -0.87647524675E+00  0.22356773119E+02  0.46142317603E+02  0.99999985560E+01 0.  0.
         12    1    1    2    0    0  0.39096291250E+02  0.87647524675E+00 -0.22356773119E+02  0.45045682397E+02  0.00000000000E+00 0. -1.
         11    1    3    3    0    0 -0.54192385318E+01 -0.14545485525E+01  0.10526550776E+01  0.57089351660E+01  0.51100000000E-03 0. -1.
        -11    1    3    3    0    0 -0.26607267006E+02  0.19689404714E+00  0.19872687150E+02  0.33210075574E+02  0.51100000000E-03 0.  1.
        -12    1    3    3    0    0 -0.70697857115E+01  0.38117925861E+00  0.14314308912E+01  0.72233068625E+01  0.00000000000E+00 0.  1.
</event>
<event>
 7    1  0.1445801E-008  0.4614232E+02  0.7816164E-02  0.1320468E+00
        -11   -1    0    0    0    0  0.00000000000E+00  0.00000000000E+00  0.45593999997E+02  0.45594000000E+02  0.51100000000E-03 0. -1.
         11   -1    0    0    0    0 -0.00000000000E+00 -0.00000000000E+00 -0.45593999997E+02  0.45594000000E+02  0.51100000000E-03 0.  1.
    9900012    2    1    2    0    0  0.42590108375E+02  0.11761240419E+02  0.87675003635E+01  0.46142321293E+02  0.10000032206E+02 0.  0.
         12    1    1    2    0    0 -0.42590108375E+02 -0.11761240419E+02 -0.87675003635E+01  0.45045678707E+02  0.00000000000E+00 0. -1.
         11    1    3    3    0    0  0.17949132673E+02  0.51600883122E+01  0.58454770159E+01  0.19569554847E+02  0.51100000000E-03 0. -1.
        -11    1    3    3    0    0  0.14493508961E+01 -0.10785731276E+01 -0.56985207440E+00  0.18943784361E+01  0.51100000000E-03 0.  1.
        -12    1    3    3    0    0  0.23191624805E+02  0.76797252346E+01  0.34918754221E+01  0.24678388010E+02  0.00000000000E+00 0.  1.
</event>
<event>
 7    1  0.1445801E-008  0.4614232E+02  0.7816164E-02  0.1320468E+00
        -11   -1    0    0    0    0  0.00000000000E+00  0.00000000000E+00  0.45593999997E+02  0.45594000000E+02  0.51100000000E-03 0.  1.
         11   -1    0    0    0    0 -0.00000000000E+00 -0.00000000000E+00 -0.45593999997E+02  0.45594000000E+02  0.51100000000E-03 0. -1.
    9900012    2    1    2    0    0 -0.26305303046E+02  0.46669927487E+01  0.36267943224E+02  0.46142317683E+02  0.99999992891E+01 0.  0.
         12    1    1    2    0    0  0.26305303046E+02 -0.46669927487E+01 -0.36267943224E+02  0.45045682317E+02  0.00000000000E+00 0. -1.
         11    1    3    3    0    0 -0.50723604626E+00 -0.25049291150E+00  0.20940875151E+00  0.60323079469E+00  0.51100000000E-03 0. -1.
        -11    1    3    3    0    0 -0.63131962601E+01  0.52555397483E+01  0.12610722913E+02  0.15050165371E+02  0.51100000000E-03 0.  1.
        -12    1    3    3    0    0 -0.19484870740E+02 -0.33805408805E+00  0.23447811560E+02  0.30488921517E+02  0.00000000000E+00 0.  1.
</event>
<event>
 7    1  0.1445801E-008  0.4614232E+02  0.7816164E-02  0.1320468E+00
        -11   -1    0    0    0    0  0.00000000000E+00  0.00000000000E+00  0.45593999997E+02  0.45594000000E+02  0.51100000000E-03 0.  1.
         11   -1    0    0    0    0 -0.00000000000E+00 -0.00000000000E+00 -0.45593999997E+02  0.45594000000E+02  0.51100000000E-03 0. -1.
    9900012    2    1    2    0    0 -0.70174613512E+00 -0.38533096454E+02 -0.23319981700E+02  0.46142317449E+02  0.99999971553E+01 0.  0.
         12    1    1    2    0    0  0.70174613512E+00  0.38533096454E+02  0.23319981700E+02  0.45045682551E+02  0.00000000000E+00 0. -1.
         11    1    3    3    0    0  0.33487368009E-01 -0.91140164045E+00  0.25434355302E+00  0.94681849270E+00  0.51100000000E-03 0. -1.
        -11    1    3    3    0    0  0.58522138585E+00 -0.11005806962E+02 -0.11533761613E+02  0.15952991198E+02  0.51100000000E-03 0.  1.
        -12    1    3    3    0    0 -0.13204548890E+01 -0.26615887851E+02 -0.12040563641E+02  0.29242507759E+02  0.00000000000E+00 0.  1.
</event>
<event>
 7    1  0.1445801E-008  0.4614232E+02  0.7816164E-02  0.1320468E+00
        -11   -1    0    0    0    0  0.00000000000E+00  0.00000000000E+00  0.45593999997E+02  0.45594000000E+02  0.51100000000E-03 0.  1.
         11   -1    0    0    0    0 -0.00000000000E+00 -0.00000000000E+00 -0.45593999997E+02  0.45594000000E+02  0.51100000000E-03 0. -1.
    9900012    2    1    2    0    0  0.19496226866E+02 -0.54948772592E+01  0.40234524966E+02  0.46142317217E+02  0.99999950413E+01 0.  0.
         12    1    1    2    0    0 -0.19496226866E+02  0.54948772592E+01 -0.40234524966E+02  0.45045682783E+02  0.00000000000E+00 0. -1.
         11    1    3    3    0    0  0.12040081518E+02 -0.45680503195E+01  0.23498592384E+02  0.26795792411E+02  0.51100000000E-03 0.  1.
        -11    1    3    3    0    0  0.36549754539E+01 -0.22921074766E+01  0.13495671375E+02  0.14168477278E+02  0.51100000000E-03 0. -1.
         12    1    3    3    0    0  0.38011698947E+01  0.13652805368E+01  0.32402612078E+01  0.51780475285E+01  0.00000000000E+00 0. -1.
</event>
<event>
 7    1  0.1445801E-008  0.4614232E+02  0.7816164E-02  0.1320468E+00
        -11   -1    0    0    0    0  0.00000000000E+00  0.00000000000E+00  0.45593999997E+02  0.45594000000E+02  0.51100000000E-03 0. -1.
         11   -1    0    0    0    0 -0.00000000000E+00 -0.00000000000E+00 -0.45593999997E+02  0.45594000000E+02  0.51100000000E-03 0.  1.
    9900012    2    1    2    0    0 -0.14619869040E+02  0.41797120124E+02  0.82688370717E+01  0.46142317766E+02  0.10000000041E+02 0.  0.
         12    1    1    2    0    0  0.14619869040E+02 -0.41797120124E+02 -0.82688370717E+01  0.45045682234E+02  0.00000000000E+00 0. -1.
         11    1    3    3    0    0 -0.20577975485E+01  0.41803567342E+01 -0.16766215965E+01  0.49518656499E+01  0.51100000000E-03 0. -1.
        -11    1    3    3    0    0 -0.61451575532E+01  0.21155656004E+02  0.31185785152E+01  0.22249725268E+02  0.51100000000E-03 0.  1.
        -12    1    3    3    0    0 -0.64169139385E+01  0.16461107386E+02  0.68268801530E+01  0.18940726847E+02  0.00000000000E+00 0.  1.
</event>
<event>
 7    1  0.1445801E-008  0.4614232E+02  0.7816164E-02  0.1320468E+00
        -11   -1    0    0    0    0  0.00000000000E+00  0.00000000000E+00  0.45593999997E+02  0.45594000000E+02  0.51100000000E-03 0.  1.
         11   -1    0    0    0    0 -0.00000000000E+00 -0.00000000000E+00 -0.45593999997E+02  0.45594000000E+02  0.51100000000E-03 0. -1.
    9900012    2    1    2    0    0 -0.23423124011E+02  0.21390332993E+02  0.31983188500E+02  0.46142318402E+02  0.10000005844E+02 0.  0.
         12    1    1    2    0    0  0.23423124011E+02 -0.21390332993E+02 -0.31983188500E+02  0.45045681598E+02  0.00000000000E+00 0. -1.
         11    1    3    3    0    0 -0.22036903071E+01  0.18657632796E+01  0.16820478360E+01  0.33416476129E+01  0.51100000000E-03 0. -1.
        -11    1    3    3    0    0 -0.20041911053E+01  0.62133473260E+01  0.42026387991E+01  0.77643183936E+01  0.51100000000E-03 0.  1.
        -12    1    3    3    0    0 -0.19215242599E+02  0.13311222387E+02  0.26098501865E+02  0.35036352395E+02  0.00000000000E+00 0.  1.
</event>
<event>
 7    1  0.1445801E-008  0.4614232E+02  0.7816164E-02  0.1320468E+00
        -11   -1    0    0    0    0  0.00000000000E+00  0.00000000000E+00  0.45593999997E+02  0.45594000000E+02  0.51100000000E-03 0.  1.
         11   -1    0    0    0    0 -0.00000000000E+00 -0.00000000000E+00 -0.45593999997E+02  0.45594000000E+02  0.51100000000E-03 0. -1.
    9900012    2    1    2    0    0  0.19888816897E+02 -0.29325622875E+02  0.27812880675E+02  0.46142317343E+02  0.99999961894E+01 0.  0.
         12    1    1    2    0    0 -0.19888816897E+02  0.29325622875E+02 -0.27812880675E+02  0.45045682657E+02  0.00000000000E+00 0. -1.
         11    1    3    3    0    0 -0.22100119412E+00 -0.24889150659E+01  0.18286950073E+01  0.30963955535E+01  0.51100000000E-03 0. -1.
        -11    1    3    3    0    0  0.25160921330E+01 -0.16911442778E+01  0.33619896217E+00  0.30501997629E+01  0.51100000000E-03 0.  1.
        -12    1    3    3    0    0  0.17593725958E+02 -0.25145563532E+02  0.25647986705E+02  0.39995722027E+02  0.00000000000E+00 0.  1.
</event>
<event>
 7    1  0.1445801E-008  0.4614232E+02  0.7816164E-02  0.1320468E+00
        -11   -1    0    0    0    0  0.00000000000E+00  0.00000000000E+00  0.45593999997E+02  0.45594000000E+02  0.51100000000E-03 0.  1.
         11   -1    0    0    0    0 -0.00000000000E+00 -0.00000000000E+00 -0.45593999997E+02  0.45594000000E+02  0.51100000000E-03 0. -1.
    9900012    2    1    2    0    0 -0.66436342514E+01  0.36431256275E+02  0.25646426330E+02  0.46142317706E+02  0.99999994961E+01 0.  0.
         12    1    1    2    0    0  0.66436342514E+01 -0.36431256275E+02 -0.25646426330E+02  0.45045682294E+02  0.00000000000E+00 0. -1.
         11    1    3    3    0    0 -0.36141797456E+01  0.92682091718E+01  0.11520301833E+02  0.15221016756E+02  0.51100000000E-03 0. -1.
        -11    1    3    3    0    0 -0.21771350816E+01  0.14628916448E+02  0.92541768593E+01  0.17446630139E+02  0.51100000000E-03 0.  1.
         12    1    3    3    0    0 -0.85231942418E+00  0.12534130655E+02  0.48719476374E+01  0.13474670811E+02  0.00000000000E+00 0. -1.
</event>
<event>
 7    1  0.1445801E-008  0.4614232E+02  0.7816164E-02  0.1320468E+00
        -11   -1    0    0    0    0  0.00000000000E+00  0.00000000000E+00  0.45593999997E+02  0.45594000000E+02  0.51100000000E-03 0. -1.
         11   -1    0    0    0    0 -0.00000000000E+00 -0.00000000000E+00 -0.45593999997E+02  0.45594000000E+02  0.51100000000E-03 0.  1.
    9900012    2    1    2    0    0  0.26300093903E+02  0.10336843092E+02 -0.35079456013E+02  0.46142317648E+02  0.99999989712E+01 0.  0.
         12    1    1    2    0    0 -0.26300093903E+02 -0.10336843092E+02  0.35079456013E+02  0.45045682352E+02  0.00000000000E+00 0. -1.
         11    1    3    3    0    0  0.82139237334E+01  0.71977515667E+01 -0.91789675222E+01  0.14266380611E+02  0.51100000000E-03 0. -1.
        -11    1    3    3    0    0  0.16999113859E+02  0.25335632500E+01 -0.25008537917E+02  0.30344946593E+02  0.51100000000E-03 0.  1.
        -12    1    3    3    0    0  0.10870563097E+01  0.60552827557E+00 -0.89195057347E+00  0.15309904436E+01  0.00000000000E+00 0.  1.
</event>
<event>
 7    1  0.1445801E-008  0.4614232E+02  0.7816164E-02  0.1320468E+00
        -11   -1    0    0    0    0  0.00000000000E+00  0.00000000000E+00  0.45593999997E+02  0.45594000000E+02  0.51100000000E-03 0.  1.
         11   -1    0    0    0    0 -0.00000000000E+00 -0.00000000000E+00 -0.45593999997E+02  0.45594000000E+02  0.51100000000E-03 0. -1.
    9900012    2    1    2    0    0  0.20845267597E+02  0.21156266506E+02  0.33867399090E+02  0.46142317469E+02  0.99999973325E+01 0.  0.
         12    1    1    2    0    0 -0.20845267597E+02 -0.21156266506E+02 -0.33867399090E+02  0.45045682531E+02  0.00000000000E+00 0. -1.
         11    1    3    3    0    0 -0.51934903213E+00  0.62546112287E+00  0.12116543462E+01  0.14591201285E+01  0.51100000000E-03 0. -1.
        -11    1    3    3    0    0  0.47303941097E+01  0.73179448583E+01  0.13562392727E+02  0.16120404527E+02  0.51100000000E-03 0.  1.
        -12    1    3    3    0    0  0.16634222519E+02  0.13212860524E+02  0.19093352017E+02  0.28562792813E+02  0.00000000000E+00 0.  1.
</event>
<event>
 7    1  0.1445801E-008  0.4614232E+02  0.7816164E-02  0.1320468E+00
        -11   -1    0    0    0    0  0.00000000000E+00  0.00000000000E+00  0.45593999997E+02  0.45594000000E+02  0.51100000000E-03 0.  1.
         11   -1    0    0    0    0 -0.00000000000E+00 -0.00000000000E+00 -0.45593999997E+02  0.45594000000E+02  0.51100000000E-03 0. -1.
    9900012    2    1    2    0    0 -0.18110525794E+02  0.26050366169E+02  0.31976564924E+02  0.46142318449E+02  0.10000006273E+02 0.  0.
         12    1    1    2    0    0  0.18110525794E+02 -0.26050366169E+02 -0.31976564924E+02  0.45045681551E+02  0.00000000000E+00 0. -1.
         11    1    3    3    0    0  0.12728863098E+00  0.39424885898E+01  0.37570586143E+01  0.54474680695E+01  0.51100000000E-03 0. -1.
        -11    1    3    3    0    0 -0.13125460990E+02  0.11902451456E+02  0.14875448485E+02  0.23134931268E+02  0.51100000000E-03 0.  1.
         12    1    3    3    0    0 -0.51123534352E+01  0.10205426123E+02  0.13344057824E+02  0.17559919112E+02  0.00000000000E+00 0. -1.
</event>
<event>
 7    1  0.1445801E-008  0.4614232E+02  0.7816164E-02  0.1320468E+00
        -11   -1    0    0    0    0  0.00000000000E+00  0.00000000000E+00  0.45593999997E+02  0.45594000000E+02  0.51100000000E-03 0.  1.
         11   -1    0    0    0    0 -0.00000000000E+00 -0.00000000000E+00 -0.45593999997E+02  0.45594000000E+02  0.51100000000E-03 0. -1.
    9900012    2    1    2    0    0 -0.15093989854E+02  0.34160154352E+02  0.25186672059E+02  0.46142321800E+02  0.10000036830E+02 0.  0.
         12    1    1    2    0    0  0.15093989854E+02 -0.34160154352E+02 -0.25186672059E+02  0.45045678200E+02  0.00000000000E+00 0. -1.
         11    1    3    3    0    0 -0.87276035802E+01  0.20941400747E+02  0.16808995372E+02  0.28235715949E+02  0.51100000000E-03 0. -1.
        -11    1    3    3    0    0 -0.98850921216E+00  0.79549560435E+01  0.60059161627E+01  0.10016461717E+02  0.51100000000E-03 0.  1.
         12    1    3    3    0    0 -0.53778770615E+01  0.52637975619E+01  0.23717605245E+01  0.78901441335E+01  0.00000000000E+00 0. -1.
</event>
<event>
 7    1  0.1445801E-008  0.4614232E+02  0.7816164E-02  0.1320468E+00
        -11   -1    0    0    0    0  0.00000000000E+00  0.00000000000E+00  0.45593999997E+02  0.45594000000E+02  0.51100000000E-03 0.  1.
         11   -1    0    0    0    0 -0.00000000000E+00 -0.00000000000E+00 -0.45593999997E+02  0.45594000000E+02  0.51100000000E-03 0. -1.
    9900012    2    1    2    0    0 -0.26947636426E+02  0.19282894700E+02  0.30514063555E+02  0.46142320833E+02  0.10000028012E+02 0.  0.
         12    1    1    2    0    0  0.26947636426E+02 -0.19282894700E+02 -0.30514063555E+02  0.45045679167E+02  0.00000000000E+00 0. -1.
         11    1    3    3    0    0 -0.24982408399E+02  0.18910048221E+02  0.25185810448E+02  0.40199946534E+02  0.51100000000E-03 0. -1.
        -11    1    3    3    0    0 -0.22574673652E+01  0.43081618980E+00  0.43503367254E+01  0.49200804241E+01  0.51100000000E-03 0.  1.
         12    1    3    3    0    0  0.29223933789E+00 -0.57969710590E-01  0.97791638149E+00  0.10222938751E+01  0.00000000000E+00 0. -1.
</event>
<event>
 7    1  0.1445801E-008  0.4614231E+02  0.7816164E-02  0.1320468E+00
        -11   -1    0    0    0    0  0.00000000000E+00  0.00000000000E+00  0.45593999997E+02  0.45594000000E+02  0.51100000000E-03 0. -1.
         11   -1    0    0    0    0 -0.00000000000E+00 -0.00000000000E+00 -0.45593999997E+02  0.45594000000E+02  0.51100000000E-03 0.  1.
    9900012    2    1    2    0    0  0.32379933229E+02  0.25834088063E+02 -0.17698978261E+02  0.46142311933E+02  0.99999468516E+01 0.  0.
         12    1    1    2    0    0 -0.32379933229E+02 -0.25834088063E+02  0.17698978261E+02  0.45045688067E+02  0.00000000000E+00 0. -1.
         11    1    3    3    0    0  0.12400570015E+02  0.14844463494E+02 -0.10244755501E+02  0.21888061784E+02  0.51100000000E-03 0. -1.
        -11    1    3    3    0    0  0.12484234494E+02  0.51397542537E+01 -0.53108247427E+01  0.14507861468E+02  0.51100000000E-03 0.  1.
         12    1    3    3    0    0  0.74951287202E+01  0.58498703160E+01 -0.21433980167E+01  0.97463886801E+01  0.00000000000E+00 0. -1.
</event>
<event>
 7    1  0.1445801E-008  0.4614231E+02  0.7816164E-02  0.1320468E+00
        -11   -1    0    0    0    0  0.00000000000E+00  0.00000000000E+00  0.45593999997E+02  0.45594000000E+02  0.51100000000E-03 0.  1.
         11   -1    0    0    0    0 -0.00000000000E+00 -0.00000000000E+00 -0.45593999997E+02  0.45594000000E+02  0.51100000000E-03 0. -1.
    9900012    2    1    2    0    0  0.19452617989E+02 -0.10508473604E+02  0.39246418752E+02  0.46142314868E+02  0.99999736224E+01 0.  0.
         12    1    1    2    0    0 -0.19452617989E+02  0.10508473604E+02 -0.39246418752E+02  0.45045685132E+02  0.00000000000E+00 0. -1.
         11    1    3    3    0    0 -0.22724769296E+00 -0.18103788285E+01  0.66630912290E+00  0.19424420519E+01  0.51100000000E-03 0. -1.
        -11    1    3    3    0    0  0.29602575509E+01 -0.18209679903E+01  0.68318575499E+01  0.76650718870E+01  0.51100000000E-03 0.  1.
         12    1    3    3    0    0  0.16719608131E+02 -0.68771267849E+01  0.31748252079E+02  0.36534800930E+02  0.00000000000E+00 0. -1.
</event>
<event>
 7    1  0.1445801E-008  0.4614232E+02  0.7816164E-02  0.1320468E+00
        -11   -1    0    0    0    0  0.00000000000E+00  0.00000000000E+00  0.45593999997E+02  0.45594000000E+02  0.51100000000E-03 0.  1.
         11   -1    0    0    0    0 -0.00000000000E+00 -0.00000000000E+00 -0.45593999997E+02  0.45594000000E+02  0.51100000000E-03 0. -1.
    9900012    2    1    2    0    0 -0.81776341966E+00  0.10638002111E+02  0.43763885374E+02  0.46142317755E+02  0.99999999412E+01 0.  0.
         12    1    1    2    0    0  0.81776341966E+00 -0.10638002111E+02 -0.43763885374E+02  0.45045682245E+02  0.00000000000E+00 0. -1.
         11    1    3    3    0    0 -0.33770293851E+01  0.86729120301E+01  0.24606707887E+02  0.26308055874E+02  0.51100000000E-03 0. -1.
        -11    1    3    3    0    0  0.21604168816E+01  0.31861206944E+01  0.14699854344E+02  0.15195541589E+02  0.51100000000E-03 0.  1.
        -12    1    3    3    0    0  0.39884908387E+00 -0.12210306132E+01  0.44573231426E+01  0.46387202920E+01  0.00000000000E+00 0.  1.
</event>
<event>
 7    1  0.1445801E-008  0.4614232E+02  0.7816164E-02  0.1320468E+00
        -11   -1    0    0    0    0  0.00000000000E+00  0.00000000000E+00  0.45593999997E+02  0.45594000000E+02  0.51100000000E-03 0.  1.
         11   -1    0    0    0    0 -0.00000000000E+00 -0.00000000000E+00 -0.45593999997E+02  0.45594000000E+02  0.51100000000E-03 0. -1.
    9900012    2    1    2    0    0 -0.38382353916E+01 -0.34389494148E+01  0.44749917113E+02  0.46142317569E+02  0.99999982503E+01 0.  0.
         12    1    1    2    0    0  0.38382353916E+01  0.34389494148E+01 -0.44749917113E+02  0.45045682431E+02  0.00000000000E+00 0. -1.
         11    1    3    3    0    0 -0.69302086100E+00 -0.93973916940E+00  0.84273874025E+00  0.14399987728E+01  0.51100000000E-03 0. -1.
        -11    1    3    3    0    0 -0.26838135751E+01 -0.69255692459E+00  0.47409549242E+01  0.54917341755E+01  0.51100000000E-03 0.  1.
        -12    1    3    3    0    0 -0.46140095552E+00 -0.18066533208E+01  0.39166223449E+02  0.39210584621E+02  0.00000000000E+00 0.  1.
</event>
<event>
 7    1  0.1445801E-008  0.4614232E+02  0.7816164E-02  0.1320468E+00
        -11   -1    0    0    0    0  0.00000000000E+00  0.00000000000E+00  0.45593999997E+02  0.45594000000E+02  0.51100000000E-03 0.  1.
         11   -1    0    0    0    0 -0.00000000000E+00 -0.00000000000E+00 -0.45593999997E+02  0.45594000000E+02  0.51100000000E-03 0. -1.
    9900012    2    1    2    0    0 -0.16357345209E+02  0.34460846650E+02  0.23958315060E+02  0.46142317026E+02  0.99999932931E+01 0.  0.
         12    1    1    2    0    0  0.16357345209E+02 -0.34460846650E+02 -0.23958315060E+02  0.45045682974E+02  0.00000000000E+00 0. -1.
         11    1    3    3    0    0 -0.23739476829E+01  0.55769628831E+01  0.18325671456E+01  0.63321753927E+01  0.51100000000E-03 0. -1.
        -11    1    3    3    0    0 -0.28329621319E+00  0.62600688666E+01  0.20096735239E+01  0.65808439347E+01  0.51100000000E-03 0.  1.
        -12    1    3    3    0    0 -0.13700101313E+02  0.22623814900E+02  0.20116074391E+02  0.33229297698E+02  0.00000000000E+00 0.  1.
</event>
<event>
 7    1  0.1445801E-008  0.4614232E+02  0.7816164E-02  0.1320468E+00
        -11   -1    0    0    0    0  0.00000000000E+00  0.00000000000E+00  0.45593999997E+02  0.45594000000E+02  0.51100000000E-03 0.  1.
         11   -1    0    0    0    0 -0.00000000000E+00 -0.00000000000E+00 -0.45593999997E+02  0.45594000000E+02  0.51100000000E-03 0. -1.
    9900012    2    1    2    0    0  0.22605619611E+02 -0.30884504244E+02  0.23753878789E+02  0.46142318766E+02  0.10000009161E+02 0.  0.
         12    1    1    2    0    0 -0.22605619611E+02  0.30884504244E+02 -0.23753878789E+02  0.45045681234E+02  0.00000000000E+00 0. -1.
         11    1    3    3    0    0  0.93528379764E+01 -0.10603006048E+02  0.11386317916E+02  0.18153444616E+02  0.51100000000E-03 0. -1.
        -11    1    3    3    0    0  0.11172976925E+02 -0.17868619144E+02  0.12971830896E+02  0.24746542396E+02  0.51100000000E-03 0.  1.
         12    1    3    3    0    0  0.20798047089E+01 -0.24128790509E+01 -0.60427002341E+00  0.32423317540E+01  0.00000000000E+00 0. -1.
</event>
<event>
 7    1  0.1445801E-008  0.4614232E+02  0.7816164E-02  0.1320468E+00
        -11   -1    0    0    0    0  0.00000000000E+00  0.00000000000E+00  0.45593999997E+02  0.45594000000E+02  0.51100000000E-03 0. -1.
         11   -1    0    0    0    0 -0.00000000000E+00 -0.00000000000E+00 -0.45593999997E+02  0.45594000000E+02  0.51100000000E-03 0.  1.
    9900012    2    1    2    0    0  0.15507979600E+02 -0.39303552939E+02 -0.15615589948E+02  0.46142319249E+02  0.10000013566E+02 0.  0.
         12    1    1    2    0    0 -0.15507979600E+02  0.39303552939E+02  0.15615589948E+02  0.45045680751E+02  0.00000000000E+00 0. -1.
         11    1    3    3    0    0  0.11126017895E+01 -0.89152228985E+01 -0.60102290010E+01  0.10809344799E+02  0.51100000000E-03 0. -1.
        -11    1    3    3    0    0  0.14654270148E+02 -0.29545727427E+02 -0.98471274891E+01  0.34418941919E+02  0.51100000000E-03 0.  1.
         12    1    3    3    0    0 -0.25889233783E+00 -0.84260261357E+00  0.24176654223E+00  0.91403253111E+00  0.00000000000E+00 0. -1.
</event>
<event>
 7    1  0.1445801E-008  0.4614232E+02  0.7816164E-02  0.1320468E+00
        -11   -1    0    0    0    0  0.00000000000E+00  0.00000000000E+00  0.45593999997E+02  0.45594000000E+02  0.51100000000E-03 0. -1.
         11   -1    0    0    0    0 -0.00000000000E+00 -0.00000000000E+00 -0.45593999997E+02  0.45594000000E+02  0.51100000000E-03 0.  1.
    9900012    2    1    2    0    0  0.12598734116E+02 -0.17019819503E+02 -0.39758160056E+02  0.46142315986E+02  0.99999838167E+01 0.  0.
         12    1    1    2    0    0 -0.12598734116E+02  0.17019819503E+02  0.39758160056E+02  0.45045684014E+02  0.00000000000E+00 0. -1.
         11    1    3    3    0    0  0.25227482991E+01 -0.31762903173E+01 -0.30557365053E+01  0.50784451372E+01  0.51100000000E-03 0. -1.
        -11    1    3    3    0    0  0.23330135621E+01  0.20409488892E+00 -0.38875225995E+01  0.45384401756E+01  0.51100000000E-03 0.  1.
        -12    1    3    3    0    0  0.77429722552E+01 -0.14047624074E+02 -0.32814900951E+02  0.36525430674E+02  0.00000000000E+00 0.  1.
</event>
<event>
 7    1  0.1445801E-008  0.4614231E+02  0.7816164E-02  0.1320468E+00
        -11   -1    0    0    0    0  0.00000000000E+00  0.00000000000E+00  0.45593999997E+02  0.45594000000E+02  0.51100000000E-03 0. -1.
         11   -1    0    0    0    0 -0.00000000000E+00 -0.00000000000E+00 -0.45593999997E+02  0.45594000000E+02  0.51100000000E-03 0.  1.
    9900012    2    1    2    0    0 -0.36053637658E+02 -0.26352240459E+02  0.58998718044E+01  0.46142313715E+02  0.99999631010E+01 0.  0.
         12    1    1    2    0    0  0.36053637658E+02  0.26352240459E+02 -0.58998718044E+01  0.45045686285E+02  0.00000000000E+00 0. -1.
         11    1    3    3    0    0 -0.83764605283E+00 -0.10907129978E+01 -0.78082545483E+00  0.15814532574E+01  0.51100000000E-03 0. -1.
        -11    1    3    3    0    0 -0.32888930337E+02 -0.21858011524E+02  0.41126737402E+01  0.39703507302E+02  0.51100000000E-03 0.  1.
        -12    1    3    3    0    0 -0.23270612682E+01 -0.34035159373E+01  0.25680235191E+01  0.48573531554E+01  0.00000000000E+00 0.  1.
</event>
<event>
 7    1  0.1445801E-008  0.4614232E+02  0.7816164E-02  0.1320468E+00
        -11   -1    0    0    0    0  0.00000000000E+00  0.00000000000E+00  0.45593999997E+02  0.45594000000E+02  0.51100000000E-03 0.  1.
         11   -1    0    0    0    0 -0.00000000000E+00 -0.00000000000E+00 -0.45593999997E+02  0.45594000000E+02  0.51100000000E-03 0. -1.
    9900012    2    1    2    0    0  0.72158363694E+01 -0.20546542407E+02  0.39432027258E+02  0.46142317931E+02  0.10000001550E+02 0.  0.
         12    1    1    2    0    0 -0.72158363694E+01  0.20546542407E+02 -0.39432027258E+02  0.45045682069E+02  0.00000000000E+00 0. -1.
         11    1    3    3    0    0  0.10501556899E-02  0.35998922391E+00  0.61704340454E+01  0.61809262991E+01  0.51100000000E-03 0. -1.
        -11    1    3    3    0    0  0.67563574005E+01 -0.19107131615E+02  0.30972320686E+02  0.37013720332E+02  0.51100000000E-03 0.  1.
         12    1    3    3    0    0  0.45842881320E+00 -0.17994000152E+01  0.22892725262E+01  0.29476712996E+01  0.00000000000E+00 0. -1.
</event>
<event>
 7    1  0.1445801E-008  0.4614232E+02  0.7816164E-02  0.1320468E+00
        -11   -1    0    0    0    0  0.00000000000E+00  0.00000000000E+00  0.45593999997E+02  0.45594000000E+02  0.51100000000E-03 0.  1.
         11   -1    0    0    0    0 -0.00000000000E+00 -0.00000000000E+00 -0.45593999997E+02  0.45594000000E+02  0.51100000000E-03 0. -1.
    9900012    2    1    2    0    0 -0.35613858240E+02 -0.18370481349E+02  0.20574062654E+02  0.46142317212E+02  0.99999949936E+01 0.  0.
         12    1    1    2    0    0  0.35613858240E+02  0.18370481349E+02 -0.20574062654E+02  0.45045682788E+02  0.00000000000E+00 0. -1.
         11    1    3    3    0    0 -0.20581089106E+02 -0.10711324419E+02  0.93092083269E+01  0.24999501186E+02  0.51100000000E-03 0. -1.
        -11    1    3    3    0    0 -0.10805947610E+02 -0.72714982343E+01  0.10709094780E+02  0.16862025429E+02  0.51100000000E-03 0.  1.
        -12    1    3    3    0    0 -0.42268215235E+01 -0.38765869503E+00  0.55575954774E+00  0.42807905965E+01  0.00000000000E+00 0.  1.
</event>
<event>
 7    1  0.1445801E-008  0.4614232E+02  0.7816164E-02  0.1320468E+00
        -11   -1    0    0    0    0  0.00000000000E+00  0.00000000000E+00  0.45593999997E+02  0.45594000000E+02  0.51100000000E-03 0.  1.
         11   -1    0    0    0    0 -0.00000000000E+00 -0.00000000000E+00 -0.45593999997E+02  0.45594000000E+02  0.51100000000E-03 0. -1.
    9900012    2    1    2    0    0  0.28652502219E+02 -0.26753610331E+02  0.22189910757E+02  0.46142315539E+02  0.99999797357E+01 0.  0.
         12    1    1    2    0    0 -0.28652502219E+02  0.26753610331E+02 -0.22189910757E+02  0.45045684461E+02  0.00000000000E+00 0. -1.
         11    1    3    3    0    0  0.11302001255E+02 -0.91239892045E+01  0.13483612760E+02  0.19818936014E+02  0.51100000000E-03 0. -1.
        -11    1    3    3    0    0  0.10775413507E+02 -0.10863627505E+02  0.41958124999E+01  0.15866089046E+02  0.51100000000E-03 0.  1.
         12    1    3    3    0    0  0.65750874562E+01 -0.67659936217E+01  0.45104854966E+01  0.10457290479E+02  0.00000000000E+00 0. -1.
</event>
<event>
 7    1  0.1445801E-008  0.4614232E+02  0.7816164E-02  0.1320468E+00
        -11   -1    0    0    0    0  0.00000000000E+00  0.00000000000E+00  0.45593999997E+02  0.45594000000E+02  0.51100000000E-03 0.  1.
         11   -1    0    0    0    0 -0.00000000000E+00 -0.00000000000E+00 -0.45593999997E+02  0.45594000000E+02  0.51100000000E-03 0. -1.
    9900012    2    1    2    0    0 -0.14145920353E+02  0.42189827352E+02  0.70017751715E+01  0.46142318185E+02  0.10000003867E+02 0.  0.
         12    1    1    2    0    0  0.14145920353E+02 -0.42189827352E+02 -0.70017751715E+01  0.45045681815E+02  0.00000000000E+00 0. -1.
         11    1    3    3    0    0 -0.11755598112E+01  0.10946693823E+02  0.52613967021E+01  0.12202226929E+02  0.51100000000E-03 0. -1.
        -11    1    3    3    0    0 -0.10225274591E+02  0.26445789957E+02  0.10894528136E+01  0.28374688625E+02  0.51100000000E-03 0.  1.
        -12    1    3    3    0    0 -0.27450859506E+01  0.47973435727E+01  0.65092565578E+00  0.55654026306E+01  0.00000000000E+00 0.  1.
</event>
<event>
 7    1  0.1445801E-008  0.4614232E+02  0.7816164E-02  0.1320468E+00
        -11   -1    0    0    0    0  0.00000000000E+00  0.00000000000E+00  0.45593999997E+02  0.45594000000E+02  0.51100000000E-03 0.  1.
         11   -1    0    0    0    0 -0.00000000000E+00 -0.00000000000E+00 -0.45593999997E+02  0.45594000000E+02  0.51100000000E-03 0. -1.
    9900012    2    1    2    0    0  0.29782474845E+02  0.24747189395E+02  0.23015087554E+02  0.46142318232E+02  0.10000004291E+02 0.  0.
         12    1    1    2    0    0 -0.29782474845E+02 -0.24747189395E+02 -0.23015087554E+02  0.45045681768E+02  0.00000000000E+00 0. -1.
         11    1    3    3    0    0  0.26208253963E+02  0.19652393362E+02  0.17941193247E+02  0.37349371561E+02  0.51100000000E-03 0. -1.
        -11    1    3    3    0    0  0.24157887673E+01  0.37632308616E+01  0.53861301536E+01  0.70005957017E+01  0.51100000000E-03 0.  1.
         12    1    3    3    0    0  0.11584321154E+01  0.13315651710E+01 -0.31223584680E+00  0.17923509686E+01  0.00000000000E+00 0. -1.
</event>
<event>
 7    1  0.1445801E-008  0.4614232E+02  0.7816164E-02  0.1320468E+00
        -11   -1    0    0    0    0  0.00000000000E+00  0.00000000000E+00  0.45593999997E+02  0.45594000000E+02  0.51100000000E-03 0.  1.
         11   -1    0    0    0    0 -0.00000000000E+00 -0.00000000000E+00 -0.45593999997E+02  0.45594000000E+02  0.51100000000E-03 0. -1.
    9900012    2    1    2    0    0 -0.20233033803E+02 -0.17367849764E+02  0.36305587386E+02  0.46142317213E+02  0.99999949997E+01 0.  0.
         12    1    1    2    0    0  0.20233033803E+02  0.17367849764E+02 -0.36305587386E+02  0.45045682787E+02  0.00000000000E+00 0. -1.
         11    1    3    3    0    0 -0.54651241106E+01 -0.23759499864E+01  0.38349898265E+01  0.70865977106E+01  0.51100000000E-03 0. -1.
        -11    1    3    3    0    0 -0.15034400419E+02 -0.14104176526E+02  0.31853761705E+02  0.37942365852E+02  0.51100000000E-03 0.  1.
        -12    1    3    3    0    0  0.26649072598E+00 -0.88772325179E+00  0.61683585480E+00  0.11133536503E+01  0.00000000000E+00 0.  1.
</event>
<event>
 7    1  0.1445801E-008  0.4614232E+02  0.7816164E-02  0.1320468E+00
        -11   -1    0    0    0    0  0.00000000000E+00  0.00000000000E+00  0.45593999997E+02  0.45594000000E+02  0.51100000000E-03 0. -1.
         11   -1    0    0    0    0 -0.00000000000E+00 -0.00000000000E+00 -0.45593999997E+02  0.45594000000E+02  0.51100000000E-03 0.  1.
    9900012    2    1    2    0    0 -0.17417334058E+02 -0.40861250081E+02  0.74905258266E+01  0.46142320285E+02  0.10000023012E+02 0.  0.
         12    1    1    2    0    0  0.17417334058E+02  0.40861250081E+02 -0.74905258266E+01  0.45045679715E+02  0.00000000000E+00 0. -1.
         11    1    3    3    0    0 -0.24825277450E+01 -0.13354832280E+02  0.36721252378E+01  0.14071211506E+02  0.51100000000E-03 0. -1.
        -11    1    3    3    0    0 -0.13373465432E+02 -0.23264380548E+02  0.12306113006E+01  0.26862527512E+02  0.51100000000E-03 0.  1.
        -12    1    3    3    0    0 -0.15613408814E+01 -0.42420372533E+01  0.25877892881E+01  0.52085812661E+01  0.00000000000E+00 0.  1.
</event>
<event>
 7    1  0.1445801E-008  0.4614232E+02  0.7816164E-02  0.1320468E+00
        -11   -1    0    0    0    0  0.00000000000E+00  0.00000000000E+00  0.45593999997E+02  0.45594000000E+02  0.51100000000E-03 0. -1.
         11   -1    0    0    0    0 -0.00000000000E+00 -0.00000000000E+00 -0.45593999997E+02  0.45594000000E+02  0.51100000000E-03 0.  1.
    9900012    2    1    2    0    0  0.34108959599E+02  0.22655803385E+02 -0.18772508046E+02  0.46142316407E+02  0.99999876553E+01 0.  0.
         12    1    1    2    0    0 -0.34108959599E+02 -0.22655803385E+02  0.18772508046E+02  0.45045683593E+02  0.00000000000E+00 0. -1.
         11    1    3    3    0    0  0.10662800417E+02  0.32876650496E+01 -0.36840231039E+01  0.11750577888E+02  0.51100000000E-03 0. -1.
        -11    1    3    3    0    0  0.17868041479E+02  0.16999786577E+02 -0.13547363264E+02  0.28138775767E+02  0.51100000000E-03 0.  1.
         12    1    3    3    0    0  0.55781177032E+01  0.23683517588E+01 -0.15411216786E+01  0.62529627532E+01  0.00000000000E+00 0. -1.
</event>
<event>
 7    1  0.1445801E-008  0.4614232E+02  0.7816164E-02  0.1320468E+00
        -11   -1    0    0    0    0  0.00000000000E+00  0.00000000000E+00  0.45593999997E+02  0.45594000000E+02  0.51100000000E-03 0. -1.
         11   -1    0    0    0    0 -0.00000000000E+00 -0.00000000000E+00 -0.45593999997E+02  0.45594000000E+02  0.51100000000E-03 0.  1.
    9900012    2    1    2    0    0 -0.38034801789E+02  0.21910169309E+02 -0.10119879996E+02  0.46142316106E+02  0.99999849108E+01 0.  0.
         12    1    1    2    0    0  0.38034801789E+02 -0.21910169309E+02  0.10119879996E+02  0.45045683894E+02  0.00000000000E+00 0. -1.
         11    1    3    3    0    0 -0.12200107493E+01 -0.41022477310E-01 -0.90101121379E-01  0.12240210559E+01  0.51100000000E-03 0. -1.
        -11    1    3    3    0    0 -0.32514142285E+02  0.21848154558E+02 -0.73686562609E+01  0.39859859526E+02  0.51100000000E-03 0.  1.
        -12    1    3    3    0    0 -0.43006487551E+01  0.10303722839E+00 -0.26611226137E+01  0.50584355240E+01  0.00000000000E+00 0.  1.
</event>
<event>
 7    1  0.1445801E-008  0.4614232E+02  0.7816164E-02  0.1320468E+00
        -11   -1    0    0    0    0  0.00000000000E+00  0.00000000000E+00  0.45593999997E+02  0.45594000000E+02  0.51100000000E-03 0.  1.
         11   -1    0    0    0    0 -0.00000000000E+00 -0.00000000000E+00 -0.45593999997E+02  0.45594000000E+02  0.51100000000E-03 0. -1.
    9900012    2    1    2    0    0  0.28452725329E+02 -0.27122530842E+02  0.21998277251E+02  0.46142318077E+02  0.10000002882E+02 0.  0.
         12    1    1    2    0    0 -0.28452725329E+02  0.27122530842E+02 -0.21998277251E+02  0.45045681923E+02  0.00000000000E+00 0. -1.
         11    1    3    3    0    0  0.59407188447E+01 -0.67817264690E+01  0.24372131307E+01  0.93393769812E+01  0.51100000000E-03 0. -1.
        -11    1    3    3    0    0  0.19943211598E+02 -0.18329357038E+02  0.19768986290E+02  0.33533711955E+02  0.51100000000E-03 0.  1.
        -12    1    3    3    0    0  0.25687948860E+01 -0.20114473344E+01 -0.20792217045E+00  0.32692291407E+01  0.00000000000E+00 0.  1.
</event>
<event>
 7    1  0.1445801E-008  0.4614232E+02  0.7816164E-02  0.1320468E+00
        -11   -1    0    0    0    0  0.00000000000E+00  0.00000000000E+00  0.45593999997E+02  0.45594000000E+02  0.51100000000E-03 0.  1.
         11   -1    0    0    0    0 -0.00000000000E+00 -0.00000000000E+00 -0.45593999997E+02  0.45594000000E+02  0.51100000000E-03 0. -1.
    9900012    2    1    2    0    0 -0.74729704533E+00 -0.13366079294E+02  0.43010499631E+02  0.46142316444E+02  0.99999879869E+01 0.  0.
         12    1    1    2    0    0  0.74729704533E+00  0.13366079294E+02 -0.43010499631E+02  0.45045683556E+02  0.00000000000E+00 0. -1.
         11    1    3    3    0    0  0.10016699520E+01 -0.12017052328E+01  0.10830907355E+01  0.19027674482E+01  0.51100000000E-03 0. -1.
        -11    1    3    3    0    0  0.74761697417E+00 -0.64908899964E+01  0.30957944372E+02  0.31639925791E+02  0.51100000000E-03 0.  1.
        -12    1    3    3    0    0 -0.24965839715E+01 -0.56734840646E+01  0.10969464524E+02  0.12599623204E+02  0.00000000000E+00 0.  1.
</event>
<event>
 7    1  0.1445801E-008  0.4614232E+02  0.7816164E-02  0.1320468E+00
        -11   -1    0    0    0    0  0.00000000000E+00  0.00000000000E+00  0.45593999997E+02  0.45594000000E+02  0.51100000000E-03 0.  1.
         11   -1    0    0    0    0 -0.00000000000E+00 -0.00000000000E+00 -0.45593999997E+02  0.45594000000E+02  0.51100000000E-03 0. -1.
    9900012    2    1    2    0    0  0.41078201347E+02  0.62908310124E+01  0.17381611489E+02  0.46142316537E+02  0.99999888369E+01 0.  0.
         12    1    1    2    0    0 -0.41078201347E+02 -0.62908310124E+01 -0.17381611489E+02  0.45045683463E+02  0.00000000000E+00 0. -1.
         11    1    3    3    0    0  0.19694846142E+01  0.21796841031E+01  0.16297031220E+00  0.29421849056E+01  0.51100000000E-03 0. -1.
        -11    1    3    3    0    0  0.38003649765E+02  0.43447529584E+01  0.17455953414E+02  0.42045981777E+02  0.51100000000E-03 0.  1.
        -12    1    3    3    0    0  0.11050669674E+01 -0.23360604913E+00 -0.23731223709E+00  0.11541498545E+01  0.00000000000E+00 0.  1.
</event>
<event>
 7    1  0.1445801E-008  0.4614232E+02  0.7816164E-02  0.1320468E+00
        -11   -1    0    0    0    0  0.00000000000E+00  0.00000000000E+00  0.45593999997E+02  0.45594000000E+02  0.51100000000E-03 0.  1.
         11   -1    0    0    0    0 -0.00000000000E+00 -0.00000000000E+00 -0.45593999997E+02  0.45594000000E+02  0.51100000000E-03 0. -1.
    9900012    2    1    2    0    0 -0.53694194304E+01 -0.21910031862E+02  0.38990169704E+02  0.46142317690E+02  0.99999993541E+01 0.  0.
         12    1    1    2    0    0  0.53694194304E+01  0.21910031862E+02 -0.38990169704E+02  0.45045682310E+02  0.00000000000E+00 0. -1.
         11    1    3    3    0    0 -0.61308371003E+01 -0.11022941177E+02  0.19686469825E+02  0.23380536567E+02  0.51100000000E-03 0. -1.
        -11    1    3    3    0    0 -0.66228025943E+00 -0.45893370731E+01  0.38975665052E+01  0.60573636869E+01  0.51100000000E-03 0.  1.
         12    1    3    3    0    0  0.14236979294E+01 -0.62977536122E+01  0.15406133374E+02  0.16704417436E+02  0.00000000000E+00 0. -1.
</event>
<event>
 7    1  0.1445801E-008  0.4614232E+02  0.7816164E-02  0.1320468E+00
        -11   -1    0    0    0    0  0.00000000000E+00  0.00000000000E+00  0.45593999997E+02  0.45594000000E+02  0.51100000000E-03 0.  1.
         11   -1    0    0    0    0 -0.00000000000E+00 -0.00000000000E+00 -0.45593999997E+02  0.45594000000E+02  0.51100000000E-03 0. -1.
    9900012    2    1    2    0    0 -0.28413779155E+02  0.25666520311E+02  0.23727628801E+02  0.46142317862E+02  0.10000000919E+02 0.  0.
         12    1    1    2    0    0  0.28413779155E+02 -0.25666520311E+02 -0.23727628801E+02  0.45045682138E+02  0.00000000000E+00 0. -1.
         11    1    3    3    0    0 -0.32570776655E+01  0.66188894339E+01  0.19697557406E+01  0.76353251532E+01  0.51100000000E-03 0. -1.
        -11    1    3    3    0    0 -0.13397832631E+02  0.12426053291E+02  0.12272381475E+02  0.22011816530E+02  0.51100000000E-03 0.  1.
         12    1    3    3    0    0 -0.11758868858E+02  0.66215775863E+01  0.94854915850E+01  0.16495176179E+02  0.00000000000E+00 0. -1.
</event>
<event>
 7    1  0.1445801E-008  0.4614232E+02  0.7816164E-02  0.1320468E+00
        -11   -1    0    0    0    0  0.00000000000E+00  0.00000000000E+00  0.45593999997E+02  0.45594000000E+02  0.51100000000E-03 0. -1.
         11   -1    0    0    0    0 -0.00000000000E+00 -0.00000000000E+00 -0.45593999997E+02  0.45594000000E+02  0.51100000000E-03 0.  1.
    9900012    2    1    2    0    0 -0.43872841885E+02  0.30905623052E+01 -0.97332234880E+01  0.46142317966E+02  0.10000001867E+02 0.  0.
         12    1    1    2    0    0  0.43872841885E+02 -0.30905623052E+01  0.97332234880E+01  0.45045682034E+02  0.00000000000E+00 0. -1.
         11    1    3    3    0    0 -0.48788129305E+01 -0.23974938146E+01  0.23879810971E+00  0.54413065527E+01  0.51100000000E-03 0. -1.
        -11    1    3    3    0    0 -0.29984085747E+02  0.52871303435E+01 -0.75376689740E+01  0.31365834904E+02  0.51100000000E-03 0.  1.
         12    1    3    3    0    0 -0.90099432073E+01  0.20092577631E+00 -0.24343526237E+01  0.93351765095E+01  0.00000000000E+00 0. -1.
</event>
<event>
 7    1  0.1445801E-008  0.4614231E+02  0.7816164E-02  0.1320468E+00
        -11   -1    0    0    0    0  0.00000000000E+00  0.00000000000E+00  0.45593999997E+02  0.45594000000E+02  0.51100000000E-03 0.  1.
         11   -1    0    0    0    0 -0.00000000000E+00 -0.00000000000E+00 -0.45593999997E+02  0.45594000000E+02  0.51100000000E-03 0. -1.
    9900012    2    1    2    0    0  0.16211872823E+02 -0.38516007814E+02  0.16816848733E+02  0.46142311198E+02  0.99999401534E+01 0.  0.
         12    1    1    2    0    0 -0.16211872823E+02  0.38516007814E+02 -0.16816848733E+02  0.45045688802E+02  0.00000000000E+00 0. -1.
         11    1    3    3    0    0  0.68010337126E+01 -0.11348155527E+02  0.19428127657E+01  0.13371956294E+02  0.51100000000E-03 0. -1.
        -11    1    3    3    0    0  0.81642040906E+01 -0.16070230943E+02  0.88163853744E+01  0.20065771909E+02  0.51100000000E-03 0.  1.
         12    1    3    3    0    0  0.12466350195E+01 -0.11097621344E+02  0.60576505930E+01  0.12704582995E+02  0.00000000000E+00 0. -1.
</event>
<event>
 7    1  0.1445801E-008  0.4614232E+02  0.7816164E-02  0.1320468E+00
        -11   -1    0    0    0    0  0.00000000000E+00  0.00000000000E+00  0.45593999997E+02  0.45594000000E+02  0.51100000000E-03 0.  1.
         11   -1    0    0    0    0 -0.00000000000E+00 -0.00000000000E+00 -0.45593999997E+02  0.45594000000E+02  0.51100000000E-03 0. -1.
    9900012    2    1    2    0    0  0.58947055007E+01  0.90884080318E+01  0.43723754400E+02  0.46142318605E+02  0.10000007697E+02 0.  0.
         12    1    1    2    0    0 -0.58947055007E+01 -0.90884080318E+01 -0.43723754400E+02  0.45045681395E+02  0.00000000000E+00 0. -1.
         11    1    3    3    0    0 -0.15185701759E+01  0.22736472359E+01  0.29027032589E+01  0.39876325812E+01  0.51100000000E-03 0. -1.
        -11    1    3    3    0    0  0.63528114667E+01  0.64073456702E+01  0.31568152363E+02  0.32832309330E+02  0.51100000000E-03 0.  1.
        -12    1    3    3    0    0  0.10604642099E+01  0.40741512582E+00  0.92528987786E+01  0.93223766944E+01  0.00000000000E+00 0.  1.
</event>
<event>
 7    1  0.1445801E-008  0.4614232E+02  0.7816164E-02  0.1320468E+00
        -11   -1    0    0    0    0  0.00000000000E+00  0.00000000000E+00  0.45593999997E+02  0.45594000000E+02  0.51100000000E-03 0. -1.
         11   -1    0    0    0    0 -0.00000000000E+00 -0.00000000000E+00 -0.45593999997E+02  0.45594000000E+02  0.51100000000E-03 0.  1.
    9900012    2    1    2    0    0 -0.18078169572E+02 -0.36457135590E+02 -0.19317620707E+02  0.46142318517E+02  0.10000006892E+02 0.  0.
         12    1    1    2    0    0  0.18078169572E+02  0.36457135590E+02  0.19317620707E+02  0.45045681483E+02  0.00000000000E+00 0. -1.
         11    1    3    3    0    0 -0.35353600209E+01 -0.87668709105E+01 -0.59319846181E+00  0.94714666612E+01  0.51100000000E-03 0. -1.
        -11    1    3    3    0    0 -0.14581205168E+02 -0.27326148349E+02 -0.17911322178E+02  0.35779119472E+02  0.51100000000E-03 0.  1.
        -12    1    3    3    0    0  0.38395616681E-01 -0.36411633034E+00 -0.81310006724E+00  0.89173238404E+00  0.00000000000E+00 0.  1.
</event>
<event>
 7    1  0.1445801E-008  0.4614232E+02  0.7816164E-02  0.1320468E+00
        -11   -1    0    0    0    0  0.00000000000E+00  0.00000000000E+00  0.45593999997E+02  0.45594000000E+02  0.51100000000E-03 0.  1.
         11   -1    0    0    0    0 -0.00000000000E+00 -0.00000000000E+00 -0.45593999997E+02  0.45594000000E+02  0.51100000000E-03 0. -1.
    9900012    2    1    2    0    0 -0.13301364951E+02 -0.40116402845E+02  0.15584010646E+02  0.46142317914E+02  0.10000001394E+02 0.  0.
         12    1    1    2    0    0  0.13301364951E+02  0.40116402845E+02 -0.15584010646E+02  0.45045682086E+02  0.00000000000E+00 0. -1.
         11    1    3    3    0    0 -0.10984023534E+01 -0.28182330542E+01  0.26823015881E+01  0.40427301850E+01  0.51100000000E-03 0. -1.
        -11    1    3    3    0    0 -0.12843143850E+02 -0.37043761363E+02  0.12076702507E+02  0.41024789379E+02  0.51100000000E-03 0.  1.
        -12    1    3    3    0    0  0.64018125277E+00 -0.25440842775E+00  0.82500655055E+00  0.10747983499E+01  0.00000000000E+00 0.  1.
</event>
<event>
 7    1  0.1445801E-008  0.4614232E+02  0.7816164E-02  0.1320468E+00
        -11   -1    0    0    0    0  0.00000000000E+00  0.00000000000E+00  0.45593999997E+02  0.45594000000E+02  0.51100000000E-03 0.  1.
         11   -1    0    0    0    0 -0.00000000000E+00 -0.00000000000E+00 -0.45593999997E+02  0.45594000000E+02  0.51100000000E-03 0. -1.
    9900012    2    1    2    0    0  0.31310247351E+02 -0.47363218683E+01  0.32036677030E+02  0.46142323080E+02  0.10000048504E+02 0.  0.
         12    1    1    2    0    0 -0.31310247351E+02  0.47363218683E+01 -0.32036677030E+02  0.45045676920E+02  0.00000000000E+00 0. -1.
         11    1    3    3    0    0  0.13711912735E+02 -0.44576519929E+01  0.13618568078E+02  0.19833118991E+02  0.51100000000E-03 0. -1.
        -11    1    3    3    0    0  0.10391171417E+02 -0.51235700904E+00  0.61692509868E+01  0.12095396278E+02  0.51100000000E-03 0.  1.
        -12    1    3    3    0    0  0.72071631992E+01  0.23368713360E+00  0.12248857965E+02  0.14213807811E+02  0.00000000000E+00 0.  1.
</event>
<event>
 7    1  0.1445801E-008  0.4614232E+02  0.7816164E-02  0.1320468E+00
        -11   -1    0    0    0    0  0.00000000000E+00  0.00000000000E+00  0.45593999997E+02  0.45594000000E+02  0.51100000000E-03 0.  1.
         11   -1    0    0    0    0 -0.00000000000E+00 -0.00000000000E+00 -0.45593999997E+02  0.45594000000E+02  0.51100000000E-03 0. -1.
    9900012    2    1    2    0    0  0.84389569648E+01 -0.17799212128E+02  0.40510313198E+02  0.46142318493E+02  0.10000006672E+02 0.  0.
         12    1    1    2    0    0 -0.84389569648E+01  0.17799212128E+02 -0.40510313198E+02  0.45045681507E+02  0.00000000000E+00 0. -1.
         11    1    3    3    0    0  0.62663241511E+00 -0.44255371162E+01  0.10466674728E+02  0.11381095162E+02  0.51100000000E-03 0. -1.
        -11    1    3    3    0    0  0.63370896797E+01 -0.55791840458E+01  0.93437234640E+01  0.12593298562E+02  0.51100000000E-03 0.  1.
        -12    1    3    3    0    0  0.14752348700E+01 -0.77944909657E+01  0.20699915006E+02  0.22167924770E+02  0.00000000000E+00 0.  1.
</event>
<event>
 7    1  0.1445801E-008  0.4614232E+02  0.7816164E-02  0.1320468E+00
        -11   -1    0    0    0    0  0.00000000000E+00  0.00000000000E+00  0.45593999997E+02  0.45594000000E+02  0.51100000000E-03 0. -1.
         11   -1    0    0    0    0 -0.00000000000E+00 -0.00000000000E+00 -0.45593999997E+02  0.45594000000E+02  0.51100000000E-03 0.  1.
    9900012    2    1    2    0    0  0.25145232434E+02 -0.36911608992E+02 -0.58620723742E+01  0.46142317798E+02  0.10000000337E+02 0.  0.
         12    1    1    2    0    0 -0.25145232434E+02  0.36911608992E+02  0.58620723742E+01  0.45045682202E+02  0.00000000000E+00 0. -1.
         11    1    3    3    0    0  0.91880525654E+01 -0.16906706176E+02 -0.57244179511E+01  0.20075507087E+02  0.51100000000E-03 0. -1.
        -11    1    3    3    0    0  0.12746063848E+02 -0.18167390824E+02 -0.11770146062E+01  0.22223896972E+02  0.51100000000E-03 0.  1.
         12    1    3    3    0    0  0.32111160204E+01 -0.18375119917E+01  0.10393601831E+01  0.38429137391E+01  0.00000000000E+00 0. -1.
</event>
<event>
 7    1  0.1445801E-008  0.4614232E+02  0.7816164E-02  0.1320468E+00
        -11   -1    0    0    0    0  0.00000000000E+00  0.00000000000E+00  0.45593999997E+02  0.45594000000E+02  0.51100000000E-03 0.  1.
         11   -1    0    0    0    0 -0.00000000000E+00 -0.00000000000E+00 -0.45593999997E+02  0.45594000000E+02  0.51100000000E-03 0. -1.
    9900012    2    1    2    0    0 -0.13748129843E+02 -0.38194877443E+02  0.19525719235E+02  0.46142318202E+02  0.10000004017E+02 0.  0.
         12    1    1    2    0    0  0.13748129843E+02  0.38194877443E+02 -0.19525719235E+02  0.45045681798E+02  0.00000000000E+00 0. -1.
         11    1    3    3    0    0 -0.81119179644E+00 -0.36496252686E+01  0.41813402511E+01  0.56090465579E+01  0.51100000000E-03 0. -1.
        -11    1    3    3    0    0 -0.88857606578E+01 -0.20815426665E+02  0.59188946433E+01  0.23393846280E+02  0.51100000000E-03 0.  1.
        -12    1    3    3    0    0 -0.40511773886E+01 -0.13729825509E+02  0.94254843407E+01  0.17139425363E+02  0.00000000000E+00 0.  1.
</event>
<event>
 7    1  0.1445801E-008  0.4614232E+02  0.7816164E-02  0.1320468E+00
        -11   -1    0    0    0    0  0.00000000000E+00  0.00000000000E+00  0.45593999997E+02  0.45594000000E+02  0.51100000000E-03 0. -1.
         11   -1    0    0    0    0 -0.00000000000E+00 -0.00000000000E+00 -0.45593999997E+02  0.45594000000E+02  0.51100000000E-03 0.  1.
    9900012    2    1    2    0    0  0.19996173103E+02 -0.54324818678E+01 -0.39996933657E+02  0.46142317632E+02  0.99999988239E+01 0.  0.
         12    1    1    2    0    0 -0.19996173103E+02  0.54324818678E+01  0.39996933657E+02  0.45045682368E+02  0.00000000000E+00 0. -1.
         11    1    3    3    0    0  0.14988158058E+02 -0.59358979311E+01 -0.32884903009E+02  0.36623716529E+02  0.51100000000E-03 0. -1.
        -11    1    3    3    0    0  0.19487561802E+01  0.65906033453E+00 -0.58578516101E+01  0.62085776891E+01  0.51100000000E-03 0.  1.
         12    1    3    3    0    0  0.30592588650E+01 -0.15564427126E+00 -0.12541790379E+01  0.33100234140E+01  0.00000000000E+00 0. -1.
</event>
<event>
 7    1  0.1445801E-008  0.4614232E+02  0.7816164E-02  0.1320468E+00
        -11   -1    0    0    0    0  0.00000000000E+00  0.00000000000E+00  0.45593999997E+02  0.45594000000E+02  0.51100000000E-03 0.  1.
         11   -1    0    0    0    0 -0.00000000000E+00 -0.00000000000E+00 -0.45593999997E+02  0.45594000000E+02  0.51100000000E-03 0. -1.
    9900012    2    1    2    0    0 -0.88638407559E+01  0.79569915370E+01  0.43442285405E+02  0.46142317094E+02  0.99999939156E+01 0.  0.
         12    1    1    2    0    0  0.88638407559E+01 -0.79569915370E+01 -0.43442285405E+02  0.45045682906E+02  0.00000000000E+00 0. -1.
         11    1    3    3    0    0  0.20814178517E+00  0.12055144754E+01  0.99329890389E+00  0.15758271246E+01  0.51100000000E-03 0. -1.
        -11    1    3    3    0    0 -0.57754801602E+01  0.40202736701E+01  0.12771532117E+02  0.14581865599E+02  0.51100000000E-03 0.  1.
         12    1    3    3    0    0 -0.32965023808E+01  0.27312033915E+01  0.29677454384E+02  0.29984624371E+02  0.00000000000E+00 0. -1.
</event>
<event>
 7    1  0.1445801E-008  0.4614232E+02  0.7816164E-02  0.1320468E+00
        -11   -1    0    0    0    0  0.00000000000E+00  0.00000000000E+00  0.45593999997E+02  0.45594000000E+02  0.51100000000E-03 0. -1.
         11   -1    0    0    0    0 -0.00000000000E+00 -0.00000000000E+00 -0.45593999997E+02  0.45594000000E+02  0.51100000000E-03 0.  1.
    9900012    2    1    2    0    0  0.11680438052E+02 -0.17126933809E+00 -0.43504615113E+02  0.46142317605E+02  0.99999985794E+01 0.  0.
         12    1    1    2    0    0 -0.11680438052E+02  0.17126933809E+00  0.43504615113E+02  0.45045682395E+02  0.00000000000E+00 0. -1.
         11    1    3    3    0    0 -0.99264450609E-01  0.93860866448E+00 -0.23493705542E+01  0.25318732034E+01  0.51100000000E-03 0. -1.
        -11    1    3    3    0    0  0.34334088172E+01 -0.16055518645E+01 -0.39384367079E+01  0.54660202029E+01  0.51100000000E-03 0.  1.
        -12    1    3    3    0    0  0.83462936850E+01  0.49567386190E+00 -0.37216807851E+02  0.38144424199E+02  0.00000000000E+00 0.  1.
</event>
<event>
 7    1  0.1445801E-008  0.4614232E+02  0.7816164E-02  0.1320468E+00
        -11   -1    0    0    0    0  0.00000000000E+00  0.00000000000E+00  0.45593999997E+02  0.45594000000E+02  0.51100000000E-03 0. -1.
         11   -1    0    0    0    0 -0.00000000000E+00 -0.00000000000E+00 -0.45593999997E+02  0.45594000000E+02  0.51100000000E-03 0.  1.
    9900012    2    1    2    0    0  0.32523922020E+02 -0.20509272673E+02 -0.23466522802E+02  0.46142318059E+02  0.10000002714E+02 0.  0.
         12    1    1    2    0    0 -0.32523922020E+02  0.20509272673E+02  0.23466522802E+02  0.45045681941E+02  0.00000000000E+00 0. -1.
         11    1    3    3    0    0  0.11537044632E+02 -0.12485819024E+02 -0.12175230514E+02  0.20910172497E+02  0.51100000000E-03 0. -1.
        -11    1    3    3    0    0  0.87992475429E+01 -0.26184977701E+01 -0.37695450554E+01  0.99243517713E+01  0.51100000000E-03 0.  1.
         12    1    3    3    0    0  0.12187629845E+02 -0.54049558792E+01 -0.75217472325E+01  0.15307793790E+02  0.00000000000E+00 0. -1.
</event>
<event>
 7    1  0.1445801E-008  0.4614232E+02  0.7816164E-02  0.1320468E+00
        -11   -1    0    0    0    0  0.00000000000E+00  0.00000000000E+00  0.45593999997E+02  0.45594000000E+02  0.51100000000E-03 0. -1.
         11   -1    0    0    0    0 -0.00000000000E+00 -0.00000000000E+00 -0.45593999997E+02  0.45594000000E+02  0.51100000000E-03 0.  1.
    9900012    2    1    2    0    0 -0.29066245066E+02 -0.18775341071E+02  0.28840136709E+02  0.46142317410E+02  0.99999967989E+01 0.  0.
         12    1    1    2    0    0  0.29066245066E+02  0.18775341071E+02 -0.28840136709E+02  0.45045682590E+02  0.00000000000E+00 0. -1.
         11    1    3    3    0    0 -0.16643707714E+01 -0.87662820229E+00  0.33528607710E+01  0.38445133217E+01  0.51100000000E-03 0. -1.
        -11    1    3    3    0    0 -0.11313564846E+02 -0.12311123414E+02  0.12245742211E+02  0.20724833215E+02  0.51100000000E-03 0.  1.
        -12    1    3    3    0    0 -0.16088309449E+02 -0.55875894546E+01  0.13241533727E+02  0.21572970873E+02  0.00000000000E+00 0.  1.
</event>
<event>
 7    1  0.1445801E-008  0.4614232E+02  0.7816164E-02  0.1320468E+00
        -11   -1    0    0    0    0  0.00000000000E+00  0.00000000000E+00  0.45593999997E+02  0.45594000000E+02  0.51100000000E-03 0.  1.
         11   -1    0    0    0    0 -0.00000000000E+00 -0.00000000000E+00 -0.45593999997E+02  0.45594000000E+02  0.51100000000E-03 0. -1.
    9900012    2    1    2    0    0 -0.10291566863E+01 -0.44420642202E+02  0.74068179060E+01  0.46142316871E+02  0.99999918813E+01 0.  0.
         12    1    1    2    0    0  0.10291566863E+01  0.44420642202E+02 -0.74068179060E+01  0.45045683129E+02  0.00000000000E+00 0. -1.
         11    1    3    3    0    0  0.32470844391E+01 -0.14003131673E+02  0.23677234135E+01  0.14568368764E+02  0.51100000000E-03 0. -1.
        -11    1    3    3    0    0 -0.12275087162E+01 -0.97099536565E+00  0.22828507488E+00  0.15816839081E+01  0.51100000000E-03 0.  1.
        -12    1    3    3    0    0 -0.30487324091E+01 -0.29446515163E+02  0.48108094176E+01  0.29992264199E+02  0.00000000000E+00 0.  1.
</event>
<event>
 7    1  0.1445801E-008  0.4614232E+02  0.7816164E-02  0.1320468E+00
        -11   -1    0    0    0    0  0.00000000000E+00  0.00000000000E+00  0.45593999997E+02  0.45594000000E+02  0.51100000000E-03 0. -1.
         11   -1    0    0    0    0 -0.00000000000E+00 -0.00000000000E+00 -0.45593999997E+02  0.45594000000E+02  0.51100000000E-03 0.  1.
    9900012    2    1    2    0    0 -0.18368475175E+02 -0.38303080718E+02 -0.14986213076E+02  0.46142318130E+02  0.10000003368E+02 0.  0.
         12    1    1    2    0    0  0.18368475175E+02  0.38303080718E+02  0.14986213076E+02  0.45045681870E+02  0.00000000000E+00 0. -1.
         11    1    3    3    0    0 -0.18554362022E+01 -0.78043043084E+01 -0.33727438729E+00  0.80289204450E+01  0.51100000000E-03 0. -1.
        -11    1    3    3    0    0 -0.15090411297E+02 -0.29504595249E+02 -0.14943264575E+02  0.36353030278E+02  0.51100000000E-03 0.  1.
        -12    1    3    3    0    0 -0.14226276754E+01 -0.99418115993E+00  0.29432588655E+00  0.17603674074E+01  0.00000000000E+00 0.  1.
</event>
<event>
 7    1  0.1445801E-008  0.4614232E+02  0.7816164E-02  0.1320468E+00
        -11   -1    0    0    0    0  0.00000000000E+00  0.00000000000E+00  0.45593999997E+02  0.45594000000E+02  0.51100000000E-03 0. -1.
         11   -1    0    0    0    0 -0.00000000000E+00 -0.00000000000E+00 -0.45593999997E+02  0.45594000000E+02  0.51100000000E-03 0.  1.
    9900012    2    1    2    0    0  0.22661165796E+02  0.13058739403E+02  0.36674983380E+02  0.46142317454E+02  0.99999972035E+01 0.  0.
         12    1    1    2    0    0 -0.22661165796E+02 -0.13058739403E+02 -0.36674983380E+02  0.45045682546E+02  0.00000000000E+00 0. -1.
         11    1    3    3    0    0  0.93263423650E+01  0.27407193762E+01  0.20894122551E+02  0.23044664503E+02  0.51100000000E-03 0. -1.
        -11    1    3    3    0    0  0.66124696481E+01  0.52999210044E+01  0.81499511026E+01  0.11757364532E+02  0.51100000000E-03 0.  1.
         12    1    3    3    0    0  0.67223537831E+01  0.50180990227E+01  0.76309097271E+01  0.11340288420E+02  0.00000000000E+00 0. -1.
</event>
<event>
 7    1  0.1445801E-008  0.4614232E+02  0.7816164E-02  0.1320468E+00
        -11   -1    0    0    0    0  0.00000000000E+00  0.00000000000E+00  0.45593999997E+02  0.45594000000E+02  0.51100000000E-03 0. -1.
         11   -1    0    0    0    0 -0.00000000000E+00 -0.00000000000E+00 -0.45593999997E+02  0.45594000000E+02  0.51100000000E-03 0.  1.
    9900012    2    1    2    0    0  0.43582807796E+02 -0.11084194351E+02  0.26063509185E+01  0.46142316911E+02  0.99999922514E+01 0.  0.
         12    1    1    2    0    0 -0.43582807796E+02  0.11084194351E+02 -0.26063509185E+01  0.45045683089E+02  0.00000000000E+00 0. -1.
         11    1    3    3    0    0  0.39378658113E+01 -0.19041438879E+01  0.17517054100E+01  0.47117961754E+01  0.51100000000E-03 0. -1.
        -11    1    3    3    0    0  0.38863446093E+02 -0.75336007297E+01  0.10241773350E+01  0.39600145476E+02  0.51100000000E-03 0.  1.
         12    1    3    3    0    0  0.78149589145E+00 -0.16464497337E+01 -0.16953182650E+00  0.18303752605E+01  0.00000000000E+00 0. -1.
</event>
<event>
 7    1  0.1445801E-008  0.4614232E+02  0.7816164E-02  0.1320468E+00
        -11   -1    0    0    0    0  0.00000000000E+00  0.00000000000E+00  0.45593999997E+02  0.45594000000E+02  0.51100000000E-03 0. -1.
         11   -1    0    0    0    0 -0.00000000000E+00 -0.00000000000E+00 -0.45593999997E+02  0.45594000000E+02  0.51100000000E-03 0.  1.
    9900012    2    1    2    0    0  0.29070915667E+01 -0.24450233513E+02 -0.37720660996E+02  0.46142319117E+02  0.10000012365E+02 0.  0.
         12    1    1    2    0    0 -0.29070915667E+01  0.24450233513E+02  0.37720660996E+02  0.45045680883E+02  0.00000000000E+00 0. -1.
         11    1    3    3    0    0 -0.12876623233E+01 -0.18586997315E+01 -0.53097636313E+01  0.57711722407E+01  0.51100000000E-03 0. -1.
        -11    1    3    3    0    0  0.88704535648E+00 -0.14048132186E+02 -0.14247971444E+02  0.20028518615E+02  0.51100000000E-03 0.  1.
        -12    1    3    3    0    0  0.33077085335E+01 -0.85434015948E+01 -0.18162925922E+02  0.20342628261E+02  0.00000000000E+00 0.  1.
</event>
<event>
 7    1  0.1445801E-008  0.4614232E+02  0.7816164E-02  0.1320468E+00
        -11   -1    0    0    0    0  0.00000000000E+00  0.00000000000E+00  0.45593999997E+02  0.45594000000E+02  0.51100000000E-03 0.  1.
         11   -1    0    0    0    0 -0.00000000000E+00 -0.00000000000E+00 -0.45593999997E+02  0.45594000000E+02  0.51100000000E-03 0. -1.
    9900012    2    1    2    0    0  0.10288986456E+02  0.19392928130E+02  0.39334011971E+02  0.46142318725E+02  0.10000008793E+02 0.  0.
         12    1    1    2    0    0 -0.10288986456E+02 -0.19392928130E+02 -0.39334011971E+02  0.45045681275E+02  0.00000000000E+00 0. -1.
         11    1    3    3    0    0  0.59176297031E+01  0.16495752727E+02  0.23294943913E+02  0.29151031054E+02  0.51100000000E-03 0.  1.
        -11    1    3    3    0    0  0.37564169583E+01  0.19903093066E+01  0.10202085084E+02  0.11052354492E+02  0.51100000000E-03 0. -1.
        -12    1    3    3    0    0  0.61493979466E+00  0.90686609668E+00  0.58369829737E+01  0.59389331789E+01  0.00000000000E+00 0.  1.
</event>
<event>
 7    1  0.1445801E-008  0.4614232E+02  0.7816164E-02  0.1320468E+00
        -11   -1    0    0    0    0  0.00000000000E+00  0.00000000000E+00  0.45593999997E+02  0.45594000000E+02  0.51100000000E-03 0.  1.
         11   -1    0    0    0    0 -0.00000000000E+00 -0.00000000000E+00 -0.45593999997E+02  0.45594000000E+02  0.51100000000E-03 0. -1.
    9900012    2    1    2    0    0  0.43730721868E+02  0.10788946699E+02  0.57964021827E+00  0.46142318867E+02  0.10000010085E+02 0.  0.
         12    1    1    2    0    0 -0.43730721868E+02 -0.10788946699E+02 -0.57964021827E+00  0.45045681133E+02  0.00000000000E+00 0. -1.
         11    1    3    3    0    0  0.17463998132E+01  0.20622389853E+01 -0.11157897669E+01  0.29236499457E+01  0.51100000000E-03 0. -1.
        -11    1    3    3    0    0  0.25036131169E+02  0.70423804873E+01  0.27597809807E+01  0.26153764130E+02  0.51100000000E-03 0.  1.
         12    1    3    3    0    0  0.16948190885E+02  0.16843272268E+01 -0.10643509955E+01  0.17064904791E+02  0.00000000000E+00 0. -1.
</event>
<event>
 7    1  0.1445801E-008  0.4614232E+02  0.7816164E-02  0.1320468E+00
        -11   -1    0    0    0    0  0.00000000000E+00  0.00000000000E+00  0.45593999997E+02  0.45594000000E+02  0.51100000000E-03 0.  1.
         11   -1    0    0    0    0 -0.00000000000E+00 -0.00000000000E+00 -0.45593999997E+02  0.45594000000E+02  0.51100000000E-03 0. -1.
    9900012    2    1    2    0    0  0.25731104748E+02  0.12905284155E+01  0.36950753602E+02  0.46142318665E+02  0.10000008244E+02 0.  0.
         12    1    1    2    0    0 -0.25731104748E+02 -0.12905284155E+01 -0.36950753602E+02  0.45045681335E+02  0.00000000000E+00 0. -1.
         11    1    3    3    0    0  0.55004470862E+01 -0.83625228301E+00  0.55565079929E+01  0.78631429699E+01  0.51100000000E-03 0. -1.
        -11    1    3    3    0    0  0.76368515350E+01 -0.14211407008E+01  0.17749730589E+02  0.19375089122E+02  0.51100000000E-03 0.  1.
        -12    1    3    3    0    0  0.12593806127E+02  0.35479213993E+01  0.13644515021E+02  0.18904086573E+02  0.00000000000E+00 0.  1.
</event>
<event>
 7    1  0.1445801E-008  0.4614232E+02  0.7816164E-02  0.1320468E+00
        -11   -1    0    0    0    0  0.00000000000E+00  0.00000000000E+00  0.45593999997E+02  0.45594000000E+02  0.51100000000E-03 0.  1.
         11   -1    0    0    0    0 -0.00000000000E+00 -0.00000000000E+00 -0.45593999997E+02  0.45594000000E+02  0.51100000000E-03 0. -1.
    9900012    2    1    2    0    0  0.15834131260E+02  0.21548337452E+02  0.36250007038E+02  0.46142316856E+02  0.99999917429E+01 0.  0.
         12    1    1    2    0    0 -0.15834131260E+02 -0.21548337452E+02 -0.36250007038E+02  0.45045683144E+02  0.00000000000E+00 0. -1.
         11    1    3    3    0    0  0.21661219468E+01  0.51860300317E+01  0.65527412964E+01  0.86328101182E+01  0.51100000000E-03 0. -1.
        -11    1    3    3    0    0  0.10399179980E+02  0.62369064403E+01  0.13684661381E+02  0.18284198193E+02  0.51100000000E-03 0.  1.
        -12    1    3    3    0    0  0.32688293338E+01  0.10125400980E+02  0.16012604361E+02  0.19225308544E+02  0.00000000000E+00 0.  1.
</event>
<event>
 7    1  0.1445801E-008  0.4614232E+02  0.7816164E-02  0.1320468E+00
        -11   -1    0    0    0    0  0.00000000000E+00  0.00000000000E+00  0.45593999997E+02  0.45594000000E+02  0.51100000000E-03 0.  1.
         11   -1    0    0    0    0 -0.00000000000E+00 -0.00000000000E+00 -0.45593999997E+02  0.45594000000E+02  0.51100000000E-03 0. -1.
    9900012    2    1    2    0    0 -0.14238095231E+02 -0.32618391714E+02  0.27612147169E+02  0.46142317576E+02  0.99999983089E+01 0.  0.
         12    1    1    2    0    0  0.14238095231E+02  0.32618391714E+02 -0.27612147169E+02  0.45045682424E+02  0.00000000000E+00 0. -1.
         11    1    3    3    0    0 -0.30799115282E+01 -0.73581555870E+01  0.40078700972E+01  0.89270001479E+01  0.51100000000E-03 0. -1.
        -11    1    3    3    0    0  0.26111764609E+00 -0.83152527996E+01  0.62252639203E+01  0.10390645922E+02  0.51100000000E-03 0.  1.
        -12    1    3    3    0    0 -0.11419301349E+02 -0.16944983327E+02  0.17379013152E+02  0.26824671505E+02  0.00000000000E+00 0.  1.
</event>
<event>
 7    1  0.1445801E-008  0.4614232E+02  0.7816164E-02  0.1320468E+00
        -11   -1    0    0    0    0  0.00000000000E+00  0.00000000000E+00  0.45593999997E+02  0.45594000000E+02  0.51100000000E-03 0.  1.
         11   -1    0    0    0    0 -0.00000000000E+00 -0.00000000000E+00 -0.45593999997E+02  0.45594000000E+02  0.51100000000E-03 0. -1.
    9900012    2    1    2    0    0 -0.41373811174E+02  0.16183412517E+02  0.74443546727E+01  0.46142317540E+02  0.99999979848E+01 0.  0.
         12    1    1    2    0    0  0.41373811174E+02 -0.16183412517E+02 -0.74443546727E+01  0.45045682460E+02  0.00000000000E+00 0. -1.
         11    1    3    3    0    0 -0.17037236913E+02  0.70647882709E+01  0.79330876405E+01  0.20077663079E+02  0.51100000000E-03 0. -1.
        -11    1    3    3    0    0 -0.10744785632E+02  0.50397317359E+01 -0.85990363636E-01  0.11868306907E+02  0.51100000000E-03 0.  1.
         12    1    3    3    0    0 -0.13591788630E+02  0.40788925101E+01 -0.40274260418E+00  0.14196347554E+02  0.00000000000E+00 0. -1.
</event>
<event>
 7    1  0.1445801E-008  0.4614232E+02  0.7816164E-02  0.1320468E+00
        -11   -1    0    0    0    0  0.00000000000E+00  0.00000000000E+00  0.45593999997E+02  0.45594000000E+02  0.51100000000E-03 0.  1.
         11   -1    0    0    0    0 -0.00000000000E+00 -0.00000000000E+00 -0.45593999997E+02  0.45594000000E+02  0.51100000000E-03 0. -1.
    9900012    2    1    2    0    0 -0.23771429494E+02 -0.33682555778E+02  0.18152632915E+02  0.46142317569E+02  0.99999982482E+01 0.  0.
         12    1    1    2    0    0  0.23771429494E+02  0.33682555778E+02 -0.18152632915E+02  0.45045682431E+02  0.00000000000E+00 0. -1.
         11    1    3    3    0    0 -0.63668880615E+01 -0.13917353256E+02  0.64229471411E+01  0.16597717779E+02  0.51100000000E-03 0. -1.
        -11    1    3    3    0    0 -0.13604689755E+02 -0.12770367134E+02  0.55502079848E+01  0.19467271740E+02  0.51100000000E-03 0.  1.
        -12    1    3    3    0    0 -0.37998516780E+01 -0.69948353882E+01  0.61794777893E+01  0.10077328050E+02  0.00000000000E+00 0.  1.
</event>
<event>
 7    1  0.1445801E-008  0.4614231E+02  0.7816164E-02  0.1320468E+00
        -11   -1    0    0    0    0  0.00000000000E+00  0.00000000000E+00  0.45593999997E+02  0.45594000000E+02  0.51100000000E-03 0. -1.
         11   -1    0    0    0    0 -0.00000000000E+00 -0.00000000000E+00 -0.45593999997E+02  0.45594000000E+02  0.51100000000E-03 0.  1.
    9900012    2    1    2    0    0  0.23173212585E+02  0.33334203513E+02 -0.19517874814E+02  0.46142308279E+02  0.99999135327E+01 0.  0.
         12    1    1    2    0    0 -0.23173212585E+02 -0.33334203513E+02  0.19517874814E+02  0.45045691721E+02  0.00000000000E+00 0. -1.
         11    1    3    3    0    0  0.10923100131E+01  0.61478894033E+01 -0.21261075467E+01  0.65962124618E+01  0.51100000000E-03 0. -1.
        -11    1    3    3    0    0  0.20298583482E+02  0.23631934941E+02 -0.17152361053E+02  0.35562681710E+02  0.51100000000E-03 0.  1.
        -12    1    3    3    0    0  0.17823190901E+01  0.35543791685E+01 -0.23940621432E+00  0.39834141070E+01  0.00000000000E+00 0.  1.
</event>
<event>
 7    1  0.1445801E-008  0.4614232E+02  0.7816164E-02  0.1320468E+00
        -11   -1    0    0    0    0  0.00000000000E+00  0.00000000000E+00  0.45593999997E+02  0.45594000000E+02  0.51100000000E-03 0. -1.
         11   -1    0    0    0    0 -0.00000000000E+00 -0.00000000000E+00 -0.45593999997E+02  0.45594000000E+02  0.51100000000E-03 0.  1.
    9900012    2    1    2    0    0  0.38998118739E+02 -0.90930729769E+01  0.20629496489E+02  0.46142319111E+02  0.10000012311E+02 0.  0.
         12    1    1    2    0    0 -0.38998118739E+02  0.90930729769E+01 -0.20629496489E+02  0.45045680889E+02  0.00000000000E+00 0. -1.
         11    1    3    3    0    0  0.30272529622E+01 -0.14785777868E+01 -0.50481020721E+00  0.34066532514E+01  0.51100000000E-03 0. -1.
        -11    1    3    3    0    0  0.25965220887E+02 -0.64786466403E+01  0.17747977943E+02  0.32111622185E+02  0.51100000000E-03 0.  1.
        -12    1    3    3    0    0  0.10005644889E+02 -0.11358485498E+01  0.33863287532E+01  0.10624043675E+02  0.00000000000E+00 0.  1.
</event>
<event>
 7    1  0.1445801E-008  0.4614232E+02  0.7816164E-02  0.1320468E+00
        -11   -1    0    0    0    0  0.00000000000E+00  0.00000000000E+00  0.45593999997E+02  0.45594000000E+02  0.51100000000E-03 0.  1.
         11   -1    0    0    0    0 -0.00000000000E+00 -0.00000000000E+00 -0.45593999997E+02  0.45594000000E+02  0.51100000000E-03 0. -1.
    9900012    2    1    2    0    0 -0.17740074724E+02  0.31135441330E+02  0.27294459319E+02  0.46142317992E+02  0.10000002107E+02 0.  0.
         12    1    1    2    0    0  0.17740074724E+02 -0.31135441330E+02 -0.27294459319E+02  0.45045682008E+02  0.00000000000E+00 0. -1.
         11    1    3    3    0    0 -0.49429088169E+01  0.87865368817E+01  0.11942380709E+02  0.15628692691E+02  0.51100000000E-03 0. -1.
        -11    1    3    3    0    0 -0.15809713620E+01  0.38489533509E+01  0.32774409251E+00  0.41738865337E+01  0.51100000000E-03 0.  1.
        -12    1    3    3    0    0 -0.11216194545E+02  0.18499951097E+02  0.15024334517E+02  0.26339738768E+02  0.00000000000E+00 0.  1.
</event>
<event>
 7    1  0.1445801E-008  0.4614232E+02  0.7816164E-02  0.1320468E+00
        -11   -1    0    0    0    0  0.00000000000E+00  0.00000000000E+00  0.45593999997E+02  0.45594000000E+02  0.51100000000E-03 0. -1.
         11   -1    0    0    0    0 -0.00000000000E+00 -0.00000000000E+00 -0.45593999997E+02  0.45594000000E+02  0.51100000000E-03 0.  1.
    9900012    2    1    2    0    0  0.11256947671E+02 -0.25550806964E+02 -0.35348986743E+02  0.46142317952E+02  0.10000001741E+02 0.  0.
         12    1    1    2    0    0 -0.11256947671E+02  0.25550806964E+02  0.35348986743E+02  0.45045682048E+02  0.00000000000E+00 0. -1.
         11    1    3    3    0    0  0.11865197490E+02 -0.21654718208E+02 -0.33470598908E+02  0.41593157173E+02  0.51100000000E-03 0. -1.
        -11    1    3    3    0    0  0.40689759170E-01 -0.31665851560E+01 -0.14435297334E+01  0.34803298060E+01  0.51100000000E-03 0.  1.
         12    1    3    3    0    0 -0.64893957838E+00 -0.72950360015E+00 -0.43485810247E+00  0.10688309727E+01  0.00000000000E+00 0. -1.
</event>
<event>
 7    1  0.1445801E-008  0.4614232E+02  0.7816164E-02  0.1320468E+00
        -11   -1    0    0    0    0  0.00000000000E+00  0.00000000000E+00  0.45593999997E+02  0.45594000000E+02  0.51100000000E-03 0. -1.
         11   -1    0    0    0    0 -0.00000000000E+00 -0.00000000000E+00 -0.45593999997E+02  0.45594000000E+02  0.51100000000E-03 0.  1.
    9900012    2    1    2    0    0 -0.36652099398E+02 -0.26185787631E+02  0.20440851031E+00  0.46142316000E+02  0.99999839411E+01 0.  0.
         12    1    1    2    0    0  0.36652099398E+02  0.26185787631E+02 -0.20440851031E+00  0.45045684000E+02  0.00000000000E+00 0. -1.
         11    1    3    3    0    0 -0.17293623940E+02 -0.79072169693E+01  0.34220044441E+01  0.19321066841E+02  0.51100000000E-03 0. -1.
        -11    1    3    3    0    0 -0.17281852766E+02 -0.16278306541E+02 -0.27431520416E+01  0.23899175347E+02  0.51100000000E-03 0.  1.
         12    1    3    3    0    0 -0.20766226923E+01 -0.20002641209E+01 -0.47444389220E+00  0.29220738126E+01  0.00000000000E+00 0. -1.
</event>
<event>
 7    1  0.1445801E-008  0.4614232E+02  0.7816164E-02  0.1320468E+00
        -11   -1    0    0    0    0  0.00000000000E+00  0.00000000000E+00  0.45593999997E+02  0.45594000000E+02  0.51100000000E-03 0.  1.
         11   -1    0    0    0    0 -0.00000000000E+00 -0.00000000000E+00 -0.45593999997E+02  0.45594000000E+02  0.51100000000E-03 0. -1.
    9900012    2    1    2    0    0 -0.10804117494E+02  0.43723972938E+02 -0.77373507554E+00  0.46142318406E+02  0.10000005880E+02 0.  0.
         12    1    1    2    0    0  0.10804117494E+02 -0.43723972938E+02  0.77373507554E+00  0.45045681594E+02  0.00000000000E+00 0. -1.
         11    1    3    3    0    0 -0.19965080452E+01  0.42353760345E+01  0.27214961743E+01  0.54158098393E+01  0.51100000000E-03 0. -1.
        -11    1    3    3    0    0 -0.68019342504E+01  0.23586609069E+02 -0.20182807837E+01  0.24630629194E+02  0.51100000000E-03 0.  1.
         12    1    3    3    0    0 -0.20056751979E+01  0.15901987835E+02 -0.14769504662E+01  0.16095879373E+02  0.00000000000E+00 0. -1.
</event>
<event>
 7    1  0.1445801E-008  0.4614232E+02  0.7816164E-02  0.1320468E+00
        -11   -1    0    0    0    0  0.00000000000E+00  0.00000000000E+00  0.45593999997E+02  0.45594000000E+02  0.51100000000E-03 0.  1.
         11   -1    0    0    0    0 -0.00000000000E+00 -0.00000000000E+00 -0.45593999997E+02  0.45594000000E+02  0.51100000000E-03 0. -1.
    9900012    2    1    2    0    0  0.25741412292E+02 -0.96611991461E+01  0.35681288513E+02  0.46142318457E+02  0.10000006343E+02 0.  0.
         12    1    1    2    0    0 -0.25741412292E+02  0.96611991461E+01 -0.35681288513E+02  0.45045681543E+02  0.00000000000E+00 0. -1.
         11    1    3    3    0    0 -0.27230340851E+00 -0.10742569272E+01  0.80583129298E-02  0.11082609303E+01  0.51100000000E-03 0. -1.
        -11    1    3    3    0    0  0.14247248527E+02 -0.52987180839E+01  0.21343220644E+02  0.26202930593E+02  0.51100000000E-03 0.  1.
        -12    1    3    3    0    0  0.11766467174E+02 -0.32882241350E+01  0.14330009556E+02  0.18831126934E+02  0.00000000000E+00 0.  1.
</event>
<event>
 7    1  0.1445801E-008  0.4614232E+02  0.7816164E-02  0.1320468E+00
        -11   -1    0    0    0    0  0.00000000000E+00  0.00000000000E+00  0.45593999997E+02  0.45594000000E+02  0.51100000000E-03 0. -1.
         11   -1    0    0    0    0 -0.00000000000E+00 -0.00000000000E+00 -0.45593999997E+02  0.45594000000E+02  0.51100000000E-03 0.  1.
    9900012    2    1    2    0    0 -0.30733832301E+02 -0.29630750825E+02 -0.14372320665E+02  0.46142318258E+02  0.10000004532E+02 0.  0.
         12    1    1    2    0    0  0.30733832301E+02  0.29630750825E+02  0.14372320665E+02  0.45045681742E+02  0.00000000000E+00 0. -1.
         11    1    3    3    0    0  0.58783082889E+00 -0.19961697592E+00  0.56734768169E-01  0.62338681051E+00  0.51100000000E-03 0. -1.
        -11    1    3    3    0    0 -0.24916267916E+02 -0.21767392979E+02 -0.12360684833E+02  0.35318923168E+02  0.51100000000E-03 0.  1.
        -12    1    3    3    0    0 -0.64053952138E+01 -0.76637408699E+01 -0.20683705994E+01  0.10200008280E+02  0.00000000000E+00 0.  1.
</event>
<event>
 7    1  0.1445801E-008  0.4614232E+02  0.7816164E-02  0.1320468E+00
        -11   -1    0    0    0    0  0.00000000000E+00  0.00000000000E+00  0.45593999997E+02  0.45594000000E+02  0.51100000000E-03 0.  1.
         11   -1    0    0    0    0 -0.00000000000E+00 -0.00000000000E+00 -0.45593999997E+02  0.45594000000E+02  0.51100000000E-03 0. -1.
    9900012    2    1    2    0    0  0.38651512783E+02 -0.22107354253E+02  0.68146155866E+01  0.46142317209E+02  0.99999949674E+01 0.  0.
         12    1    1    2    0    0 -0.38651512783E+02  0.22107354253E+02 -0.68146155866E+01  0.45045682791E+02  0.00000000000E+00 0. -1.
         11    1    3    3    0    0  0.26342333006E+01 -0.28858389401E+01 -0.19792206332E+01  0.43800189550E+01  0.51100000000E-03 0. -1.
        -11    1    3    3    0    0  0.21421260173E+02 -0.11314999450E+02  0.51917608505E+01  0.24776076787E+02  0.51100000000E-03 0.  1.
         12    1    3    3    0    0  0.14596019309E+02 -0.79065158628E+01  0.36020753693E+01  0.16986221467E+02  0.00000000000E+00 0. -1.
</event>
<event>
 7    1  0.1445801E-008  0.4614232E+02  0.7816164E-02  0.1320468E+00
        -11   -1    0    0    0    0  0.00000000000E+00  0.00000000000E+00  0.45593999997E+02  0.45594000000E+02  0.51100000000E-03 0. -1.
         11   -1    0    0    0    0 -0.00000000000E+00 -0.00000000000E+00 -0.45593999997E+02  0.45594000000E+02  0.51100000000E-03 0.  1.
    9900012    2    1    2    0    0  0.14023498382E+02 -0.13112842328E+01 -0.42787095431E+02  0.46142317536E+02  0.99999979483E+01 0.  0.
         12    1    1    2    0    0 -0.14023498382E+02  0.13112842328E+01  0.42787095431E+02  0.45045682464E+02  0.00000000000E+00 0. -1.
         11    1    3    3    0    0  0.28899502973E+00  0.11773106981E+01 -0.56340279666E+00  0.13367877840E+01  0.51100000000E-03 0. -1.
        -11    1    3    3    0    0  0.74728926306E+01 -0.39343584200E+01 -0.26714890748E+02  0.28018006503E+02  0.51100000000E-03 0.  1.
        -12    1    3    3    0    0  0.62616107221E+01  0.14457634890E+01 -0.15508801886E+02  0.16787523249E+02  0.00000000000E+00 0.  1.
</event>
<event>
 7    1  0.1445801E-008  0.4614232E+02  0.7816164E-02  0.1320468E+00
        -11   -1    0    0    0    0  0.00000000000E+00  0.00000000000E+00  0.45593999997E+02  0.45594000000E+02  0.51100000000E-03 0.  1.
         11   -1    0    0    0    0 -0.00000000000E+00 -0.00000000000E+00 -0.45593999997E+02  0.45594000000E+02  0.51100000000E-03 0. -1.
    9900012    2    1    2    0    0 -0.35013227677E+00 -0.45043403981E+02  0.28741048564E+00  0.46142318303E+02  0.10000004937E+02 0.  0.
         12    1    1    2    0    0  0.35013227677E+00  0.45043403981E+02 -0.28741048564E+00  0.45045681697E+02  0.00000000000E+00 0. -1.
         11    1    3    3    0    0 -0.23166215430E+01 -0.38629723888E+01  0.17754356015E+01  0.48416384506E+01  0.51100000000E-03 0. -1.
        -11    1    3    3    0    0  0.19892844450E+01 -0.27647243319E+02 -0.36736991237E+00  0.27721152152E+02  0.51100000000E-03 0.  1.
         12    1    3    3    0    0 -0.22795178792E-01 -0.13533188274E+02 -0.11206552035E+01  0.13579527700E+02  0.00000000000E+00 0. -1.
</event>
<event>
 7    1  0.1445801E-008  0.4614232E+02  0.7816164E-02  0.1320468E+00
        -11   -1    0    0    0    0  0.00000000000E+00  0.00000000000E+00  0.45593999997E+02  0.45594000000E+02  0.51100000000E-03 0.  1.
         11   -1    0    0    0    0 -0.00000000000E+00 -0.00000000000E+00 -0.45593999997E+02  0.45594000000E+02  0.51100000000E-03 0. -1.
    9900012    2    1    2    0    0  0.22266737323E+02 -0.11554291110E+02  0.37413958683E+02  0.46142317205E+02  0.99999949316E+01 0.  0.
         12    1    1    2    0    0 -0.22266737323E+02  0.11554291110E+02 -0.37413958683E+02  0.45045682795E+02  0.00000000000E+00 0. -1.
         11    1    3    3    0    0  0.50210290403E+01 -0.54601637625E+01  0.16367208343E+02  0.17969686423E+02  0.51100000000E-03 0. -1.
        -11    1    3    3    0    0  0.87369142619E+01 -0.51616618298E+01  0.10760429224E+02  0.14790647755E+02  0.51100000000E-03 0.  1.
         12    1    3    3    0    0  0.85087940211E+01 -0.93246551817E+00  0.10286321116E+02  0.13381983027E+02  0.00000000000E+00 0. -1.
</event>
<event>
 7    1  0.1445801E-008  0.4614232E+02  0.7816164E-02  0.1320468E+00
        -11   -1    0    0    0    0  0.00000000000E+00  0.00000000000E+00  0.45593999997E+02  0.45594000000E+02  0.51100000000E-03 0.  1.
         11   -1    0    0    0    0 -0.00000000000E+00 -0.00000000000E+00 -0.45593999997E+02  0.45594000000E+02  0.51100000000E-03 0. -1.
    9900012    2    1    2    0    0  0.21742303573E+01 -0.44685480069E+02  0.52530038551E+01  0.46142318119E+02  0.10000003263E+02 0.  0.
         12    1    1    2    0    0 -0.21742303573E+01  0.44685480069E+02 -0.52530038551E+01  0.45045681881E+02  0.00000000000E+00 0. -1.
         11    1    3    3    0    0 -0.11963187673E+01 -0.14963538228E+01 -0.27524279662E+00  0.19354617574E+01  0.51100000000E-03 0. -1.
        -11    1    3    3    0    0  0.53949369248E+01 -0.27119585227E+02  0.29807863315E+01  0.27811190818E+02  0.51100000000E-03 0.  1.
        -12    1    3    3    0    0 -0.20243878002E+01 -0.16069541019E+02  0.25474603202E+01  0.16395665544E+02  0.00000000000E+00 0.  1.
</event>
<event>
 7    1  0.1445801E-008  0.4614232E+02  0.7816164E-02  0.1320468E+00
        -11   -1    0    0    0    0  0.00000000000E+00  0.00000000000E+00  0.45593999997E+02  0.45594000000E+02  0.51100000000E-03 0.  1.
         11   -1    0    0    0    0 -0.00000000000E+00 -0.00000000000E+00 -0.45593999997E+02  0.45594000000E+02  0.51100000000E-03 0. -1.
    9900012    2    1    2    0    0 -0.14628942160E+02  0.32613756257E+02  0.27412596206E+02  0.46142317891E+02  0.10000001185E+02 0.  0.
         12    1    1    2    0    0  0.14628942160E+02 -0.32613756257E+02 -0.27412596206E+02  0.45045682109E+02  0.00000000000E+00 0. -1.
         11    1    3    3    0    0 -0.61502431951E+01  0.13947754331E+02  0.17303649922E+02  0.23060391217E+02  0.51100000000E-03 0. -1.
        -11    1    3    3    0    0 -0.80698987067E+01  0.16040639400E+02  0.96519433637E+01  0.20385911519E+02  0.51100000000E-03 0.  1.
         12    1    3    3    0    0 -0.40880025834E+00  0.26253625262E+01  0.45700292058E+00  0.26960151547E+01  0.00000000000E+00 0. -1.
</event>
<event>
 7    1  0.1445801E-008  0.4614232E+02  0.7816164E-02  0.1320468E+00
        -11   -1    0    0    0    0  0.00000000000E+00  0.00000000000E+00  0.45593999997E+02  0.45594000000E+02  0.51100000000E-03 0.  1.
         11   -1    0    0    0    0 -0.00000000000E+00 -0.00000000000E+00 -0.45593999997E+02  0.45594000000E+02  0.51100000000E-03 0. -1.
    9900012    2    1    2    0    0 -0.18959116646E+02  0.17748917539E+02  0.36805451729E+02  0.46142318134E+02  0.10000003404E+02 0.  0.
         12    1    1    2    0    0  0.18959116646E+02 -0.17748917539E+02 -0.36805451729E+02  0.45045681866E+02  0.00000000000E+00 0. -1.
         11    1    3    3    0    0 -0.28709859896E+01  0.38834861185E+01  0.12542743966E+02  0.13440403693E+02  0.51100000000E-03 0. -1.
        -11    1    3    3    0    0 -0.75650516074E+01  0.96135347704E+01  0.15621753151E+02  0.19841603473E+02  0.51100000000E-03 0.  1.
         12    1    3    3    0    0 -0.85230790491E+01  0.42518966498E+01  0.86409546118E+01  0.12860310968E+02  0.00000000000E+00 0. -1.
</event>
<event>
 7    1  0.1445801E-008  0.4614232E+02  0.7816164E-02  0.1320468E+00
        -11   -1    0    0    0    0  0.00000000000E+00  0.00000000000E+00  0.45593999997E+02  0.45594000000E+02  0.51100000000E-03 0.  1.
         11   -1    0    0    0    0 -0.00000000000E+00 -0.00000000000E+00 -0.45593999997E+02  0.45594000000E+02  0.51100000000E-03 0. -1.
    9900012    2    1    2    0    0 -0.16334186114E+02  0.18504149996E+02  0.37681617661E+02  0.46142317491E+02  0.99999975412E+01 0.  0.
         12    1    1    2    0    0  0.16334186114E+02 -0.18504149996E+02 -0.37681617661E+02  0.45045682509E+02  0.00000000000E+00 0. -1.
         11    1    3    3    0    0 -0.72742560688E+01  0.52793654620E+01  0.17440973163E+02  0.19620755494E+02  0.51100000000E-03 0. -1.
        -11    1    3    3    0    0 -0.97977557826E+01  0.13034492056E+02  0.19765434197E+02  0.25623551486E+02  0.51100000000E-03 0.  1.
         12    1    3    3    0    0  0.73782573757E+00  0.19029247789E+00  0.47521030170E+00  0.89801051052E+00  0.00000000000E+00 0. -1.
</event>
<event>
 7    1  0.1445801E-008  0.4614232E+02  0.7816164E-02  0.1320468E+00
        -11   -1    0    0    0    0  0.00000000000E+00  0.00000000000E+00  0.45593999997E+02  0.45594000000E+02  0.51100000000E-03 0.  1.
         11   -1    0    0    0    0 -0.00000000000E+00 -0.00000000000E+00 -0.45593999997E+02  0.45594000000E+02  0.51100000000E-03 0. -1.
    9900012    2    1    2    0    0 -0.60531838428E+00 -0.23338586037E+02  0.38523465391E+02  0.46142318805E+02  0.10000009522E+02 0.  0.
         12    1    1    2    0    0  0.60531838428E+00  0.23338586037E+02 -0.38523465391E+02  0.45045681195E+02  0.00000000000E+00 0. -1.
         11    1    3    3    0    0  0.29470748272E+01 -0.79987963071E+01  0.16948424405E+02  0.18971428056E+02  0.51100000000E-03 0. -1.
        -11    1    3    3    0    0 -0.45407200236E+01 -0.88244081724E+01  0.13164472150E+02  0.16486104609E+02  0.51100000000E-03 0.  1.
         12    1    3    3    0    0  0.98832681218E+00 -0.65153815578E+01  0.84105688360E+01  0.10684786141E+02  0.00000000000E+00 0. -1.
</event>
<event>
 7    1  0.1445801E-008  0.4614232E+02  0.7816164E-02  0.1320468E+00
        -11   -1    0    0    0    0  0.00000000000E+00  0.00000000000E+00  0.45593999997E+02  0.45594000000E+02  0.51100000000E-03 0. -1.
         11   -1    0    0    0    0 -0.00000000000E+00 -0.00000000000E+00 -0.45593999997E+02  0.45594000000E+02  0.51100000000E-03 0.  1.
    9900012    2    1    2    0    0  0.48999395022E+01  0.39886256787E+02 -0.20351674689E+02  0.46142317074E+02  0.99999937371E+01 0.  0.
         12    1    1    2    0    0 -0.48999395022E+01 -0.39886256787E+02  0.20351674689E+02  0.45045682926E+02  0.00000000000E+00 0. -1.
         11    1    3    3    0    0  0.63845320324E+00  0.24232449370E+01 -0.29002427489E+01  0.38329031792E+01  0.51100000000E-03 0. -1.
        -11    1    3    3    0    0  0.41200528113E+01  0.23660548028E+02 -0.14926638952E+02  0.28277215542E+02  0.51100000000E-03 0.  1.
         12    1    3    3    0    0  0.14143348767E+00  0.13802463822E+02 -0.25247929886E+01  0.14032198353E+02  0.00000000000E+00 0. -1.
</event>
<event>
 7    1  0.1445801E-008  0.4614232E+02  0.7816164E-02  0.1320468E+00
        -11   -1    0    0    0    0  0.00000000000E+00  0.00000000000E+00  0.45593999997E+02  0.45594000000E+02  0.51100000000E-03 0. -1.
         11   -1    0    0    0    0 -0.00000000000E+00 -0.00000000000E+00 -0.45593999997E+02  0.45594000000E+02  0.51100000000E-03 0.  1.
    9900012    2    1    2    0    0 -0.42531362961E+02 -0.20007665470E+01  0.14703511157E+02  0.46142321601E+02  0.10000035011E+02 0.  0.
         12    1    1    2    0    0  0.42531362961E+02  0.20007665470E+01 -0.14703511157E+02  0.45045678399E+02  0.00000000000E+00 0. -1.
         11    1    3    3    0    0 -0.10658395817E+02 -0.83440145134E+00  0.81502647994E+01  0.13443379178E+02  0.51100000000E-03 0. -1.
        -11    1    3    3    0    0 -0.27639856298E+02 -0.29952554460E+00  0.64132896461E+01  0.28375723005E+02  0.51100000000E-03 0.  1.
        -12    1    3    3    0    0 -0.42331108470E+01 -0.86683955109E+00  0.13995671158E+00  0.43232194174E+01  0.00000000000E+00 0.  1.
</event>
<event>
 7    1  0.1445801E-008  0.4614232E+02  0.7816164E-02  0.1320468E+00
        -11   -1    0    0    0    0  0.00000000000E+00  0.00000000000E+00  0.45593999997E+02  0.45594000000E+02  0.51100000000E-03 0. -1.
         11   -1    0    0    0    0 -0.00000000000E+00 -0.00000000000E+00 -0.45593999997E+02  0.45594000000E+02  0.51100000000E-03 0.  1.
    9900012    2    1    2    0    0 -0.66083942954E+00 -0.59334738731E+01 -0.44648298425E+02  0.46142319039E+02  0.10000011656E+02 0.  0.
         12    1    1    2    0    0  0.66083942954E+00  0.59334738731E+01  0.44648298425E+02  0.45045680961E+02  0.00000000000E+00 0. -1.
         11    1    3    3    0    0  0.51968670013E+00  0.13654604669E+01 -0.13266031909E+02  0.13346241397E+02  0.51100000000E-03 0. -1.
        -11    1    3    3    0    0  0.15360591686E+01 -0.64819819408E+01 -0.23109270270E+02  0.24050237843E+02  0.51100000000E-03 0.  1.
        -12    1    3    3    0    0 -0.27165852982E+01 -0.81695239922E+00 -0.82729962465E+01  0.87458397996E+01  0.00000000000E+00 0.  1.
</event>
<event>
 7    1  0.1445801E-008  0.4614232E+02  0.7816164E-02  0.1320468E+00
        -11   -1    0    0    0    0  0.00000000000E+00  0.00000000000E+00  0.45593999997E+02  0.45594000000E+02  0.51100000000E-03 0. -1.
         11   -1    0    0    0    0 -0.00000000000E+00 -0.00000000000E+00 -0.45593999997E+02  0.45594000000E+02  0.51100000000E-03 0.  1.
    9900012    2    1    2    0    0 -0.26512477581E+02  0.28403755559E+02 -0.22790978280E+02  0.46142317762E+02  0.10000000005E+02 0.  0.
         12    1    1    2    0    0  0.26512477581E+02 -0.28403755559E+02  0.22790978280E+02  0.45045682238E+02  0.00000000000E+00 0. -1.
         11    1    3    3    0    0 -0.46944436746E+01  0.19854791145E+01 -0.36245217163E+01  0.62543654084E+01  0.51100000000E-03 0. -1.
        -11    1    3    3    0    0 -0.39839863021E+01  0.70116893117E+01 -0.76828142066E+01  0.11138292879E+02  0.51100000000E-03 0.  1.
        -12    1    3    3    0    0 -0.17834047605E+02  0.19406587133E+02 -0.11483642357E+02  0.28749659474E+02  0.00000000000E+00 0.  1.
</event>
<event>
 7    1  0.1445801E-008  0.4614232E+02  0.7816164E-02  0.1320468E+00
        -11   -1    0    0    0    0  0.00000000000E+00  0.00000000000E+00  0.45593999997E+02  0.45594000000E+02  0.51100000000E-03 0. -1.
         11   -1    0    0    0    0 -0.00000000000E+00 -0.00000000000E+00 -0.45593999997E+02  0.45594000000E+02  0.51100000000E-03 0.  1.
    9900012    2    1    2    0    0  0.21512951768E+02 -0.38122470495E+02  0.10629373256E+02  0.46142318451E+02  0.10000006295E+02 0.  0.
         12    1    1    2    0    0 -0.21512951768E+02  0.38122470495E+02 -0.10629373256E+02  0.45045681549E+02  0.00000000000E+00 0. -1.
         11    1    3    3    0    0  0.15495108593E+00 -0.34636321120E+01 -0.40599060397E+00  0.34907858539E+01  0.51100000000E-03 0. -1.
        -11    1    3    3    0    0  0.54569289588E+01 -0.13121749379E+02  0.17629556426E+01  0.14320139430E+02  0.51100000000E-03 0.  1.
         12    1    3    3    0    0  0.15901071723E+02 -0.21537089004E+02  0.92724082172E+01  0.28331393168E+02  0.00000000000E+00 0. -1.
</event>
<event>
 7    1  0.1445801E-008  0.4614232E+02  0.7816164E-02  0.1320468E+00
        -11   -1    0    0    0    0  0.00000000000E+00  0.00000000000E+00  0.45593999997E+02  0.45594000000E+02  0.51100000000E-03 0.  1.
         11   -1    0    0    0    0 -0.00000000000E+00 -0.00000000000E+00 -0.45593999997E+02  0.45594000000E+02  0.51100000000E-03 0. -1.
    9900012    2    1    2    0    0  0.15621529719E+02  0.32890430539E+02  0.26519820840E+02  0.46142317530E+02  0.99999978947E+01 0.  0.
         12    1    1    2    0    0 -0.15621529719E+02 -0.32890430539E+02 -0.26519820840E+02  0.45045682470E+02  0.00000000000E+00 0. -1.
         11    1    3    3    0    0  0.79620635370E+01  0.15806936765E+02  0.14723015441E+02  0.23022182555E+02  0.51100000000E-03 0. -1.
        -11    1    3    3    0    0  0.37435948352E+01  0.14950467723E+02  0.94927548735E+01  0.18100922153E+02  0.51100000000E-03 0.  1.
         12    1    3    3    0    0  0.39158713464E+01  0.21330260511E+01  0.23040505254E+01  0.50192128227E+01  0.00000000000E+00 0. -1.
</event>
<event>
 7    1  0.1445801E-008  0.4614232E+02  0.7816164E-02  0.1320468E+00
        -11   -1    0    0    0    0  0.00000000000E+00  0.00000000000E+00  0.45593999997E+02  0.45594000000E+02  0.51100000000E-03 0.  1.
         11   -1    0    0    0    0 -0.00000000000E+00 -0.00000000000E+00 -0.45593999997E+02  0.45594000000E+02  0.51100000000E-03 0. -1.
    9900012    2    1    2    0    0  0.76900672389E+01 -0.29235302112E+02  0.33395709912E+02  0.46142318029E+02  0.10000002444E+02 0.  0.
         12    1    1    2    0    0 -0.76900672389E+01  0.29235302112E+02 -0.33395709912E+02  0.45045681971E+02  0.00000000000E+00 0. -1.
         11    1    3    3    0    0  0.16024837970E+00 -0.37658143330E+00  0.12635270564E+00  0.42832042497E+00  0.51100000000E-03 0. -1.
        -11    1    3    3    0    0  0.12860983203E+01 -0.50733303583E+01  0.13219506403E+01  0.53981740960E+01  0.51100000000E-03 0.  1.
        -12    1    3    3    0    0  0.62437205388E+01 -0.23785390320E+02  0.31947406566E+02  0.40315823508E+02  0.00000000000E+00 0.  1.
</event>
<event>
 7    1  0.1445801E-008  0.4614232E+02  0.7816164E-02  0.1320468E+00
        -11   -1    0    0    0    0  0.00000000000E+00  0.00000000000E+00  0.45593999997E+02  0.45594000000E+02  0.51100000000E-03 0.  1.
         11   -1    0    0    0    0 -0.00000000000E+00 -0.00000000000E+00 -0.45593999997E+02  0.45594000000E+02  0.51100000000E-03 0. -1.
    9900012    2    1    2    0    0 -0.26575063679E+02 -0.40104850938E+01 -0.36149626766E+02  0.46142317459E+02  0.99999972448E+01 0.  0.
         12    1    1    2    0    0  0.26575063679E+02  0.40104850938E+01  0.36149626766E+02  0.45045682541E+02  0.00000000000E+00 0. -1.
         11    1    3    3    0    0 -0.16857483381E+02 -0.63550258004E+01 -0.26340777383E+02  0.31912343259E+02  0.51100000000E-03 0. -1.
        -11    1    3    3    0    0 -0.73630877403E+01  0.13517525376E+01 -0.86041484835E+01  0.11404984322E+02  0.51100000000E-03 0.  1.
         12    1    3    3    0    0 -0.23544925580E+01  0.99278816903E+00 -0.12047008996E+01  0.28249898782E+01  0.00000000000E+00 0. -1.
</event>
<event>
 7    1  0.1445801E-008  0.4614232E+02  0.7816164E-02  0.1320468E+00
        -11   -1    0    0    0    0  0.00000000000E+00  0.00000000000E+00  0.45593999997E+02  0.45594000000E+02  0.51100000000E-03 0.  1.
         11   -1    0    0    0    0 -0.00000000000E+00 -0.00000000000E+00 -0.45593999997E+02  0.45594000000E+02  0.51100000000E-03 0. -1.
    9900012    2    1    2    0    0 -0.20347768911E+02  0.21822203399E+02  0.33747194836E+02  0.46142318518E+02  0.10000006905E+02 0.  0.
         12    1    1    2    0    0  0.20347768911E+02 -0.21822203399E+02 -0.33747194836E+02  0.45045681482E+02  0.00000000000E+00 0. -1.
         11    1    3    3    0    0 -0.21862482840E+01 -0.52816435835E+00  0.35059641682E+01  0.41653840349E+01  0.51100000000E-03 0. -1.
        -11    1    3    3    0    0 -0.16770445285E+02  0.21767590350E+02  0.27671375469E+02  0.38997190224E+02  0.51100000000E-03 0.  1.
        -12    1    3    3    0    0 -0.13910753414E+01  0.58277740776E+00  0.25698551986E+01  0.29797442598E+01  0.00000000000E+00 0.  1.
</event>
<event>
 7    1  0.1445801E-008  0.4614232E+02  0.7816164E-02  0.1320468E+00
        -11   -1    0    0    0    0  0.00000000000E+00  0.00000000000E+00  0.45593999997E+02  0.45594000000E+02  0.51100000000E-03 0.  1.
         11   -1    0    0    0    0 -0.00000000000E+00 -0.00000000000E+00 -0.45593999997E+02  0.45594000000E+02  0.51100000000E-03 0. -1.
    9900012    2    1    2    0    0 -0.27665649768E+02  0.74230497781E+01  0.34765264775E+02  0.46142317854E+02  0.10000000851E+02 0.  0.
         12    1    1    2    0    0  0.27665649768E+02 -0.74230497781E+01 -0.34765264775E+02  0.45045682146E+02  0.00000000000E+00 0. -1.
         11    1    3    3    0    0 -0.14690974228E+02  0.75448251591E+01  0.14150522942E+02  0.21748250740E+02  0.51100000000E-03 0.  1.
        -11    1    3    3    0    0 -0.98897407003E+01  0.31242112702E+00  0.14918510865E+02  0.17901579393E+02  0.51100000000E-03 0. -1.
        -12    1    3    3    0    0 -0.30849348393E+01 -0.43419650798E+00  0.56962309683E+01  0.64924877216E+01  0.00000000000E+00 0.  1.
</event>
<event>
 7    1  0.1445801E-008  0.4614231E+02  0.7816164E-02  0.1320468E+00
        -11   -1    0    0    0    0  0.00000000000E+00  0.00000000000E+00  0.45593999997E+02  0.45594000000E+02  0.51100000000E-03 0.  1.
         11   -1    0    0    0    0 -0.00000000000E+00 -0.00000000000E+00 -0.45593999997E+02  0.45594000000E+02  0.51100000000E-03 0. -1.
    9900012    2    1    2    0    0 -0.29605733898E+02  0.28262453641E+02  0.18810860072E+02  0.46142309617E+02  0.99999257327E+01 0.  0.
         12    1    1    2    0    0  0.29605733898E+02 -0.28262453641E+02 -0.18810860072E+02  0.45045690383E+02  0.00000000000E+00 0. -1.
         11    1    3    3    0    0 -0.99988935407E+01  0.14961986628E+02  0.11091196463E+02  0.21138910926E+02  0.51100000000E-03 0.  1.
        -11    1    3    3    0    0 -0.19542642201E+02  0.13323369747E+02  0.75620307192E+01  0.24831660324E+02  0.51100000000E-03 0. -1.
        -12    1    3    3    0    0 -0.64198156406E-01 -0.22902733661E-01  0.15763289028E+00  0.17173836669E+00  0.00000000000E+00 0.  1.
</event>
<event>
 7    1  0.1445801E-008  0.4614232E+02  0.7816164E-02  0.1320468E+00
        -11   -1    0    0    0    0  0.00000000000E+00  0.00000000000E+00  0.45593999997E+02  0.45594000000E+02  0.51100000000E-03 0. -1.
         11   -1    0    0    0    0 -0.00000000000E+00 -0.00000000000E+00 -0.45593999997E+02  0.45594000000E+02  0.51100000000E-03 0.  1.
    9900012    2    1    2    0    0  0.32067997021E+02 -0.91271163542E+01 -0.30289483637E+02  0.46142317578E+02  0.99999983296E+01 0.  0.
         12    1    1    2    0    0 -0.32067997021E+02  0.91271163542E+01  0.30289483637E+02  0.45045682422E+02  0.00000000000E+00 0. -1.
         11    1    3    3    0    0  0.36639743803E+01  0.12229026647E+01 -0.23292959468E+01  0.45106339970E+01  0.51100000000E-03 0. -1.
        -11    1    3    3    0    0  0.75252356490E+01 -0.15594625201E+01 -0.10590838048E+02  0.13085371441E+02  0.51100000000E-03 0.  1.
        -12    1    3    3    0    0  0.20878786992E+02 -0.87905564988E+01 -0.17369349642E+02  0.28546312140E+02  0.00000000000E+00 0.  1.
</event>
<event>
 7    1  0.1445801E-008  0.4614232E+02  0.7816164E-02  0.1320468E+00
        -11   -1    0    0    0    0  0.00000000000E+00  0.00000000000E+00  0.45593999997E+02  0.45594000000E+02  0.51100000000E-03 0. -1.
         11   -1    0    0    0    0 -0.00000000000E+00 -0.00000000000E+00 -0.45593999997E+02  0.45594000000E+02  0.51100000000E-03 0.  1.
    9900012    2    1    2    0    0 -0.25691226572E+02  0.13981779689E+02 -0.34257617152E+02  0.46142316312E+02  0.99999867818E+01 0.  0.
         12    1    1    2    0    0  0.25691226572E+02 -0.13981779689E+02  0.34257617152E+02  0.45045683688E+02  0.00000000000E+00 0. -1.
         11    1    3    3    0    0 -0.13294319976E+02  0.43252958843E+01 -0.11982342955E+02  0.18412595446E+02  0.51100000000E-03 0. -1.
        -11    1    3    3    0    0 -0.80152502278E+01  0.83457926977E+01 -0.18395551751E+02  0.21732298922E+02  0.51100000000E-03 0.  1.
        -12    1    3    3    0    0 -0.43816563681E+01  0.13106911074E+01 -0.38797224454E+01  0.59974219429E+01  0.00000000000E+00 0.  1.
</event>
<event>
 7    1  0.1445801E-008  0.4614232E+02  0.7816164E-02  0.1320468E+00
        -11   -1    0    0    0    0  0.00000000000E+00  0.00000000000E+00  0.45593999997E+02  0.45594000000E+02  0.51100000000E-03 0.  1.
         11   -1    0    0    0    0 -0.00000000000E+00 -0.00000000000E+00 -0.45593999997E+02  0.45594000000E+02  0.51100000000E-03 0. -1.
    9900012    2    1    2    0    0  0.19565876476E+02 -0.28208751098E+02  0.29164299859E+02  0.46142317110E+02  0.99999940592E+01 0.  0.
         12    1    1    2    0    0 -0.19565876476E+02  0.28208751098E+02 -0.29164299859E+02  0.45045682890E+02  0.00000000000E+00 0. -1.
         11    1    3    3    0    0  0.59436935732E+01 -0.82495123561E+01  0.79224836664E+01  0.12889829134E+02  0.51100000000E-03 0. -1.
        -11    1    3    3    0    0  0.68687633888E+01 -0.16614398033E+02  0.13831510811E+02  0.22683227814E+02  0.51100000000E-03 0.  1.
         12    1    3    3    0    0  0.67534195143E+01 -0.33448407086E+01  0.74103053819E+01  0.10569260161E+02  0.00000000000E+00 0. -1.
</event>
<event>
 7    1  0.1445801E-008  0.4614232E+02  0.7816164E-02  0.1320468E+00
        -11   -1    0    0    0    0  0.00000000000E+00  0.00000000000E+00  0.45593999997E+02  0.45594000000E+02  0.51100000000E-03 0.  1.
         11   -1    0    0    0    0 -0.00000000000E+00 -0.00000000000E+00 -0.45593999997E+02  0.45594000000E+02  0.51100000000E-03 0. -1.
    9900012    2    1    2    0    0  0.27503303906E+02  0.30773578472E+02  0.18046289684E+02  0.46142318419E+02  0.10000006000E+02 0.  0.
         12    1    1    2    0    0 -0.27503303906E+02 -0.30773578472E+02 -0.18046289684E+02  0.45045681581E+02  0.00000000000E+00 0. -1.
         11    1    3    3    0    0  0.61458196771E+01  0.51122785623E+01  0.10422584134E+01  0.80618108675E+01  0.51100000000E-03 0.  1.
        -11    1    3    3    0    0  0.10116976611E+01  0.38122631646E+01  0.52406813274E+00  0.39788855553E+01  0.51100000000E-03 0. -1.
        -12    1    3    3    0    0  0.20345786568E+02  0.21849036746E+02  0.16479963137E+02  0.34101621996E+02  0.00000000000E+00 0.  1.
</event>
<event>
 7    1  0.1445801E-008  0.4614232E+02  0.7816164E-02  0.1320468E+00
        -11   -1    0    0    0    0  0.00000000000E+00  0.00000000000E+00  0.45593999997E+02  0.45594000000E+02  0.51100000000E-03 0. -1.
         11   -1    0    0    0    0 -0.00000000000E+00 -0.00000000000E+00 -0.45593999997E+02  0.45594000000E+02  0.51100000000E-03 0.  1.
    9900012    2    1    2    0    0  0.80521411841E+01  0.14759693398E+02 -0.41790285655E+02  0.46142317610E+02  0.99999986219E+01 0.  0.
         12    1    1    2    0    0 -0.80521411841E+01 -0.14759693398E+02  0.41790285655E+02  0.45045682390E+02  0.00000000000E+00 0. -1.
         11    1    3    3    0    0  0.17389415860E+00  0.37788038661E+01 -0.41022453875E+01  0.55801447398E+01  0.51100000000E-03 0. -1.
        -11    1    3    3    0    0 -0.16968022026E+00  0.42469072013E+01 -0.14502965831E+02  0.15112942477E+02  0.51100000000E-03 0.  1.
        -12    1    3    3    0    0  0.80479272458E+01  0.67339823307E+01 -0.23185074436E+02  0.25449230393E+02  0.00000000000E+00 0.  1.
</event>
<event>
 7    1  0.1445801E-008  0.4614232E+02  0.7816164E-02  0.1320468E+00
        -11   -1    0    0    0    0  0.00000000000E+00  0.00000000000E+00  0.45593999997E+02  0.45594000000E+02  0.51100000000E-03 0. -1.
         11   -1    0    0    0    0 -0.00000000000E+00 -0.00000000000E+00 -0.45593999997E+02  0.45594000000E+02  0.51100000000E-03 0.  1.
    9900012    2    1    2    0    0  0.34620105014E+02 -0.28105753684E+02 -0.63740427623E+01  0.46142317827E+02  0.10000000598E+02 0.  0.
         12    1    1    2    0    0 -0.34620105014E+02  0.28105753684E+02  0.63740427623E+01  0.45045682173E+02  0.00000000000E+00 0. -1.
         11    1    3    3    0    0  0.76326984216E+01 -0.65637798431E+01  0.16905606783E+01  0.10207805185E+02  0.51100000000E-03 0. -1.
        -11    1    3    3    0    0  0.23391942070E+02 -0.19370339690E+02 -0.89078195324E+01  0.31650312204E+02  0.51100000000E-03 0.  1.
        -12    1    3    3    0    0  0.35954645220E+01 -0.21716341514E+01  0.84321609181E+00  0.42842004381E+01  0.00000000000E+00 0.  1.
</event>
<event>
 7    1  0.1445801E-008  0.4614232E+02  0.7816164E-02  0.1320468E+00
        -11   -1    0    0    0    0  0.00000000000E+00  0.00000000000E+00  0.45593999997E+02  0.45594000000E+02  0.51100000000E-03 0.  1.
         11   -1    0    0    0    0 -0.00000000000E+00 -0.00000000000E+00 -0.45593999997E+02  0.45594000000E+02  0.51100000000E-03 0. -1.
    9900012    2    1    2    0    0  0.51072538215E+01  0.15914388480E+02  0.41830152546E+02  0.46142318028E+02  0.10000002432E+02 0.  0.
         12    1    1    2    0    0 -0.51072538215E+01 -0.15914388480E+02 -0.41830152546E+02  0.45045681972E+02  0.00000000000E+00 0. -1.
         11    1    3    3    0    0  0.56104635194E+01  0.41270126863E+01  0.19474185384E+02  0.20682200832E+02  0.51100000000E-03 0. -1.
        -11    1    3    3    0    0 -0.14779148617E+01  0.85920259059E+01  0.17688455893E+02  0.19720258965E+02  0.51100000000E-03 0.  1.
         12    1    3    3    0    0  0.97470516383E+00  0.31953498881E+01  0.46675112683E+01  0.57398582303E+01  0.00000000000E+00 0. -1.
</event>
<event>
 7    1  0.1445801E-008  0.4614232E+02  0.7816164E-02  0.1320468E+00
        -11   -1    0    0    0    0  0.00000000000E+00  0.00000000000E+00  0.45593999997E+02  0.45594000000E+02  0.51100000000E-03 0.  1.
         11   -1    0    0    0    0 -0.00000000000E+00 -0.00000000000E+00 -0.45593999997E+02  0.45594000000E+02  0.51100000000E-03 0. -1.
    9900012    2    1    2    0    0  0.14389083621E+02 -0.20919154545E+01  0.42634394609E+02  0.46142318282E+02  0.10000004752E+02 0.  0.
         12    1    1    2    0    0 -0.14389083621E+02  0.20919154545E+01 -0.42634394609E+02  0.45045681718E+02  0.00000000000E+00 0. -1.
         11    1    3    3    0    0  0.10222929571E+02  0.14564775817E+01  0.28351280040E+02  0.30173244706E+02  0.51100000000E-03 0. -1.
        -11    1    3    3    0    0  0.35174216637E+01 -0.45693810696E+01  0.12908964763E+02  0.14138347500E+02  0.51100000000E-03 0.  1.
        -12    1    3    3    0    0  0.64873238721E+00  0.10209880334E+01  0.13741498068E+01  0.18307260762E+01  0.00000000000E+00 0.  1.
</event>
<event>
 7    1  0.1445801E-008  0.4614232E+02  0.7816164E-02  0.1320468E+00
        -11   -1    0    0    0    0  0.00000000000E+00  0.00000000000E+00  0.45593999997E+02  0.45594000000E+02  0.51100000000E-03 0.  1.
         11   -1    0    0    0    0 -0.00000000000E+00 -0.00000000000E+00 -0.45593999997E+02  0.45594000000E+02  0.51100000000E-03 0. -1.
    9900012    2    1    2    0    0  0.21366220331E+02 -0.24150160253E+01  0.39582393774E+02  0.46142316850E+02  0.99999916878E+01 0.  0.
         12    1    1    2    0    0 -0.21366220331E+02  0.24150160253E+01 -0.39582393774E+02  0.45045683150E+02  0.00000000000E+00 0. -1.
         11    1    3    3    0    0  0.12327584078E+02 -0.36458160526E+01  0.26830853271E+02  0.29751571243E+02  0.51100000000E-03 0. -1.
        -11    1    3    3    0    0  0.69307339100E+01 -0.12055717345E+01  0.94122661260E+01  0.11750711877E+02  0.51100000000E-03 0.  1.
         12    1    3    3    0    0  0.21079023428E+01  0.24363717618E+01  0.33392743767E+01  0.46400337296E+01  0.00000000000E+00 0. -1.
</event>
<event>
 7    1  0.1445801E-008  0.4614232E+02  0.7816164E-02  0.1320468E+00
        -11   -1    0    0    0    0  0.00000000000E+00  0.00000000000E+00  0.45593999997E+02  0.45594000000E+02  0.51100000000E-03 0.  1.
         11   -1    0    0    0    0 -0.00000000000E+00 -0.00000000000E+00 -0.45593999997E+02  0.45594000000E+02  0.51100000000E-03 0. -1.
    9900012    2    1    2    0    0  0.92898704434E+01 -0.24041252853E+02  0.36943600240E+02  0.46142321736E+02  0.10000036242E+02 0.  0.
         12    1    1    2    0    0 -0.92898704434E+01  0.24041252853E+02 -0.36943600240E+02  0.45045678264E+02  0.00000000000E+00 0. -1.
         11    1    3    3    0    0  0.81698287002E-01 -0.36521121018E+00 -0.56069104653E+00  0.67411315736E+00  0.51100000000E-03 0. -1.
        -11    1    3    3    0    0  0.92271867176E+01 -0.21315034217E+02  0.32631747806E+02  0.40053746685E+02  0.51100000000E-03 0.  1.
         12    1    3    3    0    0 -0.19014561250E-01 -0.23610074257E+01  0.48725434814E+01  0.54144618934E+01  0.00000000000E+00 0. -1.
</event>
<event>
 7    1  0.1445801E-008  0.4614232E+02  0.7816164E-02  0.1320468E+00
        -11   -1    0    0    0    0  0.00000000000E+00  0.00000000000E+00  0.45593999997E+02  0.45594000000E+02  0.51100000000E-03 0.  1.
         11   -1    0    0    0    0 -0.00000000000E+00 -0.00000000000E+00 -0.45593999997E+02  0.45594000000E+02  0.51100000000E-03 0. -1.
    9900012    2    1    2    0    0 -0.30932291966E+02 -0.32665279869E+02  0.22991861693E+01  0.46142318163E+02  0.10000003661E+02 0.  0.
         12    1    1    2    0    0  0.30932291966E+02  0.32665279869E+02 -0.22991861693E+01  0.45045681837E+02  0.00000000000E+00 0. -1.
         11    1    3    3    0    0 -0.67787698557E+01 -0.10343125404E+02  0.21784514379E+01  0.12556974748E+02  0.51100000000E-03 0.  1.
        -11    1    3    3    0    0  0.22858179473E+00 -0.63876640933E+00 -0.66059233899E+00  0.94691850865E+00  0.51100000000E-03 0. -1.
        -12    1    3    3    0    0 -0.24382103905E+02 -0.21683388055E+02  0.78132707031E+00  0.32638424906E+02  0.00000000000E+00 0.  1.
</event>
<event>
 7    1  0.1445801E-008  0.4614232E+02  0.7816164E-02  0.1320468E+00
        -11   -1    0    0    0    0  0.00000000000E+00  0.00000000000E+00  0.45593999997E+02  0.45594000000E+02  0.51100000000E-03 0.  1.
         11   -1    0    0    0    0 -0.00000000000E+00 -0.00000000000E+00 -0.45593999997E+02  0.45594000000E+02  0.51100000000E-03 0. -1.
    9900012    2    1    2    0    0  0.13469729496E+02  0.17500663742E+02  0.39260751228E+02  0.46142318397E+02  0.10000005795E+02 0.  0.
         12    1    1    2    0    0 -0.13469729496E+02 -0.17500663742E+02 -0.39260751228E+02  0.45045681603E+02  0.00000000000E+00 0. -1.
         11    1    3    3    0    0  0.98290921475E+01  0.17162350346E+02  0.28926442230E+02  0.35041352460E+02  0.51100000000E-03 0. -1.
        -11    1    3    3    0    0  0.13133953978E+01  0.21487062249E+00  0.63252459124E+01  0.64637383122E+01  0.51100000000E-03 0.  1.
         12    1    3    3    0    0  0.23272419508E+01  0.12344277264E+00  0.40090630860E+01  0.46372276247E+01  0.00000000000E+00 0. -1.
</event>
<event>
 7    1  0.1445801E-008  0.4614232E+02  0.7816164E-02  0.1320468E+00
        -11   -1    0    0    0    0  0.00000000000E+00  0.00000000000E+00  0.45593999997E+02  0.45594000000E+02  0.51100000000E-03 0.  1.
         11   -1    0    0    0    0 -0.00000000000E+00 -0.00000000000E+00 -0.45593999997E+02  0.45594000000E+02  0.51100000000E-03 0. -1.
    9900012    2    1    2    0    0  0.13124238945E+02  0.32058186108E+02  0.28794799579E+02  0.46142318440E+02  0.10000006189E+02 0.  0.
         12    1    1    2    0    0 -0.13124238945E+02 -0.32058186108E+02 -0.28794799579E+02  0.45045681560E+02  0.00000000000E+00 0. -1.
         11    1    3    3    0    0  0.11997755218E+02  0.18567009893E+02  0.16139628876E+02  0.27370926312E+02  0.51100000000E-03 0. -1.
        -11    1    3    3    0    0  0.48455789821E+00  0.12953094017E+02  0.11397799272E+02  0.17260569790E+02  0.51100000000E-03 0.  1.
        -12    1    3    3    0    0  0.64192582894E+00  0.53808219796E+00  0.12573714313E+01  0.15108223382E+01  0.00000000000E+00 0.  1.
</event>
<event>
 7    1  0.1445801E-008  0.4614232E+02  0.7816164E-02  0.1320468E+00
        -11   -1    0    0    0    0  0.00000000000E+00  0.00000000000E+00  0.45593999997E+02  0.45594000000E+02  0.51100000000E-03 0.  1.
         11   -1    0    0    0    0 -0.00000000000E+00 -0.00000000000E+00 -0.45593999997E+02  0.45594000000E+02  0.51100000000E-03 0. -1.
    9900012    2    1    2    0    0  0.18898974820E+02 -0.34436585940E+02  0.22046856102E+02  0.46142316917E+02  0.99999923032E+01 0.  0.
         12    1    1    2    0    0 -0.18898974820E+02  0.34436585940E+02 -0.22046856102E+02  0.45045683083E+02  0.00000000000E+00 0. -1.
         11    1    3    3    0    0  0.10405884423E+00 -0.16037423823E+01  0.18591622210E+01  0.24574991957E+01  0.51100000000E-03 0. -1.
        -11    1    3    3    0    0  0.10419880875E+02 -0.17875090034E+02  0.63169901175E+01  0.21633241217E+02  0.51100000000E-03 0.  1.
        -12    1    3    3    0    0  0.83750351007E+01 -0.14957753523E+02  0.13870703764E+02  0.22051576504E+02  0.00000000000E+00 0.  1.
</event>
<event>
 7    1  0.1445801E-008  0.4614231E+02  0.7816164E-02  0.1320468E+00
        -11   -1    0    0    0    0  0.00000000000E+00  0.00000000000E+00  0.45593999997E+02  0.45594000000E+02  0.51100000000E-03 0.  1.
         11   -1    0    0    0    0 -0.00000000000E+00 -0.00000000000E+00 -0.45593999997E+02  0.45594000000E+02  0.51100000000E-03 0. -1.
    9900012    2    1    2    0    0 -0.22513297865E+02 -0.35192287825E+02 -0.16845430903E+02  0.46142309358E+02  0.99999233715E+01 0.  0.
         12    1    1    2    0    0  0.22513297865E+02  0.35192287825E+02  0.16845430903E+02  0.45045690642E+02  0.00000000000E+00 0. -1.
         11    1    3    3    0    0 -0.12965353964E+02 -0.25145807725E+02 -0.71764531542E+01  0.29187557789E+02  0.51100000000E-03 0. -1.
        -11    1    3    3    0    0 -0.60398700549E+01 -0.67321435036E+01 -0.70224484777E+01  0.11450614364E+02  0.51100000000E-03 0.  1.
         12    1    3    3    0    0 -0.35080738457E+01 -0.33143365965E+01 -0.26465292710E+01  0.55041372044E+01  0.00000000000E+00 0. -1.
</event>
<event>
 7    1  0.1445801E-008  0.4614232E+02  0.7816164E-02  0.1320468E+00
        -11   -1    0    0    0    0  0.00000000000E+00  0.00000000000E+00  0.45593999997E+02  0.45594000000E+02  0.51100000000E-03 0.  1.
         11   -1    0    0    0    0 -0.00000000000E+00 -0.00000000000E+00 -0.45593999997E+02  0.45594000000E+02  0.51100000000E-03 0. -1.
    9900012    2    1    2    0    0 -0.43924434441E+02  0.42324144841E+01  0.90467779987E+01  0.46142318015E+02  0.10000002316E+02 0.  0.
         12    1    1    2    0    0  0.43924434441E+02 -0.42324144841E+01 -0.90467779987E+01  0.45045681985E+02  0.00000000000E+00 0. -1.
         11    1    3    3    0    0 -0.34527650822E+01 -0.71048357453E+00  0.23504246248E+00  0.35329334614E+01  0.51100000000E-03 0. -1.
        -11    1    3    3    0    0 -0.51457835459E+01  0.34036057708E+01  0.26611714899E+01  0.67190367244E+01  0.51100000000E-03 0.  1.
        -12    1    3    3    0    0 -0.35325885813E+02  0.15392922878E+01  0.61505640462E+01  0.35890347829E+02  0.00000000000E+00 0.  1.
</event>
<event>
 7    1  0.1445801E-008  0.4614232E+02  0.7816164E-02  0.1320468E+00
        -11   -1    0    0    0    0  0.00000000000E+00  0.00000000000E+00  0.45593999997E+02  0.45594000000E+02  0.51100000000E-03 0.  1.
         11   -1    0    0    0    0 -0.00000000000E+00 -0.00000000000E+00 -0.45593999997E+02  0.45594000000E+02  0.51100000000E-03 0. -1.
    9900012    2    1    2    0    0 -0.29498728044E+02  0.25937066642E+02  0.22050106003E+02  0.46142317000E+02  0.99999930578E+01 0.  0.
         12    1    1    2    0    0  0.29498728044E+02 -0.25937066642E+02 -0.22050106003E+02  0.45045683000E+02  0.00000000000E+00 0. -1.
         11    1    3    3    0    0 -0.10501644986E+02  0.94578318925E+01  0.33476940406E+01  0.14523848910E+02  0.51100000000E-03 0. -1.
        -11    1    3    3    0    0 -0.10370657248E+02  0.62508523060E+01  0.85772191009E+01  0.14838880486E+02  0.51100000000E-03 0.  1.
        -12    1    3    3    0    0 -0.86264258103E+01  0.10228382443E+02  0.10125192862E+02  0.16779587604E+02  0.00000000000E+00 0.  1.
</event>
<event>
 7    1  0.1445801E-008  0.4614232E+02  0.7816164E-02  0.1320468E+00
        -11   -1    0    0    0    0  0.00000000000E+00  0.00000000000E+00  0.45593999997E+02  0.45594000000E+02  0.51100000000E-03 0.  1.
         11   -1    0    0    0    0 -0.00000000000E+00 -0.00000000000E+00 -0.45593999997E+02  0.45594000000E+02  0.51100000000E-03 0. -1.
    9900012    2    1    2    0    0  0.23381940799E+02  0.38471204586E+02  0.15377302123E+01  0.46142319275E+02  0.10000013803E+02 0.  0.
         12    1    1    2    0    0 -0.23381940799E+02 -0.38471204586E+02 -0.15377302123E+01  0.45045680725E+02  0.00000000000E+00 0. -1.
         11    1    3    3    0    0  0.74422055107E+00  0.74248913555E+01  0.15707056643E+01  0.76256142320E+01  0.51100000000E-03 0. -1.
        -11    1    3    3    0    0  0.11656936898E+02  0.14757543718E+02 -0.11446247987E+01  0.18840898085E+02  0.51100000000E-03 0.  1.
        -12    1    3    3    0    0  0.10980783349E+02  0.16288769512E+02  0.11116493467E+01  0.19675806958E+02  0.00000000000E+00 0.  1.
</event>
<event>
 7    1  0.1445801E-008  0.4614233E+02  0.7816164E-02  0.1320468E+00
        -11   -1    0    0    0    0  0.00000000000E+00  0.00000000000E+00  0.45593999997E+02  0.45594000000E+02  0.51100000000E-03 0.  1.
         11   -1    0    0    0    0 -0.00000000000E+00 -0.00000000000E+00 -0.45593999997E+02  0.45594000000E+02  0.51100000000E-03 0. -1.
    9900012    2    1    2    0    0  0.24081005582E+02 -0.32841691514E+02 -0.19252034966E+02  0.46142330045E+02  0.10000112016E+02 0.  0.
         12    1    1    2    0    0 -0.24081005582E+02  0.32841691514E+02  0.19252034966E+02  0.45045669955E+02  0.00000000000E+00 0. -1.
         11    1    3    3    0    0  0.13288105455E+02 -0.14939488514E+02 -0.11358032621E+02  0.22994933549E+02  0.51100000000E-03 0. -1.
        -11    1    3    3    0    0  0.10688978753E+02 -0.17681304679E+02 -0.86156796500E+01  0.22385547526E+02  0.51100000000E-03 0.  1.
         12    1    3    3    0    0  0.10392137438E+00 -0.22089832045E+00  0.72167730544E+00  0.76184897008E+00  0.00000000000E+00 0. -1.
</event>
<event>
 7    1  0.1445801E-008  0.4614232E+02  0.7816164E-02  0.1320468E+00
        -11   -1    0    0    0    0  0.00000000000E+00  0.00000000000E+00  0.45593999997E+02  0.45594000000E+02  0.51100000000E-03 0.  1.
         11   -1    0    0    0    0 -0.00000000000E+00 -0.00000000000E+00 -0.45593999997E+02  0.45594000000E+02  0.51100000000E-03 0. -1.
    9900012    2    1    2    0    0 -0.50296910315E+01  0.72537066002E+01  0.44172383522E+02  0.46142317440E+02  0.99999970723E+01 0.  0.
         12    1    1    2    0    0  0.50296910315E+01 -0.72537066002E+01 -0.44172383522E+02  0.45045682560E+02  0.00000000000E+00 0. -1.
         11    1    3    3    0    0  0.78254218492E+00 -0.40955588470E+00 -0.21498059208E-01  0.88349913500E+00  0.51100000000E-03 0. -1.
        -11    1    3    3    0    0 -0.27879153192E+01  0.49632113740E+01  0.26967436569E+02  0.27561722992E+02  0.51100000000E-03 0.  1.
         12    1    3    3    0    0 -0.30243178972E+01  0.27000511109E+01  0.17226445012E+02  0.17697095313E+02  0.00000000000E+00 0. -1.
</event>
<event>
 7    1  0.1445801E-008  0.4614232E+02  0.7816164E-02  0.1320468E+00
        -11   -1    0    0    0    0  0.00000000000E+00  0.00000000000E+00  0.45593999997E+02  0.45594000000E+02  0.51100000000E-03 0. -1.
         11   -1    0    0    0    0 -0.00000000000E+00 -0.00000000000E+00 -0.45593999997E+02  0.45594000000E+02  0.51100000000E-03 0.  1.
    9900012    2    1    2    0    0 -0.29700840932E+02 -0.10049242184E+02 -0.32341710886E+02  0.46142317815E+02  0.10000000487E+02 0.  0.
         12    1    1    2    0    0  0.29700840932E+02  0.10049242184E+02  0.32341710886E+02  0.45045682185E+02  0.00000000000E+00 0. -1.
         11    1    3    3    0    0 -0.36014423795E+01  0.14889269952E+01 -0.20833848528E+01  0.44190251771E+01  0.51100000000E-03 0. -1.
        -11    1    3    3    0    0 -0.16757626974E+02 -0.61437735777E+01 -0.20450232136E+02  0.27143618223E+02  0.51100000000E-03 0.  1.
        -12    1    3    3    0    0 -0.93417715781E+01 -0.53943956017E+01 -0.98080938972E+01  0.14579674414E+02  0.00000000000E+00 0.  1.
</event>
<event>
 7    1  0.1445801E-008  0.4614232E+02  0.7816164E-02  0.1320468E+00
        -11   -1    0    0    0    0  0.00000000000E+00  0.00000000000E+00  0.45593999997E+02  0.45594000000E+02  0.51100000000E-03 0.  1.
         11   -1    0    0    0    0 -0.00000000000E+00 -0.00000000000E+00 -0.45593999997E+02  0.45594000000E+02  0.51100000000E-03 0. -1.
    9900012    2    1    2    0    0 -0.19953236774E+02  0.16979172975E+02  0.36642727545E+02  0.46142318135E+02  0.10000003414E+02 0.  0.
         12    1    1    2    0    0  0.19953236774E+02 -0.16979172975E+02 -0.36642727545E+02  0.45045681865E+02  0.00000000000E+00 0. -1.
         11    1    3    3    0    0 -0.24561557512E+01  0.38472000565E+00  0.34839810972E+01  0.42800508296E+01  0.51100000000E-03 0. -1.
        -11    1    3    3    0    0 -0.18142319268E+02  0.16897946044E+02  0.32598664646E+02  0.40955552321E+02  0.51100000000E-03 0.  1.
        -12    1    3    3    0    0  0.64523824500E+00 -0.30349307488E+00  0.56008180203E+00  0.90671498514E+00  0.00000000000E+00 0.  1.
</event>
<event>
 7    1  0.1445801E-008  0.4614232E+02  0.7816164E-02  0.1320468E+00
        -11   -1    0    0    0    0  0.00000000000E+00  0.00000000000E+00  0.45593999997E+02  0.45594000000E+02  0.51100000000E-03 0.  1.
         11   -1    0    0    0    0 -0.00000000000E+00 -0.00000000000E+00 -0.45593999997E+02  0.45594000000E+02  0.51100000000E-03 0. -1.
    9900012    2    1    2    0    0 -0.19497737639E+02  0.11686611658E+02  0.38889264406E+02  0.46142317064E+02  0.99999936462E+01 0.  0.
         12    1    1    2    0    0  0.19497737639E+02 -0.11686611658E+02 -0.38889264406E+02  0.45045682936E+02  0.00000000000E+00 0. -1.
         11    1    3    3    0    0 -0.79143824946E+01  0.80644424405E+01  0.16239630045E+02  0.19783787969E+02  0.51100000000E-03 0. -1.
        -11    1    3    3    0    0 -0.67495703645E+00  0.21100105194E+01  0.60038295039E+01  0.63995062595E+01  0.51100000000E-03 0.  1.
         12    1    3    3    0    0 -0.10908398108E+02  0.15121586982E+01  0.16645804857E+02  0.19959022836E+02  0.00000000000E+00 0. -1.
</event>
<event>
 7    1  0.1445801E-008  0.4614232E+02  0.7816164E-02  0.1320468E+00
        -11   -1    0    0    0    0  0.00000000000E+00  0.00000000000E+00  0.45593999997E+02  0.45594000000E+02  0.51100000000E-03 0. -1.
         11   -1    0    0    0    0 -0.00000000000E+00 -0.00000000000E+00 -0.45593999997E+02  0.45594000000E+02  0.51100000000E-03 0.  1.
    9900012    2    1    2    0    0  0.27120148910E+02 -0.26729705047E+02 -0.24065197810E+02  0.46142319248E+02  0.10000013559E+02 0.  0.
         12    1    1    2    0    0 -0.27120148910E+02  0.26729705047E+02  0.24065197810E+02  0.45045680752E+02  0.00000000000E+00 0. -1.
         11    1    3    3    0    0  0.11646508272E+02 -0.10377153943E+02 -0.74707044916E+01  0.17295603625E+02  0.51100000000E-03 0. -1.
        -11    1    3    3    0    0  0.15101004515E+02 -0.13451247193E+02 -0.12363494768E+02  0.23703003851E+02  0.51100000000E-03 0.  1.
        -12    1    3    3    0    0  0.37263612233E+00 -0.29013039106E+01 -0.42309985502E+01  0.51437117720E+01  0.00000000000E+00 0.  1.
</event>
<event>
 7    1  0.1445801E-008  0.4614232E+02  0.7816164E-02  0.1320468E+00
        -11   -1    0    0    0    0  0.00000000000E+00  0.00000000000E+00  0.45593999997E+02  0.45594000000E+02  0.51100000000E-03 0.  1.
         11   -1    0    0    0    0 -0.00000000000E+00 -0.00000000000E+00 -0.45593999997E+02  0.45594000000E+02  0.51100000000E-03 0. -1.
    9900012    2    1    2    0    0 -0.32635593551E+02 -0.18882452636E+02  0.24647200947E+02  0.46142317649E+02  0.99999989773E+01 0.  0.
         12    1    1    2    0    0  0.32635593551E+02  0.18882452636E+02 -0.24647200947E+02  0.45045682351E+02  0.00000000000E+00 0. -1.
         11    1    3    3    0    0 -0.14237373588E+02 -0.10938636172E+02  0.93597436933E+01  0.20247502815E+02  0.51100000000E-03 0.  1.
        -11    1    3    3    0    0 -0.10563256898E+02 -0.32749647901E+01  0.49720413341E+01  0.12125550954E+02  0.51100000000E-03 0. -1.
        -12    1    3    3    0    0 -0.78349630656E+01 -0.46688516737E+01  0.10315415920E+02  0.13769263880E+02  0.00000000000E+00 0.  1.
</event>
<event>
 7    1  0.1445801E-008  0.4614232E+02  0.7816164E-02  0.1320468E+00
        -11   -1    0    0    0    0  0.00000000000E+00  0.00000000000E+00  0.45593999997E+02  0.45594000000E+02  0.51100000000E-03 0.  1.
         11   -1    0    0    0    0 -0.00000000000E+00 -0.00000000000E+00 -0.45593999997E+02  0.45594000000E+02  0.51100000000E-03 0. -1.
    9900012    2    1    2    0    0 -0.28070086013E+02  0.11545829317E+02  0.33284795878E+02  0.46142317187E+02  0.99999947684E+01 0.  0.
         12    1    1    2    0    0  0.28070086013E+02 -0.11545829317E+02 -0.33284795878E+02  0.45045682813E+02  0.00000000000E+00 0. -1.
         11    1    3    3    0    0 -0.54100527782E+01  0.15851036870E+01  0.12415653896E+02  0.13635603642E+02  0.51100000000E-03 0. -1.
        -11    1    3    3    0    0 -0.81261149560E+01  0.49407148939E+01  0.71274361578E+01  0.11884643637E+02  0.51100000000E-03 0.  1.
         12    1    3    3    0    0 -0.14533918278E+02  0.50200107362E+01  0.13741705825E+02  0.20622069908E+02  0.00000000000E+00 0. -1.
</event>
<event>
 7    1  0.1445801E-008  0.4614232E+02  0.7816164E-02  0.1320468E+00
        -11   -1    0    0    0    0  0.00000000000E+00  0.00000000000E+00  0.45593999997E+02  0.45594000000E+02  0.51100000000E-03 0.  1.
         11   -1    0    0    0    0 -0.00000000000E+00 -0.00000000000E+00 -0.45593999997E+02  0.45594000000E+02  0.51100000000E-03 0. -1.
    9900012    2    1    2    0    0  0.17176417764E+02 -0.35270932107E+02  0.22136972285E+02  0.46142317401E+02  0.99999967139E+01 0.  0.
         12    1    1    2    0    0 -0.17176417764E+02  0.35270932107E+02 -0.22136972285E+02  0.45045682599E+02  0.00000000000E+00 0. -1.
         11    1    3    3    0    0  0.10894709969E+02 -0.23119075659E+02  0.16148376201E+02  0.30231712139E+02  0.51100000000E-03 0. -1.
        -11    1    3    3    0    0  0.42061156369E+01 -0.10751737089E+02  0.66468249299E+01  0.13321844508E+02  0.51100000000E-03 0.  1.
         12    1    3    3    0    0  0.20755921587E+01 -0.14001193583E+01 -0.65822884643E+00  0.25887607539E+01  0.00000000000E+00 0. -1.
</event>
<event>
 7    1  0.1445801E-008  0.4614232E+02  0.7816164E-02  0.1320468E+00
        -11   -1    0    0    0    0  0.00000000000E+00  0.00000000000E+00  0.45593999997E+02  0.45594000000E+02  0.51100000000E-03 0.  1.
         11   -1    0    0    0    0 -0.00000000000E+00 -0.00000000000E+00 -0.45593999997E+02  0.45594000000E+02  0.51100000000E-03 0. -1.
    9900012    2    1    2    0    0 -0.69769331960E+01  0.36895864386E+02  0.24882344126E+02  0.46142318134E+02  0.10000003397E+02 0.  0.
         12    1    1    2    0    0  0.69769331960E+01 -0.36895864386E+02 -0.24882344126E+02  0.45045681866E+02  0.00000000000E+00 0. -1.
         11    1    3    3    0    0 -0.53216767091E+01  0.17014993715E+02  0.16858074365E+02  0.24536196235E+02  0.51100000000E-03 0. -1.
        -11    1    3    3    0    0 -0.67965695063E+00  0.76985506714E+01  0.42245005363E+01  0.88077250782E+01  0.51100000000E-03 0.  1.
         12    1    3    3    0    0 -0.97559953632E+00  0.12182319999E+02  0.37997692252E+01  0.12798396821E+02  0.00000000000E+00 0. -1.
</event>
<event>
 7    1  0.1445801E-008  0.4614232E+02  0.7816164E-02  0.1320468E+00
        -11   -1    0    0    0    0  0.00000000000E+00  0.00000000000E+00  0.45593999997E+02  0.45594000000E+02  0.51100000000E-03 0. -1.
         11   -1    0    0    0    0 -0.00000000000E+00 -0.00000000000E+00 -0.45593999997E+02  0.45594000000E+02  0.51100000000E-03 0.  1.
    9900012    2    1    2    0    0  0.20436228064E+02  0.35399592208E+01 -0.39986782280E+02  0.46142317789E+02  0.10000000256E+02 0.  0.
         12    1    1    2    0    0 -0.20436228064E+02 -0.35399592208E+01  0.39986782280E+02  0.45045682211E+02  0.00000000000E+00 0. -1.
         11    1    3    3    0    0  0.13529240899E+01 -0.13396428980E+01 -0.11502090420E+01  0.22244162804E+01  0.51100000000E-03 0.  1.
        -11    1    3    3    0    0  0.17733585693E+02  0.38963809999E+01 -0.37846935261E+02  0.41976807350E+02  0.51100000000E-03 0. -1.
         12    1    3    3    0    0  0.13497182809E+01  0.98322111896E+00 -0.98963797689E+00  0.19410941584E+01  0.00000000000E+00 0. -1.
</event>
<event>
 7    1  0.1445801E-008  0.4614232E+02  0.7816164E-02  0.1320468E+00
        -11   -1    0    0    0    0  0.00000000000E+00  0.00000000000E+00  0.45593999997E+02  0.45594000000E+02  0.51100000000E-03 0. -1.
         11   -1    0    0    0    0 -0.00000000000E+00 -0.00000000000E+00 -0.45593999997E+02  0.45594000000E+02  0.51100000000E-03 0.  1.
    9900012    2    1    2    0    0 -0.39725005758E+02  0.29581948204E+01 -0.21030609163E+02  0.46142317401E+02  0.99999967141E+01 0.  0.
         12    1    1    2    0    0  0.39725005758E+02 -0.29581948204E+01  0.21030609163E+02  0.45045682599E+02  0.00000000000E+00 0. -1.
         11    1    3    3    0    0 -0.12319309001E+02 -0.13173543410E+00 -0.82840551685E+01  0.14846154343E+02  0.51100000000E-03 0. -1.
        -11    1    3    3    0    0 -0.31928855417E+01  0.17899733123E+01 -0.42357602023E+01  0.55982307289E+01  0.51100000000E-03 0.  1.
        -12    1    3    3    0    0 -0.24212811215E+02  0.12999569422E+01 -0.85107937922E+01  0.25697932329E+02  0.00000000000E+00 0.  1.
</event>
<event>
 7    1  0.1445801E-008  0.4614232E+02  0.7816164E-02  0.1320468E+00
        -11   -1    0    0    0    0  0.00000000000E+00  0.00000000000E+00  0.45593999997E+02  0.45594000000E+02  0.51100000000E-03 0.  1.
         11   -1    0    0    0    0 -0.00000000000E+00 -0.00000000000E+00 -0.45593999997E+02  0.45594000000E+02  0.51100000000E-03 0. -1.
    9900012    2    1    2    0    0  0.17189659907E+02  0.45420968036E+01  0.41388386094E+02  0.46142317026E+02  0.99999932993E+01 0.  0.
         12    1    1    2    0    0 -0.17189659907E+02 -0.45420968036E+01 -0.41388386094E+02  0.45045682974E+02  0.00000000000E+00 0. -1.
         11    1    3    3    0    0  0.98961535044E+00  0.11666349058E+01  0.86847235303E+00  0.17591532152E+01  0.51100000000E-03 0. -1.
        -11    1    3    3    0    0  0.19009870240E+01  0.10568906692E+01  0.12095499826E+01  0.24887307957E+01  0.51100000000E-03 0.  1.
        -12    1    3    3    0    0  0.14299057533E+02  0.23185712286E+01  0.39310363758E+02  0.41894433015E+02  0.00000000000E+00 0.  1.
</event>
<event>
 7    1  0.1445801E-008  0.4614232E+02  0.7816164E-02  0.1320468E+00
        -11   -1    0    0    0    0  0.00000000000E+00  0.00000000000E+00  0.45593999997E+02  0.45594000000E+02  0.51100000000E-03 0. -1.
         11   -1    0    0    0    0 -0.00000000000E+00 -0.00000000000E+00 -0.45593999997E+02  0.45594000000E+02  0.51100000000E-03 0.  1.
    9900012    2    1    2    0    0  0.21914974984E+02 -0.33070240358E+02 -0.21335571097E+02  0.46142317410E+02  0.99999968013E+01 0.  0.
         12    1    1    2    0    0 -0.21914974984E+02  0.33070240358E+02  0.21335571097E+02  0.45045682590E+02  0.00000000000E+00 0. -1.
         11    1    3    3    0    0  0.22342541957E+01 -0.12875878564E+01  0.27918157019E+00  0.25937842835E+01  0.51100000000E-03 0. -1.
        -11    1    3    3    0    0  0.88010135043E+01 -0.16305113593E+02 -0.13687036501E+02  0.23035831577E+02  0.51100000000E-03 0.  1.
         12    1    3    3    0    0  0.10879707284E+02 -0.15477538909E+02 -0.79277161660E+01  0.20512701550E+02  0.00000000000E+00 0. -1.
</event>
<event>
 7    1  0.1445801E-008  0.4614232E+02  0.7816164E-02  0.1320468E+00
        -11   -1    0    0    0    0  0.00000000000E+00  0.00000000000E+00  0.45593999997E+02  0.45594000000E+02  0.51100000000E-03 0.  1.
         11   -1    0    0    0    0 -0.00000000000E+00 -0.00000000000E+00 -0.45593999997E+02  0.45594000000E+02  0.51100000000E-03 0. -1.
    9900012    2    1    2    0    0 -0.18990819057E+02  0.33403545713E+01  0.40710002665E+02  0.46142317698E+02  0.99999994219E+01 0.  0.
         12    1    1    2    0    0  0.18990819057E+02 -0.33403545713E+01 -0.40710002665E+02  0.45045682302E+02  0.00000000000E+00 0. -1.
         11    1    3    3    0    0 -0.94788883264E+01 -0.25791870579E+01  0.23906396527E+02  0.25846031126E+02  0.51100000000E-03 0. -1.
        -11    1    3    3    0    0 -0.48448895682E+01  0.35459087848E+01  0.73593872858E+01  0.94977368632E+01  0.51100000000E-03 0.  1.
        -12    1    3    3    0    0 -0.46670411629E+01  0.23736328443E+01  0.94442188517E+01  0.10798549709E+02  0.00000000000E+00 0.  1.
</event>
<event>
 7    1  0.1445801E-008  0.4614232E+02  0.7816164E-02  0.1320468E+00
        -11   -1    0    0    0    0  0.00000000000E+00  0.00000000000E+00  0.45593999997E+02  0.45594000000E+02  0.51100000000E-03 0.  1.
         11   -1    0    0    0    0 -0.00000000000E+00 -0.00000000000E+00 -0.45593999997E+02  0.45594000000E+02  0.51100000000E-03 0. -1.
    9900012    2    1    2    0    0  0.28493674643E+02 -0.14495844141E+02 -0.31734751284E+02  0.46142318397E+02  0.10000005797E+02 0.  0.
         12    1    1    2    0    0 -0.28493674643E+02  0.14495844141E+02  0.31734751284E+02  0.45045681603E+02  0.00000000000E+00 0. -1.
         11    1    3    3    0    0  0.26559352460E+01 -0.37226468846E+01 -0.49034778390E+01  0.67049375118E+01  0.51100000000E-03 0. -1.
        -11    1    3    3    0    0  0.86805146738E+01 -0.42561241667E+01 -0.48963850951E+01  0.10836997517E+02  0.51100000000E-03 0.  1.
         12    1    3    3    0    0  0.17157224724E+02 -0.65170730898E+01 -0.21934888350E+02  0.28600383368E+02  0.00000000000E+00 0. -1.
</event>
<event>
 7    1  0.1445801E-008  0.4614232E+02  0.7816164E-02  0.1320468E+00
        -11   -1    0    0    0    0  0.00000000000E+00  0.00000000000E+00  0.45593999997E+02  0.45594000000E+02  0.51100000000E-03 0. -1.
         11   -1    0    0    0    0 -0.00000000000E+00 -0.00000000000E+00 -0.45593999997E+02  0.45594000000E+02  0.51100000000E-03 0.  1.
    9900012    2    1    2    0    0  0.22106981275E+02  0.93878616346E+01 -0.38108566953E+02  0.46142318271E+02  0.10000004652E+02 0.  0.
         12    1    1    2    0    0 -0.22106981275E+02 -0.93878616346E+01  0.38108566953E+02  0.45045681729E+02  0.00000000000E+00 0. -1.
         11    1    3    3    0    0  0.18532730594E+01 -0.33466259300E+00 -0.66881207934E+01  0.69482069696E+01  0.51100000000E-03 0. -1.
        -11    1    3    3    0    0  0.43888493149E+00 -0.80838778312E+00 -0.19226817732E+01  0.21313883393E+01  0.51100000000E-03 0.  1.
        -12    1    3    3    0    0  0.19814823284E+02  0.10530912011E+02 -0.29497764387E+02  0.37062722962E+02  0.00000000000E+00 0.  1.
</event>
<event>
 7    1  0.1445801E-008  0.4614232E+02  0.7816164E-02  0.1320468E+00
        -11   -1    0    0    0    0  0.00000000000E+00  0.00000000000E+00  0.45593999997E+02  0.45594000000E+02  0.51100000000E-03 0.  1.
         11   -1    0    0    0    0 -0.00000000000E+00 -0.00000000000E+00 -0.45593999997E+02  0.45594000000E+02  0.51100000000E-03 0. -1.
    9900012    2    1    2    0    0 -0.33371203525E+02  0.20317854429E+01  0.30188542297E+02  0.46142318045E+02  0.10000002587E+02 0.  0.
         12    1    1    2    0    0  0.33371203525E+02 -0.20317854429E+01 -0.30188542297E+02  0.45045681955E+02  0.00000000000E+00 0. -1.
         11    1    3    3    0    0 -0.66379322562E+00  0.13659246812E+01  0.10781085011E+01  0.18624419138E+01  0.51100000000E-03 0. -1.
        -11    1    3    3    0    0 -0.32535622231E+02  0.95063435823E+00  0.27427862884E+02  0.42564751641E+02  0.51100000000E-03 0.  1.
        -12    1    3    3    0    0 -0.17178806845E+00 -0.28477359654E+00  0.16825709122E+01  0.17151244900E+01  0.00000000000E+00 0.  1.
</event>
<event>
 7    1  0.1445801E-008  0.4614232E+02  0.7816164E-02  0.1320468E+00
        -11   -1    0    0    0    0  0.00000000000E+00  0.00000000000E+00  0.45593999997E+02  0.45594000000E+02  0.51100000000E-03 0. -1.
         11   -1    0    0    0    0 -0.00000000000E+00 -0.00000000000E+00 -0.45593999997E+02  0.45594000000E+02  0.51100000000E-03 0.  1.
    9900012    2    1    2    0    0 -0.10269974023E+02  0.14877981319E+02 -0.41258777940E+02  0.46142318168E+02  0.10000003712E+02 0.  0.
         12    1    1    2    0    0  0.10269974023E+02 -0.14877981319E+02  0.41258777940E+02  0.45045681832E+02  0.00000000000E+00 0. -1.
         11    1    3    3    0    0  0.64377713743E+00  0.84822769515E+00  0.83555634196E-02  0.10648987285E+01  0.51100000000E-03 0. -1.
        -11    1    3    3    0    0 -0.65245484203E+01  0.10227138838E+02 -0.24620912598E+02  0.27447284717E+02  0.51100000000E-03 0.  1.
         12    1    3    3    0    0 -0.43892027398E+01  0.38026147856E+01 -0.16646220905E+02  0.17630134722E+02  0.00000000000E+00 0. -1.
</event>
<event>
 7    1  0.1445801E-008  0.4614232E+02  0.7816164E-02  0.1320468E+00
        -11   -1    0    0    0    0  0.00000000000E+00  0.00000000000E+00  0.45593999997E+02  0.45594000000E+02  0.51100000000E-03 0.  1.
         11   -1    0    0    0    0 -0.00000000000E+00 -0.00000000000E+00 -0.45593999997E+02  0.45594000000E+02  0.51100000000E-03 0. -1.
    9900012    2    1    2    0    0  0.47636175423E+01  0.11508542129E+02  0.43289432066E+02  0.46142317381E+02  0.99999965296E+01 0.  0.
         12    1    1    2    0    0 -0.47636175423E+01 -0.11508542129E+02 -0.43289432066E+02  0.45045682619E+02  0.00000000000E+00 0. -1.
         11    1    3    3    0    0 -0.16710498100E+01  0.20700077490E+01  0.43526395637E+01  0.51012558239E+01  0.51100000000E-03 0. -1.
        -11    1    3    3    0    0  0.76512569894E+01  0.84866514286E+01  0.34506637714E+02  0.36349319561E+02  0.51100000000E-03 0.  1.
        -12    1    3    3    0    0 -0.12165896371E+01  0.95188295128E+00  0.44301547888E+01  0.46917419953E+01  0.00000000000E+00 0.  1.
</event>
<event>
 7    1  0.1445801E-008  0.4614232E+02  0.7816164E-02  0.1320468E+00
        -11   -1    0    0    0    0  0.00000000000E+00  0.00000000000E+00  0.45593999997E+02  0.45594000000E+02  0.51100000000E-03 0.  1.
         11   -1    0    0    0    0 -0.00000000000E+00 -0.00000000000E+00 -0.45593999997E+02  0.45594000000E+02  0.51100000000E-03 0. -1.
    9900012    2    1    2    0    0 -0.14740123283E+00 -0.38322911391E+02 -0.23673744786E+02  0.46142318111E+02  0.10000003194E+02 0.  0.
         12    1    1    2    0    0  0.14740123283E+00  0.38322911391E+02  0.23673744786E+02  0.45045681889E+02  0.00000000000E+00 0. -1.
         11    1    3    3    0    0 -0.22984776114E+00 -0.53654423674E+01 -0.26087766276E+00  0.53766959378E+01  0.51100000000E-03 0. -1.
        -11    1    3    3    0    0 -0.15396700394E+00 -0.31821064449E+02 -0.23562344206E+02  0.39595301657E+02  0.51100000000E-03 0.  1.
        -12    1    3    3    0    0  0.23641353226E+00 -0.11364045742E+01  0.14947708235E+00  0.11703205171E+01  0.00000000000E+00 0.  1.
</event>
<event>
 7    1  0.1445801E-008  0.4614232E+02  0.7816164E-02  0.1320468E+00
        -11   -1    0    0    0    0  0.00000000000E+00  0.00000000000E+00  0.45593999997E+02  0.45594000000E+02  0.51100000000E-03 0.  1.
         11   -1    0    0    0    0 -0.00000000000E+00 -0.00000000000E+00 -0.45593999997E+02  0.45594000000E+02  0.51100000000E-03 0. -1.
    9900012    2    1    2    0    0  0.11622514284E+02 -0.37173579958E+02  0.22630855889E+02  0.46142317372E+02  0.99999964519E+01 0.  0.
         12    1    1    2    0    0 -0.11622514284E+02  0.37173579958E+02 -0.22630855889E+02  0.45045682628E+02  0.00000000000E+00 0. -1.
         11    1    3    3    0    0  0.49752137090E+01 -0.74723560453E+01  0.24758702364E+01  0.93122924142E+01  0.51100000000E-03 0. -1.
        -11    1    3    3    0    0  0.43305776564E+01 -0.26409852557E+02  0.18120760844E+02  0.32320213315E+02  0.51100000000E-03 0.  1.
        -12    1    3    3    0    0  0.23167229181E+01 -0.32913713559E+01  0.20342248082E+01  0.45098116427E+01  0.00000000000E+00 0.  1.
</event>
<event>
 7    1  0.1445801E-008  0.4614232E+02  0.7816164E-02  0.1320468E+00
        -11   -1    0    0    0    0  0.00000000000E+00  0.00000000000E+00  0.45593999997E+02  0.45594000000E+02  0.51100000000E-03 0.  1.
         11   -1    0    0    0    0 -0.00000000000E+00 -0.00000000000E+00 -0.45593999997E+02  0.45594000000E+02  0.51100000000E-03 0. -1.
    9900012    2    1    2    0    0  0.17987137854E+02 -0.18468348055E+02  0.36939091622E+02  0.46142317655E+02  0.99999990334E+01 0.  0.
         12    1    1    2    0    0 -0.17987137854E+02  0.18468348055E+02 -0.36939091622E+02  0.45045682345E+02  0.00000000000E+00 0. -1.
         11    1    3    3    0    0  0.14315339959E+02 -0.14181462088E+02  0.21783650755E+02  0.29674404216E+02  0.51100000000E-03 0. -1.
        -11    1    3    3    0    0  0.64450955130E+00 -0.25002257345E+01  0.39075584351E+01  0.46835386697E+01  0.51100000000E-03 0.  1.
         12    1    3    3    0    0  0.30272883433E+01 -0.17866602323E+01  0.11247882432E+02  0.11784374769E+02  0.00000000000E+00 0. -1.
</event>
<event>
 7    1  0.1445801E-008  0.4614232E+02  0.7816164E-02  0.1320468E+00
        -11   -1    0    0    0    0  0.00000000000E+00  0.00000000000E+00  0.45593999997E+02  0.45594000000E+02  0.51100000000E-03 0.  1.
         11   -1    0    0    0    0 -0.00000000000E+00 -0.00000000000E+00 -0.45593999997E+02  0.45594000000E+02  0.51100000000E-03 0. -1.
    9900012    2    1    2    0    0  0.72001614123E+01 -0.12584355123E+02  0.42648624260E+02  0.46142317970E+02  0.10000001908E+02 0.  0.
         12    1    1    2    0    0 -0.72001614123E+01  0.12584355123E+02 -0.42648624260E+02  0.45045682030E+02  0.00000000000E+00 0. -1.
         11    1    3    3    0    0  0.37922912177E+01 -0.31011689262E+00  0.16929512080E+02  0.17351830587E+02  0.51100000000E-03 0. -1.
        -11    1    3    3    0    0  0.20476103103E+01 -0.10526888237E+02  0.21411135869E+02  0.23946707986E+02  0.51100000000E-03 0.  1.
         12    1    3    3    0    0  0.13602598843E+01 -0.17473499939E+01  0.43079763112E+01  0.48437793975E+01  0.00000000000E+00 0. -1.
</event>
<event>
 7    1  0.1445801E-008  0.4614231E+02  0.7816164E-02  0.1320468E+00
        -11   -1    0    0    0    0  0.00000000000E+00  0.00000000000E+00  0.45593999997E+02  0.45594000000E+02  0.51100000000E-03 0.  1.
         11   -1    0    0    0    0 -0.00000000000E+00 -0.00000000000E+00 -0.45593999997E+02  0.45594000000E+02  0.51100000000E-03 0. -1.
    9900012    2    1    2    0    0 -0.10560844796E+02  0.40033668739E+02  0.17745097558E+02  0.46142305835E+02  0.99998912474E+01 0.  0.
         12    1    1    2    0    0  0.10560844796E+02 -0.40033668739E+02 -0.17745097558E+02  0.45045694165E+02  0.00000000000E+00 0. -1.
         11    1    3    3    0    0 -0.33954517602E+00  0.16568856365E+02  0.83976211428E+01  0.18578544972E+02  0.51100000000E-03 0. -1.
        -11    1    3    3    0    0 -0.21810244487E+01  0.18610850313E+01  0.77575433982E+00  0.29702357139E+01  0.51100000000E-03 0.  1.
         12    1    3    3    0    0 -0.80402751709E+01  0.21603727342E+02  0.85717220754E+01  0.24593525149E+02  0.00000000000E+00 0. -1.
</event>
<event>
 7    1  0.1445801E-008  0.4614232E+02  0.7816164E-02  0.1320468E+00
        -11   -1    0    0    0    0  0.00000000000E+00  0.00000000000E+00  0.45593999997E+02  0.45594000000E+02  0.51100000000E-03 0. -1.
         11   -1    0    0    0    0 -0.00000000000E+00 -0.00000000000E+00 -0.45593999997E+02  0.45594000000E+02  0.51100000000E-03 0.  1.
    9900012    2    1    2    0    0 -0.35149094397E+02  0.27331498344E+02 -0.68296285855E+01  0.46142318018E+02  0.10000002340E+02 0.  0.
         12    1    1    2    0    0  0.35149094397E+02 -0.27331498344E+02  0.68296285855E+01  0.45045681982E+02  0.00000000000E+00 0. -1.
         11    1    3    3    0    0 -0.10730608099E+02  0.44554985125E+01  0.11591683319E+01  0.11676518687E+02  0.51100000000E-03 0. -1.
        -11    1    3    3    0    0 -0.89282110759E+01  0.90984507243E+01 -0.21406784079E+01  0.12925837029E+02  0.51100000000E-03 0.  1.
         12    1    3    3    0    0 -0.15490275222E+02  0.13777549107E+02 -0.58481185095E+01  0.21539962301E+02  0.00000000000E+00 0. -1.
</event>
<event>
 7    1  0.1445801E-008  0.4614232E+02  0.7816164E-02  0.1320468E+00
        -11   -1    0    0    0    0  0.00000000000E+00  0.00000000000E+00  0.45593999997E+02  0.45594000000E+02  0.51100000000E-03 0.  1.
         11   -1    0    0    0    0 -0.00000000000E+00 -0.00000000000E+00 -0.45593999997E+02  0.45594000000E+02  0.51100000000E-03 0. -1.
    9900012    2    1    2    0    0  0.30137211413E+02 -0.11113341181E+02  0.31580935370E+02  0.46142319377E+02  0.10000014731E+02 0.  0.
         12    1    1    2    0    0 -0.30137211413E+02  0.11113341181E+02 -0.31580935370E+02  0.45045680623E+02  0.00000000000E+00 0. -1.
         11    1    3    3    0    0  0.48086204573E+01  0.54584791619E+00  0.86216910191E+01  0.98870792927E+01  0.51100000000E-03 0. -1.
        -11    1    3    3    0    0  0.12558403374E+02 -0.74737676700E+01  0.11570456770E+02  0.18639907957E+02  0.51100000000E-03 0.  1.
         12    1    3    3    0    0  0.12770187582E+02 -0.41854214269E+01  0.11388787581E+02  0.17615332127E+02  0.00000000000E+00 0. -1.
</event>
<event>
 7    1  0.1445801E-008  0.4614232E+02  0.7816164E-02  0.1320468E+00
        -11   -1    0    0    0    0  0.00000000000E+00  0.00000000000E+00  0.45593999997E+02  0.45594000000E+02  0.51100000000E-03 0.  1.
         11   -1    0    0    0    0 -0.00000000000E+00 -0.00000000000E+00 -0.45593999997E+02  0.45594000000E+02  0.51100000000E-03 0. -1.
    9900012    2    1    2    0    0 -0.21528606036E+02  0.10535133081E+02  0.38139789571E+02  0.46142318127E+02  0.10000003338E+02 0.  0.
         12    1    1    2    0    0  0.21528606036E+02 -0.10535133081E+02 -0.38139789571E+02  0.45045681873E+02  0.00000000000E+00 0. -1.
         11    1    3    3    0    0 -0.12819932670E+02  0.54600737878E+01  0.19777652131E+02  0.24193358665E+02  0.51100000000E-03 0. -1.
        -11    1    3    3    0    0 -0.73256895108E+01  0.13770395045E+01  0.15052819191E+02  0.16797301285E+02  0.51100000000E-03 0.  1.
         12    1    3    3    0    0 -0.13829838555E+01  0.36980197882E+01  0.33093182489E+01  0.51516581768E+01  0.00000000000E+00 0. -1.
</event>
<event>
 7    1  0.1445801E-008  0.4614232E+02  0.7816164E-02  0.1320468E+00
        -11   -1    0    0    0    0  0.00000000000E+00  0.00000000000E+00  0.45593999997E+02  0.45594000000E+02  0.51100000000E-03 0.  1.
         11   -1    0    0    0    0 -0.00000000000E+00 -0.00000000000E+00 -0.45593999997E+02  0.45594000000E+02  0.51100000000E-03 0. -1.
    9900012    2    1    2    0    0 -0.44408513887E+02  0.31449822827E+01 -0.68634160039E+01  0.46142317649E+02  0.99999989782E+01 0.  0.
         12    1    1    2    0    0  0.44408513887E+02 -0.31449822827E+01  0.68634160039E+01  0.45045682351E+02  0.00000000000E+00 0. -1.
         11    1    3    3    0    0 -0.93663787865E+01  0.33354485934E+01  0.64060200720E+00  0.99631641603E+01  0.51100000000E-03 0. -1.
        -11    1    3    3    0    0 -0.33917664582E+02  0.74531992861E+00 -0.70901406858E+01  0.34658816595E+02  0.51100000000E-03 0.  1.
         12    1    3    3    0    0 -0.11244705181E+01 -0.93578623928E+00 -0.41387732527E+00  0.15203368943E+01  0.00000000000E+00 0. -1.
</event>
<event>
 7    1  0.1445801E-008  0.4614232E+02  0.7816164E-02  0.1320468E+00
        -11   -1    0    0    0    0  0.00000000000E+00  0.00000000000E+00  0.45593999997E+02  0.45594000000E+02  0.51100000000E-03 0.  1.
         11   -1    0    0    0    0 -0.00000000000E+00 -0.00000000000E+00 -0.45593999997E+02  0.45594000000E+02  0.51100000000E-03 0. -1.
    9900012    2    1    2    0    0  0.14540021938E+02 -0.11945373741E+02  0.40926877925E+02  0.46142317316E+02  0.99999959422E+01 0.  0.
         12    1    1    2    0    0 -0.14540021938E+02  0.11945373741E+02 -0.40926877925E+02  0.45045682684E+02  0.00000000000E+00 0. -1.
         11    1    3    3    0    0 -0.41114117788E+00 -0.31788045046E+00 -0.99944516009E-01  0.52922038541E+00  0.51100000000E-03 0. -1.
        -11    1    3    3    0    0  0.15358722794E+02 -0.10236488291E+02  0.38609579938E+02  0.42794575844E+02  0.51100000000E-03 0.  1.
        -12    1    3    3    0    0 -0.40755967778E+00 -0.13910049997E+01  0.24172425030E+01  0.28185210871E+01  0.00000000000E+00 0.  1.
</event>
<event>
 7    1  0.1445801E-008  0.4614232E+02  0.7816164E-02  0.1320468E+00
        -11   -1    0    0    0    0  0.00000000000E+00  0.00000000000E+00  0.45593999997E+02  0.45594000000E+02  0.51100000000E-03 0.  1.
         11   -1    0    0    0    0 -0.00000000000E+00 -0.00000000000E+00 -0.45593999997E+02  0.45594000000E+02  0.51100000000E-03 0. -1.
    9900012    2    1    2    0    0  0.50547772636E+01 -0.44304764864E+02 -0.63757666658E+01  0.46142319148E+02  0.10000012650E+02 0.  0.
         12    1    1    2    0    0 -0.50547772636E+01  0.44304764864E+02  0.63757666658E+01  0.45045680852E+02  0.00000000000E+00 0. -1.
         11    1    3    3    0    0  0.47056464780E-01 -0.76156053592E+01 -0.61183346665E-02  0.76157532125E+01  0.51100000000E-03 0. -1.
        -11    1    3    3    0    0 -0.59083057527E+00 -0.73490507259E+00 -0.15595897028E+01  0.18224945917E+01  0.51100000000E-03 0.  1.
        -12    1    3    3    0    0  0.55985513741E+01 -0.35954254432E+02 -0.48100586283E+01  0.36704071344E+02  0.00000000000E+00 0.  1.
</event>
<event>
 7    1  0.1445801E-008  0.4614232E+02  0.7816164E-02  0.1320468E+00
        -11   -1    0    0    0    0  0.00000000000E+00  0.00000000000E+00  0.45593999997E+02  0.45594000000E+02  0.51100000000E-03 0.  1.
         11   -1    0    0    0    0 -0.00000000000E+00 -0.00000000000E+00 -0.45593999997E+02  0.45594000000E+02  0.51100000000E-03 0. -1.
    9900012    2    1    2    0    0 -0.40049973025E+02  0.10937828500E+02  0.17477902645E+02  0.46142317494E+02  0.99999975642E+01 0.  0.
         12    1    1    2    0    0  0.40049973025E+02 -0.10937828500E+02 -0.17477902645E+02  0.45045682506E+02  0.00000000000E+00 0. -1.
         11    1    3    3    0    0 -0.41591733888E+00  0.19145030656E+00 -0.74700079353E+00  0.87615689195E+00  0.51100000000E-03 0. -1.
        -11    1    3    3    0    0 -0.28248501631E+02  0.73657813355E+01  0.10162476527E+02  0.30911300660E+02  0.51100000000E-03 0.  1.
        -12    1    3    3    0    0 -0.11385554055E+02  0.33805968579E+01  0.80624269115E+01  0.14354859942E+02  0.00000000000E+00 0.  1.
</event>
<event>
 7    1  0.1445801E-008  0.4614232E+02  0.7816164E-02  0.1320468E+00
        -11   -1    0    0    0    0  0.00000000000E+00  0.00000000000E+00  0.45593999997E+02  0.45594000000E+02  0.51100000000E-03 0. -1.
         11   -1    0    0    0    0 -0.00000000000E+00 -0.00000000000E+00 -0.45593999997E+02  0.45594000000E+02  0.51100000000E-03 0.  1.
    9900012    2    1    2    0    0 -0.21897991215E+02 -0.31301701640E+02  0.23870378120E+02  0.46142317672E+02  0.99999991866E+01 0.  0.
         12    1    1    2    0    0  0.21897991215E+02  0.31301701640E+02 -0.23870378120E+02  0.45045682328E+02  0.00000000000E+00 0. -1.
         11    1    3    3    0    0 -0.50724288072E+01 -0.13460956525E+02  0.61635548636E+01  0.15649801704E+02  0.51100000000E-03 0. -1.
        -11    1    3    3    0    0 -0.12881318869E+02 -0.11067089748E+02  0.11869865198E+02  0.20719617549E+02  0.51100000000E-03 0.  1.
         12    1    3    3    0    0 -0.39442435390E+01 -0.67736553669E+01  0.58369580585E+01  0.97728984187E+01  0.00000000000E+00 0. -1.
</event>
<event>
 7    1  0.1445801E-008  0.4614232E+02  0.7816164E-02  0.1320468E+00
        -11   -1    0    0    0    0  0.00000000000E+00  0.00000000000E+00  0.45593999997E+02  0.45594000000E+02  0.51100000000E-03 0.  1.
         11   -1    0    0    0    0 -0.00000000000E+00 -0.00000000000E+00 -0.45593999997E+02  0.45594000000E+02  0.51100000000E-03 0. -1.
    9900012    2    1    2    0    0 -0.70891826775E+01  0.27647175118E+02  0.34849543131E+02  0.46142318082E+02  0.10000002924E+02 0.  0.
         12    1    1    2    0    0  0.70891826775E+01 -0.27647175118E+02 -0.34849543131E+02  0.45045681918E+02  0.00000000000E+00 0. -1.
         11    1    3    3    0    0 -0.59808847606E+01  0.15019982628E+02  0.22211767866E+02  0.27472413303E+02  0.51100000000E-03 0. -1.
        -11    1    3    3    0    0  0.14127111680E+01  0.98769787953E+01  0.97686438428E+01  0.13963411680E+02  0.51100000000E-03 0.  1.
        -12    1    3    3    0    0 -0.25210090849E+01  0.27502136950E+01  0.28691314216E+01  0.47064930988E+01  0.00000000000E+00 0.  1.
</event>
<event>
 7    1  0.1445801E-008  0.4614232E+02  0.7816164E-02  0.1320468E+00
        -11   -1    0    0    0    0  0.00000000000E+00  0.00000000000E+00  0.45593999997E+02  0.45594000000E+02  0.51100000000E-03 0. -1.
         11   -1    0    0    0    0 -0.00000000000E+00 -0.00000000000E+00 -0.45593999997E+02  0.45594000000E+02  0.51100000000E-03 0.  1.
    9900012    2    1    2    0    0 -0.30446786648E+02 -0.26099406107E+02 -0.20516522277E+02  0.46142317602E+02  0.99999985528E+01 0.  0.
         12    1    1    2    0    0  0.30446786648E+02  0.26099406107E+02  0.20516522277E+02  0.45045682398E+02  0.00000000000E+00 0. -1.
         11    1    3    3    0    0 -0.93332045234E+01 -0.76887712599E+01 -0.93046432865E+01  0.15257860175E+02  0.51100000000E-03 0. -1.
        -11    1    3    3    0    0 -0.50114207673E+00 -0.15419257392E+01 -0.22678693622E+01  0.27878145690E+01  0.51100000000E-03 0.  1.
         12    1    3    3    0    0 -0.20612440048E+02 -0.16868709108E+02 -0.89440096281E+01  0.28096642859E+02  0.00000000000E+00 0. -1.
</event>
<event>
 7    1  0.1445801E-008  0.4614232E+02  0.7816164E-02  0.1320468E+00
        -11   -1    0    0    0    0  0.00000000000E+00  0.00000000000E+00  0.45593999997E+02  0.45594000000E+02  0.51100000000E-03 0.  1.
         11   -1    0    0    0    0 -0.00000000000E+00 -0.00000000000E+00 -0.45593999997E+02  0.45594000000E+02  0.51100000000E-03 0. -1.
    9900012    2    1    2    0    0 -0.49635643979E+01 -0.38674059981E+02  0.22556456200E+02  0.46142316486E+02  0.99999883710E+01 0.  0.
         12    1    1    2    0    0  0.49635643979E+01  0.38674059981E+02 -0.22556456200E+02  0.45045683514E+02  0.00000000000E+00 0. -1.
         11    1    3    3    0    0 -0.29345642241E+01 -0.13653396041E+02  0.56352481006E+01  0.15059313134E+02  0.51100000000E-03 0. -1.
        -11    1    3    3    0    0 -0.97578050048E-01 -0.15761122686E+01  0.38730379607E+01  0.41825918597E+01  0.51100000000E-03 0.  1.
        -12    1    3    3    0    0 -0.19314221238E+01 -0.23444551671E+02  0.13048170139E+02  0.26900411492E+02  0.00000000000E+00 0.  1.
</event>
<event>
 7    1  0.1445801E-008  0.4614232E+02  0.7816164E-02  0.1320468E+00
        -11   -1    0    0    0    0  0.00000000000E+00  0.00000000000E+00  0.45593999997E+02  0.45594000000E+02  0.51100000000E-03 0. -1.
         11   -1    0    0    0    0 -0.00000000000E+00 -0.00000000000E+00 -0.45593999997E+02  0.45594000000E+02  0.51100000000E-03 0.  1.
    9900012    2    1    2    0    0  0.38881291567E+01 -0.39186429188E+02 -0.21872807055E+02  0.46142317972E+02  0.10000001927E+02 0.  0.
         12    1    1    2    0    0 -0.38881291567E+01  0.39186429188E+02  0.21872807055E+02  0.45045682028E+02  0.00000000000E+00 0. -1.
         11    1    3    3    0    0  0.21294876074E+01 -0.28913043436E+01 -0.26719531899E+01  0.44759012933E+01  0.51100000000E-03 0. -1.
        -11    1    3    3    0    0  0.27639818923E+01 -0.35203704827E+02 -0.19174916383E+02  0.40182307649E+02  0.51100000000E-03 0.  1.
        -12    1    3    3    0    0 -0.10053403429E+01 -0.10914200181E+01 -0.25937481772E-01  0.14841090303E+01  0.00000000000E+00 0.  1.
</event>
<event>
 7    1  0.1445801E-008  0.4614232E+02  0.7816164E-02  0.1320468E+00
        -11   -1    0    0    0    0  0.00000000000E+00  0.00000000000E+00  0.45593999997E+02  0.45594000000E+02  0.51100000000E-03 0.  1.
         11   -1    0    0    0    0 -0.00000000000E+00 -0.00000000000E+00 -0.45593999997E+02  0.45594000000E+02  0.51100000000E-03 0. -1.
    9900012    2    1    2    0    0  0.34791775284E+02  0.23188393278E+02  0.16761392510E+02  0.46142317753E+02  0.99999999253E+01 0.  0.
         12    1    1    2    0    0 -0.34791775284E+02 -0.23188393278E+02 -0.16761392510E+02  0.45045682247E+02  0.00000000000E+00 0. -1.
         11    1    3    3    0    0  0.34506989254E+02  0.20569027122E+02  0.15691081783E+02  0.43128033017E+02  0.51100000000E-03 0.  1.
        -11    1    3    3    0    0 -0.19969714525E+00  0.43118072582E+00 -0.10053138210E+00  0.48569804205E+00  0.51100000000E-03 0. -1.
        -12    1    3    3    0    0  0.48448317514E+00  0.21881854303E+01  0.11708421091E+01  0.25285866939E+01  0.00000000000E+00 0.  1.
</event>
<event>
 7    1  0.1445801E-008  0.4614232E+02  0.7816164E-02  0.1320468E+00
        -11   -1    0    0    0    0  0.00000000000E+00  0.00000000000E+00  0.45593999997E+02  0.45594000000E+02  0.51100000000E-03 0.  1.
         11   -1    0    0    0    0 -0.00000000000E+00 -0.00000000000E+00 -0.45593999997E+02  0.45594000000E+02  0.51100000000E-03 0. -1.
    9900012    2    1    2    0    0  0.16951577216E+02 -0.10375236623E+02  0.40424151557E+02  0.46142317253E+02  0.99999953624E+01 0.  0.
         12    1    1    2    0    0 -0.16951577216E+02  0.10375236623E+02 -0.40424151557E+02  0.45045682747E+02  0.00000000000E+00 0. -1.
         11    1    3    3    0    0  0.98376799877E+01 -0.73263610440E+01  0.19910930203E+02  0.23385907199E+02  0.51100000000E-03 0. -1.
        -11    1    3    3    0    0  0.45012513247E+01 -0.14107856418E+01  0.18456426608E+02  0.19049705063E+02  0.51100000000E-03 0.  1.
        -12    1    3    3    0    0  0.26126459032E+01 -0.16380899376E+01  0.20567947460E+01  0.37067049905E+01  0.00000000000E+00 0.  1.
</event>
<event>
 7    1  0.1445801E-008  0.4614232E+02  0.7816164E-02  0.1320468E+00
        -11   -1    0    0    0    0  0.00000000000E+00  0.00000000000E+00  0.45593999997E+02  0.45594000000E+02  0.51100000000E-03 0.  1.
         11   -1    0    0    0    0 -0.00000000000E+00 -0.00000000000E+00 -0.45593999997E+02  0.45594000000E+02  0.51100000000E-03 0. -1.
    9900012    2    1    2    0    0 -0.34164686888E+01  0.12430112220E+02  0.43161713848E+02  0.46142317739E+02  0.99999997942E+01 0.  0.
         12    1    1    2    0    0  0.34164686888E+01 -0.12430112220E+02 -0.43161713848E+02  0.45045682261E+02  0.00000000000E+00 0. -1.
         11    1    3    3    0    0 -0.47894998696E+01  0.54682733794E+01  0.13374129127E+02  0.15221979270E+02  0.51100000000E-03 0. -1.
        -11    1    3    3    0    0  0.20948870536E+01  0.55367655645E+01  0.16360730318E+02  0.17398787931E+02  0.51100000000E-03 0.  1.
        -12    1    3    3    0    0 -0.72185587285E+00  0.14250732756E+01  0.13426854404E+02  0.13521550537E+02  0.00000000000E+00 0.  1.
</event>
<event>
 7    1  0.1445801E-008  0.4614232E+02  0.7816164E-02  0.1320468E+00
        -11   -1    0    0    0    0  0.00000000000E+00  0.00000000000E+00  0.45593999997E+02  0.45594000000E+02  0.51100000000E-03 0.  1.
         11   -1    0    0    0    0 -0.00000000000E+00 -0.00000000000E+00 -0.45593999997E+02  0.45594000000E+02  0.51100000000E-03 0. -1.
    9900012    2    1    2    0    0  0.40398459441E+02  0.19000373697E+02 -0.60053127457E+01  0.46142317554E+02  0.99999981128E+01 0.  0.
         12    1    1    2    0    0 -0.40398459441E+02 -0.19000373697E+02  0.60053127457E+01  0.45045682446E+02  0.00000000000E+00 0. -1.
         11    1    3    3    0    0  0.12284134756E+02  0.22978232046E+01  0.34371514936E+00  0.12501923794E+02  0.51100000000E-03 0. -1.
        -11    1    3    3    0    0  0.16522809606E+02  0.91272400377E+01 -0.59337333716E+01  0.19786837544E+02  0.51100000000E-03 0.  1.
         12    1    3    3    0    0  0.11591515079E+02  0.75753104548E+01 -0.41529452348E+00  0.13853556217E+02  0.00000000000E+00 0. -1.
</event>
<event>
 7    1  0.1445801E-008  0.4614232E+02  0.7816164E-02  0.1320468E+00
        -11   -1    0    0    0    0  0.00000000000E+00  0.00000000000E+00  0.45593999997E+02  0.45594000000E+02  0.51100000000E-03 0.  1.
         11   -1    0    0    0    0 -0.00000000000E+00 -0.00000000000E+00 -0.45593999997E+02  0.45594000000E+02  0.51100000000E-03 0. -1.
    9900012    2    1    2    0    0  0.32973484932E+02 -0.20529978589E+02  0.22811899117E+02  0.46142317957E+02  0.10000001782E+02 0.  0.
         12    1    1    2    0    0 -0.32973484932E+02  0.20529978589E+02 -0.22811899117E+02  0.45045682043E+02  0.00000000000E+00 0. -1.
         11    1    3    3    0    0  0.75559272844E+01 -0.70927835945E+01  0.61000832487E+01  0.12025416090E+02  0.51100000000E-03 0. -1.
        -11    1    3    3    0    0  0.16018678949E+02 -0.76271314315E+01  0.14347376163E+02  0.22817064057E+02  0.51100000000E-03 0.  1.
         12    1    3    3    0    0  0.93988786982E+01 -0.58100635633E+01  0.23644397055E+01  0.11299837809E+02  0.00000000000E+00 0. -1.
</event>
<event>
 7    1  0.1445801E-008  0.4614232E+02  0.7816164E-02  0.1320468E+00
        -11   -1    0    0    0    0  0.00000000000E+00  0.00000000000E+00  0.45593999997E+02  0.45594000000E+02  0.51100000000E-03 0.  1.
         11   -1    0    0    0    0 -0.00000000000E+00 -0.00000000000E+00 -0.45593999997E+02  0.45594000000E+02  0.51100000000E-03 0. -1.
    9900012    2    1    2    0    0  0.23163446760E+02  0.29990329326E+02  0.24354636667E+02  0.46142318230E+02  0.10000004280E+02 0.  0.
         12    1    1    2    0    0 -0.23163446760E+02 -0.29990329326E+02 -0.24354636667E+02  0.45045681770E+02  0.00000000000E+00 0. -1.
         11    1    3    3    0    0  0.19269574820E+02  0.26871793289E+02  0.22321855438E+02  0.39895802019E+02  0.51100000000E-03 0.  1.
        -11    1    3    3    0    0  0.61577423508E+00  0.88571228327E+00 -0.82489697198E+00  0.13579835908E+01  0.51100000000E-03 0. -1.
        -12    1    3    3    0    0  0.32780977053E+01  0.22328237541E+01  0.28576782011E+01  0.48885326207E+01  0.00000000000E+00 0.  1.
</event>
<event>
 7    1  0.1445801E-008  0.4614232E+02  0.7816164E-02  0.1320468E+00
        -11   -1    0    0    0    0  0.00000000000E+00  0.00000000000E+00  0.45593999997E+02  0.45594000000E+02  0.51100000000E-03 0.  1.
         11   -1    0    0    0    0 -0.00000000000E+00 -0.00000000000E+00 -0.45593999997E+02  0.45594000000E+02  0.51100000000E-03 0. -1.
    9900012    2    1    2    0    0 -0.25881225334E+02 -0.22130333990E+02  0.29487689579E+02  0.46142319363E+02  0.10000014608E+02 0.  0.
         12    1    1    2    0    0  0.25881225334E+02  0.22130333990E+02 -0.29487689579E+02  0.45045680637E+02  0.00000000000E+00 0. -1.
         11    1    3    3    0    0 -0.50839741837E+01 -0.93659995142E+01  0.90242026849E+01  0.13964418168E+02  0.51100000000E-03 0. -1.
        -11    1    3    3    0    0 -0.13498708071E+02 -0.10203055036E+02  0.15770525803E+02  0.23130649278E+02  0.51100000000E-03 0.  1.
         12    1    3    3    0    0 -0.72985430798E+01 -0.25612794397E+01  0.46929610913E+01  0.90472519176E+01  0.00000000000E+00 0. -1.
</event>
<event>
 7    1  0.1445801E-008  0.4614232E+02  0.7816164E-02  0.1320468E+00
        -11   -1    0    0    0    0  0.00000000000E+00  0.00000000000E+00  0.45593999997E+02  0.45594000000E+02  0.51100000000E-03 0. -1.
         11   -1    0    0    0    0 -0.00000000000E+00 -0.00000000000E+00 -0.45593999997E+02  0.45594000000E+02  0.51100000000E-03 0.  1.
    9900012    2    1    2    0    0  0.40739230848E+01  0.20669195421E+02 -0.39815838821E+02  0.46142317525E+02  0.99999978447E+01 0.  0.
         12    1    1    2    0    0 -0.40739230848E+01 -0.20669195421E+02  0.39815838821E+02  0.45045682475E+02  0.00000000000E+00 0. -1.
         11    1    3    3    0    0 -0.40698261030E+00  0.18528045025E+01 -0.86591291680E+01  0.88644817998E+01  0.51100000000E-03 0. -1.
        -11    1    3    3    0    0  0.26517715663E+01  0.18352360961E+02 -0.27582587876E+02  0.33236127925E+02  0.51100000000E-03 0.  1.
        -12    1    3    3    0    0  0.18291341288E+01  0.46402995826E+00 -0.35741217770E+01  0.40417077999E+01  0.00000000000E+00 0.  1.
</event>
<event>
 7    1  0.1445801E-008  0.4614232E+02  0.7816164E-02  0.1320468E+00
        -11   -1    0    0    0    0  0.00000000000E+00  0.00000000000E+00  0.45593999997E+02  0.45594000000E+02  0.51100000000E-03 0.  1.
         11   -1    0    0    0    0 -0.00000000000E+00 -0.00000000000E+00 -0.45593999997E+02  0.45594000000E+02  0.51100000000E-03 0. -1.
    9900012    2    1    2    0    0 -0.76754661457E+01  0.60377611407E+01  0.43974381411E+02  0.46142316959E+02  0.99999926896E+01 0.  0.
         12    1    1    2    0    0  0.76754661457E+01 -0.60377611407E+01 -0.43974381411E+02  0.45045683041E+02  0.00000000000E+00 0. -1.
         11    1    3    3    0    0  0.49741122698E+00  0.25126900346E+01  0.23020671533E+01  0.34439138459E+01  0.51100000000E-03 0. -1.
        -11    1    3    3    0    0 -0.44981651988E+01  0.33066001154E+01  0.27022519968E+02  0.27593181770E+02  0.51100000000E-03 0.  1.
         12    1    3    3    0    0 -0.36747121740E+01  0.21847099080E+00  0.14649794289E+02  0.15105221344E+02  0.00000000000E+00 0. -1.
</event>
<event>
 7    1  0.1445801E-008  0.4614232E+02  0.7816164E-02  0.1320468E+00
        -11   -1    0    0    0    0  0.00000000000E+00  0.00000000000E+00  0.45593999997E+02  0.45594000000E+02  0.51100000000E-03 0. -1.
         11   -1    0    0    0    0 -0.00000000000E+00 -0.00000000000E+00 -0.45593999997E+02  0.45594000000E+02  0.51100000000E-03 0.  1.
    9900012    2    1    2    0    0  0.43192526463E+02 -0.11576156095E+02 -0.54324720789E+01  0.46142317797E+02  0.10000000330E+02 0.  0.
         12    1    1    2    0    0 -0.43192526463E+02  0.11576156095E+02  0.54324720789E+01  0.45045682203E+02  0.00000000000E+00 0. -1.
         11    1    3    3    0    0  0.22548269317E+02 -0.93956785734E+01  0.23791138677E+00  0.24428668141E+02  0.51100000000E-03 0. -1.
        -11    1    3    3    0    0  0.17202236205E+02 -0.26631066029E+01 -0.54088552090E+01  0.18228131614E+02  0.51100000000E-03 0.  1.
         12    1    3    3    0    0  0.34420209413E+01  0.48262908143E+00 -0.26152825661E+00  0.34855180418E+01  0.00000000000E+00 0. -1.
</event>
<event>
 7    1  0.1445801E-008  0.4614232E+02  0.7816164E-02  0.1320468E+00
        -11   -1    0    0    0    0  0.00000000000E+00  0.00000000000E+00  0.45593999997E+02  0.45594000000E+02  0.51100000000E-03 0. -1.
         11   -1    0    0    0    0 -0.00000000000E+00 -0.00000000000E+00 -0.45593999997E+02  0.45594000000E+02  0.51100000000E-03 0.  1.
    9900012    2    1    2    0    0 -0.37940453993E+02  0.23677187617E+02  0.53876198575E+01  0.46142315297E+02  0.99999775277E+01 0.  0.
         12    1    1    2    0    0  0.37940453993E+02 -0.23677187617E+02 -0.53876198575E+01  0.45045684703E+02  0.00000000000E+00 0. -1.
         11    1    3    3    0    0 -0.17072107810E+01 -0.58749468230E-01 -0.14086219518E+01  0.22140994139E+01  0.51100000000E-03 0. -1.
        -11    1    3    3    0    0 -0.27740649262E+02  0.16802463199E+02  0.53165669868E+01  0.32865365901E+02  0.51100000000E-03 0.  1.
         12    1    3    3    0    0 -0.84925939499E+01  0.69334738868E+01  0.14796748225E+01  0.11062849982E+02  0.00000000000E+00 0. -1.
</event>
<event>
 7    1  0.1445801E-008  0.4614232E+02  0.7816164E-02  0.1320468E+00
        -11   -1    0    0    0    0  0.00000000000E+00  0.00000000000E+00  0.45593999997E+02  0.45594000000E+02  0.51100000000E-03 0.  1.
         11   -1    0    0    0    0 -0.00000000000E+00 -0.00000000000E+00 -0.45593999997E+02  0.45594000000E+02  0.51100000000E-03 0. -1.
    9900012    2    1    2    0    0  0.21083052211E+02  0.28979181604E+02  0.27291484360E+02  0.46142321233E+02  0.10000031661E+02 0.  0.
         12    1    1    2    0    0 -0.21083052211E+02 -0.28979181604E+02 -0.27291484360E+02  0.45045678767E+02  0.00000000000E+00 0. -1.
         11    1    3    3    0    0  0.41336146955E+01  0.10070508062E+02  0.11599311242E+02  0.15907417283E+02  0.51100000000E-03 0. -1.
        -11    1    3    3    0    0  0.67759722572E+01  0.84023810137E+01  0.40020537625E+01  0.11512177957E+02  0.51100000000E-03 0.  1.
         12    1    3    3    0    0  0.10173465258E+02  0.10506292529E+02  0.11690119356E+02  0.18722725993E+02  0.00000000000E+00 0. -1.
</event>
<event>
 7    1  0.1445801E-008  0.4614232E+02  0.7816164E-02  0.1320468E+00
        -11   -1    0    0    0    0  0.00000000000E+00  0.00000000000E+00  0.45593999997E+02  0.45594000000E+02  0.51100000000E-03 0.  1.
         11   -1    0    0    0    0 -0.00000000000E+00 -0.00000000000E+00 -0.45593999997E+02  0.45594000000E+02  0.51100000000E-03 0. -1.
    9900012    2    1    2    0    0 -0.91602095360E+01 -0.40391921956E+02  0.17711485350E+02  0.46142317506E+02  0.99999976735E+01 0.  0.
         12    1    1    2    0    0  0.91602095360E+01  0.40391921956E+02 -0.17711485350E+02  0.45045682494E+02  0.00000000000E+00 0. -1.
         11    1    3    3    0    0 -0.39528636529E+00 -0.86188842513E+00 -0.77260648738E+00  0.12231206046E+01  0.51100000000E-03 0. -1.
        -11    1    3    3    0    0 -0.52465350452E+01 -0.11422795664E+02  0.66410067756E+01  0.14216517225E+02  0.51100000000E-03 0.  1.
        -12    1    3    3    0    0 -0.35183881255E+01 -0.28107237867E+02  0.11843085062E+02  0.30702679676E+02  0.00000000000E+00 0.  1.
</event>
<event>
 7    1  0.1445801E-008  0.4614231E+02  0.7816164E-02  0.1320468E+00
        -11   -1    0    0    0    0  0.00000000000E+00  0.00000000000E+00  0.45593999997E+02  0.45594000000E+02  0.51100000000E-03 0. -1.
         11   -1    0    0    0    0 -0.00000000000E+00 -0.00000000000E+00 -0.45593999997E+02  0.45594000000E+02  0.51100000000E-03 0.  1.
    9900012    2    1    2    0    0  0.20443869127E+02 -0.39654727982E+02  0.62180877470E+01  0.46142313731E+02  0.99999632494E+01 0.  0.
         12    1    1    2    0    0 -0.20443869127E+02  0.39654727982E+02 -0.62180877470E+01  0.45045686269E+02  0.00000000000E+00 0. -1.
         11    1    3    3    0    0  0.88769415910E+01 -0.12728628258E+02  0.52386556720E+01  0.16378692953E+02  0.51100000000E-03 0.  1.
        -11    1    3    3    0    0  0.38429260194E+01 -0.57308362992E+01 -0.15240036904E+01  0.70663394051E+01  0.51100000000E-03 0. -1.
        -12    1    3    3    0    0  0.77240015163E+01 -0.21195263425E+02  0.25034357654E+01  0.22697281372E+02  0.00000000000E+00 0.  1.
</event>
<event>
 7    1  0.1445801E-008  0.4614232E+02  0.7816164E-02  0.1320468E+00
        -11   -1    0    0    0    0  0.00000000000E+00  0.00000000000E+00  0.45593999997E+02  0.45594000000E+02  0.51100000000E-03 0. -1.
         11   -1    0    0    0    0 -0.00000000000E+00 -0.00000000000E+00 -0.45593999997E+02  0.45594000000E+02  0.51100000000E-03 0.  1.
    9900012    2    1    2    0    0 -0.83445307487E+00  0.35730307412E+02 -0.27418283572E+02  0.46142318145E+02  0.10000003505E+02 0.  0.
         12    1    1    2    0    0  0.83445307487E+00 -0.35730307412E+02  0.27418283572E+02  0.45045681855E+02  0.00000000000E+00 0. -1.
         11    1    3    3    0    0  0.14728897398E+01  0.77669819306E+00 -0.24419242882E+01  0.29556147853E+01  0.51100000000E-03 0. -1.
        -11    1    3    3    0    0 -0.23075836884E+01  0.20160985327E+02 -0.12486825294E+02  0.23826688357E+02  0.51100000000E-03 0.  1.
         12    1    3    3    0    0  0.24087369181E-03  0.14792623892E+02 -0.12489533989E+02  0.19360015003E+02  0.00000000000E+00 0. -1.
</event>
<event>
 7    1  0.1445801E-008  0.4614232E+02  0.7816164E-02  0.1320468E+00
        -11   -1    0    0    0    0  0.00000000000E+00  0.00000000000E+00  0.45593999997E+02  0.45594000000E+02  0.51100000000E-03 0.  1.
         11   -1    0    0    0    0 -0.00000000000E+00 -0.00000000000E+00 -0.45593999997E+02  0.45594000000E+02  0.51100000000E-03 0. -1.
    9900012    2    1    2    0    0 -0.93488523023E+01 -0.14182812432E+02  0.41720022781E+02  0.46142317535E+02  0.99999979414E+01 0.  0.
         12    1    1    2    0    0  0.93488523023E+01  0.14182812432E+02 -0.41720022781E+02  0.45045682465E+02  0.00000000000E+00 0. -1.
         11    1    3    3    0    0 -0.32780143312E+01  0.41067868525E+00  0.93439763632E+01  0.99107986295E+01  0.51100000000E-03 0. -1.
        -11    1    3    3    0    0 -0.64911550431E+01 -0.12886963334E+02  0.29844359248E+02  0.33149580645E+02  0.51100000000E-03 0.  1.
         12    1    3    3    0    0  0.42031707207E+00 -0.17065277834E+01  0.25316871701E+01  0.30819382609E+01  0.00000000000E+00 0. -1.
</event>
<event>
 7    1  0.1445801E-008  0.4614232E+02  0.7816164E-02  0.1320468E+00
        -11   -1    0    0    0    0  0.00000000000E+00  0.00000000000E+00  0.45593999997E+02  0.45594000000E+02  0.51100000000E-03 0.  1.
         11   -1    0    0    0    0 -0.00000000000E+00 -0.00000000000E+00 -0.45593999997E+02  0.45594000000E+02  0.51100000000E-03 0. -1.
    9900012    2    1    2    0    0 -0.10909013424E+01 -0.45032470481E+02  0.29665394202E-02  0.46142317941E+02  0.10000001637E+02 0.  0.
         12    1    1    2    0    0  0.10909013424E+01  0.45032470481E+02 -0.29665394202E-02  0.45045682059E+02  0.00000000000E+00 0. -1.
         11    1    3    3    0    0  0.55068654229E+00 -0.19421401052E+02  0.25804604685E+01  0.19599817626E+02  0.51100000000E-03 0. -1.
        -11    1    3    3    0    0  0.93078463944E+00 -0.15859457539E+02  0.79974071327E+00  0.15906864523E+02  0.51100000000E-03 0.  1.
         12    1    3    3    0    0 -0.25723725241E+01 -0.97516118906E+01 -0.33772346423E+01  0.10635635792E+02  0.00000000000E+00 0. -1.
</event>
<event>
 7    1  0.1445801E-008  0.4614232E+02  0.7816164E-02  0.1320468E+00
        -11   -1    0    0    0    0  0.00000000000E+00  0.00000000000E+00  0.45593999997E+02  0.45594000000E+02  0.51100000000E-03 0.  1.
         11   -1    0    0    0    0 -0.00000000000E+00 -0.00000000000E+00 -0.45593999997E+02  0.45594000000E+02  0.51100000000E-03 0. -1.
    9900012    2    1    2    0    0  0.18557413121E+02  0.20369781218E+02  0.35634366025E+02  0.46142316404E+02  0.99999876263E+01 0.  0.
         12    1    1    2    0    0 -0.18557413121E+02 -0.20369781218E+02 -0.35634366025E+02  0.45045683596E+02  0.00000000000E+00 0. -1.
         11    1    3    3    0    0  0.16683333796E+01  0.25326598960E+00  0.37719638761E+01  0.41322138946E+01  0.51100000000E-03 0. -1.
        -11    1    3    3    0    0  0.25914234313E+01  0.39339974445E+01  0.19054736646E+01  0.50815983156E+01  0.51100000000E-03 0.  1.
        -12    1    3    3    0    0  0.14297656310E+02  0.16182517783E+02  0.29956928485E+02  0.36928504194E+02  0.00000000000E+00 0.  1.
</event>
<event>
 7    1  0.1445801E-008  0.4614232E+02  0.7816164E-02  0.1320468E+00
        -11   -1    0    0    0    0  0.00000000000E+00  0.00000000000E+00  0.45593999997E+02  0.45594000000E+02  0.51100000000E-03 0.  1.
         11   -1    0    0    0    0 -0.00000000000E+00 -0.00000000000E+00 -0.45593999997E+02  0.45594000000E+02  0.51100000000E-03 0. -1.
    9900012    2    1    2    0    0  0.68300055596E+01 -0.15575798120E+02  0.41711618135E+02  0.46142317072E+02  0.99999937162E+01 0.  0.
         12    1    1    2    0    0 -0.68300055596E+01  0.15575798120E+02 -0.41711618135E+02  0.45045682928E+02  0.00000000000E+00 0. -1.
         11    1    3    3    0    0  0.16252764472E+01 -0.10793154529E+02  0.33501600926E+02  0.35234797759E+02  0.51100000000E-03 0.  1.
        -11    1    3    3    0    0  0.33154751400E+01 -0.32882858683E+01  0.45062012862E+01  0.64893027090E+01  0.51100000000E-03 0. -1.
        -12    1    3    3    0    0  0.18892539724E+01 -0.14943577225E+01  0.37038159226E+01  0.44182166044E+01  0.00000000000E+00 0.  1.
</event>
<event>
 7    1  0.1445801E-008  0.4614232E+02  0.7816164E-02  0.1320468E+00
        -11   -1    0    0    0    0  0.00000000000E+00  0.00000000000E+00  0.45593999997E+02  0.45594000000E+02  0.51100000000E-03 0. -1.
         11   -1    0    0    0    0 -0.00000000000E+00 -0.00000000000E+00 -0.45593999997E+02  0.45594000000E+02  0.51100000000E-03 0.  1.
    9900012    2    1    2    0    0  0.36894443928E+02  0.36910158238E+01 -0.25579091275E+02  0.46142317621E+02  0.99999987198E+01 0.  0.
         12    1    1    2    0    0 -0.36894443928E+02 -0.36910158238E+01  0.25579091275E+02  0.45045682379E+02  0.00000000000E+00 0. -1.
         11    1    3    3    0    0  0.23377485044E+02  0.17886875327E+01 -0.18254926703E+02  0.29714450345E+02  0.51100000000E-03 0. -1.
        -11    1    3    3    0    0  0.76761068771E+01  0.32248800587E+01 -0.60842157745E+01  0.10312136056E+02  0.51100000000E-03 0.  1.
         12    1    3    3    0    0  0.58408520061E+01 -0.13225517676E+01 -0.12399487975E+01  0.61157312200E+01  0.00000000000E+00 0. -1.
</event>
<event>
 7    1  0.1445801E-008  0.4614232E+02  0.7816164E-02  0.1320468E+00
        -11   -1    0    0    0    0  0.00000000000E+00  0.00000000000E+00  0.45593999997E+02  0.45594000000E+02  0.51100000000E-03 0.  1.
         11   -1    0    0    0    0 -0.00000000000E+00 -0.00000000000E+00 -0.45593999997E+02  0.45594000000E+02  0.51100000000E-03 0. -1.
    9900012    2    1    2    0    0  0.68469804509E+01 -0.22116949093E+01  0.44467300254E+02  0.46142317326E+02  0.99999960356E+01 0.  0.
         12    1    1    2    0    0 -0.68469804509E+01  0.22116949093E+01 -0.44467300254E+02  0.45045682674E+02  0.00000000000E+00 0. -1.
         11    1    3    3    0    0  0.73544259121E+01 -0.69960459620E+00  0.27119256685E+02  0.28107492070E+02  0.51100000000E-03 0. -1.
        -11    1    3    3    0    0 -0.23521041166E+01 -0.16417970028E+01  0.12949203062E+02  0.13263097353E+02  0.51100000000E-03 0.  1.
        -12    1    3    3    0    0  0.18446586554E+01  0.12970668977E+00  0.43988405070E+01  0.47717279036E+01  0.00000000000E+00 0.  1.
</event>
<event>
 7    1  0.1445801E-008  0.4614232E+02  0.7816164E-02  0.1320468E+00
        -11   -1    0    0    0    0  0.00000000000E+00  0.00000000000E+00  0.45593999997E+02  0.45594000000E+02  0.51100000000E-03 0. -1.
         11   -1    0    0    0    0 -0.00000000000E+00 -0.00000000000E+00 -0.45593999997E+02  0.45594000000E+02  0.51100000000E-03 0.  1.
    9900012    2    1    2    0    0  0.27186246508E+02 -0.20883674743E+02 -0.29221456298E+02  0.46142318984E+02  0.10000011153E+02 0.  0.
         12    1    1    2    0    0 -0.27186246508E+02  0.20883674743E+02  0.29221456298E+02  0.45045681016E+02  0.00000000000E+00 0. -1.
         11    1    3    3    0    0  0.72899716217E+01 -0.10551840052E+02 -0.94652543403E+01  0.15939763320E+02  0.51100000000E-03 0. -1.
        -11    1    3    3    0    0  0.15960422532E+02 -0.72981421512E+01 -0.17361116158E+02  0.24686156460E+02  0.51100000000E-03 0.  1.
        -12    1    3    3    0    0  0.39358523544E+01 -0.30336925401E+01 -0.23950858003E+01  0.55163992037E+01  0.00000000000E+00 0.  1.
</event>
<event>
 7    1  0.1445801E-008  0.4614232E+02  0.7816164E-02  0.1320468E+00
        -11   -1    0    0    0    0  0.00000000000E+00  0.00000000000E+00  0.45593999997E+02  0.45594000000E+02  0.51100000000E-03 0.  1.
         11   -1    0    0    0    0 -0.00000000000E+00 -0.00000000000E+00 -0.45593999997E+02  0.45594000000E+02  0.51100000000E-03 0. -1.
    9900012    2    1    2    0    0  0.22951449480E+02 -0.25147974632E+02  0.29494471210E+02  0.46142317707E+02  0.99999995031E+01 0.  0.
         12    1    1    2    0    0 -0.22951449480E+02  0.25147974632E+02 -0.29494471210E+02  0.45045682293E+02  0.00000000000E+00 0. -1.
         11    1    3    3    0    0  0.17905604201E+02 -0.16142473098E+02  0.16150479200E+02  0.29017720072E+02  0.51100000000E-03 0. -1.
        -11    1    3    3    0    0  0.51305249133E+01 -0.87330061688E+01  0.13434909235E+02  0.16825114236E+02  0.51100000000E-03 0.  1.
        -12    1    3    3    0    0 -0.84679634244E-01 -0.27249536487E+00 -0.90917225009E-01  0.29948339877E+00  0.00000000000E+00 0.  1.
</event>
<event>
 7    1  0.1504977E-008  0.4614232E+02  0.7816164E-02  0.1320468E+00
        -11   -1    0    0    0    0  0.00000000000E+00  0.00000000000E+00  0.45593999997E+02  0.45594000000E+02  0.51100000000E-03 0.  1.
         11   -1    0    0    0    0 -0.00000000000E+00 -0.00000000000E+00 -0.45593999997E+02  0.45594000000E+02  0.51100000000E-03 0. -1.
    9900012    2    1    2    0    0  0.43066748640E+02  0.58998775890E+01 -0.11813555248E+02  0.46142317837E+02  0.10000000691E+02 0.  0.
         12    1    1    2    0    0 -0.43066748640E+02 -0.58998775890E+01  0.11813555248E+02  0.45045682163E+02  0.00000000000E+00 0. -1.
         11    1    3    3    0    0  0.24804636751E+01 -0.20170112640E+01 -0.14095641205E+01  0.34939813614E+01  0.51100000000E-03 0. -1.
        -11    1    3    3    0    0  0.25983347057E+02  0.47967420001E+01 -0.69624421193E+01  0.27324323572E+02  0.51100000000E-03 0.  1.
         12    1    3    3    0    0  0.14602937907E+02  0.31201468530E+01 -0.34415490079E+01  0.15324012904E+02  0.00000000000E+00 0. -1.
</event>
<event>
 7    1  0.1445801E-008  0.4614232E+02  0.7816164E-02  0.1320468E+00
        -11   -1    0    0    0    0  0.00000000000E+00  0.00000000000E+00  0.45593999997E+02  0.45594000000E+02  0.51100000000E-03 0.  1.
         11   -1    0    0    0    0 -0.00000000000E+00 -0.00000000000E+00 -0.45593999997E+02  0.45594000000E+02  0.51100000000E-03 0. -1.
    9900012    2    1    2    0    0  0.26184632606E+02 -0.15271188309E+01  0.36621665035E+02  0.46142318447E+02  0.10000006255E+02 0.  0.
         12    1    1    2    0    0 -0.26184632606E+02  0.15271188309E+01 -0.36621665035E+02  0.45045681553E+02  0.00000000000E+00 0. -1.
         11    1    3    3    0    0  0.21445769732E+02 -0.27142911483E+00  0.32249588914E+02  0.38730229777E+02  0.51100000000E-03 0.  1.
        -11    1    3    3    0    0  0.91164426590E+00 -0.17826825173E+01  0.81892386181E+00  0.21632588328E+01  0.51100000000E-03 0. -1.
         12    1    3    3    0    0  0.38272186086E+01  0.52699280119E+00  0.35531522588E+01  0.52488298376E+01  0.00000000000E+00 0. -1.
</event>
<event>
 7    1  0.1445801E-008  0.4614232E+02  0.7816164E-02  0.1320468E+00
        -11   -1    0    0    0    0  0.00000000000E+00  0.00000000000E+00  0.45593999997E+02  0.45594000000E+02  0.51100000000E-03 0.  1.
         11   -1    0    0    0    0 -0.00000000000E+00 -0.00000000000E+00 -0.45593999997E+02  0.45594000000E+02  0.51100000000E-03 0. -1.
    9900012    2    1    2    0    0 -0.80958023914E+01  0.93291994508E+01  0.43319020419E+02  0.46142317534E+02  0.99999979327E+01 0.  0.
         12    1    1    2    0    0  0.80958023914E+01 -0.93291994508E+01 -0.43319020419E+02  0.45045682466E+02  0.00000000000E+00 0. -1.
         11    1    3    3    0    0 -0.30971431013E+01  0.17660977779E+01  0.19270941441E+02  0.19597973901E+02  0.51100000000E-03 0. -1.
        -11    1    3    3    0    0 -0.20374082193E+01  0.50349015264E+01  0.20726508040E+02  0.21426371634E+02  0.51100000000E-03 0.  1.
         12    1    3    3    0    0 -0.29612510708E+01  0.25282001465E+01  0.33215709383E+01  0.51179719990E+01  0.00000000000E+00 0. -1.
</event>
<event>
 7    1  0.1445801E-008  0.4614232E+02  0.7816164E-02  0.1320468E+00
        -11   -1    0    0    0    0  0.00000000000E+00  0.00000000000E+00  0.45593999997E+02  0.45594000000E+02  0.51100000000E-03 0.  1.
         11   -1    0    0    0    0 -0.00000000000E+00 -0.00000000000E+00 -0.45593999997E+02  0.45594000000E+02  0.51100000000E-03 0. -1.
    9900012    2    1    2    0    0  0.18777164487E+02 -0.11598769222E+02  0.39268308078E+02  0.46142319042E+02  0.10000011679E+02 0.  0.
         12    1    1    2    0    0 -0.18777164487E+02  0.11598769222E+02 -0.39268308078E+02  0.45045680958E+02  0.00000000000E+00 0. -1.
         11    1    3    3    0    0  0.11642335101E+02 -0.37460599040E+01  0.13897232142E+02  0.18512428066E+02  0.51100000000E-03 0. -1.
        -11    1    3    3    0    0  0.22933570077E+01 -0.20745838999E+01  0.10664872969E+02  0.11104183916E+02  0.51100000000E-03 0.  1.
        -12    1    3    3    0    0  0.48414723781E+01 -0.57781254183E+01  0.14706202967E+02  0.16525707060E+02  0.00000000000E+00 0.  1.
</event>
<event>
 7    1  0.1445801E-008  0.4614232E+02  0.7816164E-02  0.1320468E+00
        -11   -1    0    0    0    0  0.00000000000E+00  0.00000000000E+00  0.45593999997E+02  0.45594000000E+02  0.51100000000E-03 0. -1.
         11   -1    0    0    0    0 -0.00000000000E+00 -0.00000000000E+00 -0.45593999997E+02  0.45594000000E+02  0.51100000000E-03 0.  1.
    9900012    2    1    2    0    0  0.15224547187E+02  0.26843535336E+02 -0.32813889447E+02  0.46142316888E+02  0.99999920394E+01 0.  0.
         12    1    1    2    0    0 -0.15224547187E+02 -0.26843535336E+02  0.32813889447E+02  0.45045683112E+02  0.00000000000E+00 0. -1.
         11    1    3    3    0    0  0.79743018180E+01  0.16510203220E+02 -0.14542263684E+02  0.23402002760E+02  0.51100000000E-03 0. -1.
        -11    1    3    3    0    0  0.53375568111E+01  0.39068410231E+01 -0.11108076151E+02  0.12928351616E+02  0.51100000000E-03 0.  1.
        -12    1    3    3    0    0  0.19126885575E+01  0.64264910923E+01 -0.71635496128E+01  0.98119625118E+01  0.00000000000E+00 0.  1.
</event>
<event>
 7    1  0.1445801E-008  0.4614232E+02  0.7816164E-02  0.1320468E+00
        -11   -1    0    0    0    0  0.00000000000E+00  0.00000000000E+00  0.45593999997E+02  0.45594000000E+02  0.51100000000E-03 0. -1.
         11   -1    0    0    0    0 -0.00000000000E+00 -0.00000000000E+00 -0.45593999997E+02  0.45594000000E+02  0.51100000000E-03 0.  1.
    9900012    2    1    2    0    0  0.13962835445E+02  0.15896680438E+02 -0.39767426870E+02  0.46142318048E+02  0.10000002618E+02 0.  0.
         12    1    1    2    0    0 -0.13962835445E+02 -0.15896680438E+02  0.39767426870E+02  0.45045681952E+02  0.00000000000E+00 0. -1.
         11    1    3    3    0    0 -0.24612553535E+00  0.12147383259E+01 -0.14566248490E+01  0.19125697874E+01  0.51100000000E-03 0. -1.
        -11    1    3    3    0    0  0.14123938902E+02  0.12719636244E+02 -0.28720725654E+02  0.34440599278E+02  0.51100000000E-03 0.  1.
        -12    1    3    3    0    0  0.85022078177E-01  0.19623058683E+01 -0.95900763676E+01  0.97891489830E+01  0.00000000000E+00 0.  1.
</event>
<event>
 7    1  0.1445801E-008  0.4614232E+02  0.7816164E-02  0.1320468E+00
        -11   -1    0    0    0    0  0.00000000000E+00  0.00000000000E+00  0.45593999997E+02  0.45594000000E+02  0.51100000000E-03 0.  1.
         11   -1    0    0    0    0 -0.00000000000E+00 -0.00000000000E+00 -0.45593999997E+02  0.45594000000E+02  0.51100000000E-03 0. -1.
    9900012    2    1    2    0    0 -0.22162759331E+02 -0.19913499367E+02  0.33784288264E+02  0.46142317724E+02  0.99999996644E+01 0.  0.
         12    1    1    2    0    0  0.22162759331E+02  0.19913499367E+02 -0.33784288264E+02  0.45045682276E+02  0.00000000000E+00 0. -1.
         11    1    3    3    0    0 -0.79744888163E+01 -0.72328643547E+01  0.89536774049E+01  0.14002683242E+02  0.51100000000E-03 0. -1.
        -11    1    3    3    0    0 -0.89510730485E+01 -0.12220947741E+02  0.18389939424E+02  0.23825682461E+02  0.51100000000E-03 0.  1.
        -12    1    3    3    0    0 -0.52371974658E+01 -0.45968727055E+00  0.64406714348E+01  0.83139520214E+01  0.00000000000E+00 0.  1.
</event>
<event>
 7    1  0.1445801E-008  0.4614232E+02  0.7816164E-02  0.1320468E+00
        -11   -1    0    0    0    0  0.00000000000E+00  0.00000000000E+00  0.45593999997E+02  0.45594000000E+02  0.51100000000E-03 0.  1.
         11   -1    0    0    0    0 -0.00000000000E+00 -0.00000000000E+00 -0.45593999997E+02  0.45594000000E+02  0.51100000000E-03 0. -1.
    9900012    2    1    2    0    0 -0.36533758889E+02  0.20220913021E+02  0.16897115018E+02  0.46142319209E+02  0.10000013206E+02 0.  0.
         12    1    1    2    0    0  0.36533758889E+02 -0.20220913021E+02 -0.16897115018E+02  0.45045680791E+02  0.00000000000E+00 0. -1.
         11    1    3    3    0    0 -0.48727373896E+01  0.19267150687E+01  0.75253582125E+00  0.52935915074E+01  0.51100000000E-03 0. -1.
        -11    1    3    3    0    0 -0.16226776130E+02  0.45505696981E+01  0.75369564651E+01  0.18461355886E+02  0.51100000000E-03 0.  1.
        -12    1    3    3    0    0 -0.15434245370E+02  0.13743628255E+02  0.86076227312E+01  0.22387371816E+02  0.00000000000E+00 0.  1.
</event>
<event>
 7    1  0.1445801E-008  0.4614232E+02  0.7816164E-02  0.1320468E+00
        -11   -1    0    0    0    0  0.00000000000E+00  0.00000000000E+00  0.45593999997E+02  0.45594000000E+02  0.51100000000E-03 0.  1.
         11   -1    0    0    0    0 -0.00000000000E+00 -0.00000000000E+00 -0.45593999997E+02  0.45594000000E+02  0.51100000000E-03 0. -1.
    9900012    2    1    2    0    0 -0.83712598850E+01 -0.36421075408E+01  0.44110889041E+02  0.46142317950E+02  0.10000001719E+02 0.  0.
         12    1    1    2    0    0  0.83712598850E+01  0.36421075408E+01 -0.44110889041E+02  0.45045682050E+02  0.00000000000E+00 0. -1.
         11    1    3    3    0    0 -0.61386438288E+01  0.89664629126E+00  0.20208558769E+02  0.21139365421E+02  0.51100000000E-03 0. -1.
        -11    1    3    3    0    0 -0.88262536692E+00  0.39759740048E+00  0.58598131796E+00  0.11315854353E+01  0.51100000000E-03 0.  1.
        -12    1    3    3    0    0 -0.13499906893E+01 -0.49363512325E+01  0.23316348954E+02  0.23871367093E+02  0.00000000000E+00 0.  1.
</event>
<event>
 7    1  0.1445801E-008  0.4614232E+02  0.7816164E-02  0.1320468E+00
        -11   -1    0    0    0    0  0.00000000000E+00  0.00000000000E+00  0.45593999997E+02  0.45594000000E+02  0.51100000000E-03 0.  1.
         11   -1    0    0    0    0 -0.00000000000E+00 -0.00000000000E+00 -0.45593999997E+02  0.45594000000E+02  0.51100000000E-03 0. -1.
    9900012    2    1    2    0    0  0.23960905535E+02  0.73692272670E+01  0.37425699815E+02  0.46142317507E+02  0.99999976831E+01 0.  0.
         12    1    1    2    0    0 -0.23960905535E+02 -0.73692272670E+01 -0.37425699815E+02  0.45045682493E+02  0.00000000000E+00 0. -1.
         11    1    3    3    0    0  0.27007356209E+01 -0.65345660946E+00  0.79442845770E+01  0.84162126955E+01  0.51100000000E-03 0. -1.
        -11    1    3    3    0    0  0.77146889778E+01  0.34519311532E+01  0.15903542291E+02  0.18009855979E+02  0.51100000000E-03 0.  1.
         12    1    3    3    0    0  0.13545480937E+02  0.45707527232E+01  0.13577872947E+02  0.19716248833E+02  0.00000000000E+00 0. -1.
</event>
<event>
 7    1  0.1445801E-008  0.4614232E+02  0.7816164E-02  0.1320468E+00
        -11   -1    0    0    0    0  0.00000000000E+00  0.00000000000E+00  0.45593999997E+02  0.45594000000E+02  0.51100000000E-03 0.  1.
         11   -1    0    0    0    0 -0.00000000000E+00 -0.00000000000E+00 -0.45593999997E+02  0.45594000000E+02  0.51100000000E-03 0. -1.
    9900012    2    1    2    0    0 -0.63880216942E+01  0.31162219151E+02  0.31893923448E+02  0.46142322333E+02  0.10000041687E+02 0.  0.
         12    1    1    2    0    0  0.63880216942E+01 -0.31162219151E+02 -0.31893923448E+02  0.45045677667E+02  0.00000000000E+00 0. -1.
         11    1    3    3    0    0 -0.82669376365E+01  0.17256339595E+02  0.20426252586E+02  0.27988485294E+02  0.51100000000E-03 0. -1.
        -11    1    3    3    0    0  0.50600250315E+00  0.38544506093E+01  0.25724731338E+01  0.46615926804E+01  0.51100000000E-03 0.  1.
         12    1    3    3    0    0  0.13729134391E+01  0.10051428947E+02  0.88951977285E+01  0.13492244358E+02  0.00000000000E+00 0. -1.
</event>
<event>
 7    1  0.1445801E-008  0.4614232E+02  0.7816164E-02  0.1320468E+00
        -11   -1    0    0    0    0  0.00000000000E+00  0.00000000000E+00  0.45593999997E+02  0.45594000000E+02  0.51100000000E-03 0.  1.
         11   -1    0    0    0    0 -0.00000000000E+00 -0.00000000000E+00 -0.45593999997E+02  0.45594000000E+02  0.51100000000E-03 0. -1.
    9900012    2    1    2    0    0  0.27680680308E+02 -0.34949430321E+02  0.64366656333E+01  0.46142318669E+02  0.10000008277E+02 0.  0.
         12    1    1    2    0    0 -0.27680680308E+02  0.34949430321E+02 -0.64366656333E+01  0.45045681331E+02  0.00000000000E+00 0. -1.
         11    1    3    3    0    0  0.23685346086E+01 -0.10159979691E+01  0.14164064267E+01  0.29408188472E+01  0.51100000000E-03 0. -1.
        -11    1    3    3    0    0  0.16263504738E+02 -0.25312337805E+02  0.59478127678E+01  0.30669080660E+02  0.51100000000E-03 0.  1.
        -12    1    3    3    0    0  0.90486409615E+01 -0.86210945473E+01 -0.92755356115E+00  0.12532419162E+02  0.00000000000E+00 0.  1.
</event>
<event>
 7    1  0.1445801E-008  0.4614232E+02  0.7816164E-02  0.1320468E+00
        -11   -1    0    0    0    0  0.00000000000E+00  0.00000000000E+00  0.45593999997E+02  0.45594000000E+02  0.51100000000E-03 0. -1.
         11   -1    0    0    0    0 -0.00000000000E+00 -0.00000000000E+00 -0.45593999997E+02  0.45594000000E+02  0.51100000000E-03 0.  1.
    9900012    2    1    2    0    0 -0.25201100568E+01  0.44966964465E+02  0.85719472865E+00  0.46142316181E+02  0.99999855957E+01 0.  0.
         12    1    1    2    0    0  0.25201100568E+01 -0.44966964465E+02 -0.85719472865E+00  0.45045683819E+02  0.00000000000E+00 0. -1.
         11    1    3    3    0    0 -0.13736660923E+01  0.41349664888E+00  0.36909770490E+00  0.14812735698E+01  0.51100000000E-03 0. -1.
        -11    1    3    3    0    0 -0.12104833625E+00  0.17691721946E+01 -0.53493239058E+00  0.18522353732E+01  0.51100000000E-03 0.  1.
         12    1    3    3    0    0 -0.10253956283E+01  0.42784295621E+02  0.10230294143E+01  0.42808807239E+02  0.00000000000E+00 0. -1.
</event>
<event>
 7    1  0.1445801E-008  0.4614232E+02  0.7816164E-02  0.1320468E+00
        -11   -1    0    0    0    0  0.00000000000E+00  0.00000000000E+00  0.45593999997E+02  0.45594000000E+02  0.51100000000E-03 0.  1.
         11   -1    0    0    0    0 -0.00000000000E+00 -0.00000000000E+00 -0.45593999997E+02  0.45594000000E+02  0.51100000000E-03 0. -1.
    9900012    2    1    2    0    0  0.22467395541E+02 -0.10996361986E+00  0.39042509637E+02  0.46142317486E+02  0.99999974870E+01 0.  0.
         12    1    1    2    0    0 -0.22467395541E+02  0.10996361986E+00 -0.39042509637E+02  0.45045682514E+02  0.00000000000E+00 0. -1.
         11    1    3    3    0    0  0.14567066174E+01  0.13672304830E+01  0.14323332777E+01  0.24582294934E+01  0.51100000000E-03 0. -1.
        -11    1    3    3    0    0  0.15670912461E+02  0.18675297055E+01  0.28979986249E+02  0.32998557056E+02  0.51100000000E-03 0.  1.
        -12    1    3    3    0    0  0.53397764630E+01 -0.33447238084E+01  0.86301901111E+01  0.10685530936E+02  0.00000000000E+00 0.  1.
</event>
<event>
 7    1  0.1445801E-008  0.4614232E+02  0.7816164E-02  0.1320468E+00
        -11   -1    0    0    0    0  0.00000000000E+00  0.00000000000E+00  0.45593999997E+02  0.45594000000E+02  0.51100000000E-03 0. -1.
         11   -1    0    0    0    0 -0.00000000000E+00 -0.00000000000E+00 -0.45593999997E+02  0.45594000000E+02  0.51100000000E-03 0.  1.
    9900012    2    1    2    0    0 -0.57177917727E+00 -0.34974352491E+02 -0.28382762003E+02  0.46142318270E+02  0.10000004640E+02 0.  0.
         12    1    1    2    0    0  0.57177917727E+00  0.34974352491E+02  0.28382762003E+02  0.45045681730E+02  0.00000000000E+00 0. -1.
         11    1    3    3    0    0 -0.66375878524E+00 -0.30333059940E+01 -0.11831450435E+01  0.33228532067E+01  0.51100000000E-03 0. -1.
        -11    1    3    3    0    0  0.14223879916E+01 -0.31554676757E+02 -0.25308458448E+02  0.40475163769E+02  0.51100000000E-03 0.  1.
        -12    1    3    3    0    0 -0.13304083837E+01 -0.38636973998E+00 -0.18911585110E+01  0.23443012940E+01  0.00000000000E+00 0.  1.
</event>
<event>
 7    1  0.1445801E-008  0.4614232E+02  0.7816164E-02  0.1320468E+00
        -11   -1    0    0    0    0  0.00000000000E+00  0.00000000000E+00  0.45593999997E+02  0.45594000000E+02  0.51100000000E-03 0.  1.
         11   -1    0    0    0    0 -0.00000000000E+00 -0.00000000000E+00 -0.45593999997E+02  0.45594000000E+02  0.51100000000E-03 0. -1.
    9900012    2    1    2    0    0  0.14972207248E+02  0.21292270358E+02  0.36763918024E+02  0.46142318350E+02  0.10000005368E+02 0.  0.
         12    1    1    2    0    0 -0.14972207248E+02 -0.21292270358E+02 -0.36763918024E+02  0.45045681650E+02  0.00000000000E+00 0. -1.
         11    1    3    3    0    0  0.91583741504E+01  0.11049351942E+02  0.16927418919E+02  0.22192374973E+02  0.51100000000E-03 0. -1.
        -11    1    3    3    0    0  0.55571487526E+01  0.11059549522E+02  0.19336583617E+02  0.22958636809E+02  0.51100000000E-03 0.  1.
         12    1    3    3    0    0  0.25668434533E+00 -0.81663110637E+00  0.49991548831E+00  0.99130656836E+00  0.00000000000E+00 0. -1.
</event>
<event>
 7    1  0.1445801E-008  0.4614232E+02  0.7816164E-02  0.1320468E+00
        -11   -1    0    0    0    0  0.00000000000E+00  0.00000000000E+00  0.45593999997E+02  0.45594000000E+02  0.51100000000E-03 0. -1.
         11   -1    0    0    0    0 -0.00000000000E+00 -0.00000000000E+00 -0.45593999997E+02  0.45594000000E+02  0.51100000000E-03 0.  1.
    9900012    2    1    2    0    0  0.20053460087E+02  0.99768974049E+01 -0.39082398317E+02  0.46142316506E+02  0.99999885515E+01 0.  0.
         12    1    1    2    0    0 -0.20053460087E+02 -0.99768974049E+01  0.39082398317E+02  0.45045683494E+02  0.00000000000E+00 0. -1.
         11    1    3    3    0    0  0.10438351829E+02  0.80664230364E+01 -0.28791215813E+02  0.31669551272E+02  0.51100000000E-03 0. -1.
        -11    1    3    3    0    0  0.89077700268E+01  0.21454639426E+01 -0.83620368558E+01  0.12404637964E+02  0.51100000000E-03 0.  1.
         12    1    3    3    0    0  0.70733823153E+00 -0.23498957416E+00 -0.19291456475E+01  0.20681272696E+01  0.00000000000E+00 0. -1.
</event>
<event>
 7    1  0.1445801E-008  0.4614232E+02  0.7816164E-02  0.1320468E+00
        -11   -1    0    0    0    0  0.00000000000E+00  0.00000000000E+00  0.45593999997E+02  0.45594000000E+02  0.51100000000E-03 0.  1.
         11   -1    0    0    0    0 -0.00000000000E+00 -0.00000000000E+00 -0.45593999997E+02  0.45594000000E+02  0.51100000000E-03 0. -1.
    9900012    2    1    2    0    0 -0.95550329236E+01  0.22630823519E+02  0.37757922318E+02  0.46142317353E+02  0.99999962787E+01 0.  0.
         12    1    1    2    0    0  0.95550329236E+01 -0.22630823519E+02 -0.37757922318E+02  0.45045682647E+02  0.00000000000E+00 0. -1.
         11    1    3    3    0    0 -0.60437951278E+01  0.60085118566E+01  0.11107150603E+02  0.13999945323E+02  0.51100000000E-03 0. -1.
        -11    1    3    3    0    0  0.12988175828E+01  0.51454119997E+01  0.10385024742E+02  0.11662372439E+02  0.51100000000E-03 0.  1.
        -12    1    3    3    0    0 -0.48100553785E+01  0.11476899663E+02  0.16265746974E+02  0.20479999591E+02  0.00000000000E+00 0.  1.
</event>
<event>
 7    1  0.1445801E-008  0.4614232E+02  0.7816164E-02  0.1320468E+00
        -11   -1    0    0    0    0  0.00000000000E+00  0.00000000000E+00  0.45593999997E+02  0.45594000000E+02  0.51100000000E-03 0.  1.
         11   -1    0    0    0    0 -0.00000000000E+00 -0.00000000000E+00 -0.45593999997E+02  0.45594000000E+02  0.51100000000E-03 0. -1.
    9900012    2    1    2    0    0 -0.14241991876E+02 -0.34391468430E+02  0.25367419969E+02  0.46142318417E+02  0.10000005982E+02 0.  0.
         12    1    1    2    0    0  0.14241991876E+02  0.34391468430E+02 -0.25367419969E+02  0.45045681583E+02  0.00000000000E+00 0. -1.
         11    1    3    3    0    0 -0.21454516364E+01 -0.11118399644E+01  0.20782957665E+01  0.31872345983E+01  0.51100000000E-03 0. -1.
        -11    1    3    3    0    0  0.99572198593E-01 -0.94098637755E+00  0.23782271464E+01  0.25595575020E+01  0.51100000000E-03 0.  1.
        -12    1    3    3    0    0 -0.12196112438E+02 -0.32338642088E+02  0.20910897056E+02  0.40395526317E+02  0.00000000000E+00 0.  1.
</event>
<event>
 7    1  0.1445801E-008  0.4614232E+02  0.7816164E-02  0.1320468E+00
        -11   -1    0    0    0    0  0.00000000000E+00  0.00000000000E+00  0.45593999997E+02  0.45594000000E+02  0.51100000000E-03 0.  1.
         11   -1    0    0    0    0 -0.00000000000E+00 -0.00000000000E+00 -0.45593999997E+02  0.45594000000E+02  0.51100000000E-03 0. -1.
    9900012    2    1    2    0    0  0.16423639614E+02  0.32708264071E+02  0.26259230901E+02  0.46142315587E+02  0.99999801752E+01 0.  0.
         12    1    1    2    0    0 -0.16423639614E+02 -0.32708264071E+02 -0.26259230901E+02  0.45045684413E+02  0.00000000000E+00 0. -1.
         11    1    3    3    0    0  0.22900566823E+01  0.42387080673E+01  0.59912861061E+01  0.76880761673E+01  0.51100000000E-03 0. -1.
        -11    1    3    3    0    0  0.35302755493E+01  0.21273064548E+01  0.13655630740E+01  0.43420088642E+01  0.51100000000E-03 0.  1.
        -12    1    3    3    0    0  0.10603307383E+02  0.26342249549E+02  0.18902381721E+02  0.34112230556E+02  0.00000000000E+00 0.  1.
</event>
<event>
 7    1  0.1445801E-008  0.4614232E+02  0.7816164E-02  0.1320468E+00
        -11   -1    0    0    0    0  0.00000000000E+00  0.00000000000E+00  0.45593999997E+02  0.45594000000E+02  0.51100000000E-03 0.  1.
         11   -1    0    0    0    0 -0.00000000000E+00 -0.00000000000E+00 -0.45593999997E+02  0.45594000000E+02  0.51100000000E-03 0. -1.
    9900012    2    1    2    0    0  0.42209767791E+01  0.29612608413E+02  0.33680711683E+02  0.46142316950E+02  0.99999926020E+01 0.  0.
         12    1    1    2    0    0 -0.42209767791E+01 -0.29612608413E+02 -0.33680711683E+02  0.45045683050E+02  0.00000000000E+00 0. -1.
         11    1    3    3    0    0 -0.30850027878E+01  0.82236546367E+01  0.11365643503E+02  0.14363968473E+02  0.51100000000E-03 0. -1.
        -11    1    3    3    0    0  0.51701073414E+01  0.13809125041E+02  0.14862747767E+02  0.20936170036E+02  0.51100000000E-03 0.  1.
         12    1    3    3    0    0  0.21358722254E+01  0.75798287348E+01  0.74523204127E+01  0.10842178441E+02  0.00000000000E+00 0. -1.
</event>
<event>
 7    1  0.1445801E-008  0.4614232E+02  0.7816164E-02  0.1320468E+00
        -11   -1    0    0    0    0  0.00000000000E+00  0.00000000000E+00  0.45593999997E+02  0.45594000000E+02  0.51100000000E-03 0. -1.
         11   -1    0    0    0    0 -0.00000000000E+00 -0.00000000000E+00 -0.45593999997E+02  0.45594000000E+02  0.51100000000E-03 0.  1.
    9900012    2    1    2    0    0  0.16059476914E+02 -0.12569534388E+02 -0.40164829148E+02  0.46142317699E+02  0.99999994299E+01 0.  0.
         12    1    1    2    0    0 -0.16059476914E+02  0.12569534388E+02  0.40164829148E+02  0.45045682301E+02  0.00000000000E+00 0. -1.
         11    1    3    3    0    0  0.11994013342E+02 -0.39095387245E+01 -0.21928783599E+02  0.25298466347E+02  0.51100000000E-03 0. -1.
        -11    1    3    3    0    0  0.36931293443E+01 -0.78995559467E+01 -0.17939670957E+02  0.19946778758E+02  0.51100000000E-03 0.  1.
         12    1    3    3    0    0  0.37233422751E+00 -0.76043971657E+00 -0.29637459168E+00  0.89707259355E+00  0.00000000000E+00 0. -1.
</event>
<event>
 7    1  0.1445801E-008  0.4614231E+02  0.7816164E-02  0.1320468E+00
        -11   -1    0    0    0    0  0.00000000000E+00  0.00000000000E+00  0.45593999997E+02  0.45594000000E+02  0.51100000000E-03 0.  1.
         11   -1    0    0    0    0 -0.00000000000E+00 -0.00000000000E+00 -0.45593999997E+02  0.45594000000E+02  0.51100000000E-03 0. -1.
    9900012    2    1    2    0    0  0.26496713644E+02  0.13540238305E+02  0.33818633801E+02  0.46142313420E+02  0.99999604133E+01 0.  0.
         12    1    1    2    0    0 -0.26496713644E+02 -0.13540238305E+02 -0.33818633801E+02  0.45045686580E+02  0.00000000000E+00 0. -1.
         11    1    3    3    0    0  0.23294239735E+01  0.48120110065E+01  0.47838818860E+01  0.71740638508E+01  0.51100000000E-03 0. -1.
        -11    1    3    3    0    0  0.19943225142E+02  0.84791605531E+01  0.25414682570E+02  0.33399618009E+02  0.51100000000E-03 0.  1.
        -12    1    3    3    0    0  0.42240645294E+01  0.24906674523E+00  0.36200693445E+01  0.55686315600E+01  0.00000000000E+00 0.  1.
</event>
<event>
 7    1  0.1883210E-008  0.4614232E+02  0.7816164E-02  0.1320468E+00
        -11   -1    0    0    0    0  0.00000000000E+00  0.00000000000E+00  0.45593999997E+02  0.45594000000E+02  0.51100000000E-03 0.  1.
         11   -1    0    0    0    0 -0.00000000000E+00 -0.00000000000E+00 -0.45593999997E+02  0.45594000000E+02  0.51100000000E-03 0. -1.
    9900012    2    1    2    0    0  0.18850077660E+02  0.32118800163E+02  0.25341089971E+02  0.46142316603E+02  0.99999894436E+01 0.  0.
         12    1    1    2    0    0 -0.18850077660E+02 -0.32118800163E+02 -0.25341089971E+02  0.45045683397E+02  0.00000000000E+00 0. -1.
         11    1    3    3    0    0 -0.70927134961E+00  0.37617742152E+01  0.28118147750E+01  0.47497698558E+01  0.51100000000E-03 0. -1.
        -11    1    3    3    0    0  0.84726756846E+01  0.95648084010E+01  0.10054242899E+02  0.16259138770E+02  0.51100000000E-03 0.  1.
         12    1    3    3    0    0  0.11086673325E+02  0.18792217547E+02  0.12475032298E+02  0.25133407978E+02  0.00000000000E+00 0. -1.
</event>
<event>
 7    1  0.1445801E-008  0.4614232E+02  0.7816164E-02  0.1320468E+00
        -11   -1    0    0    0    0  0.00000000000E+00  0.00000000000E+00  0.45593999997E+02  0.45594000000E+02  0.51100000000E-03 0. -1.
         11   -1    0    0    0    0 -0.00000000000E+00 -0.00000000000E+00 -0.45593999997E+02  0.45594000000E+02  0.51100000000E-03 0.  1.
    9900012    2    1    2    0    0  0.11478544096E+02  0.43525448488E+02 -0.17005706599E+01  0.46142316730E+02  0.99999906011E+01 0.  0.
         12    1    1    2    0    0 -0.11478544096E+02 -0.43525448488E+02  0.17005706599E+01  0.45045683270E+02  0.00000000000E+00 0. -1.
         11    1    3    3    0    0  0.88487346852E+01  0.16878061784E+02 -0.17280664148E+00  0.19057778924E+02  0.51100000000E-03 0. -1.
        -11    1    3    3    0    0  0.32330844178E+01  0.23155630769E+02 -0.21794925202E+01  0.23481615342E+02  0.51100000000E-03 0.  1.
         12    1    3    3    0    0 -0.60327500722E+00  0.34917559351E+01  0.65172850182E+00  0.36029224644E+01  0.00000000000E+00 0. -1.
</event>
<event>
 7    1  0.1445801E-008  0.4614232E+02  0.7816164E-02  0.1320468E+00
        -11   -1    0    0    0    0  0.00000000000E+00  0.00000000000E+00  0.45593999997E+02  0.45594000000E+02  0.51100000000E-03 0. -1.
         11   -1    0    0    0    0 -0.00000000000E+00 -0.00000000000E+00 -0.45593999997E+02  0.45594000000E+02  0.51100000000E-03 0.  1.
    9900012    2    1    2    0    0  0.29304656601E+02 -0.12280788474E+02  0.31930124888E+02  0.46142317194E+02  0.99999948331E+01 0.  0.
         12    1    1    2    0    0 -0.29304656601E+02  0.12280788474E+02 -0.31930124888E+02  0.45045682806E+02  0.00000000000E+00 0. -1.
         11    1    3    3    0    0  0.86830806860E+01 -0.23924895479E+01  0.44553153170E+01  0.10048369583E+02  0.51100000000E-03 0. -1.
        -11    1    3    3    0    0  0.11055777426E+02 -0.50624605546E+01  0.10742477019E+02  0.16225274547E+02  0.51100000000E-03 0.  1.
         12    1    3    3    0    0  0.95657984888E+01 -0.48258383711E+01  0.16732332552E+02  0.19868673064E+02  0.00000000000E+00 0. -1.
</event>
<event>
 7    1  0.1445801E-008  0.4614232E+02  0.7816164E-02  0.1320468E+00
        -11   -1    0    0    0    0  0.00000000000E+00  0.00000000000E+00  0.45593999997E+02  0.45594000000E+02  0.51100000000E-03 0.  1.
         11   -1    0    0    0    0 -0.00000000000E+00 -0.00000000000E+00 -0.45593999997E+02  0.45594000000E+02  0.51100000000E-03 0. -1.
    9900012    2    1    2    0    0 -0.20754344644E+02  0.35250297757E+02  0.18862321739E+02  0.46142317689E+02  0.99999993391E+01 0.  0.
         12    1    1    2    0    0  0.20754344644E+02 -0.35250297757E+02 -0.18862321739E+02  0.45045682311E+02  0.00000000000E+00 0. -1.
         11    1    3    3    0    0 -0.45768764898E+01  0.60011832540E+01  0.21050330479E+01  0.78353789471E+01  0.51100000000E-03 0. -1.
        -11    1    3    3    0    0 -0.13899918641E+01  0.10012230972E+02  0.60972148820E+01  0.11804781912E+02  0.51100000000E-03 0.  1.
        -12    1    3    3    0    0 -0.14787476290E+02  0.19236883531E+02  0.10660073809E+02  0.26502156830E+02  0.00000000000E+00 0.  1.
</event>
<event>
 7    1  0.1445801E-008  0.4614232E+02  0.7816164E-02  0.1320468E+00
        -11   -1    0    0    0    0  0.00000000000E+00  0.00000000000E+00  0.45593999997E+02  0.45594000000E+02  0.51100000000E-03 0.  1.
         11   -1    0    0    0    0 -0.00000000000E+00 -0.00000000000E+00 -0.45593999997E+02  0.45594000000E+02  0.51100000000E-03 0. -1.
    9900012    2    1    2    0    0 -0.44997412548E+02 -0.13533674424E+01 -0.15857911332E+01  0.46142317932E+02  0.10000001562E+02 0.  0.
         12    1    1    2    0    0  0.44997412548E+02  0.13533674424E+01  0.15857911332E+01  0.45045682068E+02  0.00000000000E+00 0. -1.
         11    1    3    3    0    0 -0.24901869269E+01  0.35748134865E+00 -0.21551510596E+01  0.33126273857E+01  0.51100000000E-03 0. -1.
        -11    1    3    3    0    0 -0.51397118451E+01 -0.18339621735E+01 -0.28811709211E-01  0.54571865902E+01  0.51100000000E-03 0.  1.
        -12    1    3    3    0    0 -0.37367513776E+02  0.12311338240E+00  0.59817163563E+00  0.37372503957E+02  0.00000000000E+00 0.  1.
</event>
<event>
 7    1  0.1445801E-008  0.4614232E+02  0.7816164E-02  0.1320468E+00
        -11   -1    0    0    0    0  0.00000000000E+00  0.00000000000E+00  0.45593999997E+02  0.45594000000E+02  0.51100000000E-03 0. -1.
         11   -1    0    0    0    0 -0.00000000000E+00 -0.00000000000E+00 -0.45593999997E+02  0.45594000000E+02  0.51100000000E-03 0.  1.
    9900012    2    1    2    0    0  0.19685851819E+02  0.14777385791E+02 -0.37725449984E+02  0.46142317975E+02  0.10000001947E+02 0.  0.
         12    1    1    2    0    0 -0.19685851819E+02 -0.14777385791E+02  0.37725449984E+02  0.45045682025E+02  0.00000000000E+00 0. -1.
         11    1    3    3    0    0  0.82800041556E+00  0.20897741495E+01 -0.77890474187E+01  0.81069106715E+01  0.51100000000E-03 0. -1.
        -11    1    3    3    0    0  0.11167222167E+02  0.40779639074E+01 -0.16148332876E+02  0.20052563315E+02  0.51100000000E-03 0.  1.
        -12    1    3    3    0    0  0.76906292364E+01  0.86096477344E+01 -0.13788069689E+02  0.17982843988E+02  0.00000000000E+00 0.  1.
</event>
<event>
 7    1  0.1445801E-008  0.4614232E+02  0.7816164E-02  0.1320468E+00
        -11   -1    0    0    0    0  0.00000000000E+00  0.00000000000E+00  0.45593999997E+02  0.45594000000E+02  0.51100000000E-03 0.  1.
         11   -1    0    0    0    0 -0.00000000000E+00 -0.00000000000E+00 -0.45593999997E+02  0.45594000000E+02  0.51100000000E-03 0. -1.
    9900012    2    1    2    0    0 -0.32723517128E+02 -0.22129154421E+02 -0.21646834568E+02  0.46142317683E+02  0.99999992857E+01 0.  0.
         12    1    1    2    0    0  0.32723517128E+02  0.22129154421E+02  0.21646834568E+02  0.45045682317E+02  0.00000000000E+00 0. -1.
         11    1    3    3    0    0 -0.62132190516E+00 -0.11105284644E+01 -0.29884162367E+01  0.32480680789E+01  0.51100000000E-03 0. -1.
        -11    1    3    3    0    0 -0.20922437301E+02 -0.14674709721E+02 -0.14507192187E+02  0.29386291250E+02  0.51100000000E-03 0.  1.
        -12    1    3    3    0    0 -0.11179757921E+02 -0.63439162355E+01 -0.41512261442E+01  0.13507958354E+02  0.00000000000E+00 0.  1.
</event>
<event>
 7    1  0.1445801E-008  0.4614232E+02  0.7816164E-02  0.1320468E+00
        -11   -1    0    0    0    0  0.00000000000E+00  0.00000000000E+00  0.45593999997E+02  0.45594000000E+02  0.51100000000E-03 0.  1.
         11   -1    0    0    0    0 -0.00000000000E+00 -0.00000000000E+00 -0.45593999997E+02  0.45594000000E+02  0.51100000000E-03 0. -1.
    9900012    2    1    2    0    0  0.24132487142E+01 -0.13386026606E+02  0.42943031385E+02  0.46142318496E+02  0.10000006700E+02 0.  0.
         12    1    1    2    0    0 -0.24132487142E+01  0.13386026606E+02 -0.42943031385E+02  0.45045681504E+02  0.00000000000E+00 0. -1.
         11    1    3    3    0    0  0.27071977876E+00 -0.11285400521E+01  0.34774625560E-01  0.11610776819E+01  0.51100000000E-03 0. -1.
        -11    1    3    3    0    0 -0.15667935841E+01 -0.61877764668E+01  0.19964092731E+02  0.20959685555E+02  0.51100000000E-03 0.  1.
         12    1    3    3    0    0  0.37093225196E+01 -0.60697100869E+01  0.22944164029E+02  0.24021555259E+02  0.00000000000E+00 0. -1.
</event>
<event>
 7    1  0.1445801E-008  0.4614232E+02  0.7816164E-02  0.1320468E+00
        -11   -1    0    0    0    0  0.00000000000E+00  0.00000000000E+00  0.45593999997E+02  0.45594000000E+02  0.51100000000E-03 0.  1.
         11   -1    0    0    0    0 -0.00000000000E+00 -0.00000000000E+00 -0.45593999997E+02  0.45594000000E+02  0.51100000000E-03 0. -1.
    9900012    2    1    2    0    0 -0.44381011253E+02 -0.76972328201E+01  0.43810810710E+00  0.46142317725E+02  0.99999996665E+01 0.  0.
         12    1    1    2    0    0  0.44381011253E+02  0.76972328201E+01 -0.43810810710E+00  0.45045682275E+02  0.00000000000E+00 0. -1.
         11    1    3    3    0    0 -0.81840538787E+01 -0.15508354986E+01 -0.20680131178E+01  0.85825699618E+01  0.51100000000E-03 0. -1.
        -11    1    3    3    0    0 -0.24462365271E+01  0.67264014803E+00  0.18162535044E+01  0.31201434212E+01  0.51100000000E-03 0.  1.
        -12    1    3    3    0    0 -0.33750720847E+02 -0.68190374695E+01  0.68986772050E+00  0.34439604342E+02  0.00000000000E+00 0.  1.
</event>
<event>
 7    1  0.1445801E-008  0.4614232E+02  0.7816164E-02  0.1320468E+00
        -11   -1    0    0    0    0  0.00000000000E+00  0.00000000000E+00  0.45593999997E+02  0.45594000000E+02  0.51100000000E-03 0.  1.
         11   -1    0    0    0    0 -0.00000000000E+00 -0.00000000000E+00 -0.45593999997E+02  0.45594000000E+02  0.51100000000E-03 0. -1.
    9900012    2    1    2    0    0  0.17247008620E+02  0.34896015370E+02  0.22669855137E+02  0.46142317332E+02  0.99999960889E+01 0.  0.
         12    1    1    2    0    0 -0.17247008620E+02 -0.34896015370E+02 -0.22669855137E+02  0.45045682668E+02  0.00000000000E+00 0. -1.
         11    1    3    3    0    0  0.44727584066E+01  0.14849832796E+02  0.10598214381E+02  0.18784175525E+02  0.51100000000E-03 0. -1.
        -11    1    3    3    0    0  0.85369522119E+01  0.13051457715E+02  0.11056791905E+02  0.19117341579E+02  0.51100000000E-03 0.  1.
         12    1    3    3    0    0  0.42372980011E+01  0.69947248602E+01  0.10148488516E+01  0.82408002288E+01  0.00000000000E+00 0. -1.
</event>
<event>
 7    1  0.1445801E-008  0.4614232E+02  0.7816164E-02  0.1320468E+00
        -11   -1    0    0    0    0  0.00000000000E+00  0.00000000000E+00  0.45593999997E+02  0.45594000000E+02  0.51100000000E-03 0.  1.
         11   -1    0    0    0    0 -0.00000000000E+00 -0.00000000000E+00 -0.45593999997E+02  0.45594000000E+02  0.51100000000E-03 0. -1.
    9900012    2    1    2    0    0 -0.88491074893E+01  0.86438804629E+01  0.43313856861E+02  0.46142316866E+02  0.99999918396E+01 0.  0.
         12    1    1    2    0    0  0.88491074893E+01 -0.86438804629E+01 -0.43313856861E+02  0.45045683134E+02  0.00000000000E+00 0. -1.
         11    1    3    3    0    0 -0.37240614605E+01 -0.93505532470E+00  0.78885026733E+01  0.87733367033E+01  0.51100000000E-03 0. -1.
        -11    1    3    3    0    0 -0.87784114171E+00  0.65131666579E+01  0.21895262483E+02  0.22860325117E+02  0.51100000000E-03 0.  1.
        -12    1    3    3    0    0 -0.42472048871E+01  0.30657691297E+01  0.13530091705E+02  0.14508655046E+02  0.00000000000E+00 0.  1.
</event>
<event>
 7    1  0.1445801E-008  0.4614232E+02  0.7816164E-02  0.1320468E+00
        -11   -1    0    0    0    0  0.00000000000E+00  0.00000000000E+00  0.45593999997E+02  0.45594000000E+02  0.51100000000E-03 0. -1.
         11   -1    0    0    0    0 -0.00000000000E+00 -0.00000000000E+00 -0.45593999997E+02  0.45594000000E+02  0.51100000000E-03 0.  1.
    9900012    2    1    2    0    0  0.13506558140E+02  0.36485651270E+02 -0.22704266302E+02  0.46142316858E+02  0.99999917690E+01 0.  0.
         12    1    1    2    0    0 -0.13506558140E+02 -0.36485651270E+02  0.22704266302E+02  0.45045683142E+02  0.00000000000E+00 0. -1.
         11    1    3    3    0    0  0.93260607162E+01  0.14880481956E+02 -0.80887285333E+01  0.19334727339E+02  0.51100000000E-03 0. -1.
        -11    1    3    3    0    0  0.67332264494E-01  0.11605368385E+02 -0.66310104424E+01  0.13366353606E+02  0.51100000000E-03 0.  1.
        -12    1    3    3    0    0  0.41131651597E+01  0.99998009287E+01 -0.79845273266E+01  0.13441235913E+02  0.00000000000E+00 0.  1.
</event>
<event>
 7    1  0.1445801E-008  0.4614232E+02  0.7816164E-02  0.1320468E+00
        -11   -1    0    0    0    0  0.00000000000E+00  0.00000000000E+00  0.45593999997E+02  0.45594000000E+02  0.51100000000E-03 0.  1.
         11   -1    0    0    0    0 -0.00000000000E+00 -0.00000000000E+00 -0.45593999997E+02  0.45594000000E+02  0.51100000000E-03 0. -1.
    9900012    2    1    2    0    0 -0.74311680992E+00 -0.80168310561E+01  0.44320330989E+02  0.46142317169E+02  0.99999945986E+01 0.  0.
         12    1    1    2    0    0  0.74311680992E+00  0.80168310561E+01 -0.44320330989E+02  0.45045682831E+02  0.00000000000E+00 0. -1.
         11    1    3    3    0    0  0.43743170620E+00 -0.41045299454E+01  0.70872488089E+01  0.82016832730E+01  0.51100000000E-03 0. -1.
        -11    1    3    3    0    0  0.22988920006E+01 -0.16537689235E+01  0.99934412158E+01  0.10386949681E+02  0.51100000000E-03 0.  1.
         12    1    3    3    0    0 -0.34794405167E+01 -0.22585321872E+01  0.27239640964E+02  0.27553684215E+02  0.00000000000E+00 0. -1.
</event>
<event>
 7    1  0.1445801E-008  0.4614232E+02  0.7816164E-02  0.1320468E+00
        -11   -1    0    0    0    0  0.00000000000E+00  0.00000000000E+00  0.45593999997E+02  0.45594000000E+02  0.51100000000E-03 0.  1.
         11   -1    0    0    0    0 -0.00000000000E+00 -0.00000000000E+00 -0.45593999997E+02  0.45594000000E+02  0.51100000000E-03 0. -1.
    9900012    2    1    2    0    0 -0.79406008949E+01  0.34170171885E+02  0.28257029898E+02  0.46142317322E+02  0.99999959995E+01 0.  0.
         12    1    1    2    0    0  0.79406008949E+01 -0.34170171885E+02 -0.28257029898E+02  0.45045682678E+02  0.00000000000E+00 0. -1.
         11    1    3    3    0    0 -0.17603730312E+01  0.11505640430E+01  0.18134931812E+00  0.21108289041E+01  0.51100000000E-03 0. -1.
        -11    1    3    3    0    0 -0.64911587035E+01  0.31716430345E+02  0.25826275756E+02  0.41413326536E+02  0.51100000000E-03 0.  1.
        -12    1    3    3    0    0  0.31093083986E+00  0.13031774971E+01  0.22494048244E+01  0.26181618820E+01  0.00000000000E+00 0.  1.
</event>
<event>
 7    1  0.1445801E-008  0.4614231E+02  0.7816164E-02  0.1320468E+00
        -11   -1    0    0    0    0  0.00000000000E+00  0.00000000000E+00  0.45593999997E+02  0.45594000000E+02  0.51100000000E-03 0.  1.
         11   -1    0    0    0    0 -0.00000000000E+00 -0.00000000000E+00 -0.45593999997E+02  0.45594000000E+02  0.51100000000E-03 0. -1.
    9900012    2    1    2    0    0  0.97591528533E+01 -0.26537217664E+02  0.35066349716E+02  0.46142313545E+02  0.99999615580E+01 0.  0.
         12    1    1    2    0    0 -0.97591528533E+01  0.26537217664E+02 -0.35066349716E+02  0.45045686455E+02  0.00000000000E+00 0. -1.
         11    1    3    3    0    0  0.21253739556E+01 -0.11077130104E+01  0.11224703355E+01  0.26465416074E+01  0.51100000000E-03 0. -1.
        -11    1    3    3    0    0  0.54900124563E+00 -0.13804483462E+01  0.26375032658E+00  0.15088421058E+01  0.51100000000E-03 0.  1.
        -12    1    3    3    0    0  0.70847776521E+01 -0.24049056308E+02  0.33680129054E+02  0.41986929832E+02  0.00000000000E+00 0.  1.
</event>
<event>
 7    1  0.1445801E-008  0.4614232E+02  0.7816164E-02  0.1320468E+00
        -11   -1    0    0    0    0  0.00000000000E+00  0.00000000000E+00  0.45593999997E+02  0.45594000000E+02  0.51100000000E-03 0. -1.
         11   -1    0    0    0    0 -0.00000000000E+00 -0.00000000000E+00 -0.45593999997E+02  0.45594000000E+02  0.51100000000E-03 0.  1.
    9900012    2    1    2    0    0  0.27541190100E+02 -0.35342960202E+02  0.46337342044E+01  0.46142317846E+02  0.10000000777E+02 0.  0.
         12    1    1    2    0    0 -0.27541190100E+02  0.35342960202E+02 -0.46337342044E+01  0.45045682154E+02  0.00000000000E+00 0. -1.
         11    1    3    3    0    0  0.30266422950E+01 -0.75353347985E+01  0.33311409669E+01  0.87771484271E+01  0.51100000000E-03 0. -1.
        -11    1    3    3    0    0  0.22372634482E+02 -0.25636923860E+02  0.24323231869E+01  0.34113088911E+02  0.51100000000E-03 0.  1.
         12    1    3    3    0    0  0.21419133232E+01 -0.21707015439E+01 -0.11297299494E+01  0.32520805088E+01  0.00000000000E+00 0. -1.
</event>
<event>
 7    1  0.1445801E-008  0.4614232E+02  0.7816164E-02  0.1320468E+00
        -11   -1    0    0    0    0  0.00000000000E+00  0.00000000000E+00  0.45593999997E+02  0.45594000000E+02  0.51100000000E-03 0.  1.
         11   -1    0    0    0    0 -0.00000000000E+00 -0.00000000000E+00 -0.45593999997E+02  0.45594000000E+02  0.51100000000E-03 0. -1.
    9900012    2    1    2    0    0  0.35134751071E+01  0.44894516527E+02 -0.11186555486E+01  0.46142317502E+02  0.99999976336E+01 0.  0.
         12    1    1    2    0    0 -0.35134751071E+01 -0.44894516527E+02  0.11186555486E+01  0.45045682498E+02  0.00000000000E+00 0. -1.
         11    1    3    3    0    0  0.55217434929E+00  0.23317803692E+02 -0.51655285687E+01  0.23889486206E+02  0.51100000000E-03 0. -1.
        -11    1    3    3    0    0  0.91802704746E+00  0.13904024988E+02  0.22999484233E+01  0.14122834260E+02  0.51100000000E-03 0.  1.
         12    1    3    3    0    0  0.20432737104E+01  0.76726878466E+01  0.17469245967E+01  0.81299970353E+01  0.00000000000E+00 0. -1.
</event>
<event>
 7    1  0.1445801E-008  0.4614232E+02  0.7816164E-02  0.1320468E+00
        -11   -1    0    0    0    0  0.00000000000E+00  0.00000000000E+00  0.45593999997E+02  0.45594000000E+02  0.51100000000E-03 0.  1.
         11   -1    0    0    0    0 -0.00000000000E+00 -0.00000000000E+00 -0.45593999997E+02  0.45594000000E+02  0.51100000000E-03 0. -1.
    9900012    2    1    2    0    0 -0.44525378217E+02 -0.24999575035E+01  0.63525261381E+01  0.46142315620E+02  0.99999804800E+01 0.  0.
         12    1    1    2    0    0  0.44525378217E+02  0.24999575035E+01 -0.63525261381E+01  0.45045684380E+02  0.00000000000E+00 0. -1.
         11    1    3    3    0    0 -0.14687067470E+02 -0.43604427645E+01 -0.84721111331E+00  0.15344092638E+02  0.51100000000E-03 0. -1.
        -11    1    3    3    0    0 -0.27296289615E+02  0.12296274400E+01  0.66637401401E+01  0.28124808324E+02  0.51100000000E-03 0.  1.
         12    1    3    3    0    0 -0.25420211326E+01  0.63085782094E+00  0.53599711129E+00  0.26734146577E+01  0.00000000000E+00 0. -1.
</event>
<event>
 7    1  0.1445801E-008  0.4614232E+02  0.7816164E-02  0.1320468E+00
        -11   -1    0    0    0    0  0.00000000000E+00  0.00000000000E+00  0.45593999997E+02  0.45594000000E+02  0.51100000000E-03 0. -1.
         11   -1    0    0    0    0 -0.00000000000E+00 -0.00000000000E+00 -0.45593999997E+02  0.45594000000E+02  0.51100000000E-03 0.  1.
    9900012    2    1    2    0    0  0.39200556250E+02  0.12219086994E+02  0.18523603736E+02  0.46142316604E+02  0.99999894463E+01 0.  0.
         12    1    1    2    0    0 -0.39200556250E+02 -0.12219086994E+02 -0.18523603736E+02  0.45045683396E+02  0.00000000000E+00 0. -1.
         11    1    3    3    0    0  0.85640203403E+01  0.54525483957E+01  0.23707932292E+01  0.10425612174E+02  0.51100000000E-03 0. -1.
        -11    1    3    3    0    0  0.11003965950E+00 -0.46975728207E+00  0.26985814718E+00  0.55281489799E+00  0.51100000000E-03 0.  1.
        -12    1    3    3    0    0  0.30526496250E+02  0.72362958801E+01  0.15882952360E+02  0.35163889532E+02  0.00000000000E+00 0.  1.
</event>
<event>
 7    1  0.1445801E-008  0.4614232E+02  0.7816164E-02  0.1320468E+00
        -11   -1    0    0    0    0  0.00000000000E+00  0.00000000000E+00  0.45593999997E+02  0.45594000000E+02  0.51100000000E-03 0.  1.
         11   -1    0    0    0    0 -0.00000000000E+00 -0.00000000000E+00 -0.45593999997E+02  0.45594000000E+02  0.51100000000E-03 0. -1.
    9900012    2    1    2    0    0  0.13608517795E+01  0.11278737785E+02  0.43589579382E+02  0.46142320137E+02  0.10000021665E+02 0.  0.
         12    1    1    2    0    0 -0.13608517795E+01 -0.11278737785E+02 -0.43589579382E+02  0.45045679863E+02  0.00000000000E+00 0. -1.
         11    1    3    3    0    0  0.26067696807E+01  0.29215631674E+01  0.25170950647E+02  0.25473663581E+02  0.51100000000E-03 0. -1.
        -11    1    3    3    0    0 -0.16395708712E+01  0.19031407959E+01  0.81996739458E+01  0.85758259433E+01  0.51100000000E-03 0.  1.
         12    1    3    3    0    0  0.39365296998E+00  0.64540338214E+01  0.10218954789E+02  0.12092830612E+02  0.00000000000E+00 0. -1.
</event>
<event>
 7    1  0.1445801E-008  0.4614232E+02  0.7816164E-02  0.1320468E+00
        -11   -1    0    0    0    0  0.00000000000E+00  0.00000000000E+00  0.45593999997E+02  0.45594000000E+02  0.51100000000E-03 0.  1.
         11   -1    0    0    0    0 -0.00000000000E+00 -0.00000000000E+00 -0.45593999997E+02  0.45594000000E+02  0.51100000000E-03 0. -1.
    9900012    2    1    2    0    0 -0.40760788578E+02  0.49555241489E+01  0.18523348178E+02  0.46142317268E+02  0.99999955023E+01 0.  0.
         12    1    1    2    0    0  0.40760788578E+02 -0.49555241489E+01 -0.18523348178E+02  0.45045682732E+02  0.00000000000E+00 0. -1.
         11    1    3    3    0    0 -0.17908808602E+02 -0.25813575194E+01  0.87394468626E+01  0.20093948440E+02  0.51100000000E-03 0. -1.
        -11    1    3    3    0    0 -0.15802039851E+02  0.53059692151E+01  0.58023442460E+01  0.17650070022E+02  0.51100000000E-03 0.  1.
         12    1    3    3    0    0 -0.70499401246E+01  0.22309124532E+01  0.39815570694E+01  0.83982988058E+01  0.00000000000E+00 0. -1.
</event>
<event>
 7    1  0.1445801E-008  0.4614232E+02  0.7816164E-02  0.1320468E+00
        -11   -1    0    0    0    0  0.00000000000E+00  0.00000000000E+00  0.45593999997E+02  0.45594000000E+02  0.51100000000E-03 0.  1.
         11   -1    0    0    0    0 -0.00000000000E+00 -0.00000000000E+00 -0.45593999997E+02  0.45594000000E+02  0.51100000000E-03 0. -1.
    9900012    2    1    2    0    0  0.39040824477E+02 -0.20555800692E+02  0.90766828028E+01  0.46142322198E+02  0.10000040461E+02 0.  0.
         12    1    1    2    0    0 -0.39040824477E+02  0.20555800692E+02 -0.90766828028E+01  0.45045677802E+02  0.00000000000E+00 0. -1.
         11    1    3    3    0    0  0.33359388242E+01 -0.26564228106E+01  0.30773374888E+01  0.52588093965E+01  0.51100000000E-03 0. -1.
        -11    1    3    3    0    0  0.12600035666E+02 -0.86722705176E+01  0.20726605859E-01  0.15296065003E+02  0.51100000000E-03 0.  1.
        -12    1    3    3    0    0  0.23104849987E+02 -0.92271073641E+01  0.59786187082E+01  0.25587447799E+02  0.00000000000E+00 0.  1.
</event>
<event>
 7    1  0.1445801E-008  0.4614232E+02  0.7816164E-02  0.1320468E+00
        -11   -1    0    0    0    0  0.00000000000E+00  0.00000000000E+00  0.45593999997E+02  0.45594000000E+02  0.51100000000E-03 0.  1.
         11   -1    0    0    0    0 -0.00000000000E+00 -0.00000000000E+00 -0.45593999997E+02  0.45594000000E+02  0.51100000000E-03 0. -1.
    9900012    2    1    2    0    0  0.49103708170E+01  0.39041887091E+02  0.21925619606E+02  0.46142317806E+02  0.10000000410E+02 0.  0.
         12    1    1    2    0    0 -0.49103708170E+01 -0.39041887091E+02 -0.21925619606E+02  0.45045682194E+02  0.00000000000E+00 0. -1.
         11    1    3    3    0    0 -0.26682168935E+00  0.18585406885E+02  0.10128235545E+02  0.21167656895E+02  0.51100000000E-03 0. -1.
        -11    1    3    3    0    0  0.13800533920E+01  0.46837361032E+01  0.60245372319E+01  0.77548036963E+01  0.51100000000E-03 0.  1.
        -12    1    3    3    0    0  0.37971391143E+01  0.15772744103E+02  0.57728468297E+01  0.17219857215E+02  0.00000000000E+00 0.  1.
</event>
<event>
 7    1  0.1445801E-008  0.4614232E+02  0.7816164E-02  0.1320468E+00
        -11   -1    0    0    0    0  0.00000000000E+00  0.00000000000E+00  0.45593999997E+02  0.45594000000E+02  0.51100000000E-03 0.  1.
         11   -1    0    0    0    0 -0.00000000000E+00 -0.00000000000E+00 -0.45593999997E+02  0.45594000000E+02  0.51100000000E-03 0. -1.
    9900012    2    1    2    0    0 -0.21167038851E+02  0.25443609997E+02  0.30556384976E+02  0.46142317785E+02  0.10000000220E+02 0.  0.
         12    1    1    2    0    0  0.21167038851E+02 -0.25443609997E+02 -0.30556384976E+02  0.45045682215E+02  0.00000000000E+00 0. -1.
         11    1    3    3    0    0 -0.46791321872E+01  0.25298346012E+01  0.15814133772E+01  0.55493431742E+01  0.51100000000E-03 0. -1.
        -11    1    3    3    0    0 -0.15354215117E+02  0.22242325558E+02  0.26881659683E+02  0.38119504137E+02  0.51100000000E-03 0.  1.
         12    1    3    3    0    0 -0.11336915470E+01  0.67144983753E+00  0.20933119159E+01  0.24734704740E+01  0.00000000000E+00 0. -1.
</event>
<event>
 7    1  0.1445801E-008  0.4614232E+02  0.7816164E-02  0.1320468E+00
        -11   -1    0    0    0    0  0.00000000000E+00  0.00000000000E+00  0.45593999997E+02  0.45594000000E+02  0.51100000000E-03 0.  1.
         11   -1    0    0    0    0 -0.00000000000E+00 -0.00000000000E+00 -0.45593999997E+02  0.45594000000E+02  0.51100000000E-03 0. -1.
    9900012    2    1    2    0    0  0.10683508397E+02  0.41172256615E+02 -0.14826375476E+02  0.46142317896E+02  0.10000001232E+02 0.  0.
         12    1    1    2    0    0 -0.10683508397E+02 -0.41172256615E+02  0.14826375476E+02  0.45045682104E+02  0.00000000000E+00 0. -1.
         11    1    3    3    0    0  0.14896786425E+01  0.51352073418E+00 -0.11524615152E+01  0.19521818070E+01  0.51100000000E-03 0. -1.
        -11    1    3    3    0    0  0.80896112269E+01  0.27495223319E+02 -0.76014705164E+01  0.29651500290E+02  0.51100000000E-03 0.  1.
         12    1    3    3    0    0  0.11042185274E+01  0.13163512562E+02 -0.60724434442E+01  0.14538635799E+02  0.00000000000E+00 0. -1.
</event>
<event>
 7    1  0.1445801E-008  0.4614232E+02  0.7816164E-02  0.1320468E+00
        -11   -1    0    0    0    0  0.00000000000E+00  0.00000000000E+00  0.45593999997E+02  0.45594000000E+02  0.51100000000E-03 0. -1.
         11   -1    0    0    0    0 -0.00000000000E+00 -0.00000000000E+00 -0.45593999997E+02  0.45594000000E+02  0.51100000000E-03 0.  1.
    9900012    2    1    2    0    0  0.25606815944E+02  0.24206009460E+02  0.28061959930E+02  0.46142317500E+02  0.99999976198E+01 0.  0.
         12    1    1    2    0    0 -0.25606815944E+02 -0.24206009460E+02 -0.28061959930E+02  0.45045682500E+02  0.00000000000E+00 0. -1.
         11    1    3    3    0    0  0.11477134106E+02  0.95998262961E+01  0.72904921411E+01  0.16644294762E+02  0.51100000000E-03 0. -1.
        -11    1    3    3    0    0  0.10061028899E+02  0.12960082452E+02  0.17739511593E+02  0.24163574063E+02  0.51100000000E-03 0.  1.
        -12    1    3    3    0    0  0.40686529400E+01  0.16461007115E+01  0.30319561956E+01  0.53344486754E+01  0.00000000000E+00 0.  1.
</event>
<event>
 7    1  0.1445801E-008  0.4614232E+02  0.7816164E-02  0.1320468E+00
        -11   -1    0    0    0    0  0.00000000000E+00  0.00000000000E+00  0.45593999997E+02  0.45594000000E+02  0.51100000000E-03 0.  1.
         11   -1    0    0    0    0 -0.00000000000E+00 -0.00000000000E+00 -0.45593999997E+02  0.45594000000E+02  0.51100000000E-03 0. -1.
    9900012    2    1    2    0    0  0.11524767655E+02  0.12528725856E+02  0.41705206419E+02  0.46142317815E+02  0.10000000492E+02 0.  0.
         12    1    1    2    0    0 -0.11524767655E+02 -0.12528725856E+02 -0.41705206419E+02  0.45045682185E+02  0.00000000000E+00 0. -1.
         11    1    3    3    0    0  0.35544390798E+01  0.99266893775E+01  0.23778485296E+02  0.26011335268E+02  0.51100000000E-03 0. -1.
        -11    1    3    3    0    0  0.13113821709E+01  0.18808699213E+01  0.64158029394E+01  0.68132167496E+01  0.51100000000E-03 0.  1.
         12    1    3    3    0    0  0.66589464048E+01  0.72116655748E+00  0.11510918183E+02  0.13317765798E+02  0.00000000000E+00 0. -1.
</event>
<event>
 7    1  0.1445801E-008  0.4614232E+02  0.7816164E-02  0.1320468E+00
        -11   -1    0    0    0    0  0.00000000000E+00  0.00000000000E+00  0.45593999997E+02  0.45594000000E+02  0.51100000000E-03 0.  1.
         11   -1    0    0    0    0 -0.00000000000E+00 -0.00000000000E+00 -0.45593999997E+02  0.45594000000E+02  0.51100000000E-03 0. -1.
    9900012    2    1    2    0    0 -0.17061510335E+02 -0.17049964230E+02  0.38043621406E+02  0.46142317134E+02  0.99999942846E+01 0.  0.
         12    1    1    2    0    0  0.17061510335E+02  0.17049964230E+02 -0.38043621406E+02  0.45045682866E+02  0.00000000000E+00 0. -1.
         11    1    3    3    0    0 -0.68022709305E+01 -0.82105063778E+01  0.92054965382E+01  0.14086322145E+02  0.51100000000E-03 0. -1.
        -11    1    3    3    0    0 -0.33151139960E+01 -0.39005284532E+01  0.14496762827E+02  0.15374011700E+02  0.51100000000E-03 0.  1.
        -12    1    3    3    0    0 -0.69441254082E+01 -0.49389293994E+01  0.14341362040E+02  0.16681983290E+02  0.00000000000E+00 0.  1.
</event>
<event>
 7    1  0.1445801E-008  0.4614232E+02  0.7816164E-02  0.1320468E+00
        -11   -1    0    0    0    0  0.00000000000E+00  0.00000000000E+00  0.45593999997E+02  0.45594000000E+02  0.51100000000E-03 0.  1.
         11   -1    0    0    0    0 -0.00000000000E+00 -0.00000000000E+00 -0.45593999997E+02  0.45594000000E+02  0.51100000000E-03 0. -1.
    9900012    2    1    2    0    0 -0.39120425901E+01 -0.19159666603E+01  0.44834566338E+02  0.46142319362E+02  0.10000014595E+02 0.  0.
         12    1    1    2    0    0  0.39120425901E+01  0.19159666603E+01 -0.44834566338E+02  0.45045680638E+02  0.00000000000E+00 0. -1.
         11    1    3    3    0    0  0.46297284097E+00  0.29535247858E+00 -0.35233661841E+00  0.65247091266E+00  0.51100000000E-03 0. -1.
        -11    1    3    3    0    0 -0.36914833642E+01 -0.98577487713E+00  0.31352944102E+02  0.31584899963E+02  0.51100000000E-03 0.  1.
        -12    1    3    3    0    0 -0.68353206686E+00 -0.12255442618E+01  0.13833958854E+02  0.13904948486E+02  0.00000000000E+00 0.  1.
</event>
<event>
 7    1  0.1445801E-008  0.4614232E+02  0.7816164E-02  0.1320468E+00
        -11   -1    0    0    0    0  0.00000000000E+00  0.00000000000E+00  0.45593999997E+02  0.45594000000E+02  0.51100000000E-03 0.  1.
         11   -1    0    0    0    0 -0.00000000000E+00 -0.00000000000E+00 -0.45593999997E+02  0.45594000000E+02  0.51100000000E-03 0. -1.
    9900012    2    1    2    0    0  0.44909816078E+02 -0.29500281490E+01  0.18759694051E+01  0.46142317550E+02  0.99999980708E+01 0.  0.
         12    1    1    2    0    0 -0.44909816078E+02  0.29500281490E+01 -0.18759694051E+01  0.45045682450E+02  0.00000000000E+00 0. -1.
         11    1    3    3    0    0  0.32020000010E+01  0.60397527421E+00  0.12271624287E+01  0.34818842637E+01  0.51100000000E-03 0. -1.
        -11    1    3    3    0    0  0.42082044776E+02 -0.35584208540E+01  0.83913824747E+00  0.42240561132E+02  0.51100000000E-03 0.  1.
        -12    1    3    3    0    0 -0.37422869899E+00  0.44174307607E-02 -0.19033127110E+00  0.41987215388E+00  0.00000000000E+00 0.  1.
</event>
<event>
 7    1  0.1445801E-008  0.4614231E+02  0.7816164E-02  0.1320468E+00
        -11   -1    0    0    0    0  0.00000000000E+00  0.00000000000E+00  0.45593999997E+02  0.45594000000E+02  0.51100000000E-03 0. -1.
         11   -1    0    0    0    0 -0.00000000000E+00 -0.00000000000E+00 -0.45593999997E+02  0.45594000000E+02  0.51100000000E-03 0.  1.
    9900012    2    1    2    0    0  0.18852784482E+02 -0.40908098870E+02  0.46287664678E+00  0.46142308855E+02  0.99999187900E+01 0.  0.
         12    1    1    2    0    0 -0.18852784482E+02  0.40908098870E+02 -0.46287664678E+00  0.45045691145E+02  0.00000000000E+00 0. -1.
         11    1    3    3    0    0  0.29537343805E+01 -0.89411961017E+01  0.16924589038E+01  0.95673377656E+01  0.51100000000E-03 0. -1.
        -11    1    3    3    0    0  0.26452954297E+01 -0.12167991482E+01 -0.10331976804E+01  0.30896093257E+01  0.51100000000E-03 0.  1.
        -12    1    3    3    0    0  0.13253754671E+02 -0.30750103621E+02 -0.19638457665E+00  0.33485361764E+02  0.00000000000E+00 0.  1.
</event>
<event>
 7    1  0.1445801E-008  0.4614232E+02  0.7816164E-02  0.1320468E+00
        -11   -1    0    0    0    0  0.00000000000E+00  0.00000000000E+00  0.45593999997E+02  0.45594000000E+02  0.51100000000E-03 0.  1.
         11   -1    0    0    0    0 -0.00000000000E+00 -0.00000000000E+00 -0.45593999997E+02  0.45594000000E+02  0.51100000000E-03 0. -1.
    9900012    2    1    2    0    0 -0.19891090935E-01  0.43710901387E+02  0.10884403747E+02  0.46142317181E+02  0.99999947071E+01 0.  0.
         12    1    1    2    0    0  0.19891090935E-01 -0.43710901387E+02 -0.10884403747E+02  0.45045682819E+02  0.00000000000E+00 0. -1.
         11    1    3    3    0    0  0.55960416870E+00  0.79340589044E+00  0.61441799569E+00  0.11489819264E+01  0.51100000000E-03 0. -1.
        -11    1    3    3    0    0  0.26198969090E+01  0.15056016922E+02  0.48235828981E+00  0.15289871653E+02  0.51100000000E-03 0.  1.
        -12    1    3    3    0    0 -0.31993921686E+01  0.27861478575E+02  0.97876274614E+01  0.29703463602E+02  0.00000000000E+00 0.  1.
</event>
<event>
 7    1  0.1445801E-008  0.4614232E+02  0.7816164E-02  0.1320468E+00
        -11   -1    0    0    0    0  0.00000000000E+00  0.00000000000E+00  0.45593999997E+02  0.45594000000E+02  0.51100000000E-03 0. -1.
         11   -1    0    0    0    0 -0.00000000000E+00 -0.00000000000E+00 -0.45593999997E+02  0.45594000000E+02  0.51100000000E-03 0.  1.
    9900012    2    1    2    0    0  0.10671257695E+02  0.43565394218E+02 -0.41586202367E+01  0.46142318337E+02  0.10000005255E+02 0.  0.
         12    1    1    2    0    0 -0.10671257695E+02 -0.43565394218E+02  0.41586202367E+01  0.45045681663E+02  0.00000000000E+00 0. -1.
         11    1    3    3    0    0  0.97151242182E+01  0.28023830583E+02 -0.92250005279E+00  0.29674395120E+02  0.51100000000E-03 0. -1.
        -11    1    3    3    0    0 -0.12680656679E+01  0.63833366310E+01 -0.14604608730E-01  0.65080865573E+01  0.51100000000E-03 0.  1.
        -12    1    3    3    0    0  0.22241991449E+01  0.91582270040E+01 -0.32215155752E+01  0.99598366600E+01  0.00000000000E+00 0.  1.
</event>
<event>
 7    1  0.1445801E-008  0.4614232E+02  0.7816164E-02  0.1320468E+00
        -11   -1    0    0    0    0  0.00000000000E+00  0.00000000000E+00  0.45593999997E+02  0.45594000000E+02  0.51100000000E-03 0.  1.
         11   -1    0    0    0    0 -0.00000000000E+00 -0.00000000000E+00 -0.45593999997E+02  0.45594000000E+02  0.51100000000E-03 0. -1.
    9900012    2    1    2    0    0 -0.21687186322E+02  0.38078581500E+01  0.39297323314E+02  0.46142318144E+02  0.10000003489E+02 0.  0.
         12    1    1    2    0    0  0.21687186322E+02 -0.38078581500E+01 -0.39297323314E+02  0.45045681856E+02  0.00000000000E+00 0. -1.
         11    1    3    3    0    0 -0.40698527860E+01  0.27469901072E+01  0.94568778893E+01  0.10655618050E+02  0.51100000000E-03 0. -1.
        -11    1    3    3    0    0 -0.16798362441E+02  0.18718538024E+01  0.29884543566E+02  0.34333289411E+02  0.51100000000E-03 0.  1.
        -12    1    3    3    0    0 -0.81897109554E+00 -0.81098575958E+00 -0.44098141691E-01  0.11534106830E+01  0.00000000000E+00 0.  1.
</event>
<event>
 7    1  0.1445801E-008  0.4614232E+02  0.7816164E-02  0.1320468E+00
        -11   -1    0    0    0    0  0.00000000000E+00  0.00000000000E+00  0.45593999997E+02  0.45594000000E+02  0.51100000000E-03 0.  1.
         11   -1    0    0    0    0 -0.00000000000E+00 -0.00000000000E+00 -0.45593999997E+02  0.45594000000E+02  0.51100000000E-03 0. -1.
    9900012    2    1    2    0    0  0.64740168682E+01  0.58819298068E+01  0.44188272935E+02  0.46142318102E+02  0.10000003109E+02 0.  0.
         12    1    1    2    0    0 -0.64740168682E+01 -0.58819298068E+01 -0.44188272935E+02  0.45045681898E+02  0.00000000000E+00 0. -1.
         11    1    3    3    0    0  0.61304753972E+00 -0.17643771487E+00  0.18500929611E+02  0.18511924651E+02  0.51100000000E-03 0.  1.
        -11    1    3    3    0    0  0.21044479841E+01  0.31212678479E+00  0.18342666987E+01  0.28090316891E+01  0.51100000000E-03 0. -1.
        -12    1    3    3    0    0  0.37565213444E+01  0.57462407369E+01  0.23853076625E+02  0.24821361762E+02  0.00000000000E+00 0.  1.
</event>
<event>
 7    1  0.1445801E-008  0.4614232E+02  0.7816164E-02  0.1320468E+00
        -11   -1    0    0    0    0  0.00000000000E+00  0.00000000000E+00  0.45593999997E+02  0.45594000000E+02  0.51100000000E-03 0. -1.
         11   -1    0    0    0    0 -0.00000000000E+00 -0.00000000000E+00 -0.45593999997E+02  0.45594000000E+02  0.51100000000E-03 0.  1.
    9900012    2    1    2    0    0 -0.32261467486E+02  0.15260359409E+01 -0.31400360389E+02  0.46142315384E+02  0.99999783212E+01 0.  0.
         12    1    1    2    0    0  0.32261467486E+02 -0.15260359409E+01  0.31400360389E+02  0.45045684616E+02  0.00000000000E+00 0. -1.
         11    1    3    3    0    0 -0.24216517811E+01  0.39832450895E+00  0.30238080647E+00  0.24727503264E+01  0.51100000000E-03 0. -1.
        -11    1    3    3    0    0 -0.18154931508E+02  0.95583651694E+00 -0.17017909100E+02  0.24902296920E+02  0.51100000000E-03 0.  1.
         12    1    3    3    0    0 -0.11684884197E+02  0.17187491506E+00 -0.14684832095E+02  0.18767268137E+02  0.00000000000E+00 0. -1.
</event>
<event>
 7    1  0.1445801E-008  0.4614231E+02  0.7816164E-02  0.1320468E+00
        -11   -1    0    0    0    0  0.00000000000E+00  0.00000000000E+00  0.45593999997E+02  0.45594000000E+02  0.51100000000E-03 0.  1.
         11   -1    0    0    0    0 -0.00000000000E+00 -0.00000000000E+00 -0.45593999997E+02  0.45594000000E+02  0.51100000000E-03 0. -1.
    9900012    2    1    2    0    0  0.31624845552E+02 -0.18887892614E+02  0.25927410641E+02  0.46142312458E+02  0.99999516417E+01 0.  0.
         12    1    1    2    0    0 -0.31624845552E+02  0.18887892614E+02 -0.25927410641E+02  0.45045687542E+02  0.00000000000E+00 0. -1.
         11    1    3    3    0    0  0.22639289925E+02 -0.81977561783E+01  0.16107029104E+02  0.28968552631E+02  0.51100000000E-03 0.  1.
        -11    1    3    3    0    0  0.70927138113E+01 -0.77028956077E+01  0.81159125177E+01  0.13247989516E+02  0.51100000000E-03 0. -1.
        -12    1    3    3    0    0  0.18928418156E+01 -0.29872408284E+01  0.17044690186E+01  0.39257703118E+01  0.00000000000E+00 0.  1.
</event>
<event>
 7    1  0.1445801E-008  0.4614232E+02  0.7816164E-02  0.1320468E+00
        -11   -1    0    0    0    0  0.00000000000E+00  0.00000000000E+00  0.45593999997E+02  0.45594000000E+02  0.51100000000E-03 0. -1.
         11   -1    0    0    0    0 -0.00000000000E+00 -0.00000000000E+00 -0.45593999997E+02  0.45594000000E+02  0.51100000000E-03 0.  1.
    9900012    2    1    2    0    0 -0.44972949425E+02  0.25565141656E+01  0.10757638942E+00  0.46142317439E+02  0.99999970670E+01 0.  0.
         12    1    1    2    0    0  0.44972949425E+02 -0.25565141656E+01 -0.10757638942E+00  0.45045682561E+02  0.00000000000E+00 0. -1.
         11    1    3    3    0    0 -0.12317676909E+02  0.30443780757E+01  0.36876262005E+01  0.13213326211E+02  0.51100000000E-03 0. -1.
        -11    1    3    3    0    0 -0.29310261751E+02 -0.11087987745E+01 -0.32587586698E+01  0.29511699154E+02  0.51100000000E-03 0.  1.
         12    1    3    3    0    0 -0.33450107647E+01  0.62093486437E+00 -0.32129114127E+00  0.34172920740E+01  0.00000000000E+00 0. -1.
</event>
<event>
 7    1  0.1445801E-008  0.4614232E+02  0.7816164E-02  0.1320468E+00
        -11   -1    0    0    0    0  0.00000000000E+00  0.00000000000E+00  0.45593999997E+02  0.45594000000E+02  0.51100000000E-03 0.  1.
         11   -1    0    0    0    0 -0.00000000000E+00 -0.00000000000E+00 -0.45593999997E+02  0.45594000000E+02  0.51100000000E-03 0. -1.
    9900012    2    1    2    0    0 -0.54744604257E+01  0.13722482825E+02  0.42553933985E+02  0.46142317083E+02  0.99999938197E+01 0.  0.
         12    1    1    2    0    0  0.54744604257E+01 -0.13722482825E+02 -0.42553933985E+02  0.45045682917E+02  0.00000000000E+00 0. -1.
         11    1    3    3    0    0 -0.25810762864E+01  0.49869025056E+01  0.83083387417E+01  0.10027943174E+02  0.51100000000E-03 0. -1.
        -11    1    3    3    0    0 -0.21143090049E+01  0.53122975342E+01  0.92572418921E+01  0.10880594440E+02  0.51100000000E-03 0.  1.
         12    1    3    3    0    0 -0.77907513441E+00  0.34232827849E+01  0.24988353351E+02  0.25233779469E+02  0.00000000000E+00 0. -1.
</event>
<event>
 7    1  0.1445801E-008  0.4614232E+02  0.7816164E-02  0.1320468E+00
        -11   -1    0    0    0    0  0.00000000000E+00  0.00000000000E+00  0.45593999997E+02  0.45594000000E+02  0.51100000000E-03 0.  1.
         11   -1    0    0    0    0 -0.00000000000E+00 -0.00000000000E+00 -0.45593999997E+02  0.45594000000E+02  0.51100000000E-03 0. -1.
    9900012    2    1    2    0    0 -0.20995781337E+02 -0.84067326767E+01  0.38956610891E+02  0.46142317406E+02  0.99999967653E+01 0.  0.
         12    1    1    2    0    0  0.20995781337E+02  0.84067326767E+01 -0.38956610891E+02  0.45045682594E+02  0.00000000000E+00 0. -1.
         11    1    3    3    0    0 -0.12566806090E+02 -0.65829530467E+01  0.19621673082E+02  0.24213011810E+02  0.51100000000E-03 0. -1.
        -11    1    3    3    0    0 -0.20431267629E+01  0.18216534088E+01  0.76322132348E+01  0.81082345325E+01  0.51100000000E-03 0.  1.
        -12    1    3    3    0    0 -0.63858484842E+01 -0.36454330388E+01  0.11702724573E+02  0.13821071064E+02  0.00000000000E+00 0.  1.
</event>
<event>
 7    1  0.1445801E-008  0.4614231E+02  0.7816164E-02  0.1320468E+00
        -11   -1    0    0    0    0  0.00000000000E+00  0.00000000000E+00  0.45593999997E+02  0.45594000000E+02  0.51100000000E-03 0.  1.
         11   -1    0    0    0    0 -0.00000000000E+00 -0.00000000000E+00 -0.45593999997E+02  0.45594000000E+02  0.51100000000E-03 0. -1.
    9900012    2    1    2    0    0 -0.23924255279E+01 -0.23441897709E+01  0.44920993124E+02  0.46142305990E+02  0.99998926594E+01 0.  0.
         12    1    1    2    0    0  0.23924255279E+01  0.23441897709E+01 -0.44920993124E+02  0.45045694010E+02  0.00000000000E+00 0. -1.
         11    1    3    3    0    0  0.12766443849E+01 -0.12316622162E+01  0.15594887727E+01  0.23619521997E+01  0.51100000000E-03 0. -1.
        -11    1    3    3    0    0 -0.32490070124E+01 -0.27456974546E+00  0.42005785449E+02  0.42132142677E+02  0.51100000000E-03 0.  1.
        -12    1    3    3    0    0 -0.42006290049E+00 -0.83795780924E+00  0.13557189027E+01  0.16482111132E+01  0.00000000000E+00 0.  1.
</event>
<event>
 7    1  0.1445801E-008  0.4614232E+02  0.7816164E-02  0.1320468E+00
        -11   -1    0    0    0    0  0.00000000000E+00  0.00000000000E+00  0.45593999997E+02  0.45594000000E+02  0.51100000000E-03 0. -1.
         11   -1    0    0    0    0 -0.00000000000E+00 -0.00000000000E+00 -0.45593999997E+02  0.45594000000E+02  0.51100000000E-03 0.  1.
    9900012    2    1    2    0    0 -0.37768658025E+02 -0.22362073057E+02 -0.10128167373E+02  0.46142316358E+02  0.99999872078E+01 0.  0.
         12    1    1    2    0    0  0.37768658025E+02  0.22362073057E+02  0.10128167373E+02  0.45045683642E+02  0.00000000000E+00 0. -1.
         11    1    3    3    0    0 -0.75554902264E+01 -0.32251040242E+01 -0.51068581672E+01  0.96729896686E+01  0.51100000000E-03 0. -1.
        -11    1    3    3    0    0 -0.10965400108E+02 -0.67687613098E+01 -0.42794742718E+01  0.13578292584E+02  0.51100000000E-03 0.  1.
         12    1    3    3    0    0 -0.19247767691E+02 -0.12368207723E+02 -0.74183493425E+00  0.22891034106E+02  0.00000000000E+00 0. -1.
</event>
<event>
 7    1  0.1445801E-008  0.4614232E+02  0.7816164E-02  0.1320468E+00
        -11   -1    0    0    0    0  0.00000000000E+00  0.00000000000E+00  0.45593999997E+02  0.45594000000E+02  0.51100000000E-03 0. -1.
         11   -1    0    0    0    0 -0.00000000000E+00 -0.00000000000E+00 -0.45593999997E+02  0.45594000000E+02  0.51100000000E-03 0.  1.
    9900012    2    1    2    0    0 -0.26065359348E+02  0.33935469201E+02  0.14074603847E+02  0.46142317618E+02  0.99999986955E+01 0.  0.
         12    1    1    2    0    0  0.26065359348E+02 -0.33935469201E+02 -0.14074603847E+02  0.45045682382E+02  0.00000000000E+00 0. -1.
         11    1    3    3    0    0 -0.99638662667E+01  0.17552756723E+02  0.10145345602E+02  0.22589952129E+02  0.51100000000E-03 0.  1.
        -11    1    3    3    0    0 -0.15221423436E+02  0.15531675600E+02  0.44904774394E+01  0.22205608891E+02  0.51100000000E-03 0. -1.
         12    1    3    3    0    0 -0.88006964553E+00  0.85103687798E+00 -0.56121919427E+00  0.13467565974E+01  0.00000000000E+00 0. -1.
</event>
<event>
 7    1  0.1445801E-008  0.4614232E+02  0.7816164E-02  0.1320468E+00
        -11   -1    0    0    0    0  0.00000000000E+00  0.00000000000E+00  0.45593999997E+02  0.45594000000E+02  0.51100000000E-03 0. -1.
         11   -1    0    0    0    0 -0.00000000000E+00 -0.00000000000E+00 -0.45593999997E+02  0.45594000000E+02  0.51100000000E-03 0.  1.
    9900012    2    1    2    0    0 -0.24296537989E+02 -0.36702472223E+02 -0.95770686713E+01  0.46142317967E+02  0.10000001875E+02 0.  0.
         12    1    1    2    0    0  0.24296537989E+02  0.36702472223E+02  0.95770686713E+01  0.45045682033E+02  0.00000000000E+00 0. -1.
         11    1    3    3    0    0 -0.14634158660E+02 -0.14780849836E+02 -0.18382905679E+01  0.20880886812E+02  0.51100000000E-03 0. -1.
        -11    1    3    3    0    0 -0.62203054070E+01 -0.16241355944E+02 -0.52225657794E+01  0.18158993250E+02  0.51100000000E-03 0.  1.
         12    1    3    3    0    0 -0.34420739216E+01 -0.56802664424E+01 -0.25162123240E+01  0.71024379052E+01  0.00000000000E+00 0. -1.
</event>
<event>
 7    1  0.1445801E-008  0.4614232E+02  0.7816164E-02  0.1320468E+00
        -11   -1    0    0    0    0  0.00000000000E+00  0.00000000000E+00  0.45593999997E+02  0.45594000000E+02  0.51100000000E-03 0. -1.
         11   -1    0    0    0    0 -0.00000000000E+00 -0.00000000000E+00 -0.45593999997E+02  0.45594000000E+02  0.51100000000E-03 0.  1.
    9900012    2    1    2    0    0 -0.44407561434E+02 -0.51407808167E+01 -0.55366187306E+01  0.46142319997E+02  0.10000020391E+02 0.  0.
         12    1    1    2    0    0  0.44407561434E+02  0.51407808167E+01  0.55366187306E+01  0.45045680003E+02  0.00000000000E+00 0. -1.
         11    1    3    3    0    0 -0.29522807097E+02 -0.37463975445E+01  0.48198240610E+00  0.29763466545E+02  0.51100000000E-03 0. -1.
        -11    1    3    3    0    0 -0.99648707839E+01  0.11968574575E+00 -0.49260154304E+01  0.11116591326E+02  0.51100000000E-03 0.  1.
         12    1    3    3    0    0 -0.49198835530E+01 -0.15140690179E+01 -0.10925857063E+01  0.52622621269E+01  0.00000000000E+00 0. -1.
</event>
<event>
 7    1  0.1445801E-008  0.4614232E+02  0.7816164E-02  0.1320468E+00
        -11   -1    0    0    0    0  0.00000000000E+00  0.00000000000E+00  0.45593999997E+02  0.45594000000E+02  0.51100000000E-03 0. -1.
         11   -1    0    0    0    0 -0.00000000000E+00 -0.00000000000E+00 -0.45593999997E+02  0.45594000000E+02  0.51100000000E-03 0.  1.
    9900012    2    1    2    0    0 -0.24910625303E+01  0.28790023867E+02 -0.34554922527E+02  0.46142317214E+02  0.99999950076E+01 0.  0.
         12    1    1    2    0    0  0.24910625303E+01 -0.28790023867E+02  0.34554922527E+02  0.45045682786E+02  0.00000000000E+00 0. -1.
         11    1    3    3    0    0  0.76023780224E+00 -0.39454099987E+00 -0.16267735715E+01  0.18384821540E+01  0.51100000000E-03 0. -1.
        -11    1    3    3    0    0 -0.11222070311E+01  0.27629268099E+01 -0.21040823894E+01  0.36496953489E+01  0.51100000000E-03 0.  1.
         12    1    3    3    0    0 -0.21290933014E+01  0.26421638057E+02 -0.30824066567E+02  0.40654139711E+02  0.00000000000E+00 0. -1.
</event>
<event>
 7    1  0.1445801E-008  0.4614232E+02  0.7816164E-02  0.1320468E+00
        -11   -1    0    0    0    0  0.00000000000E+00  0.00000000000E+00  0.45593999997E+02  0.45594000000E+02  0.51100000000E-03 0.  1.
         11   -1    0    0    0    0 -0.00000000000E+00 -0.00000000000E+00 -0.45593999997E+02  0.45594000000E+02  0.51100000000E-03 0. -1.
    9900012    2    1    2    0    0  0.18176025485E+02 -0.73830666156E+01  0.40549179244E+02  0.46142317494E+02  0.99999975609E+01 0.  0.
         12    1    1    2    0    0 -0.18176025485E+02  0.73830666156E+01 -0.40549179244E+02  0.45045682506E+02  0.00000000000E+00 0. -1.
         11    1    3    3    0    0  0.56378370919E+01  0.96703716474E+00  0.17587640642E+02  0.18494471378E+02  0.51100000000E-03 0. -1.
        -11    1    3    3    0    0  0.59213534417E+01 -0.36900023843E+01  0.13506373090E+02  0.15201995214E+02  0.51100000000E-03 0.  1.
         12    1    3    3    0    0  0.66168349513E+01 -0.46601013960E+01  0.94551655127E+01  0.12445850902E+02  0.00000000000E+00 0. -1.
</event>
<event>
 7    1  0.1445801E-008  0.4614232E+02  0.7816164E-02  0.1320468E+00
        -11   -1    0    0    0    0  0.00000000000E+00  0.00000000000E+00  0.45593999997E+02  0.45594000000E+02  0.51100000000E-03 0. -1.
         11   -1    0    0    0    0 -0.00000000000E+00 -0.00000000000E+00 -0.45593999997E+02  0.45594000000E+02  0.51100000000E-03 0.  1.
    9900012    2    1    2    0    0 -0.11318201470E+02  0.41931587947E+01 -0.43398493493E+02  0.46142317603E+02  0.99999985545E+01 0.  0.
         12    1    1    2    0    0  0.11318201470E+02 -0.41931587947E+01  0.43398493493E+02  0.45045682397E+02  0.00000000000E+00 0. -1.
         11    1    3    3    0    0 -0.97636563073E+01  0.34595896320E+01 -0.26639264904E+02  0.28582305362E+02  0.51100000000E-03 0. -1.
        -11    1    3    3    0    0 -0.57482986669E+00  0.70092587763E+00 -0.16528014009E+02  0.16552853947E+02  0.51100000000E-03 0.  1.
        -12    1    3    3    0    0 -0.97971529645E+00  0.32643285032E-01 -0.23121457991E+00  0.10071582935E+01  0.00000000000E+00 0.  1.
</event>
<event>
 7    1  0.1445801E-008  0.4614232E+02  0.7816164E-02  0.1320468E+00
        -11   -1    0    0    0    0  0.00000000000E+00  0.00000000000E+00  0.45593999997E+02  0.45594000000E+02  0.51100000000E-03 0.  1.
         11   -1    0    0    0    0 -0.00000000000E+00 -0.00000000000E+00 -0.45593999997E+02  0.45594000000E+02  0.51100000000E-03 0. -1.
    9900012    2    1    2    0    0 -0.16574018324E+02  0.17433281595E+02  0.38085379886E+02  0.46142317059E+02  0.99999935935E+01 0.  0.
         12    1    1    2    0    0  0.16574018324E+02 -0.17433281595E+02 -0.38085379886E+02  0.45045682941E+02  0.00000000000E+00 0. -1.
         11    1    3    3    0    0  0.65573229072E+00  0.12856221472E+01  0.25662176550E+01  0.29441947042E+01  0.51100000000E-03 0. -1.
        -11    1    3    3    0    0 -0.11181510148E+02  0.10937472523E+02  0.17391537198E+02  0.23390597272E+02  0.51100000000E-03 0.  1.
        -12    1    3    3    0    0 -0.60482404668E+01  0.52101869258E+01  0.18127625033E+02  0.19807525083E+02  0.00000000000E+00 0.  1.
</event>
<event>
 7    1  0.1445801E-008  0.4614232E+02  0.7816164E-02  0.1320468E+00
        -11   -1    0    0    0    0  0.00000000000E+00  0.00000000000E+00  0.45593999997E+02  0.45594000000E+02  0.51100000000E-03 0.  1.
         11   -1    0    0    0    0 -0.00000000000E+00 -0.00000000000E+00 -0.45593999997E+02  0.45594000000E+02  0.51100000000E-03 0. -1.
    9900012    2    1    2    0    0  0.22857029061E+01 -0.32770153683E+02  0.30822170065E+02  0.46142316769E+02  0.99999909575E+01 0.  0.
         12    1    1    2    0    0 -0.22857029061E+01  0.32770153683E+02 -0.30822170065E+02  0.45045683231E+02  0.00000000000E+00 0. -1.
         11    1    3    3    0    0 -0.18235142843E+01 -0.44019499206E+01  0.51468153414E+01  0.70137062861E+01  0.51100000000E-03 0. -1.
        -11    1    3    3    0    0  0.56535943528E+01 -0.25930686934E+02  0.22118054915E+02  0.34548111489E+02  0.51100000000E-03 0.  1.
        -12    1    3    3    0    0 -0.15443771625E+01 -0.24375168285E+01  0.35572998083E+01  0.45804989942E+01  0.00000000000E+00 0.  1.
</event>
<event>
 7    1  0.1445801E-008  0.4614232E+02  0.7816164E-02  0.1320468E+00
        -11   -1    0    0    0    0  0.00000000000E+00  0.00000000000E+00  0.45593999997E+02  0.45594000000E+02  0.51100000000E-03 0. -1.
         11   -1    0    0    0    0 -0.00000000000E+00 -0.00000000000E+00 -0.45593999997E+02  0.45594000000E+02  0.51100000000E-03 0.  1.
    9900012    2    1    2    0    0  0.43938415677E+02 -0.16004956615E+01 -0.97963021818E+01  0.46142317687E+02  0.99999993264E+01 0.  0.
         12    1    1    2    0    0 -0.43938415677E+02  0.16004956615E+01  0.97963021818E+01  0.45045682313E+02  0.00000000000E+00 0. -1.
         11    1    3    3    0    0  0.12231508337E+01  0.11877492584E+01  0.18237152411E-01  0.17050451952E+01  0.51100000000E-03 0. -1.
        -11    1    3    3    0    0  0.23008631669E+02  0.15436203887E+01 -0.67560923494E+01  0.24029662487E+02  0.51100000000E-03 0.  1.
         12    1    3    3    0    0  0.19706633175E+02 -0.43318653086E+01 -0.30584469848E+01  0.20407610005E+02  0.00000000000E+00 0. -1.
</event>
<event>
 7    1  0.1445801E-008  0.4614232E+02  0.7816164E-02  0.1320468E+00
        -11   -1    0    0    0    0  0.00000000000E+00  0.00000000000E+00  0.45593999997E+02  0.45594000000E+02  0.51100000000E-03 0.  1.
         11   -1    0    0    0    0 -0.00000000000E+00 -0.00000000000E+00 -0.45593999997E+02  0.45594000000E+02  0.51100000000E-03 0. -1.
    9900012    2    1    2    0    0 -0.22194411197E+02 -0.70707341661E+01  0.38555495993E+02  0.46142318284E+02  0.10000004768E+02 0.  0.
         12    1    1    2    0    0  0.22194411197E+02  0.70707341661E+01 -0.38555495993E+02  0.45045681716E+02  0.00000000000E+00 0. -1.
         11    1    3    3    0    0 -0.76063889144E+01 -0.42868058193E+01  0.23066861695E+02  0.24664021675E+02  0.51100000000E-03 0. -1.
        -11    1    3    3    0    0 -0.79924641265E+01 -0.16161679169E+01  0.91537182521E+01  0.12258957527E+02  0.51100000000E-03 0.  1.
         12    1    3    3    0    0 -0.65955581560E+01 -0.11677604298E+01  0.63349160452E+01  0.92193390821E+01  0.00000000000E+00 0. -1.
</event>
<event>
 7    1  0.1445801E-008  0.4614232E+02  0.7816164E-02  0.1320468E+00
        -11   -1    0    0    0    0  0.00000000000E+00  0.00000000000E+00  0.45593999997E+02  0.45594000000E+02  0.51100000000E-03 0.  1.
         11   -1    0    0    0    0 -0.00000000000E+00 -0.00000000000E+00 -0.45593999997E+02  0.45594000000E+02  0.51100000000E-03 0. -1.
    9900012    2    1    2    0    0 -0.16933793699E+02 -0.34450145766E+02  0.23570057356E+02  0.46142317453E+02  0.99999971943E+01 0.  0.
         12    1    1    2    0    0  0.16933793699E+02  0.34450145766E+02 -0.23570057356E+02  0.45045682547E+02  0.00000000000E+00 0. -1.
         11    1    3    3    0    0 -0.75029090608E+01 -0.16649200499E+02  0.72041902693E+01  0.19631349401E+02  0.51100000000E-03 0.  1.
        -11    1    3    3    0    0 -0.62256154402E+01 -0.12169273565E+02  0.14120762249E+02  0.19653127829E+02  0.51100000000E-03 0. -1.
         12    1    3    3    0    0 -0.32052691974E+01 -0.56316717024E+01  0.22451048376E+01  0.68578402229E+01  0.00000000000E+00 0. -1.
</event>
<event>
 7    1  0.1445801E-008  0.4614232E+02  0.7816164E-02  0.1320468E+00
        -11   -1    0    0    0    0  0.00000000000E+00  0.00000000000E+00  0.45593999997E+02  0.45594000000E+02  0.51100000000E-03 0.  1.
         11   -1    0    0    0    0 -0.00000000000E+00 -0.00000000000E+00 -0.45593999997E+02  0.45594000000E+02  0.51100000000E-03 0. -1.
    9900012    2    1    2    0    0 -0.41939477553E+02 -0.14714602847E+01  0.16371576258E+02  0.46142317832E+02  0.10000000645E+02 0.  0.
         12    1    1    2    0    0  0.41939477553E+02  0.14714602847E+01 -0.16371576258E+02  0.45045682168E+02  0.00000000000E+00 0. -1.
         11    1    3    3    0    0 -0.78005496449E+01 -0.18169964093E+01  0.39751860310E+01  0.89415968907E+01  0.51100000000E-03 0.  1.
        -11    1    3    3    0    0 -0.31289408566E+02 -0.10480408802E+01  0.13123678016E+02  0.33946375403E+02  0.51100000000E-03 0. -1.
         12    1    3    3    0    0 -0.28495193424E+01  0.13935770048E+01 -0.72728778881E+00  0.32543455377E+01  0.00000000000E+00 0. -1.
</event>
<event>
 7    1  0.1445801E-008  0.4614232E+02  0.7816164E-02  0.1320468E+00
        -11   -1    0    0    0    0  0.00000000000E+00  0.00000000000E+00  0.45593999997E+02  0.45594000000E+02  0.51100000000E-03 0.  1.
         11   -1    0    0    0    0 -0.00000000000E+00 -0.00000000000E+00 -0.45593999997E+02  0.45594000000E+02  0.51100000000E-03 0. -1.
    9900012    2    1    2    0    0  0.54982942476E+01 -0.71135048169E+00  0.44703202712E+02  0.46142316613E+02  0.99999895275E+01 0.  0.
         12    1    1    2    0    0 -0.54982942476E+01  0.71135048169E+00 -0.44703202712E+02  0.45045683387E+02  0.00000000000E+00 0. -1.
         11    1    3    3    0    0  0.30013524775E+01 -0.38801730357E+01  0.29359230130E+02  0.29766226727E+02  0.51100000000E-03 0.  1.
        -11    1    3    3    0    0  0.28507264243E+01  0.11540562179E+01  0.53153097524E+01  0.61409286696E+01  0.51100000000E-03 0. -1.
        -12    1    3    3    0    0 -0.35378465422E+00  0.20147663361E+01  0.10028662830E+02  0.10235161216E+02  0.00000000000E+00 0.  1.
</event>
<event>
 7    1  0.1445801E-008  0.4614231E+02  0.7816164E-02  0.1320468E+00
        -11   -1    0    0    0    0  0.00000000000E+00  0.00000000000E+00  0.45593999997E+02  0.45594000000E+02  0.51100000000E-03 0. -1.
         11   -1    0    0    0    0 -0.00000000000E+00 -0.00000000000E+00 -0.45593999997E+02  0.45594000000E+02  0.51100000000E-03 0.  1.
    9900012    2    1    2    0    0 -0.35481883954E+02  0.11910337480E+02 -0.25065791561E+02  0.46142310591E+02  0.99999346161E+01 0.  0.
         12    1    1    2    0    0  0.35481883954E+02 -0.11910337480E+02  0.25065791561E+02  0.45045689409E+02  0.00000000000E+00 0. -1.
         11    1    3    3    0    0 -0.44373858718E+01  0.43003230349E+00 -0.22264116251E+00  0.44637305592E+01  0.51100000000E-03 0. -1.
        -11    1    3    3    0    0 -0.90596194090E+01  0.37212644913E+01 -0.10234836443E+02  0.14166029455E+02  0.51100000000E-03 0.  1.
         12    1    3    3    0    0 -0.21984878673E+02  0.77590406850E+01 -0.14608313955E+02  0.27512550576E+02  0.00000000000E+00 0. -1.
</event>
<event>
 7    1  0.1445801E-008  0.4614232E+02  0.7816164E-02  0.1320468E+00
        -11   -1    0    0    0    0  0.00000000000E+00  0.00000000000E+00  0.45593999997E+02  0.45594000000E+02  0.51100000000E-03 0.  1.
         11   -1    0    0    0    0 -0.00000000000E+00 -0.00000000000E+00 -0.45593999997E+02  0.45594000000E+02  0.51100000000E-03 0. -1.
    9900012    2    1    2    0    0  0.34388936474E+02  0.21189151845E+02  0.19938263905E+02  0.46142317907E+02  0.10000001326E+02 0.  0.
         12    1    1    2    0    0 -0.34388936474E+02 -0.21189151845E+02 -0.19938263905E+02  0.45045682093E+02  0.00000000000E+00 0. -1.
         11    1    3    3    0    0  0.20635930509E+02  0.16237900125E+02  0.16650167696E+02  0.31092428548E+02  0.51100000000E-03 0.  1.
        -11    1    3    3    0    0  0.69068679695E+01  0.24058860911E+01  0.91972698349E+00  0.73714999163E+01  0.51100000000E-03 0. -1.
        -12    1    3    3    0    0  0.68461379955E+01  0.25453656290E+01  0.23683692256E+01  0.76783894423E+01  0.00000000000E+00 0.  1.
</event>
<event>
 7    1  0.1445801E-008  0.4614232E+02  0.7816164E-02  0.1320468E+00
        -11   -1    0    0    0    0  0.00000000000E+00  0.00000000000E+00  0.45593999997E+02  0.45594000000E+02  0.51100000000E-03 0. -1.
         11   -1    0    0    0    0 -0.00000000000E+00 -0.00000000000E+00 -0.45593999997E+02  0.45594000000E+02  0.51100000000E-03 0.  1.
    9900012    2    1    2    0    0  0.18791526308E+02 -0.83056428450E+01 -0.40087509360E+02  0.46142316847E+02  0.99999916630E+01 0.  0.
         12    1    1    2    0    0 -0.18791526308E+02  0.83056428450E+01  0.40087509360E+02  0.45045683153E+02  0.00000000000E+00 0. -1.
         11    1    3    3    0    0  0.36782063444E+01 -0.38206770988E+01 -0.49268089163E+01  0.72387997461E+01  0.51100000000E-03 0. -1.
        -11    1    3    3    0    0  0.14782296968E+02 -0.31197837050E+01 -0.30516561026E+02  0.34051576339E+02  0.51100000000E-03 0.  1.
        -12    1    3    3    0    0  0.33102299517E+00 -0.13651820412E+01 -0.46441394176E+01  0.48519407621E+01  0.00000000000E+00 0.  1.
</event>
<event>
 7    1  0.1445801E-008  0.4614232E+02  0.7816164E-02  0.1320468E+00
        -11   -1    0    0    0    0  0.00000000000E+00  0.00000000000E+00  0.45593999997E+02  0.45594000000E+02  0.51100000000E-03 0.  1.
         11   -1    0    0    0    0 -0.00000000000E+00 -0.00000000000E+00 -0.45593999997E+02  0.45594000000E+02  0.51100000000E-03 0. -1.
    9900012    2    1    2    0    0 -0.31545670819E+02 -0.89305230483E+01  0.30890610364E+02  0.46142318764E+02  0.10000009146E+02 0.  0.
         12    1    1    2    0    0  0.31545670819E+02  0.89305230483E+01 -0.30890610364E+02  0.45045681236E+02  0.00000000000E+00 0. -1.
         11    1    3    3    0    0 -0.94750209431E+01 -0.25067333237E+01  0.38808947690E+01  0.10541398308E+02  0.51100000000E-03 0. -1.
        -11    1    3    3    0    0 -0.15036783995E+02 -0.39962650594E+01  0.20338829818E+02  0.25607479493E+02  0.51100000000E-03 0.  1.
        -12    1    3    3    0    0 -0.70338658802E+01 -0.24275246653E+01  0.66708857774E+01  0.99934409628E+01  0.00000000000E+00 0.  1.
</event>
<event>
 7    1  0.1445801E-008  0.4614232E+02  0.7816164E-02  0.1320468E+00
        -11   -1    0    0    0    0  0.00000000000E+00  0.00000000000E+00  0.45593999997E+02  0.45594000000E+02  0.51100000000E-03 0.  1.
         11   -1    0    0    0    0 -0.00000000000E+00 -0.00000000000E+00 -0.45593999997E+02  0.45594000000E+02  0.51100000000E-03 0. -1.
    9900012    2    1    2    0    0 -0.61252693581E+01  0.40492395494E+02  0.18760606957E+02  0.46142318842E+02  0.10000009857E+02 0.  0.
         12    1    1    2    0    0  0.61252693581E+01 -0.40492395494E+02 -0.18760606957E+02  0.45045681158E+02  0.00000000000E+00 0. -1.
         11    1    3    3    0    0 -0.28163310744E+01  0.30479587159E+02  0.12238610528E+02  0.32965444666E+02  0.51100000000E-03 0. -1.
        -11    1    3    3    0    0 -0.16936376098E+01  0.73407251361E+01  0.66544596304E+01  0.10051690759E+02  0.51100000000E-03 0.  1.
        -12    1    3    3    0    0 -0.16153006739E+01  0.26720831990E+01 -0.13246320196E+00  0.31251834169E+01  0.00000000000E+00 0.  1.
</event>
<event>
 7    1  0.1445801E-008  0.4614232E+02  0.7816164E-02  0.1320468E+00
        -11   -1    0    0    0    0  0.00000000000E+00  0.00000000000E+00  0.45593999997E+02  0.45594000000E+02  0.51100000000E-03 0. -1.
         11   -1    0    0    0    0 -0.00000000000E+00 -0.00000000000E+00 -0.45593999997E+02  0.45594000000E+02  0.51100000000E-03 0.  1.
    9900012    2    1    2    0    0 -0.44498151642E+02 -0.51691055927E+00 -0.69828892069E+01  0.46142318323E+02  0.10000005120E+02 0.  0.
         12    1    1    2    0    0  0.44498151642E+02  0.51691055927E+00  0.69828892069E+01  0.45045681677E+02  0.00000000000E+00 0. -1.
         11    1    3    3    0    0 -0.14097466190E+02 -0.36641580580E+01  0.22319489674E+00  0.14567581250E+02  0.51100000000E-03 0. -1.
        -11    1    3    3    0    0 -0.38397735644E+01  0.90825102975E+00  0.62970219502E-01  0.39462319329E+01  0.51100000000E-03 0.  1.
         12    1    3    3    0    0 -0.26560911888E+02  0.22389964690E+01 -0.72690543231E+01  0.27628505140E+02  0.00000000000E+00 0. -1.
</event>
<event>
 7    1  0.1445801E-008  0.4614232E+02  0.7816164E-02  0.1320468E+00
        -11   -1    0    0    0    0  0.00000000000E+00  0.00000000000E+00  0.45593999997E+02  0.45594000000E+02  0.51100000000E-03 0.  1.
         11   -1    0    0    0    0 -0.00000000000E+00 -0.00000000000E+00 -0.45593999997E+02  0.45594000000E+02  0.51100000000E-03 0. -1.
    9900012    2    1    2    0    0 -0.15285655018E+02 -0.15724574362E+02  0.39347172841E+02  0.46142317645E+02  0.99999989431E+01 0.  0.
         12    1    1    2    0    0  0.15285655018E+02  0.15724574362E+02 -0.39347172841E+02  0.45045682355E+02  0.00000000000E+00 0. -1.
         11    1    3    3    0    0 -0.13740315303E+02 -0.11182862478E+02  0.28180611764E+02  0.33286627307E+02  0.51100000000E-03 0. -1.
        -11    1    3    3    0    0 -0.23457629890E+01 -0.49047874031E+01  0.10128813639E+02  0.11495756150E+02  0.51100000000E-03 0.  1.
        -12    1    3    3    0    0  0.80042327353E+00  0.36307551934E+00  0.10377474379E+01  0.13599341875E+01  0.00000000000E+00 0.  1.
</event>
<event>
 7    1  0.1445801E-008  0.4614232E+02  0.7816164E-02  0.1320468E+00
        -11   -1    0    0    0    0  0.00000000000E+00  0.00000000000E+00  0.45593999997E+02  0.45594000000E+02  0.51100000000E-03 0. -1.
         11   -1    0    0    0    0 -0.00000000000E+00 -0.00000000000E+00 -0.45593999997E+02  0.45594000000E+02  0.51100000000E-03 0.  1.
    9900012    2    1    2    0    0  0.30685584932E+02 -0.32957743174E+02  0.11381871908E+01  0.46142318433E+02  0.10000006127E+02 0.  0.
         12    1    1    2    0    0 -0.30685584932E+02  0.32957743174E+02 -0.11381871908E+01  0.45045681567E+02  0.00000000000E+00 0. -1.
         11    1    3    3    0    0  0.17431421799E+02 -0.21972977196E+02  0.97365967026E+00  0.28064465186E+02  0.51100000000E-03 0. -1.
        -11    1    3    3    0    0  0.84095111794E+01 -0.77204102501E+01  0.26657795020E+01  0.11723096576E+02  0.51100000000E-03 0.  1.
         12    1    3    3    0    0  0.48446519538E+01 -0.32643557282E+01 -0.25012519815E+01  0.63547566711E+01  0.00000000000E+00 0. -1.
</event>
<event>
 7    1  0.1445801E-008  0.4614232E+02  0.7816164E-02  0.1320468E+00
        -11   -1    0    0    0    0  0.00000000000E+00  0.00000000000E+00  0.45593999997E+02  0.45594000000E+02  0.51100000000E-03 0. -1.
         11   -1    0    0    0    0 -0.00000000000E+00 -0.00000000000E+00 -0.45593999997E+02  0.45594000000E+02  0.51100000000E-03 0.  1.
    9900012    2    1    2    0    0 -0.42177464942E+02  0.71186163819E+01  0.14124453960E+02  0.46142318212E+02  0.10000004109E+02 0.  0.
         12    1    1    2    0    0  0.42177464942E+02 -0.71186163819E+01 -0.14124453960E+02  0.45045681788E+02  0.00000000000E+00 0. -1.
         11    1    3    3    0    0 -0.60531391187E+01  0.38928049650E+01  0.55094046541E+00  0.72178916134E+01  0.51100000000E-03 0. -1.
        -11    1    3    3    0    0 -0.32004936030E+02  0.40591225460E+01  0.12383378956E+02  0.34556337780E+02  0.51100000000E-03 0.  1.
         12    1    3    3    0    0 -0.41193897934E+01 -0.83331112912E+00  0.11901345390E+01  0.43680888188E+01  0.00000000000E+00 0. -1.
</event>
<event>
 7    1  0.1445801E-008  0.4614231E+02  0.7816164E-02  0.1320468E+00
        -11   -1    0    0    0    0  0.00000000000E+00  0.00000000000E+00  0.45593999997E+02  0.45594000000E+02  0.51100000000E-03 0. -1.
         11   -1    0    0    0    0 -0.00000000000E+00 -0.00000000000E+00 -0.45593999997E+02  0.45594000000E+02  0.51100000000E-03 0.  1.
    9900012    2    1    2    0    0  0.11113105700E+02 -0.24401474060E+02 -0.36196419459E+02  0.46142313899E+02  0.99999647863E+01 0.  0.
         12    1    1    2    0    0 -0.11113105700E+02  0.24401474060E+02  0.36196419459E+02  0.45045686101E+02  0.00000000000E+00 0. -1.
         11    1    3    3    0    0  0.22042196425E+00 -0.25830521259E+01 -0.75994074015E+01  0.80294294469E+01  0.51100000000E-03 0. -1.
        -11    1    3    3    0    0  0.53480198396E+01 -0.56428689503E+01 -0.62558142802E+01  0.99789026834E+01  0.51100000000E-03 0.  1.
         12    1    3    3    0    0  0.55446638958E+01 -0.16175552984E+02 -0.22341197778E+02  0.28133981769E+02  0.00000000000E+00 0. -1.
</event>
<event>
 7    1  0.1445801E-008  0.4614232E+02  0.7816164E-02  0.1320468E+00
        -11   -1    0    0    0    0  0.00000000000E+00  0.00000000000E+00  0.45593999997E+02  0.45594000000E+02  0.51100000000E-03 0.  1.
         11   -1    0    0    0    0 -0.00000000000E+00 -0.00000000000E+00 -0.45593999997E+02  0.45594000000E+02  0.51100000000E-03 0. -1.
    9900012    2    1    2    0    0  0.31262809792E+02  0.48132014882E+01  0.32071530824E+02  0.46142320140E+02  0.10000021695E+02 0.  0.
         12    1    1    2    0    0 -0.31262809792E+02 -0.48132014882E+01 -0.32071530824E+02  0.45045679860E+02  0.00000000000E+00 0. -1.
         11    1    3    3    0    0  0.27825494518E+00 -0.12375919677E+01  0.23268477840E+01  0.26501472721E+01  0.51100000000E-03 0. -1.
        -11    1    3    3    0    0  0.19267579645E+02  0.52874403863E+01  0.19225750627E+02  0.27727714271E+02  0.51100000000E-03 0.  1.
        -12    1    3    3    0    0  0.11716975202E+02  0.76335306957E+00  0.10518932412E+02  0.15764458598E+02  0.00000000000E+00 0.  1.
</event>
<event>
 7    1  0.1445801E-008  0.4614232E+02  0.7816164E-02  0.1320468E+00
        -11   -1    0    0    0    0  0.00000000000E+00  0.00000000000E+00  0.45593999997E+02  0.45594000000E+02  0.51100000000E-03 0. -1.
         11   -1    0    0    0    0 -0.00000000000E+00 -0.00000000000E+00 -0.45593999997E+02  0.45594000000E+02  0.51100000000E-03 0.  1.
    9900012    2    1    2    0    0  0.22470343957E+02 -0.36580151758E+02  0.13641461817E+02  0.46142319400E+02  0.10000014948E+02 0.  0.
         12    1    1    2    0    0 -0.22470343957E+02  0.36580151758E+02 -0.13641461817E+02  0.45045680600E+02  0.00000000000E+00 0. -1.
         11    1    3    3    0    0  0.47132345923E-01 -0.46924126573E+01  0.33852467955E+01  0.57862642639E+01  0.51100000000E-03 0. -1.
        -11    1    3    3    0    0  0.11586566949E+02 -0.15209898332E+02  0.56944613334E+01  0.19950349147E+02  0.51100000000E-03 0.  1.
         12    1    3    3    0    0  0.10836644662E+02 -0.16677840768E+02  0.45617536883E+01  0.20405705990E+02  0.00000000000E+00 0. -1.
</event>
<event>
 7    1  0.1445801E-008  0.4614232E+02  0.7816164E-02  0.1320468E+00
        -11   -1    0    0    0    0  0.00000000000E+00  0.00000000000E+00  0.45593999997E+02  0.45594000000E+02  0.51100000000E-03 0. -1.
         11   -1    0    0    0    0 -0.00000000000E+00 -0.00000000000E+00 -0.45593999997E+02  0.45594000000E+02  0.51100000000E-03 0.  1.
    9900012    2    1    2    0    0 -0.22231450146E+02  0.19074228202E+02 -0.34220607488E+02  0.46142317255E+02  0.99999953844E+01 0.  0.
         12    1    1    2    0    0  0.22231450146E+02 -0.19074228202E+02  0.34220607488E+02  0.45045682745E+02  0.00000000000E+00 0. -1.
         11    1    3    3    0    0 -0.89917140245E+01  0.38404162458E+01 -0.79733356927E+01  0.12616409964E+02  0.51100000000E-03 0. -1.
        -11    1    3    3    0    0 -0.37548374765E+01  0.73738182764E+01 -0.13225294114E+02  0.15600653996E+02  0.51100000000E-03 0.  1.
        -12    1    3    3    0    0 -0.94848986449E+01  0.78599936796E+01 -0.13021977682E+02  0.17925253295E+02  0.00000000000E+00 0.  1.
</event>
<event>
 7    1  0.1445801E-008  0.4614232E+02  0.7816164E-02  0.1320468E+00
        -11   -1    0    0    0    0  0.00000000000E+00  0.00000000000E+00  0.45593999997E+02  0.45594000000E+02  0.51100000000E-03 0. -1.
         11   -1    0    0    0    0 -0.00000000000E+00 -0.00000000000E+00 -0.45593999997E+02  0.45594000000E+02  0.51100000000E-03 0.  1.
    9900012    2    1    2    0    0  0.32579973656E+02 -0.22081234091E+02 -0.21910676312E+02  0.46142319643E+02  0.10000017161E+02 0.  0.
         12    1    1    2    0    0 -0.32579973656E+02  0.22081234091E+02  0.21910676312E+02  0.45045680357E+02  0.00000000000E+00 0. -1.
         11    1    3    3    0    0  0.92993322496E+01 -0.99045762946E+01 -0.35662772789E+01  0.14046228880E+02  0.51100000000E-03 0. -1.
        -11    1    3    3    0    0  0.22753252836E+02 -0.12018344095E+02 -0.17622664211E+02  0.31188289526E+02  0.51100000000E-03 0.  1.
         12    1    3    3    0    0  0.52738857054E+00 -0.15831370056E+00 -0.72173482251E+00  0.90780123713E+00  0.00000000000E+00 0. -1.
</event>
<event>
 7    1  0.1445801E-008  0.4614232E+02  0.7816164E-02  0.1320468E+00
        -11   -1    0    0    0    0  0.00000000000E+00  0.00000000000E+00  0.45593999997E+02  0.45594000000E+02  0.51100000000E-03 0. -1.
         11   -1    0    0    0    0 -0.00000000000E+00 -0.00000000000E+00 -0.45593999997E+02  0.45594000000E+02  0.51100000000E-03 0.  1.
    9900012    2    1    2    0    0  0.35494239952E+02  0.21314876539E+02 -0.17746793163E+02  0.46142315421E+02  0.99999786576E+01 0.  0.
         12    1    1    2    0    0 -0.35494239952E+02 -0.21314876539E+02  0.17746793163E+02  0.45045684579E+02  0.00000000000E+00 0. -1.
         11    1    3    3    0    0  0.31556174788E+01  0.21097073285E+01  0.56124524442E+00  0.38371582154E+01  0.51100000000E-03 0. -1.
        -11    1    3    3    0    0  0.16520081027E+02  0.13441147502E+02 -0.98804827496E+01  0.23477680101E+02  0.51100000000E-03 0.  1.
         12    1    3    3    0    0  0.15818541445E+02  0.57640217094E+01 -0.84275556584E+01  0.18827477104E+02  0.00000000000E+00 0. -1.
</event>
<event>
 7    1  0.1445801E-008  0.4614232E+02  0.7816164E-02  0.1320468E+00
        -11   -1    0    0    0    0  0.00000000000E+00  0.00000000000E+00  0.45593999997E+02  0.45594000000E+02  0.51100000000E-03 0.  1.
         11   -1    0    0    0    0 -0.00000000000E+00 -0.00000000000E+00 -0.45593999997E+02  0.45594000000E+02  0.51100000000E-03 0. -1.
    9900012    2    1    2    0    0 -0.39507710246E+02  0.12405778366E+02  0.17729946664E+02  0.46142317472E+02  0.99999973591E+01 0.  0.
         12    1    1    2    0    0  0.39507710246E+02 -0.12405778366E+02 -0.17729946664E+02  0.45045682528E+02  0.00000000000E+00 0. -1.
         11    1    3    3    0    0 -0.11873329778E+02  0.30177496227E+01  0.21389662527E+01  0.12436154940E+02  0.51100000000E-03 0. -1.
        -11    1    3    3    0    0 -0.53350672558E+01  0.17351257371E+01  0.32566291508E+00  0.56195783243E+01  0.51100000000E-03 0.  1.
         12    1    3    3    0    0 -0.22299313212E+02  0.76529030059E+01  0.15265317497E+02  0.28086584207E+02  0.00000000000E+00 0. -1.
</event>
<event>
 7    1  0.1445801E-008  0.4614232E+02  0.7816164E-02  0.1320468E+00
        -11   -1    0    0    0    0  0.00000000000E+00  0.00000000000E+00  0.45593999997E+02  0.45594000000E+02  0.51100000000E-03 0.  1.
         11   -1    0    0    0    0 -0.00000000000E+00 -0.00000000000E+00 -0.45593999997E+02  0.45594000000E+02  0.51100000000E-03 0. -1.
    9900012    2    1    2    0    0  0.94562995370E+01 -0.16721603823E+02  0.40744076730E+02  0.46142318477E+02  0.10000006526E+02 0.  0.
         12    1    1    2    0    0 -0.94562995370E+01  0.16721603823E+02 -0.40744076730E+02  0.45045681523E+02  0.00000000000E+00 0. -1.
         11    1    3    3    0    0  0.33136811242E+01 -0.95913051898E+01  0.26605274766E+02  0.28474800500E+02  0.51100000000E-03 0. -1.
        -11    1    3    3    0    0  0.99480296580E+00 -0.28679044815E+01  0.81370158657E+01  0.86847876494E+01  0.51100000000E-03 0.  1.
         12    1    3    3    0    0  0.51478154470E+01 -0.42623941515E+01  0.60017860976E+01  0.89827303277E+01  0.00000000000E+00 0. -1.
</event>
<event>
 7    1  0.1445801E-008  0.4614232E+02  0.7816164E-02  0.1320468E+00
        -11   -1    0    0    0    0  0.00000000000E+00  0.00000000000E+00  0.45593999997E+02  0.45594000000E+02  0.51100000000E-03 0. -1.
         11   -1    0    0    0    0 -0.00000000000E+00 -0.00000000000E+00 -0.45593999997E+02  0.45594000000E+02  0.51100000000E-03 0.  1.
    9900012    2    1    2    0    0  0.28215245016E+02 -0.32008769235E+02  0.14437877975E+02  0.46142315638E+02  0.99999806403E+01 0.  0.
         12    1    1    2    0    0 -0.28215245016E+02  0.32008769235E+02 -0.14437877975E+02  0.45045684362E+02  0.00000000000E+00 0. -1.
         11    1    3    3    0    0  0.18425379024E+02 -0.13674176756E+02  0.87457993086E+01  0.24555380428E+02  0.51100000000E-03 0. -1.
        -11    1    3    3    0    0  0.83224292955E+01 -0.14716128795E+02  0.43377425152E+01  0.17454033530E+02  0.51100000000E-03 0.  1.
         12    1    3    3    0    0  0.14674366959E+01 -0.36184636838E+01  0.13543361507E+01  0.41329016800E+01  0.00000000000E+00 0. -1.
</event>
<event>
 7    1  0.1445801E-008  0.4614232E+02  0.7816164E-02  0.1320468E+00
        -11   -1    0    0    0    0  0.00000000000E+00  0.00000000000E+00  0.45593999997E+02  0.45594000000E+02  0.51100000000E-03 0.  1.
         11   -1    0    0    0    0 -0.00000000000E+00 -0.00000000000E+00 -0.45593999997E+02  0.45594000000E+02  0.51100000000E-03 0. -1.
    9900012    2    1    2    0    0  0.55846393867E-01  0.29532307625E+02  0.34014014375E+02  0.46142317783E+02  0.10000000199E+02 0.  0.
         12    1    1    2    0    0 -0.55846393867E-01 -0.29532307625E+02 -0.34014014375E+02  0.45045682217E+02  0.00000000000E+00 0. -1.
         11    1    3    3    0    0 -0.94688950040E+00  0.89093102677E+01  0.17215924753E+02  0.19407742644E+02  0.51100000000E-03 0. -1.
        -11    1    3    3    0    0 -0.61102214130E-01  0.14988023495E+02  0.13141241559E+02  0.19933309102E+02  0.51100000000E-03 0.  1.
         12    1    3    3    0    0  0.10638381084E+01  0.56349738620E+01  0.36568480629E+01  0.68012660367E+01  0.00000000000E+00 0. -1.
</event>
<event>
 7    1  0.1445801E-008  0.4614232E+02  0.7816164E-02  0.1320468E+00
        -11   -1    0    0    0    0  0.00000000000E+00  0.00000000000E+00  0.45593999997E+02  0.45594000000E+02  0.51100000000E-03 0.  1.
         11   -1    0    0    0    0 -0.00000000000E+00 -0.00000000000E+00 -0.45593999997E+02  0.45594000000E+02  0.51100000000E-03 0. -1.
    9900012    2    1    2    0    0  0.69104020656E+01  0.38754099360E+02  0.21897024839E+02  0.46142316847E+02  0.99999916678E+01 0.  0.
         12    1    1    2    0    0 -0.69104020656E+01 -0.38754099360E+02 -0.21897024839E+02  0.45045683153E+02  0.00000000000E+00 0. -1.
         11    1    3    3    0    0  0.19750291586E+01  0.18169934612E+02  0.14950338531E+02  0.23612706038E+02  0.51100000000E-03 0. -1.
        -11    1    3    3    0    0  0.33547754501E+01  0.17717382816E+02  0.49664180199E+01  0.18703622119E+02  0.51100000000E-03 0.  1.
        -12    1    3    3    0    0  0.15805974568E+01  0.28667819313E+01  0.19802682876E+01  0.38259886896E+01  0.00000000000E+00 0.  1.
</event>
<event>
 7    1  0.1445801E-008  0.4614232E+02  0.7816164E-02  0.1320468E+00
        -11   -1    0    0    0    0  0.00000000000E+00  0.00000000000E+00  0.45593999997E+02  0.45594000000E+02  0.51100000000E-03 0.  1.
         11   -1    0    0    0    0 -0.00000000000E+00 -0.00000000000E+00 -0.45593999997E+02  0.45594000000E+02  0.51100000000E-03 0. -1.
    9900012    2    1    2    0    0  0.29499670176E+02  0.24691061286E+02  0.23435751416E+02  0.46142317717E+02  0.99999995945E+01 0.  0.
         12    1    1    2    0    0 -0.29499670176E+02 -0.24691061286E+02 -0.23435751416E+02  0.45045682283E+02  0.00000000000E+00 0. -1.
         11    1    3    3    0    0  0.21497489521E+01  0.15920018695E+01  0.31960461588E+00  0.26940745872E+01  0.51100000000E-03 0. -1.
        -11    1    3    3    0    0  0.11234676165E+02  0.13880501675E+02  0.14391752006E+02  0.22934881760E+02  0.51100000000E-03 0.  1.
        -12    1    3    3    0    0  0.16115245059E+02  0.92185577424E+01  0.87243947937E+01  0.20513361370E+02  0.00000000000E+00 0.  1.
</event>
<event>
 7    1  0.1445801E-008  0.4614232E+02  0.7816164E-02  0.1320468E+00
        -11   -1    0    0    0    0  0.00000000000E+00  0.00000000000E+00  0.45593999997E+02  0.45594000000E+02  0.51100000000E-03 0.  1.
         11   -1    0    0    0    0 -0.00000000000E+00 -0.00000000000E+00 -0.45593999997E+02  0.45594000000E+02  0.51100000000E-03 0. -1.
    9900012    2    1    2    0    0  0.42857867236E+02  0.11850400676E+02  0.72031038211E+01  0.46142317800E+02  0.10000000354E+02 0.  0.
         12    1    1    2    0    0 -0.42857867236E+02 -0.11850400676E+02 -0.72031038211E+01  0.45045682200E+02  0.00000000000E+00 0. -1.
         11    1    3    3    0    0  0.30529560249E+01  0.20796189310E+01  0.22664574282E+01  0.43338418203E+01  0.51100000000E-03 0. -1.
        -11    1    3    3    0    0  0.26384606268E+02  0.81877640909E+01  0.59424999035E+01  0.28257746444E+02  0.51100000000E-03 0.  1.
         12    1    3    3    0    0  0.13420304944E+02  0.15830176539E+01 -0.10058535106E+01  0.13550729536E+02  0.00000000000E+00 0. -1.
</event>
<event>
 7    1  0.1445801E-008  0.4614232E+02  0.7816164E-02  0.1320468E+00
        -11   -1    0    0    0    0  0.00000000000E+00  0.00000000000E+00  0.45593999997E+02  0.45594000000E+02  0.51100000000E-03 0.  1.
         11   -1    0    0    0    0 -0.00000000000E+00 -0.00000000000E+00 -0.45593999997E+02  0.45594000000E+02  0.51100000000E-03 0. -1.
    9900012    2    1    2    0    0 -0.37779834095E+02 -0.22647394779E+02  0.94283087006E+01  0.46142319191E+02  0.10000013043E+02 0.  0.
         12    1    1    2    0    0  0.37779834095E+02  0.22647394779E+02 -0.94283087006E+01  0.45045680809E+02  0.00000000000E+00 0. -1.
         11    1    3    3    0    0 -0.62634256608E+01 -0.11275771877E+01  0.27910998675E+01  0.69492567987E+01  0.51100000000E-03 0. -1.
        -11    1    3    3    0    0 -0.13026296570E+02 -0.10337721640E+02  0.56450792434E+01  0.17561885177E+02  0.51100000000E-03 0.  1.
         12    1    3    3    0    0 -0.18490111864E+02 -0.11182095952E+02  0.99212958968E+00  0.21631177216E+02  0.00000000000E+00 0. -1.
</event>
<event>
 7    1  0.1445801E-008  0.4614232E+02  0.7816164E-02  0.1320468E+00
        -11   -1    0    0    0    0  0.00000000000E+00  0.00000000000E+00  0.45593999997E+02  0.45594000000E+02  0.51100000000E-03 0.  1.
         11   -1    0    0    0    0 -0.00000000000E+00 -0.00000000000E+00 -0.45593999997E+02  0.45594000000E+02  0.51100000000E-03 0. -1.
    9900012    2    1    2    0    0 -0.40693856337E+02 -0.17056367428E+02  0.90666212050E+01  0.46142320591E+02  0.10000025803E+02 0.  0.
         12    1    1    2    0    0  0.40693856337E+02  0.17056367428E+02 -0.90666212050E+01  0.45045679409E+02  0.00000000000E+00 0. -1.
         11    1    3    3    0    0 -0.17187547554E+02 -0.29865867872E+01  0.22184224848E+01  0.17585587569E+02  0.51100000000E-03 0. -1.
        -11    1    3    3    0    0 -0.11989277403E+02 -0.83058741165E+01  0.55775542855E+01  0.15615358771E+02  0.51100000000E-03 0.  1.
        -12    1    3    3    0    0 -0.11517031379E+02 -0.57639065240E+01  0.12706444347E+01  0.12941374250E+02  0.00000000000E+00 0.  1.
</event>
<event>
 7    1  0.1445801E-008  0.4614232E+02  0.7816164E-02  0.1320468E+00
        -11   -1    0    0    0    0  0.00000000000E+00  0.00000000000E+00  0.45593999997E+02  0.45594000000E+02  0.51100000000E-03 0. -1.
         11   -1    0    0    0    0 -0.00000000000E+00 -0.00000000000E+00 -0.45593999997E+02  0.45594000000E+02  0.51100000000E-03 0.  1.
    9900012    2    1    2    0    0 -0.11925855432E+02  0.74676639605E+01 -0.42791604957E+02  0.46142317770E+02  0.10000000080E+02 0.  0.
         12    1    1    2    0    0  0.11925855432E+02 -0.74676639605E+01  0.42791604957E+02  0.45045682230E+02  0.00000000000E+00 0. -1.
         11    1    3    3    0    0 -0.52502462585E+01  0.14724099031E+01 -0.10738887370E+02  0.12043951964E+02  0.51100000000E-03 0. -1.
        -11    1    3    3    0    0 -0.35044799730E+01  0.53779637752E+01 -0.28826974912E+02  0.29533004539E+02  0.51100000000E-03 0.  1.
        -12    1    3    3    0    0 -0.31711292004E+01  0.61729028222E+00 -0.32257426745E+01  0.45653612672E+01  0.00000000000E+00 0.  1.
</event>
<event>
 7    1  0.1445801E-008  0.4614232E+02  0.7816164E-02  0.1320468E+00
        -11   -1    0    0    0    0  0.00000000000E+00  0.00000000000E+00  0.45593999997E+02  0.45594000000E+02  0.51100000000E-03 0. -1.
         11   -1    0    0    0    0 -0.00000000000E+00 -0.00000000000E+00 -0.45593999997E+02  0.45594000000E+02  0.51100000000E-03 0.  1.
    9900012    2    1    2    0    0 -0.27558715531E+02  0.26694189243E+02 -0.23601925118E+02  0.46142318627E+02  0.10000007894E+02 0.  0.
         12    1    1    2    0    0  0.27558715531E+02 -0.26694189243E+02  0.23601925118E+02  0.45045681373E+02  0.00000000000E+00 0. -1.
         11    1    3    3    0    0 -0.28357140166E+01  0.77152084826E+01 -0.48101198901E+01  0.95238106623E+01  0.51100000000E-03 0. -1.
        -11    1    3    3    0    0 -0.21176206044E+02  0.14295468844E+02 -0.15512389273E+02  0.29890238425E+02  0.51100000000E-03 0.  1.
        -12    1    3    3    0    0 -0.35467954701E+01  0.46835119173E+01 -0.32794159551E+01  0.67282695392E+01  0.00000000000E+00 0.  1.
</event>
<event>
 7    1  0.1445801E-008  0.4614232E+02  0.7816164E-02  0.1320468E+00
        -11   -1    0    0    0    0  0.00000000000E+00  0.00000000000E+00  0.45593999997E+02  0.45594000000E+02  0.51100000000E-03 0. -1.
         11   -1    0    0    0    0 -0.00000000000E+00 -0.00000000000E+00 -0.45593999997E+02  0.45594000000E+02  0.51100000000E-03 0.  1.
    9900012    2    1    2    0    0 -0.38224181690E+02 -0.90205065455E+01 -0.22060277360E+02  0.46142318282E+02  0.10000004754E+02 0.  0.
         12    1    1    2    0    0  0.38224181690E+02  0.90205065455E+01  0.22060277360E+02  0.45045681718E+02  0.00000000000E+00 0. -1.
         11    1    3    3    0    0 -0.78353469503E+01 -0.15868504020E+01 -0.50488294348E+00  0.80103472508E+01  0.51100000000E-03 0. -1.
        -11    1    3    3    0    0 -0.54526885237E+01 -0.38393434247E+00 -0.47897820088E+01  0.72678215215E+01  0.51100000000E-03 0.  1.
        -12    1    3    3    0    0 -0.24936146216E+02 -0.70497218010E+01 -0.16765612408E+02  0.30864149510E+02  0.00000000000E+00 0.  1.
</event>
<event>
 7    1  0.1445801E-008  0.4614232E+02  0.7816164E-02  0.1320468E+00
        -11   -1    0    0    0    0  0.00000000000E+00  0.00000000000E+00  0.45593999997E+02  0.45594000000E+02  0.51100000000E-03 0.  1.
         11   -1    0    0    0    0 -0.00000000000E+00 -0.00000000000E+00 -0.45593999997E+02  0.45594000000E+02  0.51100000000E-03 0. -1.
    9900012    2    1    2    0    0  0.33203034704E+02  0.15945668773E+02  0.25930824835E+02  0.46142317157E+02  0.99999944936E+01 0.  0.
         12    1    1    2    0    0 -0.33203034704E+02 -0.15945668773E+02 -0.25930824835E+02  0.45045682843E+02  0.00000000000E+00 0. -1.
         11    1    3    3    0    0  0.66542516823E+01  0.23464542540E+01  0.13120896055E+01  0.71768023807E+01  0.51100000000E-03 0. -1.
        -11    1    3    3    0    0  0.12831447374E+02  0.77944693611E+01  0.15072707504E+02  0.21274075917E+02  0.51100000000E-03 0.  1.
         12    1    3    3    0    0  0.13717335647E+02  0.58047451577E+01  0.95460277249E+01  0.17691438860E+02  0.00000000000E+00 0. -1.
</event>
<event>
 7    1  0.1445801E-008  0.4614232E+02  0.7816164E-02  0.1320468E+00
        -11   -1    0    0    0    0  0.00000000000E+00  0.00000000000E+00  0.45593999997E+02  0.45594000000E+02  0.51100000000E-03 0.  1.
         11   -1    0    0    0    0 -0.00000000000E+00 -0.00000000000E+00 -0.45593999997E+02  0.45594000000E+02  0.51100000000E-03 0. -1.
    9900012    2    1    2    0    0  0.31545606080E+02 -0.11066144703E+02  0.30191529865E+02  0.46142319884E+02  0.10000019358E+02 0.  0.
         12    1    1    2    0    0 -0.31545606080E+02  0.11066144703E+02 -0.30191529865E+02  0.45045680116E+02  0.00000000000E+00 0. -1.
         11    1    3    3    0    0  0.23759191227E+02 -0.10222738945E+02  0.27653204327E+02  0.37864274311E+02  0.51100000000E-03 0.  1.
        -11    1    3    3    0    0  0.49644416005E+01 -0.63330800159E+00  0.20411924560E+01  0.54049261172E+01  0.51100000000E-03 0. -1.
        -12    1    3    3    0    0  0.28219732523E+01 -0.21009775700E+00  0.49713308150E+00  0.28731194554E+01  0.00000000000E+00 0.  1.
</event>
<event>
 7    1  0.1445801E-008  0.4614232E+02  0.7816164E-02  0.1320468E+00
        -11   -1    0    0    0    0  0.00000000000E+00  0.00000000000E+00  0.45593999997E+02  0.45594000000E+02  0.51100000000E-03 0. -1.
         11   -1    0    0    0    0 -0.00000000000E+00 -0.00000000000E+00 -0.45593999997E+02  0.45594000000E+02  0.51100000000E-03 0.  1.
    9900012    2    1    2    0    0  0.19663950734E+02 -0.40449750773E+02  0.25020297343E+01  0.46142318200E+02  0.10000003998E+02 0.  0.
         12    1    1    2    0    0 -0.19663950734E+02  0.40449750773E+02 -0.25020297343E+01  0.45045681800E+02  0.00000000000E+00 0. -1.
         11    1    3    3    0    0  0.22195345760E+01 -0.10033603732E+02  0.64117008040E+00  0.10296146702E+02  0.51100000000E-03 0. -1.
        -11    1    3    3    0    0  0.51035822935E+01 -0.35294965319E+01  0.62911173288E+00  0.62369607846E+01  0.51100000000E-03 0.  1.
        -12    1    3    3    0    0  0.12340833864E+02 -0.26886650510E+02  0.12317479210E+01  0.29609210713E+02  0.00000000000E+00 0.  1.
</event>
<event>
 7    1  0.1445801E-008  0.4614232E+02  0.7816164E-02  0.1320468E+00
        -11   -1    0    0    0    0  0.00000000000E+00  0.00000000000E+00  0.45593999997E+02  0.45594000000E+02  0.51100000000E-03 0. -1.
         11   -1    0    0    0    0 -0.00000000000E+00 -0.00000000000E+00 -0.45593999997E+02  0.45594000000E+02  0.51100000000E-03 0.  1.
    9900012    2    1    2    0    0 -0.39000202390E+02 -0.10193136303E+02 -0.20104668882E+02  0.46142317355E+02  0.99999962925E+01 0.  0.
         12    1    1    2    0    0  0.39000202390E+02  0.10193136303E+02  0.20104668882E+02  0.45045682645E+02  0.00000000000E+00 0. -1.
         11    1    3    3    0    0 -0.23387014222E+01 -0.80168935119E-01 -0.33776093736E+01  0.41090384206E+01  0.51100000000E-03 0. -1.
        -11    1    3    3    0    0 -0.27170203586E+02 -0.61564493074E+01 -0.93813936634E+01  0.29396128628E+02  0.51100000000E-03 0.  1.
        -12    1    3    3    0    0 -0.94912973816E+01 -0.39565180604E+01 -0.73456658449E+01  0.12637150306E+02  0.00000000000E+00 0.  1.
</event>
<event>
 7    1  0.1445801E-008  0.4614232E+02  0.7816164E-02  0.1320468E+00
        -11   -1    0    0    0    0  0.00000000000E+00  0.00000000000E+00  0.45593999997E+02  0.45594000000E+02  0.51100000000E-03 0.  1.
         11   -1    0    0    0    0 -0.00000000000E+00 -0.00000000000E+00 -0.45593999997E+02  0.45594000000E+02  0.51100000000E-03 0. -1.
    9900012    2    1    2    0    0 -0.35167816060E+02 -0.28121552006E+02  0.12314508799E+01  0.46142318243E+02  0.10000004398E+02 0.  0.
         12    1    1    2    0    0  0.35167816060E+02  0.28121552006E+02 -0.12314508799E+01  0.45045681757E+02  0.00000000000E+00 0. -1.
         11    1    3    3    0    0 -0.80188117130E+01 -0.94274725621E+01 -0.13394525776E+01  0.12448803704E+02  0.51100000000E-03 0. -1.
        -11    1    3    3    0    0 -0.20702192330E+02 -0.11892561095E+02 -0.34998450475E+00  0.23877526382E+02  0.51100000000E-03 0.  1.
         12    1    3    3    0    0 -0.64468120170E+01 -0.68015183481E+01  0.29208879623E+01  0.98159881576E+01  0.00000000000E+00 0. -1.
</event>
<event>
 7    1  0.1445801E-008  0.4614232E+02  0.7816164E-02  0.1320468E+00
        -11   -1    0    0    0    0  0.00000000000E+00  0.00000000000E+00  0.45593999997E+02  0.45594000000E+02  0.51100000000E-03 0. -1.
         11   -1    0    0    0    0 -0.00000000000E+00 -0.00000000000E+00 -0.45593999997E+02  0.45594000000E+02  0.51100000000E-03 0.  1.
    9900012    2    1    2    0    0 -0.13031370690E+02  0.26921436014E+02 -0.33682830961E+02  0.46142318290E+02  0.10000004824E+02 0.  0.
         12    1    1    2    0    0  0.13031370690E+02 -0.26921436014E+02  0.33682830961E+02  0.45045681710E+02  0.00000000000E+00 0. -1.
         11    1    3    3    0    0 -0.15766969291E+01  0.10139672824E+01 -0.57867390403E+00  0.19618783358E+01  0.51100000000E-03 0. -1.
        -11    1    3    3    0    0  0.72789885635E+00  0.12934155063E+00 -0.69468647547E+00  0.10144730367E+01  0.51100000000E-03 0.  1.
        -12    1    3    3    0    0 -0.12182572618E+02  0.25778127181E+02 -0.32409470582E+02  0.43165966918E+02  0.00000000000E+00 0.  1.
</event>
<event>
 7    1  0.1445801E-008  0.4614232E+02  0.7816164E-02  0.1320468E+00
        -11   -1    0    0    0    0  0.00000000000E+00  0.00000000000E+00  0.45593999997E+02  0.45594000000E+02  0.51100000000E-03 0.  1.
         11   -1    0    0    0    0 -0.00000000000E+00 -0.00000000000E+00 -0.45593999997E+02  0.45594000000E+02  0.51100000000E-03 0. -1.
    9900012    2    1    2    0    0  0.27448971008E+02  0.76283249303E+01  0.34892348646E+02  0.46142319356E+02  0.10000014544E+02 0.  0.
         12    1    1    2    0    0 -0.27448971008E+02 -0.76283249303E+01 -0.34892348646E+02  0.45045680644E+02  0.00000000000E+00 0. -1.
         11    1    3    3    0    0  0.13919939929E+02  0.49452115262E+01  0.23605220222E+02  0.27846476737E+02  0.51100000000E-03 0. -1.
        -11    1    3    3    0    0  0.53589468179E+01  0.51417731781E+00  0.69614724730E+01  0.88002720734E+01  0.51100000000E-03 0.  1.
         12    1    3    3    0    0  0.81700842613E+01  0.21689360863E+01  0.43256559504E+01  0.94955705455E+01  0.00000000000E+00 0. -1.
</event>
<event>
 7    1  0.1445801E-008  0.4614232E+02  0.7816164E-02  0.1320468E+00
        -11   -1    0    0    0    0  0.00000000000E+00  0.00000000000E+00  0.45593999997E+02  0.45594000000E+02  0.51100000000E-03 0.  1.
         11   -1    0    0    0    0 -0.00000000000E+00 -0.00000000000E+00 -0.45593999997E+02  0.45594000000E+02  0.51100000000E-03 0. -1.
    9900012    2    1    2    0    0 -0.32987965285E+02 -0.28457196389E+02  0.11449699762E+02  0.46142317581E+02  0.99999983563E+01 0.  0.
         12    1    1    2    0    0  0.32987965285E+02  0.28457196389E+02 -0.11449699762E+02  0.45045682419E+02  0.00000000000E+00 0. -1.
         11    1    3    3    0    0 -0.16755452474E+02 -0.13243769812E+02  0.92592726411E+01  0.23278246423E+02  0.51100000000E-03 0. -1.
        -11    1    3    3    0    0 -0.15383579914E+02 -0.12883810852E+02  0.94232474459E+00  0.20088182825E+02  0.51100000000E-03 0.  1.
         12    1    3    3    0    0 -0.84893289689E+00 -0.23296157253E+01  0.12481023766E+01  0.27758883323E+01  0.00000000000E+00 0. -1.
</event>
<event>
 7    1  0.1445801E-008  0.4614232E+02  0.7816164E-02  0.1320468E+00
        -11   -1    0    0    0    0  0.00000000000E+00  0.00000000000E+00  0.45593999997E+02  0.45594000000E+02  0.51100000000E-03 0. -1.
         11   -1    0    0    0    0 -0.00000000000E+00 -0.00000000000E+00 -0.45593999997E+02  0.45594000000E+02  0.51100000000E-03 0.  1.
    9900012    2    1    2    0    0  0.28483328308E+02 -0.20680002128E+02 -0.28109625144E+02  0.46142317574E+02  0.99999982908E+01 0.  0.
         12    1    1    2    0    0 -0.28483328308E+02  0.20680002128E+02  0.28109625144E+02  0.45045682426E+02  0.00000000000E+00 0. -1.
         11    1    3    3    0    0  0.42348191072E+00  0.57042316537E+00 -0.16057375418E+01  0.17558795034E+01  0.51100000000E-03 0. -1.
        -11    1    3    3    0    0  0.24384257718E+02 -0.16191450955E+02 -0.22941768094E+02  0.37189781285E+02  0.51100000000E-03 0.  1.
        -12    1    3    3    0    0  0.36755886797E+01 -0.50589743382E+01 -0.35621195085E+01  0.71966567856E+01  0.00000000000E+00 0.  1.
</event>
<event>
 7    1  0.1445801E-008  0.4614232E+02  0.7816164E-02  0.1320468E+00
        -11   -1    0    0    0    0  0.00000000000E+00  0.00000000000E+00  0.45593999997E+02  0.45594000000E+02  0.51100000000E-03 0.  1.
         11   -1    0    0    0    0 -0.00000000000E+00 -0.00000000000E+00 -0.45593999997E+02  0.45594000000E+02  0.51100000000E-03 0. -1.
    9900012    2    1    2    0    0  0.17818780308E+02  0.36060304682E+02  0.20279514067E+02  0.46142321004E+02  0.10000029568E+02 0.  0.
         12    1    1    2    0    0 -0.17818780308E+02 -0.36060304682E+02 -0.20279514067E+02  0.45045678996E+02  0.00000000000E+00 0. -1.
         11    1    3    3    0    0  0.39355283516E+01  0.38810951728E+01  0.51149969781E+00  0.55509382404E+01  0.51100000000E-03 0. -1.
        -11    1    3    3    0    0  0.60276318793E+01  0.13093586526E+02  0.11157798840E+02  0.18228297491E+02  0.51100000000E-03 0.  1.
         12    1    3    3    0    0  0.78556200771E+01  0.19085622983E+02  0.86102155297E+01  0.22363085273E+02  0.00000000000E+00 0. -1.
</event>
<event>
 7    1  0.1445801E-008  0.4614232E+02  0.7816164E-02  0.1320468E+00
        -11   -1    0    0    0    0  0.00000000000E+00  0.00000000000E+00  0.45593999997E+02  0.45594000000E+02  0.51100000000E-03 0.  1.
         11   -1    0    0    0    0 -0.00000000000E+00 -0.00000000000E+00 -0.45593999997E+02  0.45594000000E+02  0.51100000000E-03 0. -1.
    9900012    2    1    2    0    0  0.17016594413E+02 -0.26944845943E+02  0.31835896955E+02  0.46142317152E+02  0.99999944493E+01 0.  0.
         12    1    1    2    0    0 -0.17016594413E+02  0.26944845943E+02 -0.31835896955E+02  0.45045682848E+02  0.00000000000E+00 0. -1.
         11    1    3    3    0    0  0.12590891802E+02 -0.13042733573E+02  0.15002987312E+02  0.23531533821E+02  0.51100000000E-03 0. -1.
        -11    1    3    3    0    0  0.49777431017E+01 -0.11099700570E+02  0.14468366247E+02  0.18902774961E+02  0.51100000000E-03 0.  1.
         12    1    3    3    0    0 -0.55204049086E+00 -0.28024118005E+01  0.23645433959E+01  0.37080083703E+01  0.00000000000E+00 0. -1.
</event>
<event>
 7    1  0.1445801E-008  0.4614232E+02  0.7816164E-02  0.1320468E+00
        -11   -1    0    0    0    0  0.00000000000E+00  0.00000000000E+00  0.45593999997E+02  0.45594000000E+02  0.51100000000E-03 0. -1.
         11   -1    0    0    0    0 -0.00000000000E+00 -0.00000000000E+00 -0.45593999997E+02  0.45594000000E+02  0.51100000000E-03 0.  1.
    9900012    2    1    2    0    0  0.21628402953E+02 -0.32496625203E+02 -0.22478766635E+02  0.46142318595E+02  0.10000007600E+02 0.  0.
         12    1    1    2    0    0 -0.21628402953E+02  0.32496625203E+02  0.22478766635E+02  0.45045681405E+02  0.00000000000E+00 0. -1.
         11    1    3    3    0    0  0.54132283848E+01 -0.13803210312E+02 -0.82129486942E+01  0.16949459666E+02  0.51100000000E-03 0.  1.
        -11    1    3    3    0    0  0.95063550650E+01 -0.66034722097E+01 -0.54395858758E+01  0.12789281708E+02  0.51100000000E-03 0. -1.
         12    1    3    3    0    0  0.67088195030E+01 -0.12089942681E+02 -0.88262320647E+01  0.16403577220E+02  0.00000000000E+00 0. -1.
</event>
<event>
 7    1  0.1445801E-008  0.4614232E+02  0.7816164E-02  0.1320468E+00
        -11   -1    0    0    0    0  0.00000000000E+00  0.00000000000E+00  0.45593999997E+02  0.45594000000E+02  0.51100000000E-03 0.  1.
         11   -1    0    0    0    0 -0.00000000000E+00 -0.00000000000E+00 -0.45593999997E+02  0.45594000000E+02  0.51100000000E-03 0. -1.
    9900012    2    1    2    0    0 -0.14444361654E+02  0.27793292869E+02  0.32372933675E+02  0.46142317113E+02  0.99999940866E+01 0.  0.
         12    1    1    2    0    0  0.14444361654E+02 -0.27793292869E+02 -0.32372933675E+02  0.45045682887E+02  0.00000000000E+00 0. -1.
         11    1    3    3    0    0 -0.26525451880E+01  0.73980323984E+01  0.13020785309E+02  0.15208804347E+02  0.51100000000E-03 0. -1.
        -11    1    3    3    0    0 -0.36502221570E+01  0.54978513774E+01  0.26303072567E+01  0.71041542839E+01  0.51100000000E-03 0.  1.
         12    1    3    3    0    0 -0.81415943088E+01  0.14897409093E+02  0.16721841109E+02  0.23829358482E+02  0.00000000000E+00 0. -1.
</event>
<event>
 7    1  0.1445801E-008  0.4614232E+02  0.7816164E-02  0.1320468E+00
        -11   -1    0    0    0    0  0.00000000000E+00  0.00000000000E+00  0.45593999997E+02  0.45594000000E+02  0.51100000000E-03 0.  1.
         11   -1    0    0    0    0 -0.00000000000E+00 -0.00000000000E+00 -0.45593999997E+02  0.45594000000E+02  0.51100000000E-03 0. -1.
    9900012    2    1    2    0    0  0.30344175540E+02 -0.18087113352E+02  0.27949971634E+02  0.46142316823E+02  0.99999914433E+01 0.  0.
         12    1    1    2    0    0 -0.30344175540E+02  0.18087113352E+02 -0.27949971634E+02  0.45045683177E+02  0.00000000000E+00 0. -1.
         11    1    3    3    0    0  0.48116745280E+01 -0.52984347180E+01  0.21141559086E+01  0.74629268850E+01  0.51100000000E-03 0. -1.
        -11    1    3    3    0    0  0.16235838861E+02 -0.95095926149E+01  0.18539776162E+02  0.26415111501E+02  0.51100000000E-03 0.  1.
         12    1    3    3    0    0  0.92966621505E+01 -0.32790860188E+01  0.72960395630E+01  0.12264278436E+02  0.00000000000E+00 0. -1.
</event>
<event>
 7    1  0.1445801E-008  0.4614232E+02  0.7816164E-02  0.1320468E+00
        -11   -1    0    0    0    0  0.00000000000E+00  0.00000000000E+00  0.45593999997E+02  0.45594000000E+02  0.51100000000E-03 0.  1.
         11   -1    0    0    0    0 -0.00000000000E+00 -0.00000000000E+00 -0.45593999997E+02  0.45594000000E+02  0.51100000000E-03 0. -1.
    9900012    2    1    2    0    0 -0.22623789404E+02 -0.38833125208E+02 -0.30440168381E+01  0.46142317644E+02  0.99999989295E+01 0.  0.
         12    1    1    2    0    0  0.22623789404E+02  0.38833125208E+02  0.30440168381E+01  0.45045682356E+02  0.00000000000E+00 0. -1.
         11    1    3    3    0    0 -0.83945420026E+01 -0.85990519695E+01 -0.41326603308E+01  0.12707907455E+02  0.51100000000E-03 0. -1.
        -11    1    3    3    0    0 -0.89545878576E+01 -0.18838366546E+02  0.81364429207E+00  0.20874163818E+02  0.51100000000E-03 0.  1.
         12    1    3    3    0    0 -0.52746595435E+01 -0.11395706693E+02  0.27499920063E+00  0.12560246371E+02  0.00000000000E+00 0. -1.
</event>
<event>
 7    1  0.1445801E-008  0.4614232E+02  0.7816164E-02  0.1320468E+00
        -11   -1    0    0    0    0  0.00000000000E+00  0.00000000000E+00  0.45593999997E+02  0.45594000000E+02  0.51100000000E-03 0.  1.
         11   -1    0    0    0    0 -0.00000000000E+00 -0.00000000000E+00 -0.45593999997E+02  0.45594000000E+02  0.51100000000E-03 0. -1.
    9900012    2    1    2    0    0 -0.95819244217E+01 -0.22947724820E+02  0.37559311339E+02  0.46142320759E+02  0.10000027335E+02 0.  0.
         12    1    1    2    0    0  0.95819244217E+01  0.22947724820E+02 -0.37559311339E+02  0.45045679241E+02  0.00000000000E+00 0. -1.
         11    1    3    3    0    0  0.20749719789E+00 -0.44873566923E+01  0.13624682948E+02  0.14346128776E+02  0.51100000000E-03 0. -1.
        -11    1    3    3    0    0 -0.94522639829E+01 -0.17812713700E+02  0.23406689097E+02  0.30895163998E+02  0.51100000000E-03 0.  1.
         12    1    3    3    0    0 -0.33715763672E+00 -0.64765442787E+00  0.52793929473E+00  0.90102798450E+00  0.00000000000E+00 0. -1.
</event>
<event>
 7    1  0.1445801E-008  0.4614232E+02  0.7816164E-02  0.1320468E+00
        -11   -1    0    0    0    0  0.00000000000E+00  0.00000000000E+00  0.45593999997E+02  0.45594000000E+02  0.51100000000E-03 0. -1.
         11   -1    0    0    0    0 -0.00000000000E+00 -0.00000000000E+00 -0.45593999997E+02  0.45594000000E+02  0.51100000000E-03 0.  1.
    9900012    2    1    2    0    0 -0.10152660749E+02  0.36213055012E+02  0.24792168335E+02  0.46142317806E+02  0.10000000412E+02 0.  0.
         12    1    1    2    0    0  0.10152660749E+02 -0.36213055012E+02 -0.24792168335E+02  0.45045682194E+02  0.00000000000E+00 0. -1.
         11    1    3    3    0    0 -0.90676634713E+01  0.21404583596E+02  0.13056257824E+02  0.26661668897E+02  0.51100000000E-03 0.  1.
        -11    1    3    3    0    0  0.14092369561E+01  0.19542327237E+01  0.23879342341E+01  0.33922270715E+01  0.51100000000E-03 0. -1.
        -12    1    3    3    0    0 -0.24942342338E+01  0.12854238692E+02  0.93479762763E+01  0.16088421838E+02  0.00000000000E+00 0.  1.
</event>
<event>
 7    1  0.1445801E-008  0.4614232E+02  0.7816164E-02  0.1320468E+00
        -11   -1    0    0    0    0  0.00000000000E+00  0.00000000000E+00  0.45593999997E+02  0.45594000000E+02  0.51100000000E-03 0.  1.
         11   -1    0    0    0    0 -0.00000000000E+00 -0.00000000000E+00 -0.45593999997E+02  0.45594000000E+02  0.51100000000E-03 0. -1.
    9900012    2    1    2    0    0  0.12296166445E+02  0.43051769410E+02  0.49459922774E+01  0.46142318763E+02  0.10000009133E+02 0.  0.
         12    1    1    2    0    0 -0.12296166445E+02 -0.43051769410E+02 -0.49459922774E+01  0.45045681237E+02  0.00000000000E+00 0. -1.
         11    1    3    3    0    0  0.41398306067E+01  0.46525129224E+01  0.14087134640E+01  0.63850252803E+01  0.51100000000E-03 0. -1.
        -11    1    3    3    0    0  0.21994752094E+01  0.10266113524E+02 -0.13586292113E+01  0.10586626077E+02  0.51100000000E-03 0.  1.
         12    1    3    3    0    0  0.59568606285E+01  0.28133142963E+02  0.48959080247E+01  0.29170667406E+02  0.00000000000E+00 0. -1.
</event>
<event>
 7    1  0.1445801E-008  0.4614232E+02  0.7816164E-02  0.1320468E+00
        -11   -1    0    0    0    0  0.00000000000E+00  0.00000000000E+00  0.45593999997E+02  0.45594000000E+02  0.51100000000E-03 0.  1.
         11   -1    0    0    0    0 -0.00000000000E+00 -0.00000000000E+00 -0.45593999997E+02  0.45594000000E+02  0.51100000000E-03 0. -1.
    9900012    2    1    2    0    0 -0.26623915016E+01 -0.40535012329E+02  0.19466327636E+02  0.46142318025E+02  0.10000002402E+02 0.  0.
         12    1    1    2    0    0  0.26623915016E+01  0.40535012329E+02 -0.19466327636E+02  0.45045681975E+02  0.00000000000E+00 0. -1.
         11    1    3    3    0    0 -0.19576316959E+01 -0.48779748458E+01  0.81208564810E+00  0.53185001470E+01  0.51100000000E-03 0. -1.
        -11    1    3    3    0    0 -0.27307504412E+01 -0.30382771210E+02  0.17067438673E+02  0.34955217743E+02  0.51100000000E-03 0.  1.
        -12    1    3    3    0    0  0.20259906356E+01 -0.52742662732E+01  0.15868033152E+01  0.58686001344E+01  0.00000000000E+00 0.  1.
</event>
<event>
 7    1  0.1445801E-008  0.4614232E+02  0.7816164E-02  0.1320468E+00
        -11   -1    0    0    0    0  0.00000000000E+00  0.00000000000E+00  0.45593999997E+02  0.45594000000E+02  0.51100000000E-03 0. -1.
         11   -1    0    0    0    0 -0.00000000000E+00 -0.00000000000E+00 -0.45593999997E+02  0.45594000000E+02  0.51100000000E-03 0.  1.
    9900012    2    1    2    0    0  0.23746771903E+02 -0.21970850410E+02 -0.31344632816E+02  0.46142318188E+02  0.10000003896E+02 0.  0.
         12    1    1    2    0    0 -0.23746771903E+02  0.21970850410E+02  0.31344632816E+02  0.45045681812E+02  0.00000000000E+00 0. -1.
         11    1    3    3    0    0  0.14115523328E+02 -0.10130595014E+02 -0.11915987090E+02  0.21068167997E+02  0.51100000000E-03 0. -1.
        -11    1    3    3    0    0  0.83310500327E+01 -0.80690406514E+01 -0.16296910889E+02  0.20002627739E+02  0.51100000000E-03 0.  1.
         12    1    3    3    0    0  0.13001985420E+01 -0.37712147438E+01 -0.31317348366E+01  0.50715224518E+01  0.00000000000E+00 0. -1.
</event>
<event>
 7    1  0.1445801E-008  0.4614232E+02  0.7816164E-02  0.1320468E+00
        -11   -1    0    0    0    0  0.00000000000E+00  0.00000000000E+00  0.45593999997E+02  0.45594000000E+02  0.51100000000E-03 0.  1.
         11   -1    0    0    0    0 -0.00000000000E+00 -0.00000000000E+00 -0.45593999997E+02  0.45594000000E+02  0.51100000000E-03 0. -1.
    9900012    2    1    2    0    0  0.20130789584E+02  0.20903690178E+02  0.34451423003E+02  0.46142317640E+02  0.99999988982E+01 0.  0.
         12    1    1    2    0    0 -0.20130789584E+02 -0.20903690178E+02 -0.34451423003E+02  0.45045682360E+02  0.00000000000E+00 0. -1.
         11    1    3    3    0    0  0.32222647813E+01  0.90744879010E+00  0.42640472532E+01  0.54211209972E+01  0.51100000000E-03 0. -1.
        -11    1    3    3    0    0  0.14197485900E+02  0.17708000746E+02  0.21194963295E+02  0.31054280955E+02  0.51100000000E-03 0.  1.
        -12    1    3    3    0    0  0.27110389033E+01  0.22882406417E+01  0.89924124542E+01  0.96669156879E+01  0.00000000000E+00 0.  1.
</event>
<event>
 7    1  0.1445801E-008  0.4614232E+02  0.7816164E-02  0.1320468E+00
        -11   -1    0    0    0    0  0.00000000000E+00  0.00000000000E+00  0.45593999997E+02  0.45594000000E+02  0.51100000000E-03 0. -1.
         11   -1    0    0    0    0 -0.00000000000E+00 -0.00000000000E+00 -0.45593999997E+02  0.45594000000E+02  0.51100000000E-03 0.  1.
    9900012    2    1    2    0    0  0.36457780716E+02  0.24371494779E+02 -0.10294362850E+02  0.46142318309E+02  0.10000004997E+02 0.  0.
         12    1    1    2    0    0 -0.36457780716E+02 -0.24371494779E+02  0.10294362850E+02  0.45045681691E+02  0.00000000000E+00 0. -1.
         11    1    3    3    0    0  0.26761080628E+02  0.18117594950E+02 -0.10694711427E+02  0.34040850987E+02  0.51100000000E-03 0.  1.
        -11    1    3    3    0    0  0.99494353212E+01  0.58271642717E+01  0.64530153721E+00  0.11548312474E+02  0.51100000000E-03 0. -1.
         12    1    3    3    0    0 -0.25273523284E+00  0.42673555706E+00 -0.24495295978E+00  0.55315484820E+00  0.00000000000E+00 0. -1.
</event>
<event>
 7    1  0.1445801E-008  0.4614232E+02  0.7816164E-02  0.1320468E+00
        -11   -1    0    0    0    0  0.00000000000E+00  0.00000000000E+00  0.45593999997E+02  0.45594000000E+02  0.51100000000E-03 0. -1.
         11   -1    0    0    0    0 -0.00000000000E+00 -0.00000000000E+00 -0.45593999997E+02  0.45594000000E+02  0.51100000000E-03 0.  1.
    9900012    2    1    2    0    0  0.36101559305E+02  0.26064059014E+02  0.68158397892E+01  0.46142318425E+02  0.10000006054E+02 0.  0.
         12    1    1    2    0    0 -0.36101559305E+02 -0.26064059014E+02 -0.68158397892E+01  0.45045681575E+02  0.00000000000E+00 0. -1.
         11    1    3    3    0    0  0.27687990584E+01  0.14424405673E-01  0.19572125596E+01  0.33907429206E+01  0.51100000000E-03 0. -1.
        -11    1    3    3    0    0  0.30763880882E+02  0.22597667179E+02  0.43444159627E+01  0.38418028049E+02  0.51100000000E-03 0.  1.
        -12    1    3    3    0    0  0.25688793646E+01  0.34519674287E+01  0.51421126694E+00  0.43335474552E+01  0.00000000000E+00 0.  1.
</event>
<event>
 7    1  0.1445801E-008  0.4614232E+02  0.7816164E-02  0.1320468E+00
        -11   -1    0    0    0    0  0.00000000000E+00  0.00000000000E+00  0.45593999997E+02  0.45594000000E+02  0.51100000000E-03 0.  1.
         11   -1    0    0    0    0 -0.00000000000E+00 -0.00000000000E+00 -0.45593999997E+02  0.45594000000E+02  0.51100000000E-03 0. -1.
    9900012    2    1    2    0    0 -0.24494688486E+02 -0.27879340784E+01  0.37700810712E+02  0.46142317978E+02  0.10000001981E+02 0.  0.
         12    1    1    2    0    0  0.24494688486E+02  0.27879340784E+01 -0.37700810712E+02  0.45045682022E+02  0.00000000000E+00 0. -1.
         11    1    3    3    0    0 -0.12270855299E+02 -0.25813624087E+01  0.20239000855E+02  0.23808705919E+02  0.51100000000E-03 0. -1.
        -11    1    3    3    0    0 -0.80499317238E+01  0.92795602921E+00  0.59998642529E+01  0.10082701744E+02  0.51100000000E-03 0.  1.
         12    1    3    3    0    0 -0.41739014633E+01 -0.11345276990E+01  0.11461945604E+02  0.12250910315E+02  0.00000000000E+00 0. -1.
</event>
<event>
 7    1  0.1445801E-008  0.4614232E+02  0.7816164E-02  0.1320468E+00
        -11   -1    0    0    0    0  0.00000000000E+00  0.00000000000E+00  0.45593999997E+02  0.45594000000E+02  0.51100000000E-03 0. -1.
         11   -1    0    0    0    0 -0.00000000000E+00 -0.00000000000E+00 -0.45593999997E+02  0.45594000000E+02  0.51100000000E-03 0.  1.
    9900012    2    1    2    0    0  0.28779782630E+02  0.19770725202E+02 -0.28459726846E+02  0.46142317461E+02  0.99999972647E+01 0.  0.
         12    1    1    2    0    0 -0.28779782630E+02 -0.19770725202E+02  0.28459726846E+02  0.45045682539E+02  0.00000000000E+00 0. -1.
         11    1    3    3    0    0  0.39738247747E+01  0.67000026953E+00 -0.38741441497E+01  0.55900963189E+01  0.51100000000E-03 0. -1.
        -11    1    3    3    0    0  0.72285805644E+01  0.66658522143E+01 -0.35587886969E+01  0.10457099979E+02  0.51100000000E-03 0.  1.
        -12    1    3    3    0    0  0.17577377291E+02  0.12434872718E+02 -0.21026793999E+02  0.30095121163E+02  0.00000000000E+00 0.  1.
</event>
<event>
 7    1  0.1445801E-008  0.4614232E+02  0.7816164E-02  0.1320468E+00
        -11   -1    0    0    0    0  0.00000000000E+00  0.00000000000E+00  0.45593999997E+02  0.45594000000E+02  0.51100000000E-03 0. -1.
         11   -1    0    0    0    0 -0.00000000000E+00 -0.00000000000E+00 -0.45593999997E+02  0.45594000000E+02  0.51100000000E-03 0.  1.
    9900012    2    1    2    0    0 -0.23219527230E+02  0.91153958477E+01 -0.37508350736E+02  0.46142320283E+02  0.10000022997E+02 0.  0.
         12    1    1    2    0    0  0.23219527230E+02 -0.91153958477E+01  0.37508350736E+02  0.45045679717E+02  0.00000000000E+00 0. -1.
         11    1    3    3    0    0 -0.11271431192E+02  0.52415001075E+01 -0.15475871747E+02  0.19849964511E+02  0.51100000000E-03 0. -1.
        -11    1    3    3    0    0  0.49270765996E+00 -0.19537619316E+00  0.13668156837E+00  0.54737081333E+00  0.51100000000E-03 0.  1.
        -12    1    3    3    0    0 -0.12440803698E+02  0.40692719333E+01 -0.22169160557E+02  0.25744984959E+02  0.00000000000E+00 0.  1.
</event>
<event>
 7    1  0.1445801E-008  0.4614232E+02  0.7816164E-02  0.1320468E+00
        -11   -1    0    0    0    0  0.00000000000E+00  0.00000000000E+00  0.45593999997E+02  0.45594000000E+02  0.51100000000E-03 0. -1.
         11   -1    0    0    0    0 -0.00000000000E+00 -0.00000000000E+00 -0.45593999997E+02  0.45594000000E+02  0.51100000000E-03 0.  1.
    9900012    2    1    2    0    0  0.28099732113E+02  0.24867361926E+02 -0.24922538329E+02  0.46142317068E+02  0.99999936841E+01 0.  0.
         12    1    1    2    0    0 -0.28099732113E+02 -0.24867361926E+02  0.24922538329E+02  0.45045682932E+02  0.00000000000E+00 0. -1.
         11    1    3    3    0    0  0.49998328197E+01  0.22461954087E+01 -0.10902719727E+01  0.55885968967E+01  0.51100000000E-03 0. -1.
        -11    1    3    3    0    0  0.19268639021E+02  0.18852375183E+02 -0.22243763808E+02  0.34949642750E+02  0.51100000000E-03 0.  1.
        -12    1    3    3    0    0  0.38312602728E+01  0.37687913347E+01 -0.15885025482E+01  0.56040774217E+01  0.00000000000E+00 0.  1.
</event>
<event>
 7    1  0.1445801E-008  0.4614232E+02  0.7816164E-02  0.1320468E+00
        -11   -1    0    0    0    0  0.00000000000E+00  0.00000000000E+00  0.45593999997E+02  0.45594000000E+02  0.51100000000E-03 0.  1.
         11   -1    0    0    0    0 -0.00000000000E+00 -0.00000000000E+00 -0.45593999997E+02  0.45594000000E+02  0.51100000000E-03 0. -1.
    9900012    2    1    2    0    0  0.58228977775E+01  0.95001138769E+01  0.43645792456E+02  0.46142317618E+02  0.99999986921E+01 0.  0.
         12    1    1    2    0    0 -0.58228977775E+01 -0.95001138769E+01 -0.43645792456E+02  0.45045682382E+02  0.00000000000E+00 0. -1.
         11    1    3    3    0    0  0.28253408900E+01  0.12508437004E+01  0.46502754389E+01  0.55832090259E+01  0.51100000000E-03 0. -1.
        -11    1    3    3    0    0  0.11793448309E+01  0.60860307214E+01  0.12913172276E+02  0.14324127990E+02  0.51100000000E-03 0.  1.
        -12    1    3    3    0    0  0.18182120565E+01  0.21632394551E+01  0.26082344740E+02  0.26234980602E+02  0.00000000000E+00 0.  1.
</event>
<event>
 7    1  0.1445801E-008  0.4614232E+02  0.7816164E-02  0.1320468E+00
        -11   -1    0    0    0    0  0.00000000000E+00  0.00000000000E+00  0.45593999997E+02  0.45594000000E+02  0.51100000000E-03 0.  1.
         11   -1    0    0    0    0 -0.00000000000E+00 -0.00000000000E+00 -0.45593999997E+02  0.45594000000E+02  0.51100000000E-03 0. -1.
    9900012    2    1    2    0    0  0.34962483155E+02  0.12061328198E+01  0.28377517644E+02  0.46142317716E+02  0.99999995909E+01 0.  0.
         12    1    1    2    0    0 -0.34962483155E+02 -0.12061328198E+01 -0.28377517644E+02  0.45045682284E+02  0.00000000000E+00 0. -1.
         11    1    3    3    0    0  0.64266502298E+01  0.31863716569E+01  0.83692160400E+01  0.11022639198E+02  0.51100000000E-03 0. -1.
        -11    1    3    3    0    0  0.23805711709E+02 -0.12087691079E+01  0.18227466485E+02  0.30006892000E+02  0.51100000000E-03 0.  1.
         12    1    3    3    0    0  0.47301212158E+01 -0.77146972914E+00  0.17808351195E+01  0.51127865184E+01  0.00000000000E+00 0. -1.
</event>
<event>
 7    1  0.1445801E-008  0.4614232E+02  0.7816164E-02  0.1320468E+00
        -11   -1    0    0    0    0  0.00000000000E+00  0.00000000000E+00  0.45593999997E+02  0.45594000000E+02  0.51100000000E-03 0.  1.
         11   -1    0    0    0    0 -0.00000000000E+00 -0.00000000000E+00 -0.45593999997E+02  0.45594000000E+02  0.51100000000E-03 0. -1.
    9900012    2    1    2    0    0 -0.95968772933E+01 -0.43765220581E+02  0.46496310409E+01  0.46142315911E+02  0.99999831252E+01 0.  0.
         12    1    1    2    0    0  0.95968772933E+01  0.43765220581E+02 -0.46496310409E+01  0.45045684089E+02  0.00000000000E+00 0. -1.
         11    1    3    3    0    0 -0.10955207538E+01 -0.12563599985E+02  0.26390269408E+01  0.12884435330E+02  0.51100000000E-03 0. -1.
        -11    1    3    3    0    0 -0.63228591145E+01 -0.14247056217E+02 -0.19571802956E+01  0.15709478451E+02  0.51100000000E-03 0.  1.
        -12    1    3    3    0    0 -0.21784974249E+01 -0.16954564379E+02  0.39677843956E+01  0.17548402130E+02  0.00000000000E+00 0.  1.
</event>
<event>
 7    1  0.1445801E-008  0.4614232E+02  0.7816164E-02  0.1320468E+00
        -11   -1    0    0    0    0  0.00000000000E+00  0.00000000000E+00  0.45593999997E+02  0.45594000000E+02  0.51100000000E-03 0.  1.
         11   -1    0    0    0    0 -0.00000000000E+00 -0.00000000000E+00 -0.45593999997E+02  0.45594000000E+02  0.51100000000E-03 0. -1.
    9900012    2    1    2    0    0 -0.66480600110E+01 -0.32255001201E+02  0.30733234418E+02  0.46142317608E+02  0.99999986010E+01 0.  0.
         12    1    1    2    0    0  0.66480600110E+01  0.32255001201E+02 -0.30733234418E+02  0.45045682392E+02  0.00000000000E+00 0. -1.
         11    1    3    3    0    0 -0.52020447968E+01 -0.25115500116E+02  0.21260986580E+02  0.33314849043E+02  0.51100000000E-03 0.  1.
        -11    1    3    3    0    0 -0.22764337435E+01 -0.29940992576E+01  0.69554609887E+01  0.79072889652E+01  0.51100000000E-03 0. -1.
         12    1    3    3    0    0  0.83041852923E+00 -0.41454018278E+01  0.25167868491E+01  0.49201795995E+01  0.00000000000E+00 0. -1.
</event>
<event>
 7    1  0.1445801E-008  0.4614232E+02  0.7816164E-02  0.1320468E+00
        -11   -1    0    0    0    0  0.00000000000E+00  0.00000000000E+00  0.45593999997E+02  0.45594000000E+02  0.51100000000E-03 0.  1.
         11   -1    0    0    0    0 -0.00000000000E+00 -0.00000000000E+00 -0.45593999997E+02  0.45594000000E+02  0.51100000000E-03 0. -1.
    9900012    2    1    2    0    0 -0.42092769958E+02 -0.14934982179E+00  0.16040259478E+02  0.46142317497E+02  0.99999975876E+01 0.  0.
         12    1    1    2    0    0  0.42092769958E+02  0.14934982179E+00 -0.16040259478E+02  0.45045682503E+02  0.00000000000E+00 0. -1.
         11    1    3    3    0    0 -0.29398219385E+01 -0.86084801821E+00  0.37145967342E+01  0.48147524858E+01  0.51100000000E-03 0. -1.
        -11    1    3    3    0    0 -0.89682750135E+01  0.21627714943E+01  0.27145799565E+01  0.96164693030E+01  0.51100000000E-03 0.  1.
         12    1    3    3    0    0 -0.30184673006E+02 -0.14512732979E+01  0.96110827877E+01  0.31711095708E+02  0.00000000000E+00 0. -1.
</event>
<event>
 7    1  0.1445801E-008  0.4614232E+02  0.7816164E-02  0.1320468E+00
        -11   -1    0    0    0    0  0.00000000000E+00  0.00000000000E+00  0.45593999997E+02  0.45594000000E+02  0.51100000000E-03 0.  1.
         11   -1    0    0    0    0 -0.00000000000E+00 -0.00000000000E+00 -0.45593999997E+02  0.45594000000E+02  0.51100000000E-03 0. -1.
    9900012    2    1    2    0    0  0.42208228809E+02 -0.25567267711E+01  0.15525530529E+02  0.46142317308E+02  0.99999958644E+01 0.  0.
         12    1    1    2    0    0 -0.42208228809E+02  0.25567267711E+01 -0.15525530529E+02  0.45045682692E+02  0.00000000000E+00 0. -1.
         11    1    3    3    0    0  0.78129853227E+00  0.77736546167E+00 -0.16133298211E-01  0.11022635810E+01  0.51100000000E-03 0. -1.
        -11    1    3    3    0    0  0.34546044694E+02 -0.56643111792E+01  0.12723031734E+02  0.37247673242E+02  0.51100000000E-03 0.  1.
        -12    1    3    3    0    0  0.68808855826E+01  0.23302189465E+01  0.28186320939E+01  0.77923804848E+01  0.00000000000E+00 0.  1.
</event>
<event>
 7    1  0.1445801E-008  0.4614232E+02  0.7816164E-02  0.1320468E+00
        -11   -1    0    0    0    0  0.00000000000E+00  0.00000000000E+00  0.45593999997E+02  0.45594000000E+02  0.51100000000E-03 0.  1.
         11   -1    0    0    0    0 -0.00000000000E+00 -0.00000000000E+00 -0.45593999997E+02  0.45594000000E+02  0.51100000000E-03 0. -1.
    9900012    2    1    2    0    0 -0.41559734033E+02 -0.13315404460E+02  0.11162528748E+02  0.46142317223E+02  0.99999950936E+01 0.  0.
         12    1    1    2    0    0  0.41559734033E+02  0.13315404460E+02 -0.11162528748E+02  0.45045682777E+02  0.00000000000E+00 0. -1.
         11    1    3    3    0    0 -0.21186055341E+02 -0.11146724647E+02  0.87079332094E+01  0.25474036042E+02  0.51100000000E-03 0. -1.
        -11    1    3    3    0    0 -0.15681363678E+02 -0.14588169588E+01  0.14352648860E+01  0.15814338408E+02  0.51100000000E-03 0.  1.
         12    1    3    3    0    0 -0.46923150141E+01 -0.70986285370E+00  0.10193306526E+01  0.48539427728E+01  0.00000000000E+00 0. -1.
</event>
<event>
 7    1  0.1445801E-008  0.4614232E+02  0.7816164E-02  0.1320468E+00
        -11   -1    0    0    0    0  0.00000000000E+00  0.00000000000E+00  0.45593999997E+02  0.45594000000E+02  0.51100000000E-03 0.  1.
         11   -1    0    0    0    0 -0.00000000000E+00 -0.00000000000E+00 -0.45593999997E+02  0.45594000000E+02  0.51100000000E-03 0. -1.
    9900012    2    1    2    0    0  0.31642790476E+02  0.28000534275E+02  0.15614652916E+02  0.46142317693E+02  0.99999993785E+01 0.  0.
         12    1    1    2    0    0 -0.31642790476E+02 -0.28000534275E+02 -0.15614652916E+02  0.45045682307E+02  0.00000000000E+00 0. -1.
         11    1    3    3    0    0  0.11966384362E+02  0.15363330492E+02  0.39304240078E+01  0.19866416678E+02  0.51100000000E-03 0. -1.
        -11    1    3    3    0    0  0.10464466922E+02  0.65512806485E+01  0.46936152452E+01  0.13208117596E+02  0.51100000000E-03 0.  1.
         12    1    3    3    0    0  0.92119391932E+01  0.60859231345E+01  0.69906136634E+01  0.13067783419E+02  0.00000000000E+00 0. -1.
</event>
<event>
 7    1  0.1445801E-008  0.4614232E+02  0.7816164E-02  0.1320468E+00
        -11   -1    0    0    0    0  0.00000000000E+00  0.00000000000E+00  0.45593999997E+02  0.45594000000E+02  0.51100000000E-03 0.  1.
         11   -1    0    0    0    0 -0.00000000000E+00 -0.00000000000E+00 -0.45593999997E+02  0.45594000000E+02  0.51100000000E-03 0. -1.
    9900012    2    1    2    0    0 -0.15541326144E+02 -0.38610257147E-01  0.42279769362E+02  0.46142320891E+02  0.10000028545E+02 0.  0.
         12    1    1    2    0    0  0.15541326144E+02  0.38610257147E-01 -0.42279769362E+02  0.45045679109E+02  0.00000000000E+00 0. -1.
         11    1    3    3    0    0 -0.51941887153E+01 -0.17654890783E+01  0.15423091123E+02  0.16369736960E+02  0.51100000000E-03 0.  1.
        -11    1    3    3    0    0 -0.32838898963E+01  0.17234806127E+01  0.26544848213E+01  0.45607683784E+01  0.51100000000E-03 0. -1.
         12    1    3    3    0    0 -0.70632475320E+01  0.33982084716E-02  0.24202193417E+02  0.25211815553E+02  0.00000000000E+00 0. -1.
</event>
<event>
 7    1  0.1445801E-008  0.4614232E+02  0.7816164E-02  0.1320468E+00
        -11   -1    0    0    0    0  0.00000000000E+00  0.00000000000E+00  0.45593999997E+02  0.45594000000E+02  0.51100000000E-03 0. -1.
         11   -1    0    0    0    0 -0.00000000000E+00 -0.00000000000E+00 -0.45593999997E+02  0.45594000000E+02  0.51100000000E-03 0.  1.
    9900012    2    1    2    0    0 -0.29276298720E+00  0.42874581238E+02 -0.13812965121E+02  0.46142318387E+02  0.10000005710E+02 0.  0.
         12    1    1    2    0    0  0.29276298720E+00 -0.42874581238E+02  0.13812965121E+02  0.45045681613E+02  0.00000000000E+00 0. -1.
         11    1    3    3    0    0  0.22170651203E+01  0.30412669287E+01 -0.11052751141E+01  0.39225394348E+01  0.51100000000E-03 0. -1.
        -11    1    3    3    0    0 -0.29904957862E+01  0.20641684306E+02 -0.87510188169E+01  0.22618632289E+02  0.51100000000E-03 0.  1.
        -12    1    3    3    0    0  0.48066767877E+00  0.19191630004E+02 -0.39566711898E+01  0.19601146663E+02  0.00000000000E+00 0.  1.
</event>
<event>
 7    1  0.1445801E-008  0.4614232E+02  0.7816164E-02  0.1320468E+00
        -11   -1    0    0    0    0  0.00000000000E+00  0.00000000000E+00  0.45593999997E+02  0.45594000000E+02  0.51100000000E-03 0.  1.
         11   -1    0    0    0    0 -0.00000000000E+00 -0.00000000000E+00 -0.45593999997E+02  0.45594000000E+02  0.51100000000E-03 0. -1.
    9900012    2    1    2    0    0  0.44358844254E+02  0.50307576433E+01  0.60081497437E+01  0.46142318194E+02  0.10000003944E+02 0.  0.
         12    1    1    2    0    0 -0.44358844254E+02 -0.50307576433E+01 -0.60081497437E+01  0.45045681806E+02  0.00000000000E+00 0. -1.
         11    1    3    3    0    0  0.14418046875E+02  0.16681884700E+01  0.72054906703E+00  0.14532106512E+02  0.51100000000E-03 0.  1.
        -11    1    3    3    0    0  0.16668254596E+02  0.40228174078E+01  0.63359018857E+01  0.18279973308E+02  0.51100000000E-03 0. -1.
        -12    1    3    3    0    0  0.13272542784E+02 -0.66024823449E+00 -0.10483012090E+01  0.13330238374E+02  0.00000000000E+00 0.  1.
</event>
<event>
 7    1  0.1445801E-008  0.4614232E+02  0.7816164E-02  0.1320468E+00
        -11   -1    0    0    0    0  0.00000000000E+00  0.00000000000E+00  0.45593999997E+02  0.45594000000E+02  0.51100000000E-03 0.  1.
         11   -1    0    0    0    0 -0.00000000000E+00 -0.00000000000E+00 -0.45593999997E+02  0.45594000000E+02  0.51100000000E-03 0. -1.
    9900012    2    1    2    0    0  0.16635888304E+02  0.37319496658E+02  0.18963538469E+02  0.46142318723E+02  0.10000008768E+02 0.  0.
         12    1    1    2    0    0 -0.16635888304E+02 -0.37319496658E+02 -0.18963538469E+02  0.45045681277E+02  0.00000000000E+00 0. -1.
         11    1    3    3    0    0  0.22139008980E+01  0.74270047146E+00  0.10883144752E+00  0.23376923924E+01  0.51100000000E-03 0. -1.
        -11    1    3    3    0    0  0.88656510937E+01  0.25389543507E+02  0.11042465060E+02  0.29071716903E+02  0.51100000000E-03 0.  1.
         12    1    3    3    0    0  0.55563363127E+01  0.11187252679E+02  0.78122419616E+01  0.14732909428E+02  0.00000000000E+00 0. -1.
</event>
<event>
 7    1  0.1445801E-008  0.4614232E+02  0.7816164E-02  0.1320468E+00
        -11   -1    0    0    0    0  0.00000000000E+00  0.00000000000E+00  0.45593999997E+02  0.45594000000E+02  0.51100000000E-03 0.  1.
         11   -1    0    0    0    0 -0.00000000000E+00 -0.00000000000E+00 -0.45593999997E+02  0.45594000000E+02  0.51100000000E-03 0. -1.
    9900012    2    1    2    0    0 -0.75804390041E+01  0.44106337566E+02 -0.51265415315E+01  0.46142317665E+02  0.99999991220E+01 0.  0.
         12    1    1    2    0    0  0.75804390041E+01 -0.44106337566E+02  0.51265415315E+01  0.45045682335E+02  0.00000000000E+00 0. -1.
         11    1    3    3    0    0  0.18050540021E+01  0.15275339071E+02 -0.27557545464E+01  0.15626528312E+02  0.51100000000E-03 0. -1.
        -11    1    3    3    0    0 -0.69164066355E+01  0.23190638045E+02 -0.26980346212E+01  0.24349984902E+02  0.51100000000E-03 0.  1.
        -12    1    3    3    0    0 -0.24690863707E+01  0.56403604498E+01  0.32724763612E+00  0.61658044508E+01  0.00000000000E+00 0.  1.
</event>
<event>
 7    1  0.1445801E-008  0.4614232E+02  0.7816164E-02  0.1320468E+00
        -11   -1    0    0    0    0  0.00000000000E+00  0.00000000000E+00  0.45593999997E+02  0.45594000000E+02  0.51100000000E-03 0.  1.
         11   -1    0    0    0    0 -0.00000000000E+00 -0.00000000000E+00 -0.45593999997E+02  0.45594000000E+02  0.51100000000E-03 0. -1.
    9900012    2    1    2    0    0  0.28932149059E+00  0.46639270256E+01  0.44802652032E+02  0.46142317062E+02  0.99999936286E+01 0.  0.
         12    1    1    2    0    0 -0.28932149059E+00 -0.46639270256E+01 -0.44802652032E+02  0.45045682938E+02  0.00000000000E+00 0. -1.
         11    1    3    3    0    0 -0.33832977139E+01  0.89922904929E+00  0.14292179360E+02  0.14714676600E+02  0.51100000000E-03 0. -1.
        -11    1    3    3    0    0  0.27964703754E+01  0.78350548725E+00  0.24402676929E+02  0.24574880854E+02  0.51100000000E-03 0.  1.
        -12    1    3    3    0    0  0.87614882901E+00  0.29811924890E+01  0.61077957426E+01  0.68527596092E+01  0.00000000000E+00 0.  1.
</event>
<event>
 7    1  0.1445801E-008  0.4614232E+02  0.7816164E-02  0.1320468E+00
        -11   -1    0    0    0    0  0.00000000000E+00  0.00000000000E+00  0.45593999997E+02  0.45594000000E+02  0.51100000000E-03 0.  1.
         11   -1    0    0    0    0 -0.00000000000E+00 -0.00000000000E+00 -0.45593999997E+02  0.45594000000E+02  0.51100000000E-03 0. -1.
    9900012    2    1    2    0    0 -0.10664774420E+02  0.15384741541E+02  0.40971768182E+02  0.46142317925E+02  0.10000001491E+02 0.  0.
         12    1    1    2    0    0  0.10664774420E+02 -0.15384741541E+02 -0.40971768182E+02  0.45045682075E+02  0.00000000000E+00 0. -1.
         11    1    3    3    0    0 -0.86115158099E+01  0.13903862809E+02  0.34505765338E+02  0.38185382640E+02  0.51100000000E-03 0.  1.
        -11    1    3    3    0    0 -0.22854825353E+01  0.33953963553E+00  0.63840674980E+01  0.67893324903E+01  0.51100000000E-03 0. -1.
        -12    1    3    3    0    0  0.23222392480E+00  0.11413390961E+01  0.81935345251E-01  0.11676027939E+01  0.00000000000E+00 0.  1.
</event>
<event>
 7    1  0.1445801E-008  0.4614232E+02  0.7816164E-02  0.1320468E+00
        -11   -1    0    0    0    0  0.00000000000E+00  0.00000000000E+00  0.45593999997E+02  0.45594000000E+02  0.51100000000E-03 0. -1.
         11   -1    0    0    0    0 -0.00000000000E+00 -0.00000000000E+00 -0.45593999997E+02  0.45594000000E+02  0.51100000000E-03 0.  1.
    9900012    2    1    2    0    0 -0.34216230096E+02  0.10703125345E+02 -0.27272809378E+02  0.46142318459E+02  0.10000006361E+02 0.  0.
         12    1    1    2    0    0  0.34216230096E+02 -0.10703125345E+02  0.27272809378E+02  0.45045681541E+02  0.00000000000E+00 0. -1.
         11    1    3    3    0    0 -0.69033127153E+01  0.32490088808E+01 -0.93679881461E+01  0.12081845361E+02  0.51100000000E-03 0. -1.
        -11    1    3    3    0    0 -0.24045443135E+02  0.75652587185E+01 -0.17667684717E+02  0.30782520341E+02  0.51100000000E-03 0.  1.
         12    1    3    3    0    0 -0.32674742460E+01 -0.11114225457E+00 -0.23713651520E+00  0.32779527568E+01  0.00000000000E+00 0. -1.
</event>
<event>
 7    1  0.1445801E-008  0.4614232E+02  0.7816164E-02  0.1320468E+00
        -11   -1    0    0    0    0  0.00000000000E+00  0.00000000000E+00  0.45593999997E+02  0.45594000000E+02  0.51100000000E-03 0.  1.
         11   -1    0    0    0    0 -0.00000000000E+00 -0.00000000000E+00 -0.45593999997E+02  0.45594000000E+02  0.51100000000E-03 0. -1.
    9900012    2    1    2    0    0  0.10610856459E+02 -0.41371975932E+02 -0.14313729042E+02  0.46142317561E+02  0.99999981741E+01 0.  0.
         12    1    1    2    0    0 -0.10610856459E+02  0.41371975932E+02  0.14313729042E+02  0.45045682439E+02  0.00000000000E+00 0. -1.
         11    1    3    3    0    0  0.24536204612E+01 -0.41579893976E+01 -0.49205681544E+01  0.68935564422E+01  0.51100000000E-03 0. -1.
        -11    1    3    3    0    0  0.52754639260E+01 -0.22004585085E+02 -0.56092228141E+01  0.23312993485E+02  0.51100000000E-03 0.  1.
         12    1    3    3    0    0  0.28817720714E+01 -0.15209401450E+02 -0.37839380733E+01  0.15935767634E+02  0.00000000000E+00 0. -1.
</event>
<event>
 7    1  0.1445801E-008  0.4614232E+02  0.7816164E-02  0.1320468E+00
        -11   -1    0    0    0    0  0.00000000000E+00  0.00000000000E+00  0.45593999997E+02  0.45594000000E+02  0.51100000000E-03 0. -1.
         11   -1    0    0    0    0 -0.00000000000E+00 -0.00000000000E+00 -0.45593999997E+02  0.45594000000E+02  0.51100000000E-03 0.  1.
    9900012    2    1    2    0    0 -0.40320671358E+02  0.17645814767E+02 -0.95907320386E+01  0.46142318092E+02  0.10000003019E+02 0.  0.
         12    1    1    2    0    0  0.40320671358E+02 -0.17645814767E+02  0.95907320386E+01  0.45045681908E+02  0.00000000000E+00 0. -1.
         11    1    3    3    0    0 -0.11355949706E+02  0.22130483233E+01 -0.57372049187E+01  0.12913972942E+02  0.51100000000E-03 0. -1.
        -11    1    3    3    0    0 -0.17102735782E+02  0.72791398596E+01 -0.15595527579E+01  0.18652658078E+02  0.51100000000E-03 0.  1.
        -12    1    3    3    0    0 -0.11861985869E+02  0.81536265839E+01 -0.22939743621E+01  0.14575687072E+02  0.00000000000E+00 0.  1.
</event>
<event>
 7    1  0.1445801E-008  0.4614232E+02  0.7816164E-02  0.1320468E+00
        -11   -1    0    0    0    0  0.00000000000E+00  0.00000000000E+00  0.45593999997E+02  0.45594000000E+02  0.51100000000E-03 0.  1.
         11   -1    0    0    0    0 -0.00000000000E+00 -0.00000000000E+00 -0.45593999997E+02  0.45594000000E+02  0.51100000000E-03 0. -1.
    9900012    2    1    2    0    0 -0.35742428465E+02  0.48323117865E+01 -0.26985943109E+02  0.46142317019E+02  0.99999932285E+01 0.  0.
         12    1    1    2    0    0  0.35742428465E+02 -0.48323117865E+01  0.26985943109E+02  0.45045682981E+02  0.00000000000E+00 0. -1.
         11    1    3    3    0    0 -0.20170872621E+01 -0.17272832027E+01 -0.13853147704E+01  0.29952037593E+01  0.51100000000E-03 0. -1.
        -11    1    3    3    0    0 -0.21942859214E+02  0.44303984845E+01 -0.13590048493E+02  0.26187915525E+02  0.51100000000E-03 0.  1.
        -12    1    3    3    0    0 -0.11782481988E+02  0.21291965046E+01 -0.12010579846E+02  0.16959197734E+02  0.00000000000E+00 0.  1.
</event>
<event>
 7    1  0.1445801E-008  0.4614232E+02  0.7816164E-02  0.1320468E+00
        -11   -1    0    0    0    0  0.00000000000E+00  0.00000000000E+00  0.45593999997E+02  0.45594000000E+02  0.51100000000E-03 0.  1.
         11   -1    0    0    0    0 -0.00000000000E+00 -0.00000000000E+00 -0.45593999997E+02  0.45594000000E+02  0.51100000000E-03 0. -1.
    9900012    2    1    2    0    0 -0.37308137799E+01  0.22869895630E+02  0.38628518232E+02  0.46142317428E+02  0.99999969645E+01 0.  0.
         12    1    1    2    0    0  0.37308137799E+01 -0.22869895630E+02 -0.38628518232E+02  0.45045682572E+02  0.00000000000E+00 0. -1.
         11    1    3    3    0    0 -0.32506231554E+01  0.27295937859E+01  0.56995202004E+01  0.71064593090E+01  0.51100000000E-03 0. -1.
        -11    1    3    3    0    0  0.20477492616E+01  0.15618240881E+02  0.23835901452E+02  0.28570490433E+02  0.51100000000E-03 0.  1.
        -12    1    3    3    0    0 -0.25279398861E+01  0.45220609626E+01  0.90930965788E+01  0.10465367686E+02  0.00000000000E+00 0.  1.
</event>
<event>
 7    1  0.1445801E-008  0.4614232E+02  0.7816164E-02  0.1320468E+00
        -11   -1    0    0    0    0  0.00000000000E+00  0.00000000000E+00  0.45593999997E+02  0.45594000000E+02  0.51100000000E-03 0. -1.
         11   -1    0    0    0    0 -0.00000000000E+00 -0.00000000000E+00 -0.45593999997E+02  0.45594000000E+02  0.51100000000E-03 0.  1.
    9900012    2    1    2    0    0  0.22891160963E+02  0.18242413170E+02 -0.34239196031E+02  0.46142318372E+02  0.10000005570E+02 0.  0.
         12    1    1    2    0    0 -0.22891160963E+02 -0.18242413170E+02  0.34239196031E+02  0.45045681628E+02  0.00000000000E+00 0. -1.
         11    1    3    3    0    0  0.80611030097E+01  0.11722119910E+02 -0.12778059770E+02  0.19122455090E+02  0.51100000000E-03 0. -1.
        -11    1    3    3    0    0  0.69157353947E+01  0.16438407373E+01 -0.87945683931E+01  0.11308140515E+02  0.51100000000E-03 0.  1.
         12    1    3    3    0    0  0.79143225583E+01  0.48764525229E+01 -0.12666567868E+02  0.15711722767E+02  0.00000000000E+00 0. -1.
</event>
<event>
 7    1  0.1445801E-008  0.4614232E+02  0.7816164E-02  0.1320468E+00
        -11   -1    0    0    0    0  0.00000000000E+00  0.00000000000E+00  0.45593999997E+02  0.45594000000E+02  0.51100000000E-03 0.  1.
         11   -1    0    0    0    0 -0.00000000000E+00 -0.00000000000E+00 -0.45593999997E+02  0.45594000000E+02  0.51100000000E-03 0. -1.
    9900012    2    1    2    0    0  0.16901749930E+01 -0.14724221617E+02  0.42537678393E+02  0.46142317889E+02  0.10000001170E+02 0.  0.
         12    1    1    2    0    0 -0.16901749930E+01  0.14724221617E+02 -0.42537678393E+02  0.45045682111E+02  0.00000000000E+00 0. -1.
         11    1    3    3    0    0  0.10800515020E+01 -0.33781713092E+00  0.97422669205E+00  0.14932345996E+01  0.51100000000E-03 0. -1.
        -11    1    3    3    0    0  0.26736618463E+01 -0.10545827500E+02  0.35835838148E+02  0.37450904413E+02  0.51100000000E-03 0.  1.
        -12    1    3    3    0    0 -0.20635383553E+01 -0.38405769859E+01  0.57276135536E+01  0.71981788772E+01  0.00000000000E+00 0.  1.
</event>
<event>
 7    1  0.1445801E-008  0.4614232E+02  0.7816164E-02  0.1320468E+00
        -11   -1    0    0    0    0  0.00000000000E+00  0.00000000000E+00  0.45593999997E+02  0.45594000000E+02  0.51100000000E-03 0. -1.
         11   -1    0    0    0    0 -0.00000000000E+00 -0.00000000000E+00 -0.45593999997E+02  0.45594000000E+02  0.51100000000E-03 0.  1.
    9900012    2    1    2    0    0  0.14459577297E+02  0.38577730806E+02 -0.18215178212E+02  0.46142318664E+02  0.10000008233E+02 0.  0.
         12    1    1    2    0    0 -0.14459577297E+02 -0.38577730806E+02  0.18215178212E+02  0.45045681336E+02  0.00000000000E+00 0. -1.
         11    1    3    3    0    0  0.26607508256E+00  0.67633445047E+01 -0.33436866457E+01  0.75494281561E+01  0.51100000000E-03 0. -1.
        -11    1    3    3    0    0 -0.16959457620E+00 -0.24094305783E+00 -0.61875845395E+00  0.68533069598E+00  0.51100000000E-03 0.  1.
        -12    1    3    3    0    0  0.14363096790E+02  0.32055329359E+02 -0.14252733112E+02  0.37907559812E+02  0.00000000000E+00 0.  1.
</event>
<event>
 7    1  0.1445801E-008  0.4614232E+02  0.7816164E-02  0.1320468E+00
        -11   -1    0    0    0    0  0.00000000000E+00  0.00000000000E+00  0.45593999997E+02  0.45594000000E+02  0.51100000000E-03 0.  1.
         11   -1    0    0    0    0 -0.00000000000E+00 -0.00000000000E+00 -0.45593999997E+02  0.45594000000E+02  0.51100000000E-03 0. -1.
    9900012    2    1    2    0    0 -0.10646400166E+02  0.28749189488E+02  0.33003814426E+02  0.46142317639E+02  0.99999988839E+01 0.  0.
         12    1    1    2    0    0  0.10646400166E+02 -0.28749189488E+02 -0.33003814426E+02  0.45045682361E+02  0.00000000000E+00 0. -1.
         11    1    3    3    0    0 -0.81094166645E+01  0.27829159376E+02  0.28122629053E+02  0.40386965909E+02  0.51100000000E-03 0. -1.
        -11    1    3    3    0    0 -0.94458454102E+00  0.33212410273E+00  0.32516578494E+01  0.34023264695E+01  0.51100000000E-03 0.  1.
         12    1    3    3    0    0 -0.15923989602E+01  0.58790600939E+00  0.16295275235E+01  0.23530252600E+01  0.00000000000E+00 0. -1.
</event>
<event>
 7    1  0.1445801E-008  0.4614232E+02  0.7816164E-02  0.1320468E+00
        -11   -1    0    0    0    0  0.00000000000E+00  0.00000000000E+00  0.45593999997E+02  0.45594000000E+02  0.51100000000E-03 0.  1.
         11   -1    0    0    0    0 -0.00000000000E+00 -0.00000000000E+00 -0.45593999997E+02  0.45594000000E+02  0.51100000000E-03 0. -1.
    9900012    2    1    2    0    0 -0.36948904026E+02  0.23327803172E+02 -0.10941001706E+02  0.46142318432E+02  0.10000006121E+02 0.  0.
         12    1    1    2    0    0  0.36948904026E+02 -0.23327803172E+02  0.10941001706E+02  0.45045681568E+02  0.00000000000E+00 0. -1.
         11    1    3    3    0    0 -0.12576831074E+02  0.10055209462E+02 -0.86466068081E+01  0.18276972581E+02  0.51100000000E-03 0. -1.
        -11    1    3    3    0    0 -0.20759162605E+02  0.11040224498E+02 -0.22308595672E+01  0.23617919547E+02  0.51100000000E-03 0.  1.
         12    1    3    3    0    0 -0.36129103473E+01  0.22323692121E+01 -0.63535330836E-01  0.42474263048E+01  0.00000000000E+00 0. -1.
</event>
<event>
 7    1  0.1445801E-008  0.4614232E+02  0.7816164E-02  0.1320468E+00
        -11   -1    0    0    0    0  0.00000000000E+00  0.00000000000E+00  0.45593999997E+02  0.45594000000E+02  0.51100000000E-03 0.  1.
         11   -1    0    0    0    0 -0.00000000000E+00 -0.00000000000E+00 -0.45593999997E+02  0.45594000000E+02  0.51100000000E-03 0. -1.
    9900012    2    1    2    0    0 -0.14923952570E+02  0.29087440696E+02  0.30988868172E+02  0.46142317442E+02  0.99999970884E+01 0.  0.
         12    1    1    2    0    0  0.14923952570E+02 -0.29087440696E+02 -0.30988868172E+02  0.45045682558E+02  0.00000000000E+00 0. -1.
         11    1    3    3    0    0 -0.46379137276E+01  0.33699773269E+01  0.64359609626E+01  0.86190825905E+01  0.51100000000E-03 0. -1.
        -11    1    3    3    0    0 -0.53132288169E+01  0.17985402983E+02  0.19407661717E+02  0.26988191020E+02  0.51100000000E-03 0.  1.
         12    1    3    3    0    0 -0.49728100257E+01  0.77320603855E+01  0.51452454926E+01  0.10535043832E+02  0.00000000000E+00 0. -1.
</event>
<event>
 7    1  0.1445801E-008  0.4614232E+02  0.7816164E-02  0.1320468E+00
        -11   -1    0    0    0    0  0.00000000000E+00  0.00000000000E+00  0.45593999997E+02  0.45594000000E+02  0.51100000000E-03 0.  1.
         11   -1    0    0    0    0 -0.00000000000E+00 -0.00000000000E+00 -0.45593999997E+02  0.45594000000E+02  0.51100000000E-03 0. -1.
    9900012    2    1    2    0    0 -0.44824070114E+02  0.38726572815E+01  0.22178275411E+01  0.46142317687E+02  0.99999993248E+01 0.  0.
         12    1    1    2    0    0  0.44824070114E+02 -0.38726572815E+01 -0.22178275411E+01  0.45045682313E+02  0.00000000000E+00 0. -1.
         11    1    3    3    0    0 -0.27156905138E+02 -0.12893846013E+01 -0.17766573198E+01  0.27245486247E+02  0.51100000000E-03 0. -1.
        -11    1    3    3    0    0 -0.53335644909E+01  0.92892361078E+00  0.81358802574E+00  0.54746447364E+01  0.51100000000E-03 0.  1.
         12    1    3    3    0    0 -0.12333600485E+02  0.42331182720E+01  0.31808968352E+01  0.13422186704E+02  0.00000000000E+00 0. -1.
</event>
<event>
 7    1  0.1445801E-008  0.4614232E+02  0.7816164E-02  0.1320468E+00
        -11   -1    0    0    0    0  0.00000000000E+00  0.00000000000E+00  0.45593999997E+02  0.45594000000E+02  0.51100000000E-03 0.  1.
         11   -1    0    0    0    0 -0.00000000000E+00 -0.00000000000E+00 -0.45593999997E+02  0.45594000000E+02  0.51100000000E-03 0. -1.
    9900012    2    1    2    0    0  0.10604938164E+01 -0.39728112812E+02  0.21205327623E+02  0.46142317473E+02  0.99999973692E+01 0.  0.
         12    1    1    2    0    0 -0.10604938164E+01  0.39728112812E+02 -0.21205327623E+02  0.45045682527E+02  0.00000000000E+00 0. -1.
         11    1    3    3    0    0 -0.14705979811E+01 -0.20176349747E+01 -0.46813793249E+00  0.25402091839E+01  0.51100000000E-03 0. -1.
        -11    1    3    3    0    0  0.25790819128E+01 -0.37304391125E+02  0.21233757204E+02  0.43001647712E+02  0.51100000000E-03 0.  1.
        -12    1    3    3    0    0 -0.47990115333E-01 -0.40608671270E+00  0.43970835158E+00  0.60046057643E+00  0.00000000000E+00 0.  1.
</event>
<event>
 7    1  0.1445801E-008  0.4614232E+02  0.7816164E-02  0.1320468E+00
        -11   -1    0    0    0    0  0.00000000000E+00  0.00000000000E+00  0.45593999997E+02  0.45594000000E+02  0.51100000000E-03 0. -1.
         11   -1    0    0    0    0 -0.00000000000E+00 -0.00000000000E+00 -0.45593999997E+02  0.45594000000E+02  0.51100000000E-03 0.  1.
    9900012    2    1    2    0    0 -0.33799475612E+02 -0.99391590028E+01 -0.28069948656E+02  0.46142318177E+02  0.10000003792E+02 0.  0.
         12    1    1    2    0    0  0.33799475612E+02  0.99391590028E+01  0.28069948656E+02  0.45045681823E+02  0.00000000000E+00 0. -1.
         11    1    3    3    0    0 -0.22590209105E+02 -0.33900909505E+01 -0.21757542404E+02  0.31546805160E+02  0.51100000000E-03 0.  1.
        -11    1    3    3    0    0 -0.18841978221E+01 -0.15846998659E+01 -0.20504026045E+01  0.32040015917E+01  0.51100000000E-03 0. -1.
         12    1    3    3    0    0 -0.93250686847E+01 -0.49643681863E+01 -0.42620036481E+01  0.11391511426E+02  0.00000000000E+00 0. -1.
</event>
<event>
 7    1  0.1445801E-008  0.4614232E+02  0.7816164E-02  0.1320468E+00
        -11   -1    0    0    0    0  0.00000000000E+00  0.00000000000E+00  0.45593999997E+02  0.45594000000E+02  0.51100000000E-03 0. -1.
         11   -1    0    0    0    0 -0.00000000000E+00 -0.00000000000E+00 -0.45593999997E+02  0.45594000000E+02  0.51100000000E-03 0.  1.
    9900012    2    1    2    0    0 -0.27032015018E+02  0.35404496389E+02  0.67011381797E+01  0.46142318149E+02  0.10000003540E+02 0.  0.
         12    1    1    2    0    0  0.27032015018E+02 -0.35404496389E+02 -0.67011381797E+01  0.45045681851E+02  0.00000000000E+00 0. -1.
         11    1    3    3    0    0 -0.25829367130E+01  0.35499808092E+01 -0.79908753464E+00  0.44623387319E+01  0.51100000000E-03 0. -1.
        -11    1    3    3    0    0 -0.72744169419E+01  0.15099355275E+02  0.85116674800E+00  0.16781899674E+02  0.51100000000E-03 0.  1.
        -12    1    3    3    0    0 -0.17174661363E+02  0.16755160304E+02  0.66490589663E+01  0.24898079743E+02  0.00000000000E+00 0.  1.
</event>
<event>
 7    1  0.1445801E-008  0.4614232E+02  0.7816164E-02  0.1320468E+00
        -11   -1    0    0    0    0  0.00000000000E+00  0.00000000000E+00  0.45593999997E+02  0.45594000000E+02  0.51100000000E-03 0.  1.
         11   -1    0    0    0    0 -0.00000000000E+00 -0.00000000000E+00 -0.45593999997E+02  0.45594000000E+02  0.51100000000E-03 0. -1.
    9900012    2    1    2    0    0  0.34399747251E+02  0.19210358157E+02  0.21834215916E+02  0.46142318119E+02  0.10000003260E+02 0.  0.
         12    1    1    2    0    0 -0.34399747251E+02 -0.19210358157E+02 -0.21834215916E+02  0.45045681881E+02  0.00000000000E+00 0. -1.
         11    1    3    3    0    0 -0.21255821951E+00 -0.47005335974E+00  0.24566785538E+00  0.57138788400E+00  0.51100000000E-03 0. -1.
        -11    1    3    3    0    0  0.60928535412E+01  0.28119817959E+01  0.57881054458E+01  0.88618435332E+01  0.51100000000E-03 0.  1.
        -12    1    3    3    0    0  0.28519451930E+02  0.16868429721E+02  0.15800442615E+02  0.36709086701E+02  0.00000000000E+00 0.  1.
</event>
<event>
 7    1  0.1445801E-008  0.4614232E+02  0.7816164E-02  0.1320468E+00
        -11   -1    0    0    0    0  0.00000000000E+00  0.00000000000E+00  0.45593999997E+02  0.45594000000E+02  0.51100000000E-03 0.  1.
         11   -1    0    0    0    0 -0.00000000000E+00 -0.00000000000E+00 -0.45593999997E+02  0.45594000000E+02  0.51100000000E-03 0. -1.
    9900012    2    1    2    0    0  0.82666497085E+01  0.25868057404E+02  0.35939109353E+02  0.46142317939E+02  0.10000001624E+02 0.  0.
         12    1    1    2    0    0 -0.82666497085E+01 -0.25868057404E+02 -0.35939109353E+02  0.45045682061E+02  0.00000000000E+00 0. -1.
         11    1    3    3    0    0  0.51573148754E+01  0.12294274580E+02  0.10032403278E+02  0.16685209018E+02  0.51100000000E-03 0. -1.
        -11    1    3    3    0    0  0.17716344000E+01  0.93600335622E+01  0.16248441623E+02  0.18835094164E+02  0.51100000000E-03 0.  1.
         12    1    3    3    0    0  0.13377004330E+01  0.42137492615E+01  0.96582644511E+01  0.10622014757E+02  0.00000000000E+00 0. -1.
</event>
<event>
 7    1  0.1445801E-008  0.4614232E+02  0.7816164E-02  0.1320468E+00
        -11   -1    0    0    0    0  0.00000000000E+00  0.00000000000E+00  0.45593999997E+02  0.45594000000E+02  0.51100000000E-03 0.  1.
         11   -1    0    0    0    0 -0.00000000000E+00 -0.00000000000E+00 -0.45593999997E+02  0.45594000000E+02  0.51100000000E-03 0. -1.
    9900012    2    1    2    0    0 -0.12680698079E+02 -0.30395289181E+02  0.30731741252E+02  0.46142316205E+02  0.99999858134E+01 0.  0.
         12    1    1    2    0    0  0.12680698079E+02  0.30395289181E+02 -0.30731741252E+02  0.45045683795E+02  0.00000000000E+00 0. -1.
         11    1    3    3    0    0 -0.39895875170E+01 -0.89138615266E+01  0.13495927384E+02  0.16658745213E+02  0.51100000000E-03 0.  1.
        -11    1    3    3    0    0 -0.14867260803E+01 -0.38262988686E+01  0.62480500264E+01  0.74758977296E+01  0.51100000000E-03 0. -1.
        -12    1    3    3    0    0 -0.72043844812E+01 -0.17655128785E+02  0.10987763842E+02  0.22007673263E+02  0.00000000000E+00 0.  1.
</event>
<event>
 7    1  0.1445801E-008  0.4614232E+02  0.7816164E-02  0.1320468E+00
        -11   -1    0    0    0    0  0.00000000000E+00  0.00000000000E+00  0.45593999997E+02  0.45594000000E+02  0.51100000000E-03 0.  1.
         11   -1    0    0    0    0 -0.00000000000E+00 -0.00000000000E+00 -0.45593999997E+02  0.45594000000E+02  0.51100000000E-03 0. -1.
    9900012    2    1    2    0    0 -0.18401907143E+02 -0.40049184296E+02  0.93030206164E+01  0.46142317167E+02  0.99999945847E+01 0.  0.
         12    1    1    2    0    0  0.18401907143E+02  0.40049184296E+02 -0.93030206164E+01  0.45045682833E+02  0.00000000000E+00 0. -1.
         11    1    3    3    0    0 -0.99980507530E+01 -0.14470652294E+02  0.26702643471E+01  0.17790196981E+02  0.51100000000E-03 0. -1.
        -11    1    3    3    0    0 -0.89054210327E+01 -0.20286921789E+02  0.62642064403E+01  0.23024030968E+02  0.51100000000E-03 0.  1.
        -12    1    3    3    0    0  0.50156464277E+00 -0.52916102137E+01  0.36854982903E+00  0.53280892186E+01  0.00000000000E+00 0.  1.
</event>
<event>
 7    1  0.1445801E-008  0.4614232E+02  0.7816164E-02  0.1320468E+00
        -11   -1    0    0    0    0  0.00000000000E+00  0.00000000000E+00  0.45593999997E+02  0.45594000000E+02  0.51100000000E-03 0.  1.
         11   -1    0    0    0    0 -0.00000000000E+00 -0.00000000000E+00 -0.45593999997E+02  0.45594000000E+02  0.51100000000E-03 0. -1.
    9900012    2    1    2    0    0 -0.61816543075E+01  0.27366407441E+02  0.35241742162E+02  0.46142317668E+02  0.99999991464E+01 0.  0.
         12    1    1    2    0    0  0.61816543075E+01 -0.27366407441E+02 -0.35241742162E+02  0.45045682332E+02  0.00000000000E+00 0. -1.
         11    1    3    3    0    0 -0.38717839936E+00  0.54933539644E+01  0.19474331531E+01  0.58411763403E+01  0.51100000000E-03 0. -1.
        -11    1    3    3    0    0 -0.14020805009E+01  0.28139517805E+01  0.43024222315E+01  0.53286951192E+01  0.51100000000E-03 0.  1.
         12    1    3    3    0    0 -0.43923954072E+01  0.19059101696E+02  0.28991886777E+02  0.34972446208E+02  0.00000000000E+00 0. -1.
</event>
<event>
 7    1  0.1445801E-008  0.4614232E+02  0.7816164E-02  0.1320468E+00
        -11   -1    0    0    0    0  0.00000000000E+00  0.00000000000E+00  0.45593999997E+02  0.45594000000E+02  0.51100000000E-03 0. -1.
         11   -1    0    0    0    0 -0.00000000000E+00 -0.00000000000E+00 -0.45593999997E+02  0.45594000000E+02  0.51100000000E-03 0.  1.
    9900012    2    1    2    0    0  0.29941497506E+02  0.33584091590E+02 -0.21746109936E+01  0.46142318588E+02  0.10000007544E+02 0.  0.
         12    1    1    2    0    0 -0.29941497506E+02 -0.33584091590E+02  0.21746109936E+01  0.45045681412E+02  0.00000000000E+00 0. -1.
         11    1    3    3    0    0  0.55189511145E+01  0.33477566444E+01  0.52804636339E+00  0.64765059389E+01  0.51100000000E-03 0. -1.
        -11    1    3    3    0    0  0.88465914947E+01  0.16707534721E+02 -0.43021802843E+00  0.18910023409E+02  0.51100000000E-03 0.  1.
        -12    1    3    3    0    0  0.15575954897E+02  0.13528800225E+02 -0.22724393285E+01  0.20755789240E+02  0.00000000000E+00 0.  1.
</event>
<event>
 7    1  0.1445801E-008  0.4614232E+02  0.7816164E-02  0.1320468E+00
        -11   -1    0    0    0    0  0.00000000000E+00  0.00000000000E+00  0.45593999997E+02  0.45594000000E+02  0.51100000000E-03 0.  1.
         11   -1    0    0    0    0 -0.00000000000E+00 -0.00000000000E+00 -0.45593999997E+02  0.45594000000E+02  0.51100000000E-03 0. -1.
    9900012    2    1    2    0    0  0.38217794717E+02  0.19942117615E+02  0.13070019018E+02  0.46142320017E+02  0.10000020575E+02 0.  0.
         12    1    1    2    0    0 -0.38217794717E+02 -0.19942117615E+02 -0.13070019018E+02  0.45045679983E+02  0.00000000000E+00 0. -1.
         11    1    3    3    0    0  0.24015627681E+01  0.20670691930E+01 -0.77211637308E+00  0.32613559653E+01  0.51100000000E-03 0. -1.
        -11    1    3    3    0    0  0.22517013067E+02  0.12706498158E+02  0.57817831785E+01  0.26493395213E+02  0.51100000000E-03 0.  1.
        -12    1    3    3    0    0  0.13299218881E+02  0.51685502637E+01  0.80603522123E+01  0.16387568839E+02  0.00000000000E+00 0.  1.
</event>
<event>
 7    1  0.1445801E-008  0.4614232E+02  0.7816164E-02  0.1320468E+00
        -11   -1    0    0    0    0  0.00000000000E+00  0.00000000000E+00  0.45593999997E+02  0.45594000000E+02  0.51100000000E-03 0.  1.
         11   -1    0    0    0    0 -0.00000000000E+00 -0.00000000000E+00 -0.45593999997E+02  0.45594000000E+02  0.51100000000E-03 0. -1.
    9900012    2    1    2    0    0  0.71225637167E+00 -0.16646496874E+02  0.41850930976E+02  0.46142316623E+02  0.99999896262E+01 0.  0.
         12    1    1    2    0    0 -0.71225637167E+00  0.16646496874E+02 -0.41850930976E+02  0.45045683377E+02  0.00000000000E+00 0. -1.
         11    1    3    3    0    0 -0.17214685559E+01 -0.16415109316E+01  0.16608337481E+01  0.29010999858E+01  0.51100000000E-03 0. -1.
        -11    1    3    3    0    0  0.78927202349E+00 -0.13929514189E+02  0.36142381479E+02  0.38741786938E+02  0.51100000000E-03 0.  1.
        -12    1    3    3    0    0  0.16444529040E+01 -0.10754717535E+01  0.40477157484E+01  0.44994297001E+01  0.00000000000E+00 0.  1.
</event>
<event>
 7    1  0.1445801E-008  0.4614232E+02  0.7816164E-02  0.1320468E+00
        -11   -1    0    0    0    0  0.00000000000E+00  0.00000000000E+00  0.45593999997E+02  0.45594000000E+02  0.51100000000E-03 0. -1.
         11   -1    0    0    0    0 -0.00000000000E+00 -0.00000000000E+00 -0.45593999997E+02  0.45594000000E+02  0.51100000000E-03 0.  1.
    9900012    2    1    2    0    0  0.22953059917E+01 -0.36928706162E+02  0.25692719282E+02  0.46142316605E+02  0.99999894581E+01 0.  0.
         12    1    1    2    0    0 -0.22953059917E+01  0.36928706162E+02 -0.25692719282E+02  0.45045683395E+02  0.00000000000E+00 0. -1.
         11    1    3    3    0    0 -0.35695169937E+01 -0.10123318746E+02  0.61620161165E+01  0.12377135245E+02  0.51100000000E-03 0. -1.
        -11    1    3    3    0    0  0.57825151730E+01 -0.26194426865E+02  0.19469147490E+02  0.33145635984E+02  0.51100000000E-03 0.  1.
        -12    1    3    3    0    0  0.82307812509E-01 -0.61096055204E+00  0.61555674876E-01  0.61954537627E+00  0.00000000000E+00 0.  1.
</event>
<event>
 7    1  0.1445801E-008  0.4614232E+02  0.7816164E-02  0.1320468E+00
        -11   -1    0    0    0    0  0.00000000000E+00  0.00000000000E+00  0.45593999997E+02  0.45594000000E+02  0.51100000000E-03 0.  1.
         11   -1    0    0    0    0 -0.00000000000E+00 -0.00000000000E+00 -0.45593999997E+02  0.45594000000E+02  0.51100000000E-03 0. -1.
    9900012    2    1    2    0    0 -0.38445515230E+02  0.18751299418E+02 -0.14122485490E+02  0.46142317992E+02  0.10000002106E+02 0.  0.
         12    1    1    2    0    0  0.38445515230E+02 -0.18751299418E+02  0.14122485490E+02  0.45045682008E+02  0.00000000000E+00 0. -1.
         11    1    3    3    0    0 -0.13140605933E+02  0.92310981383E+01 -0.42441412063E+01  0.16610280912E+02  0.51100000000E-03 0. -1.
        -11    1    3    3    0    0 -0.21192139711E+02  0.53895331378E+01 -0.89595335174E+01  0.23631062060E+02  0.51100000000E-03 0.  1.
        -12    1    3    3    0    0 -0.41127695860E+01  0.41306681423E+01 -0.91881076599E+00  0.59009750205E+01  0.00000000000E+00 0.  1.
</event>
<event>
 7    1  0.1445801E-008  0.4614232E+02  0.7816164E-02  0.1320468E+00
        -11   -1    0    0    0    0  0.00000000000E+00  0.00000000000E+00  0.45593999997E+02  0.45594000000E+02  0.51100000000E-03 0.  1.
         11   -1    0    0    0    0 -0.00000000000E+00 -0.00000000000E+00 -0.45593999997E+02  0.45594000000E+02  0.51100000000E-03 0. -1.
    9900012    2    1    2    0    0  0.17592795055E+02  0.29562860610E+02  0.29079962539E+02  0.46142318891E+02  0.10000010305E+02 0.  0.
         12    1    1    2    0    0 -0.17592795055E+02 -0.29562860610E+02 -0.29079962539E+02  0.45045681109E+02  0.00000000000E+00 0. -1.
         11    1    3    3    0    0  0.75336090319E+01  0.18091738941E+02  0.12180003976E+02  0.23074201613E+02  0.51100000000E-03 0.  1.
        -11    1    3    3    0    0  0.86992278532E+01  0.90814485868E+01  0.15568414875E+02  0.20013116091E+02  0.51100000000E-03 0. -1.
         12    1    3    3    0    0  0.13599581695E+01  0.23896730821E+01  0.13315436881E+01  0.30550011874E+01  0.00000000000E+00 0. -1.
</event>
<event>
 7    1  0.1445801E-008  0.4614232E+02  0.7816164E-02  0.1320468E+00
        -11   -1    0    0    0    0  0.00000000000E+00  0.00000000000E+00  0.45593999997E+02  0.45594000000E+02  0.51100000000E-03 0. -1.
         11   -1    0    0    0    0 -0.00000000000E+00 -0.00000000000E+00 -0.45593999997E+02  0.45594000000E+02  0.51100000000E-03 0.  1.
    9900012    2    1    2    0    0 -0.12505851494E+02 -0.24926015188E+02 -0.35375287448E+02  0.46142317446E+02  0.99999971268E+01 0.  0.
         12    1    1    2    0    0  0.12505851494E+02  0.24926015188E+02  0.35375287448E+02  0.45045682554E+02  0.00000000000E+00 0. -1.
         11    1    3    3    0    0 -0.32487168237E+00 -0.75449486408E+00 -0.50555847541E+01  0.51218884776E+01  0.51100000000E-03 0. -1.
        -11    1    3    3    0    0 -0.94525474100E+01 -0.21024177487E+02 -0.22789342606E+02  0.32414824205E+02  0.51100000000E-03 0.  1.
        -12    1    3    3    0    0 -0.27284324013E+01 -0.31473428374E+01 -0.75303600876E+01  0.86056047639E+01  0.00000000000E+00 0.  1.
</event>
<event>
 7    1  0.1445801E-008  0.4614232E+02  0.7816164E-02  0.1320468E+00
        -11   -1    0    0    0    0  0.00000000000E+00  0.00000000000E+00  0.45593999997E+02  0.45594000000E+02  0.51100000000E-03 0.  1.
         11   -1    0    0    0    0 -0.00000000000E+00 -0.00000000000E+00 -0.45593999997E+02  0.45594000000E+02  0.51100000000E-03 0. -1.
    9900012    2    1    2    0    0 -0.39965488728E+01 -0.14698252788E+02  0.42392245368E+02  0.46142317574E+02  0.99999982893E+01 0.  0.
         12    1    1    2    0    0  0.39965488728E+01  0.14698252788E+02 -0.42392245368E+02  0.45045682426E+02  0.00000000000E+00 0. -1.
         11    1    3    3    0    0  0.86568772150E+00  0.20044140144E-01  0.15609095704E+01  0.17850086685E+01  0.51100000000E-03 0. -1.
        -11    1    3    3    0    0 -0.10857084443E+01 -0.13065064370E+02  0.32962706099E+02  0.35474140771E+02  0.51100000000E-03 0.  1.
        -12    1    3    3    0    0 -0.37765281500E+01 -0.16532325586E+01  0.78686296989E+01  0.88831681341E+01  0.00000000000E+00 0.  1.
</event>
<event>
 7    1  0.1445801E-008  0.4614232E+02  0.7816164E-02  0.1320468E+00
        -11   -1    0    0    0    0  0.00000000000E+00  0.00000000000E+00  0.45593999997E+02  0.45594000000E+02  0.51100000000E-03 0. -1.
         11   -1    0    0    0    0 -0.00000000000E+00 -0.00000000000E+00 -0.45593999997E+02  0.45594000000E+02  0.51100000000E-03 0.  1.
    9900012    2    1    2    0    0 -0.65211983888E+01  0.15522994396E+02 -0.41780666635E+02  0.46142317766E+02  0.10000000042E+02 0.  0.
         12    1    1    2    0    0  0.65211983888E+01 -0.15522994396E+02  0.41780666635E+02  0.45045682234E+02  0.00000000000E+00 0. -1.
         11    1    3    3    0    0  0.72581075529E+00  0.68907169595E+01 -0.22587629987E+02  0.23626464191E+02  0.51100000000E-03 0. -1.
        -11    1    3    3    0    0 -0.25918411462E+01  0.35334746472E+01 -0.44981592901E+01  0.62798503859E+01  0.51100000000E-03 0.  1.
         12    1    3    3    0    0 -0.46551679980E+01  0.50988027896E+01 -0.14694877358E+02  0.16236003189E+02  0.00000000000E+00 0. -1.
</event>
<event>
 7    1  0.1445801E-008  0.4614232E+02  0.7816164E-02  0.1320468E+00
        -11   -1    0    0    0    0  0.00000000000E+00  0.00000000000E+00  0.45593999997E+02  0.45594000000E+02  0.51100000000E-03 0.  1.
         11   -1    0    0    0    0 -0.00000000000E+00 -0.00000000000E+00 -0.45593999997E+02  0.45594000000E+02  0.51100000000E-03 0. -1.
    9900012    2    1    2    0    0  0.20956713680E+02  0.25520655890E+02  0.30637000090E+02  0.46142317633E+02  0.99999988362E+01 0.  0.
         12    1    1    2    0    0 -0.20956713680E+02 -0.25520655890E+02 -0.30637000090E+02  0.45045682367E+02  0.00000000000E+00 0. -1.
         11    1    3    3    0    0  0.43875599297E+00  0.45085933522E+01  0.22706964701E+01  0.50671474774E+01  0.51100000000E-03 0. -1.
        -11    1    3    3    0    0  0.20602060917E+02  0.20869199933E+02  0.27530515163E+02  0.40223098902E+02  0.51100000000E-03 0.  1.
        -12    1    3    3    0    0 -0.84103229871E-01  0.14286260462E+00  0.83578845668E+00  0.85207125371E+00  0.00000000000E+00 0.  1.
</event>
<event>
 7    1  0.1445801E-008  0.4614232E+02  0.7816164E-02  0.1320468E+00
        -11   -1    0    0    0    0  0.00000000000E+00  0.00000000000E+00  0.45593999997E+02  0.45594000000E+02  0.51100000000E-03 0.  1.
         11   -1    0    0    0    0 -0.00000000000E+00 -0.00000000000E+00 -0.45593999997E+02  0.45594000000E+02  0.51100000000E-03 0. -1.
    9900012    2    1    2    0    0 -0.10204533917E+02 -0.55944029564E+01  0.43516474325E+02  0.46142318802E+02  0.10000009495E+02 0.  0.
         12    1    1    2    0    0  0.10204533917E+02  0.55944029564E+01 -0.43516474325E+02  0.45045681198E+02  0.00000000000E+00 0. -1.
         11    1    3    3    0    0 -0.54883529894E+01 -0.33193815086E+01  0.20398098929E+02  0.21382767649E+02  0.51100000000E-03 0.  1.
        -11    1    3    3    0    0 -0.59030638708E+00  0.18382709811E+01  0.12497116055E+02  0.12645379068E+02  0.51100000000E-03 0. -1.
        -12    1    3    3    0    0 -0.41258745406E+01 -0.41132924289E+01  0.10621259341E+02  0.12114172086E+02  0.00000000000E+00 0.  1.
</event>
<event>
 7    1  0.1445801E-008  0.4614232E+02  0.7816164E-02  0.1320468E+00
        -11   -1    0    0    0    0  0.00000000000E+00  0.00000000000E+00  0.45593999997E+02  0.45594000000E+02  0.51100000000E-03 0.  1.
         11   -1    0    0    0    0 -0.00000000000E+00 -0.00000000000E+00 -0.45593999997E+02  0.45594000000E+02  0.51100000000E-03 0. -1.
    9900012    2    1    2    0    0 -0.30173690104E+02 -0.29085823386E+02  0.16512930489E+02  0.46142316856E+02  0.99999917481E+01 0.  0.
         12    1    1    2    0    0  0.30173690104E+02  0.29085823386E+02 -0.16512930489E+02  0.45045683144E+02  0.00000000000E+00 0. -1.
         11    1    3    3    0    0  0.24662343606E+00 -0.58663450461E+00 -0.27956310522E+00  0.69506758818E+00  0.51100000000E-03 0. -1.
        -11    1    3    3    0    0 -0.14653567859E+02 -0.17500175658E+02  0.11208005108E+02  0.25428381345E+02  0.51100000000E-03 0.  1.
         12    1    3    3    0    0 -0.15766745681E+02 -0.10999013223E+02  0.55844884865E+01  0.20018867923E+02  0.00000000000E+00 0. -1.
</event>
<event>
 7    1  0.1445801E-008  0.4614232E+02  0.7816164E-02  0.1320468E+00
        -11   -1    0    0    0    0  0.00000000000E+00  0.00000000000E+00  0.45593999997E+02  0.45594000000E+02  0.51100000000E-03 0.  1.
         11   -1    0    0    0    0 -0.00000000000E+00 -0.00000000000E+00 -0.45593999997E+02  0.45594000000E+02  0.51100000000E-03 0. -1.
    9900012    2    1    2    0    0  0.84820891085E+01 -0.35356903591E+02  0.26590543033E+02  0.46142318232E+02  0.10000004292E+02 0.  0.
         12    1    1    2    0    0 -0.84820891085E+01  0.35356903591E+02 -0.26590543033E+02  0.45045681768E+02  0.00000000000E+00 0. -1.
         11    1    3    3    0    0  0.38423500490E+01 -0.15765754786E+02  0.10860651765E+02  0.19526301106E+02  0.51100000000E-03 0. -1.
        -11    1    3    3    0    0 -0.10268285462E+01 -0.46618740344E+01  0.97045395023E+00  0.48712654933E+01  0.51100000000E-03 0.  1.
        -12    1    3    3    0    0  0.56665676058E+01 -0.14929274770E+02  0.14759437318E+02  0.21744751632E+02  0.00000000000E+00 0.  1.
</event>
<event>
 7    1  0.1445801E-008  0.4614232E+02  0.7816164E-02  0.1320468E+00
        -11   -1    0    0    0    0  0.00000000000E+00  0.00000000000E+00  0.45593999997E+02  0.45594000000E+02  0.51100000000E-03 0.  1.
         11   -1    0    0    0    0 -0.00000000000E+00 -0.00000000000E+00 -0.45593999997E+02  0.45594000000E+02  0.51100000000E-03 0. -1.
    9900012    2    1    2    0    0  0.31257800096E+02  0.20522206524E+00  0.32434878048E+02  0.46142317666E+02  0.99999991331E+01 0.  0.
         12    1    1    2    0    0 -0.31257800096E+02 -0.20522206524E+00 -0.32434878048E+02  0.45045682334E+02  0.00000000000E+00 0. -1.
         11    1    3    3    0    0  0.16141314969E+02  0.17428175527E-01  0.12700888559E+02  0.20539107165E+02  0.51100000000E-03 0. -1.
        -11    1    3    3    0    0  0.12720357382E+02  0.27579738759E+00  0.19374369859E+02  0.23178648879E+02  0.51100000000E-03 0.  1.
         12    1    3    3    0    0  0.23961277447E+01 -0.88003497875E-01  0.35961962979E+00  0.24245616228E+01  0.00000000000E+00 0. -1.
</event>
<event>
 7    1  0.1445801E-008  0.4614230E+02  0.7816164E-02  0.1320468E+00
        -11   -1    0    0    0    0  0.00000000000E+00  0.00000000000E+00  0.45593999997E+02  0.45594000000E+02  0.51100000000E-03 0.  1.
         11   -1    0    0    0    0 -0.00000000000E+00 -0.00000000000E+00 -0.45593999997E+02  0.45594000000E+02  0.51100000000E-03 0. -1.
    9900012    2    1    2    0    0  0.30350800401E+02  0.20842941714E+02  0.25952175136E+02  0.46142304328E+02  0.99998775075E+01 0.  0.
         12    1    1    2    0    0 -0.30350800401E+02 -0.20842941714E+02 -0.25952175136E+02  0.45045695672E+02  0.00000000000E+00 0. -1.
         11    1    3    3    0    0  0.25482513927E+01  0.37772699186E+01  0.50300159791E+01  0.67869296599E+01  0.51100000000E-03 0. -1.
        -11    1    3    3    0    0  0.13324224194E+02  0.12179065382E+02  0.11470326364E+02  0.21387682696E+02  0.51100000000E-03 0.  1.
        -12    1    3    3    0    0  0.14478324814E+02  0.48866064135E+01  0.94518327930E+01  0.17967691972E+02  0.00000000000E+00 0.  1.
</event>
<event>
 7    1  0.2013191E-008  0.4614232E+02  0.7816164E-02  0.1320468E+00
        -11   -1    0    0    0    0  0.00000000000E+00  0.00000000000E+00  0.45593999997E+02  0.45594000000E+02  0.51100000000E-03 0. -1.
         11   -1    0    0    0    0 -0.00000000000E+00 -0.00000000000E+00 -0.45593999997E+02  0.45594000000E+02  0.51100000000E-03 0.  1.
    9900012    2    1    2    0    0  0.19803902176E+02  0.40232349127E+02 -0.42751616464E+01  0.46142318023E+02  0.10000002390E+02 0.  0.
         12    1    1    2    0    0 -0.19803902176E+02 -0.40232349127E+02  0.42751616464E+01  0.45045681977E+02  0.00000000000E+00 0. -1.
         11    1    3    3    0    0  0.55345363138E+01  0.75379953822E+01 -0.45697370502E+01  0.10408408311E+02  0.51100000000E-03 0. -1.
        -11    1    3    3    0    0  0.70715036692E+01  0.16433599994E+02 -0.88377256041E+00  0.17912298208E+02  0.51100000000E-03 0.  1.
         12    1    3    3    0    0  0.71978621931E+01  0.16260753750E+02  0.11783479641E+01  0.17821611504E+02  0.00000000000E+00 0. -1.
</event>
<event>
 7    1  0.1445801E-008  0.4614232E+02  0.7816164E-02  0.1320468E+00
        -11   -1    0    0    0    0  0.00000000000E+00  0.00000000000E+00  0.45593999997E+02  0.45594000000E+02  0.51100000000E-03 0. -1.
         11   -1    0    0    0    0 -0.00000000000E+00 -0.00000000000E+00 -0.45593999997E+02  0.45594000000E+02  0.51100000000E-03 0.  1.
    9900012    2    1    2    0    0 -0.38613637187E+02  0.12577856257E+02 -0.19490978813E+02  0.46142315413E+02  0.99999785851E+01 0.  0.
         12    1    1    2    0    0  0.38613637187E+02 -0.12577856257E+02  0.19490978813E+02  0.45045684587E+02  0.00000000000E+00 0. -1.
         11    1    3    3    0    0 -0.94087131555E+01  0.32380823193E+01 -0.96579876049E+00  0.99970909697E+01  0.51100000000E-03 0. -1.
        -11    1    3    3    0    0 -0.20652993720E+02  0.84187490009E+01 -0.14831896136E+02  0.26784447495E+02  0.51100000000E-03 0.  1.
        -12    1    3    3    0    0 -0.85519303115E+01  0.92102493700E+00 -0.36932839164E+01  0.93607769482E+01  0.00000000000E+00 0.  1.
</event>
<event>
 7    1  0.1445801E-008  0.4614231E+02  0.7816164E-02  0.1320468E+00
        -11   -1    0    0    0    0  0.00000000000E+00  0.00000000000E+00  0.45593999997E+02  0.45594000000E+02  0.51100000000E-03 0.  1.
         11   -1    0    0    0    0 -0.00000000000E+00 -0.00000000000E+00 -0.45593999997E+02  0.45594000000E+02  0.51100000000E-03 0. -1.
    9900012    2    1    2    0    0  0.43867143182E+02 -0.45631232783E+01 -0.91632748329E+01  0.46142312630E+02  0.99999532106E+01 0.  0.
         12    1    1    2    0    0 -0.43867143182E+02  0.45631232783E+01  0.91632748329E+01  0.45045687370E+02  0.00000000000E+00 0. -1.
         11    1    3    3    0    0  0.68725452620E+01  0.14768143974E+01 -0.14647901298E+01  0.71804226566E+01  0.51100000000E-03 0. -1.
        -11    1    3    3    0    0  0.28043970377E+02 -0.30337988809E+01 -0.28594995993E+01  0.28352159501E+02  0.51100000000E-03 0.  1.
        -12    1    3    3    0    0  0.89506275427E+01 -0.30061387948E+01 -0.48389851038E+01  0.10609730472E+02  0.00000000000E+00 0.  1.
</event>
<event>
 7    1  0.1445801E-008  0.4614232E+02  0.7816164E-02  0.1320468E+00
        -11   -1    0    0    0    0  0.00000000000E+00  0.00000000000E+00  0.45593999997E+02  0.45594000000E+02  0.51100000000E-03 0.  1.
         11   -1    0    0    0    0 -0.00000000000E+00 -0.00000000000E+00 -0.45593999997E+02  0.45594000000E+02  0.51100000000E-03 0. -1.
    9900012    2    1    2    0    0  0.49574267077E+01 -0.44618595578E+02  0.37038355593E+01  0.46142317091E+02  0.99999938867E+01 0.  0.
         12    1    1    2    0    0 -0.49574267077E+01  0.44618595578E+02 -0.37038355593E+01  0.45045682909E+02  0.00000000000E+00 0. -1.
         11    1    3    3    0    0  0.14854509706E+01 -0.29853327827E+01  0.94377406690E+00  0.34654705539E+01  0.51100000000E-03 0. -1.
        -11    1    3    3    0    0  0.44487356721E+01 -0.15427804523E+02 -0.14323811683E+01  0.16120177342E+02  0.51100000000E-03 0.  1.
        -12    1    3    3    0    0 -0.97675993506E+00 -0.26205458273E+02  0.41924426607E+01  0.26556669195E+02  0.00000000000E+00 0.  1.
</event>
<event>
 7    1  0.1445801E-008  0.4614232E+02  0.7816164E-02  0.1320468E+00
        -11   -1    0    0    0    0  0.00000000000E+00  0.00000000000E+00  0.45593999997E+02  0.45594000000E+02  0.51100000000E-03 0.  1.
         11   -1    0    0    0    0 -0.00000000000E+00 -0.00000000000E+00 -0.45593999997E+02  0.45594000000E+02  0.51100000000E-03 0. -1.
    9900012    2    1    2    0    0  0.42482868747E+02 -0.14000380212E+02  0.53206024465E+01  0.46142316595E+02  0.99999893681E+01 0.  0.
         12    1    1    2    0    0 -0.42482868747E+02  0.14000380212E+02 -0.53206024465E+01  0.45045683405E+02  0.00000000000E+00 0. -1.
         11    1    3    3    0    0  0.89673085231E+01  0.84436392642E+00  0.66123646440E+00  0.90312129037E+01  0.51100000000E-03 0. -1.
        -11    1    3    3    0    0  0.55297655238E+01 -0.23639974831E+01 -0.50993320975E+00  0.60354637757E+01  0.51100000000E-03 0.  1.
         12    1    3    3    0    0  0.27985794700E+02 -0.12480746655E+02  0.51692991919E+01  0.31075639916E+02  0.00000000000E+00 0. -1.
</event>
<event>
 7    1  0.1445801E-008  0.4614232E+02  0.7816164E-02  0.1320468E+00
        -11   -1    0    0    0    0  0.00000000000E+00  0.00000000000E+00  0.45593999997E+02  0.45594000000E+02  0.51100000000E-03 0. -1.
         11   -1    0    0    0    0 -0.00000000000E+00 -0.00000000000E+00 -0.45593999997E+02  0.45594000000E+02  0.51100000000E-03 0.  1.
    9900012    2    1    2    0    0 -0.29758893111E+02  0.11965454420E+02 -0.31628304626E+02  0.46142317940E+02  0.10000001635E+02 0.  0.
         12    1    1    2    0    0  0.29758893111E+02 -0.11965454420E+02  0.31628304626E+02  0.45045682060E+02  0.00000000000E+00 0. -1.
         11    1    3    3    0    0 -0.89239470999E+01  0.63347504665E+00 -0.92841432905E+01  0.12893154749E+02  0.51100000000E-03 0. -1.
        -11    1    3    3    0    0  0.67624557104E-01  0.90178956169E+00 -0.22881374088E+01  0.24603598430E+01  0.51100000000E-03 0.  1.
        -12    1    3    3    0    0 -0.20902570569E+02  0.10430189812E+02 -0.20056023927E+02  0.30788803349E+02  0.00000000000E+00 0.  1.
</event>
<event>
 7    1  0.1445801E-008  0.4614232E+02  0.7816164E-02  0.1320468E+00
        -11   -1    0    0    0    0  0.00000000000E+00  0.00000000000E+00  0.45593999997E+02  0.45594000000E+02  0.51100000000E-03 0.  1.
         11   -1    0    0    0    0 -0.00000000000E+00 -0.00000000000E+00 -0.45593999997E+02  0.45594000000E+02  0.51100000000E-03 0. -1.
    9900012    2    1    2    0    0 -0.24583250798E+02  0.20832857555E+02  0.31476489259E+02  0.46142317079E+02  0.99999937834E+01 0.  0.
         12    1    1    2    0    0  0.24583250798E+02 -0.20832857555E+02 -0.31476489259E+02  0.45045682921E+02  0.00000000000E+00 0. -1.
         11    1    3    3    0    0 -0.25772701650E+01  0.41091519015E+01  0.83372003830E+01  0.96455358244E+01  0.51100000000E-03 0.  1.
        -11    1    3    3    0    0 -0.86949500219E+01  0.36943823881E+01  0.60493392162E+01  0.11218071239E+02  0.51100000000E-03 0. -1.
        -12    1    3    3    0    0 -0.13311030611E+02  0.13029323265E+02  0.17089949660E+02  0.25278710016E+02  0.00000000000E+00 0.  1.
</event>
<event>
 7    1  0.1445801E-008  0.4614232E+02  0.7816164E-02  0.1320468E+00
        -11   -1    0    0    0    0  0.00000000000E+00  0.00000000000E+00  0.45593999997E+02  0.45594000000E+02  0.51100000000E-03 0.  1.
         11   -1    0    0    0    0 -0.00000000000E+00 -0.00000000000E+00 -0.45593999997E+02  0.45594000000E+02  0.51100000000E-03 0. -1.
    9900012    2    1    2    0    0 -0.14906525781E+02  0.28490700830E+02  0.31546615748E+02  0.46142317524E+02  0.99999978371E+01 0.  0.
         12    1    1    2    0    0  0.14906525781E+02 -0.28490700830E+02 -0.31546615748E+02  0.45045682476E+02  0.00000000000E+00 0. -1.
         11    1    3    3    0    0 -0.10728882464E+02  0.10020976681E+02  0.14504475581E+02  0.20637555686E+02  0.51100000000E-03 0. -1.
        -11    1    3    3    0    0 -0.17853210632E+01  0.76475921089E+01  0.62724913022E+01  0.10050730509E+02  0.51100000000E-03 0.  1.
         12    1    3    3    0    0 -0.23923222537E+01  0.10822132040E+02  0.10769648864E+02  0.15454031329E+02  0.00000000000E+00 0. -1.
</event>
<event>
 7    1  0.1445801E-008  0.4614232E+02  0.7816164E-02  0.1320468E+00
        -11   -1    0    0    0    0  0.00000000000E+00  0.00000000000E+00  0.45593999997E+02  0.45594000000E+02  0.51100000000E-03 0.  1.
         11   -1    0    0    0    0 -0.00000000000E+00 -0.00000000000E+00 -0.45593999997E+02  0.45594000000E+02  0.51100000000E-03 0. -1.
    9900012    2    1    2    0    0  0.75909725427E+01 -0.31047054656E+01  0.44292788975E+02  0.46142320791E+02  0.10000027629E+02 0.  0.
         12    1    1    2    0    0 -0.75909725427E+01  0.31047054656E+01 -0.44292788975E+02  0.45045679209E+02  0.00000000000E+00 0. -1.
         11    1    3    3    0    0  0.28600360668E+01  0.31201172349E+01  0.11750577855E+02  0.12489636426E+02  0.51100000000E-03 0. -1.
        -11    1    3    3    0    0  0.31106990090E+01 -0.23065961220E+01  0.21049935892E+02  0.21403192176E+02  0.51100000000E-03 0.  1.
         12    1    3    3    0    0  0.16202374670E+01 -0.39182265785E+01  0.11492275228E+02  0.12249492189E+02  0.00000000000E+00 0. -1.
</event>
<event>
 7    1  0.1445801E-008  0.4614232E+02  0.7816164E-02  0.1320468E+00
        -11   -1    0    0    0    0  0.00000000000E+00  0.00000000000E+00  0.45593999997E+02  0.45594000000E+02  0.51100000000E-03 0. -1.
         11   -1    0    0    0    0 -0.00000000000E+00 -0.00000000000E+00 -0.45593999997E+02  0.45594000000E+02  0.51100000000E-03 0.  1.
    9900012    2    1    2    0    0 -0.94935867223E+01  0.29440509968E+02 -0.32745100801E+02  0.46142318271E+02  0.10000004646E+02 0.  0.
         12    1    1    2    0    0  0.94935867223E+01 -0.29440509968E+02  0.32745100801E+02  0.45045681729E+02  0.00000000000E+00 0. -1.
         11    1    3    3    0    0 -0.76959909085E+01  0.16967086444E+02 -0.13624146649E+02  0.23080894061E+02  0.51100000000E-03 0. -1.
        -11    1    3    3    0    0 -0.90526089657E+00  0.47647377234E+01 -0.97880901102E+01  0.10923778244E+02  0.51100000000E-03 0.  1.
        -12    1    3    3    0    0 -0.89233491723E+00  0.77086858010E+01 -0.93328640410E+01  0.12137645966E+02  0.00000000000E+00 0.  1.
</event>
<event>
 7    1  0.1445801E-008  0.4614232E+02  0.7816164E-02  0.1320468E+00
        -11   -1    0    0    0    0  0.00000000000E+00  0.00000000000E+00  0.45593999997E+02  0.45594000000E+02  0.51100000000E-03 0. -1.
         11   -1    0    0    0    0 -0.00000000000E+00 -0.00000000000E+00 -0.45593999997E+02  0.45594000000E+02  0.51100000000E-03 0.  1.
    9900012    2    1    2    0    0 -0.27058657874E+02  0.27130091276E+02 -0.23683336250E+02  0.46142320579E+02  0.10000025693E+02 0.  0.
         12    1    1    2    0    0  0.27058657874E+02 -0.27130091276E+02  0.23683336250E+02  0.45045679421E+02  0.00000000000E+00 0. -1.
         11    1    3    3    0    0 -0.20084642168E+01  0.12521755520E+01 -0.64740470256E+00  0.24537736720E+01  0.51100000000E-03 0. -1.
        -11    1    3    3    0    0 -0.16466721311E+02  0.19288009293E+02 -0.20408248759E+02  0.32552677784E+02  0.51100000000E-03 0.  1.
        -12    1    3    3    0    0 -0.85834723462E+01  0.65899064307E+01 -0.26276827887E+01  0.11135869123E+02  0.00000000000E+00 0.  1.
</event>
<event>
 7    1  0.1445801E-008  0.4614232E+02  0.7816164E-02  0.1320468E+00
        -11   -1    0    0    0    0  0.00000000000E+00  0.00000000000E+00  0.45593999997E+02  0.45594000000E+02  0.51100000000E-03 0.  1.
         11   -1    0    0    0    0 -0.00000000000E+00 -0.00000000000E+00 -0.45593999997E+02  0.45594000000E+02  0.51100000000E-03 0. -1.
    9900012    2    1    2    0    0  0.28268029866E+01 -0.13262850174E+02  0.42956017882E+02  0.46142317831E+02  0.10000000635E+02 0.  0.
         12    1    1    2    0    0 -0.28268029866E+01  0.13262850174E+02 -0.42956017882E+02  0.45045682169E+02  0.00000000000E+00 0. -1.
         11    1    3    3    0    0  0.44916383875E+01 -0.50073927896E+01  0.11021752421E+02  0.12912312909E+02  0.51100000000E-03 0. -1.
        -11    1    3    3    0    0  0.10968884151E+01 -0.30342787490E+01  0.13087927277E+02  0.13479757134E+02  0.51100000000E-03 0.  1.
         12    1    3    3    0    0 -0.27617238160E+01 -0.52211786351E+01  0.18846338183E+02  0.19750247788E+02  0.00000000000E+00 0. -1.
</event>
<event>
 7    1  0.1445801E-008  0.4614232E+02  0.7816164E-02  0.1320468E+00
        -11   -1    0    0    0    0  0.00000000000E+00  0.00000000000E+00  0.45593999997E+02  0.45594000000E+02  0.51100000000E-03 0.  1.
         11   -1    0    0    0    0 -0.00000000000E+00 -0.00000000000E+00 -0.45593999997E+02  0.45594000000E+02  0.51100000000E-03 0. -1.
    9900012    2    1    2    0    0 -0.39914083858E+02 -0.95100026779E+01  0.18588685204E+02  0.46142318090E+02  0.10000003000E+02 0.  0.
         12    1    1    2    0    0  0.39914083858E+02  0.95100026779E+01 -0.18588685204E+02  0.45045681910E+02  0.00000000000E+00 0. -1.
         11    1    3    3    0    0 -0.34594815601E+01 -0.31249642470E+01  0.27894648961E+01  0.54327275725E+01  0.51100000000E-03 0. -1.
        -11    1    3    3    0    0 -0.21880747272E+02 -0.50279694039E+01  0.65176248547E+01  0.23377917177E+02  0.51100000000E-03 0.  1.
        -12    1    3    3    0    0 -0.14573855025E+02 -0.13570690271E+01  0.92815954531E+01  0.17331673341E+02  0.00000000000E+00 0.  1.
</event>
<event>
 7    1  0.1445801E-008  0.4614232E+02  0.7816164E-02  0.1320468E+00
        -11   -1    0    0    0    0  0.00000000000E+00  0.00000000000E+00  0.45593999997E+02  0.45594000000E+02  0.51100000000E-03 0.  1.
         11   -1    0    0    0    0 -0.00000000000E+00 -0.00000000000E+00 -0.45593999997E+02  0.45594000000E+02  0.51100000000E-03 0. -1.
    9900012    2    1    2    0    0 -0.26357576455E+02 -0.20173720821E+02  0.30453452036E+02  0.46142316641E+02  0.99999897860E+01 0.  0.
         12    1    1    2    0    0  0.26357576455E+02  0.20173720821E+02 -0.30453452036E+02  0.45045683359E+02  0.00000000000E+00 0. -1.
         11    1    3    3    0    0  0.65218262748E+00 -0.13509228727E+01  0.18669540269E+01  0.23949639637E+01  0.51100000000E-03 0. -1.
        -11    1    3    3    0    0 -0.18623248748E+02 -0.14860755279E+02  0.19988916861E+02  0.31100228921E+02  0.51100000000E-03 0.  1.
         12    1    3    3    0    0 -0.83865103349E+01 -0.39620426687E+01  0.85975811480E+01  0.12647123756E+02  0.00000000000E+00 0. -1.
</event>
<event>
 7    1  0.1445801E-008  0.4614232E+02  0.7816164E-02  0.1320468E+00
        -11   -1    0    0    0    0  0.00000000000E+00  0.00000000000E+00  0.45593999997E+02  0.45594000000E+02  0.51100000000E-03 0. -1.
         11   -1    0    0    0    0 -0.00000000000E+00 -0.00000000000E+00 -0.45593999997E+02  0.45594000000E+02  0.51100000000E-03 0.  1.
    9900012    2    1    2    0    0  0.28750151894E+02 -0.44097700681E+01 -0.34396164632E+02  0.46142318216E+02  0.10000004146E+02 0.  0.
         12    1    1    2    0    0 -0.28750151894E+02  0.44097700681E+01  0.34396164632E+02  0.45045681784E+02  0.00000000000E+00 0. -1.
         11    1    3    3    0    0  0.73426123195E+00 -0.88340060108E+00 -0.14105703396E+01  0.18191330690E+01  0.51100000000E-03 0. -1.
        -11    1    3    3    0    0  0.68753969156E+00 -0.75832843440E+00 -0.50226780550E+01  0.51259211803E+01  0.51100000000E-03 0.  1.
        -12    1    3    3    0    0  0.27328350971E+02 -0.27680410326E+01 -0.27962916238E+02  0.39197263966E+02  0.00000000000E+00 0.  1.
</event>
<event>
 7    1  0.1445801E-008  0.4614232E+02  0.7816164E-02  0.1320468E+00
        -11   -1    0    0    0    0  0.00000000000E+00  0.00000000000E+00  0.45593999997E+02  0.45594000000E+02  0.51100000000E-03 0.  1.
         11   -1    0    0    0    0 -0.00000000000E+00 -0.00000000000E+00 -0.45593999997E+02  0.45594000000E+02  0.51100000000E-03 0. -1.
    9900012    2    1    2    0    0 -0.25962325354E+02 -0.63862675519E+00  0.36805749342E+02  0.46142319113E+02  0.10000012325E+02 0.  0.
         12    1    1    2    0    0  0.25962325354E+02  0.63862675519E+00 -0.36805749342E+02  0.45045680887E+02  0.00000000000E+00 0. -1.
         11    1    3    3    0    0 -0.18630651300E+02 -0.40954174406E+01  0.22075066080E+02  0.29175026214E+02  0.51100000000E-03 0. -1.
        -11    1    3    3    0    0 -0.60528531750E+01  0.19581404351E+01  0.10121972050E+02  0.11955152193E+02  0.51100000000E-03 0.  1.
         12    1    3    3    0    0 -0.12788208794E+01  0.14986502503E+01  0.46087112128E+01  0.50121407061E+01  0.00000000000E+00 0. -1.
</event>
<event>
 7    1  0.1445801E-008  0.4614232E+02  0.7816164E-02  0.1320468E+00
        -11   -1    0    0    0    0  0.00000000000E+00  0.00000000000E+00  0.45593999997E+02  0.45594000000E+02  0.51100000000E-03 0.  1.
         11   -1    0    0    0    0 -0.00000000000E+00 -0.00000000000E+00 -0.45593999997E+02  0.45594000000E+02  0.51100000000E-03 0. -1.
    9900012    2    1    2    0    0  0.56379104058E+01  0.22512751327E+02  0.38607039679E+02  0.46142317423E+02  0.99999969157E+01 0.  0.
         12    1    1    2    0    0 -0.56379104058E+01 -0.22512751327E+02 -0.38607039679E+02  0.45045682577E+02  0.00000000000E+00 0. -1.
         11    1    3    3    0    0 -0.54628311415E+00  0.65120410991E+00  0.91543897816E+00  0.12492080761E+01  0.51100000000E-03 0. -1.
        -11    1    3    3    0    0  0.64401810913E+00  0.42337979430E+01  0.20531384816E+01  0.47492296462E+01  0.51100000000E-03 0.  1.
        -12    1    3    3    0    0  0.55401754109E+01  0.17627749275E+02  0.35638462219E+02  0.40143879701E+02  0.00000000000E+00 0.  1.
</event>
<event>
 7    1  0.1445801E-008  0.4614232E+02  0.7816164E-02  0.1320468E+00
        -11   -1    0    0    0    0  0.00000000000E+00  0.00000000000E+00  0.45593999997E+02  0.45594000000E+02  0.51100000000E-03 0.  1.
         11   -1    0    0    0    0 -0.00000000000E+00 -0.00000000000E+00 -0.45593999997E+02  0.45594000000E+02  0.51100000000E-03 0. -1.
    9900012    2    1    2    0    0  0.20670572414E+02  0.24374557015E+02  0.31744635301E+02  0.46142318032E+02  0.10000002470E+02 0.  0.
         12    1    1    2    0    0 -0.20670572414E+02 -0.24374557015E+02 -0.31744635301E+02  0.45045681968E+02  0.00000000000E+00 0. -1.
         11    1    3    3    0    0  0.11449702123E+02  0.92806476106E+01  0.91256182416E+01  0.17335022565E+02  0.51100000000E-03 0. -1.
        -11    1    3    3    0    0  0.59148444570E+01  0.86741843773E+01  0.11738280767E+02  0.15748463264E+02  0.51100000000E-03 0.  1.
         12    1    3    3    0    0  0.33060258338E+01  0.64197250269E+01  0.10880736292E+02  0.13058832202E+02  0.00000000000E+00 0. -1.
</event>
<event>
 7    1  0.1445801E-008  0.4614232E+02  0.7816164E-02  0.1320468E+00
        -11   -1    0    0    0    0  0.00000000000E+00  0.00000000000E+00  0.45593999997E+02  0.45594000000E+02  0.51100000000E-03 0.  1.
         11   -1    0    0    0    0 -0.00000000000E+00 -0.00000000000E+00 -0.45593999997E+02  0.45594000000E+02  0.51100000000E-03 0. -1.
    9900012    2    1    2    0    0 -0.43862087465E+02  0.98482789710E+01  0.28709361050E+01  0.46142316637E+02  0.99999897509E+01 0.  0.
         12    1    1    2    0    0  0.43862087465E+02 -0.98482789710E+01 -0.28709361050E+01  0.45045683363E+02  0.00000000000E+00 0. -1.
         11    1    3    3    0    0 -0.42701609185E+01  0.29410388385E+01  0.11743943772E+00  0.51863065858E+01  0.51100000000E-03 0. -1.
        -11    1    3    3    0    0 -0.36358998593E+02  0.50120229570E+01  0.75867733508E+00  0.36710662543E+02  0.51100000000E-03 0.  1.
        -12    1    3    3    0    0 -0.32329279542E+01  0.18952171756E+01  0.19948193322E+01  0.42453475085E+01  0.00000000000E+00 0.  1.
</event>
<event>
 7    1  0.1445801E-008  0.4614232E+02  0.7816164E-02  0.1320468E+00
        -11   -1    0    0    0    0  0.00000000000E+00  0.00000000000E+00  0.45593999997E+02  0.45594000000E+02  0.51100000000E-03 0. -1.
         11   -1    0    0    0    0 -0.00000000000E+00 -0.00000000000E+00 -0.45593999997E+02  0.45594000000E+02  0.51100000000E-03 0.  1.
    9900012    2    1    2    0    0  0.14617889712E+02  0.18691409145E+02 -0.38289191736E+02  0.46142315643E+02  0.99999806833E+01 0.  0.
         12    1    1    2    0    0 -0.14617889712E+02 -0.18691409145E+02  0.38289191736E+02  0.45045684357E+02  0.00000000000E+00 0. -1.
         11    1    3    3    0    0  0.59551618916E+01  0.78369108172E+01 -0.76961612793E+01  0.12494479701E+02  0.51100000000E-03 0. -1.
        -11    1    3    3    0    0  0.50775576723E+01  0.76511141713E+01 -0.20882110334E+02  0.22811919521E+02  0.51100000000E-03 0.  1.
         12    1    3    3    0    0  0.35851701484E+01  0.32033841561E+01 -0.97109201225E+01  0.10835916420E+02  0.00000000000E+00 0. -1.
</event>
<event>
 7    1  0.1445801E-008  0.4614232E+02  0.7816164E-02  0.1320468E+00
        -11   -1    0    0    0    0  0.00000000000E+00  0.00000000000E+00  0.45593999997E+02  0.45594000000E+02  0.51100000000E-03 0.  1.
         11   -1    0    0    0    0 -0.00000000000E+00 -0.00000000000E+00 -0.45593999997E+02  0.45594000000E+02  0.51100000000E-03 0. -1.
    9900012    2    1    2    0    0  0.18259402217E+02  0.36007941830E+02  0.19978384527E+02  0.46142317715E+02  0.99999995812E+01 0.  0.
         12    1    1    2    0    0 -0.18259402217E+02 -0.36007941830E+02 -0.19978384527E+02  0.45045682285E+02  0.00000000000E+00 0. -1.
         11    1    3    3    0    0  0.17703526818E+01  0.95309134397E+00 -0.47101556635E+00  0.20650393828E+01  0.51100000000E-03 0. -1.
        -11    1    3    3    0    0  0.12292780003E+02  0.30253708162E+02  0.17543704207E+02  0.37069945445E+02  0.51100000000E-03 0.  1.
        -12    1    3    3    0    0  0.41962695318E+01  0.48011423248E+01  0.29056958870E+01  0.70073328874E+01  0.00000000000E+00 0.  1.
</event>
<event>
 7    1  0.1445801E-008  0.4614232E+02  0.7816164E-02  0.1320468E+00
        -11   -1    0    0    0    0  0.00000000000E+00  0.00000000000E+00  0.45593999997E+02  0.45594000000E+02  0.51100000000E-03 0.  1.
         11   -1    0    0    0    0 -0.00000000000E+00 -0.00000000000E+00 -0.45593999997E+02  0.45594000000E+02  0.51100000000E-03 0. -1.
    9900012    2    1    2    0    0  0.18151586524E+02 -0.33011076971E+02  0.24696197926E+02  0.46142317764E+02  0.10000000028E+02 0.  0.
         12    1    1    2    0    0 -0.18151586524E+02  0.33011076971E+02 -0.24696197926E+02  0.45045682236E+02  0.00000000000E+00 0. -1.
         11    1    3    3    0    0  0.94736295110E+01 -0.10045837804E+02  0.88354957843E+01  0.16393123538E+02  0.51100000000E-03 0. -1.
        -11    1    3    3    0    0  0.23693600953E+01 -0.14041544300E+02  0.89840592879E+01  0.16837225280E+02  0.51100000000E-03 0.  1.
        -12    1    3    3    0    0  0.63085969172E+01 -0.89236948668E+01  0.68766428538E+01  0.12911968947E+02  0.00000000000E+00 0.  1.
</event>
<event>
 7    1  0.1445801E-008  0.4614232E+02  0.7816164E-02  0.1320468E+00
        -11   -1    0    0    0    0  0.00000000000E+00  0.00000000000E+00  0.45593999997E+02  0.45594000000E+02  0.51100000000E-03 0.  1.
         11   -1    0    0    0    0 -0.00000000000E+00 -0.00000000000E+00 -0.45593999997E+02  0.45594000000E+02  0.51100000000E-03 0. -1.
    9900012    2    1    2    0    0 -0.12376776217E+02  0.41091278670E+02  0.13690694252E+02  0.46142324498E+02  0.10000061436E+02 0.  0.
         12    1    1    2    0    0  0.12376776217E+02 -0.41091278670E+02 -0.13690694252E+02  0.45045675502E+02  0.00000000000E+00 0. -1.
         11    1    3    3    0    0 -0.36568317546E+01  0.14700609509E+02  0.87015636096E+01  0.17469904062E+02  0.51100000000E-03 0. -1.
        -11    1    3    3    0    0 -0.81479548133E+01  0.20252181785E+02  0.54190890923E+01  0.22492366740E+02  0.51100000000E-03 0.  1.
        -12    1    3    3    0    0 -0.57198964882E+00  0.61384873763E+01 -0.42995844993E+00  0.61800536969E+01  0.00000000000E+00 0.  1.
</event>
<event>
 7    1  0.1445801E-008  0.4614232E+02  0.7816164E-02  0.1320468E+00
        -11   -1    0    0    0    0  0.00000000000E+00  0.00000000000E+00  0.45593999997E+02  0.45594000000E+02  0.51100000000E-03 0.  1.
         11   -1    0    0    0    0 -0.00000000000E+00 -0.00000000000E+00 -0.45593999997E+02  0.45594000000E+02  0.51100000000E-03 0. -1.
    9900012    2    1    2    0    0 -0.23663682171E+02 -0.34991019389E+02  0.15645197521E+02  0.46142317662E+02  0.99999990982E+01 0.  0.
         12    1    1    2    0    0  0.23663682171E+02  0.34991019389E+02 -0.15645197521E+02  0.45045682338E+02  0.00000000000E+00 0. -1.
         11    1    3    3    0    0 -0.88145009182E+00 -0.33056550344E-01  0.71128348454E+00  0.11331246429E+01  0.51100000000E-03 0. -1.
        -11    1    3    3    0    0 -0.15947241461E+02 -0.24653793550E+02  0.65902949750E+01  0.30092458104E+02  0.51100000000E-03 0.  1.
         12    1    3    3    0    0 -0.68349906185E+01 -0.10304169289E+02  0.83436190615E+01  0.14916734915E+02  0.00000000000E+00 0. -1.
</event>
<event>
 7    1  0.1445801E-008  0.4614232E+02  0.7816164E-02  0.1320468E+00
        -11   -1    0    0    0    0  0.00000000000E+00  0.00000000000E+00  0.45593999997E+02  0.45594000000E+02  0.51100000000E-03 0. -1.
         11   -1    0    0    0    0 -0.00000000000E+00 -0.00000000000E+00 -0.45593999997E+02  0.45594000000E+02  0.51100000000E-03 0.  1.
    9900012    2    1    2    0    0  0.36871391171E+02  0.19473213720E+02 -0.17041360012E+02  0.46142317737E+02  0.99999997812E+01 0.  0.
         12    1    1    2    0    0 -0.36871391171E+02 -0.19473213720E+02  0.17041360012E+02  0.45045682263E+02  0.00000000000E+00 0. -1.
         11    1    3    3    0    0  0.18653070817E+01 -0.42812353570E+00  0.82716723037E-01  0.19155945782E+01  0.51100000000E-03 0. -1.
        -11    1    3    3    0    0  0.29958461079E+02  0.17032454399E+02 -0.12024962448E+02  0.36499501575E+02  0.51100000000E-03 0.  1.
        -12    1    3    3    0    0  0.50476230102E+01  0.28688828566E+01 -0.50991142863E+01  0.77272215837E+01  0.00000000000E+00 0.  1.
</event>
<event>
 7    1  0.1445801E-008  0.4614232E+02  0.7816164E-02  0.1320468E+00
        -11   -1    0    0    0    0  0.00000000000E+00  0.00000000000E+00  0.45593999997E+02  0.45594000000E+02  0.51100000000E-03 0.  1.
         11   -1    0    0    0    0 -0.00000000000E+00 -0.00000000000E+00 -0.45593999997E+02  0.45594000000E+02  0.51100000000E-03 0. -1.
    9900012    2    1    2    0    0 -0.51253620611E+01 -0.29618759696E+02  0.33549563288E+02  0.46142318087E+02  0.10000002971E+02 0.  0.
         12    1    1    2    0    0  0.51253620611E+01  0.29618759696E+02 -0.33549563288E+02  0.45045681913E+02  0.00000000000E+00 0. -1.
         11    1    3    3    0    0  0.19877917711E+01 -0.13046842663E+02  0.16553148873E+02  0.21170218645E+02  0.51100000000E-03 0. -1.
        -11    1    3    3    0    0 -0.11885773911E+01 -0.64959579647E+01  0.63563786487E+01  0.91659007130E+01  0.51100000000E-03 0.  1.
         12    1    3    3    0    0 -0.59245764411E+01 -0.10075959068E+02  0.10640035766E+02  0.15806198729E+02  0.00000000000E+00 0. -1.
</event>
<event>
 7    1  0.1445801E-008  0.4614232E+02  0.7816164E-02  0.1320468E+00
        -11   -1    0    0    0    0  0.00000000000E+00  0.00000000000E+00  0.45593999997E+02  0.45594000000E+02  0.51100000000E-03 0. -1.
         11   -1    0    0    0    0 -0.00000000000E+00 -0.00000000000E+00 -0.45593999997E+02  0.45594000000E+02  0.51100000000E-03 0.  1.
    9900012    2    1    2    0    0  0.35513790259E+02 -0.27308942443E+02  0.47016795174E+01  0.46142318451E+02  0.10000006290E+02 0.  0.
         12    1    1    2    0    0 -0.35513790259E+02  0.27308942443E+02 -0.47016795174E+01  0.45045681549E+02  0.00000000000E+00 0. -1.
         11    1    3    3    0    0  0.15266044884E+02 -0.97411175750E+01  0.50455783595E+01  0.18798919098E+02  0.51100000000E-03 0. -1.
        -11    1    3    3    0    0  0.16368837554E+02 -0.15720579740E+02  0.13259908411E+01  0.22733977263E+02  0.51100000000E-03 0.  1.
        -12    1    3    3    0    0  0.38789078208E+01 -0.18472451284E+01 -0.16698896832E+01  0.46094220896E+01  0.00000000000E+00 0.  1.
</event>
<event>
 7    1  0.1445801E-008  0.4614232E+02  0.7816164E-02  0.1320468E+00
        -11   -1    0    0    0    0  0.00000000000E+00  0.00000000000E+00  0.45593999997E+02  0.45594000000E+02  0.51100000000E-03 0.  1.
         11   -1    0    0    0    0 -0.00000000000E+00 -0.00000000000E+00 -0.45593999997E+02  0.45594000000E+02  0.51100000000E-03 0. -1.
    9900012    2    1    2    0    0 -0.39115463054E+02 -0.20790202758E+02  0.81768941648E+01  0.46142316757E+02  0.99999908480E+01 0.  0.
         12    1    1    2    0    0  0.39115463054E+02  0.20790202758E+02 -0.81768941648E+01  0.45045683243E+02  0.00000000000E+00 0. -1.
         11    1    3    3    0    0 -0.59959313197E+01 -0.17941906160E+01  0.36693729948E+01  0.72549714536E+01  0.51100000000E-03 0. -1.
        -11    1    3    3    0    0 -0.19127005491E+02 -0.10373637052E+02 -0.30599090562E+00  0.21761165305E+02  0.51100000000E-03 0.  1.
         12    1    3    3    0    0 -0.13992526243E+02 -0.86223750897E+01  0.48135120757E+01  0.17126179998E+02  0.00000000000E+00 0. -1.
</event>
<event>
 7    1  0.1445801E-008  0.4614232E+02  0.7816164E-02  0.1320468E+00
        -11   -1    0    0    0    0  0.00000000000E+00  0.00000000000E+00  0.45593999997E+02  0.45594000000E+02  0.51100000000E-03 0.  1.
         11   -1    0    0    0    0 -0.00000000000E+00 -0.00000000000E+00 -0.45593999997E+02  0.45594000000E+02  0.51100000000E-03 0. -1.
    9900012    2    1    2    0    0  0.22892621725E+02 -0.30366014485E+02 -0.24144283356E+02  0.46142318920E+02  0.10000010572E+02 0.  0.
         12    1    1    2    0    0 -0.22892621725E+02  0.30366014485E+02  0.24144283356E+02  0.45045681080E+02  0.00000000000E+00 0. -1.
         11    1    3    3    0    0  0.83505925266E+01 -0.10660442364E+02 -0.46475569566E+01  0.14317025280E+02  0.51100000000E-03 0. -1.
        -11    1    3    3    0    0  0.10816587016E+02 -0.10103320804E+02 -0.10471165624E+02  0.18130663411E+02  0.51100000000E-03 0.  1.
         12    1    3    3    0    0  0.37254421825E+01 -0.96022513174E+01 -0.90255607753E+01  0.13694630230E+02  0.00000000000E+00 0. -1.
</event>
<event>
 7    1  0.1445801E-008  0.4614232E+02  0.7816164E-02  0.1320468E+00
        -11   -1    0    0    0    0  0.00000000000E+00  0.00000000000E+00  0.45593999997E+02  0.45594000000E+02  0.51100000000E-03 0.  1.
         11   -1    0    0    0    0 -0.00000000000E+00 -0.00000000000E+00 -0.45593999997E+02  0.45594000000E+02  0.51100000000E-03 0. -1.
    9900012    2    1    2    0    0 -0.20736267973E+02 -0.17751136902E+01  0.39949588822E+02  0.46142317797E+02  0.10000000331E+02 0.  0.
         12    1    1    2    0    0  0.20736267973E+02  0.17751136902E+01 -0.39949588822E+02  0.45045682203E+02  0.00000000000E+00 0. -1.
         11    1    3    3    0    0 -0.97703110527E+00 -0.30224815532E+00  0.55382388701E+01  0.56318765764E+01  0.51100000000E-03 0. -1.
        -11    1    3    3    0    0 -0.69167274888E+01  0.10470089261E+01  0.19250588550E+02  0.20482248574E+02  0.51100000000E-03 0.  1.
        -12    1    3    3    0    0 -0.12842509379E+02 -0.25198744610E+01  0.15160761402E+02  0.20028192647E+02  0.00000000000E+00 0.  1.
</event>
<event>
 7    1  0.1445801E-008  0.4614232E+02  0.7816164E-02  0.1320468E+00
        -11   -1    0    0    0    0  0.00000000000E+00  0.00000000000E+00  0.45593999997E+02  0.45594000000E+02  0.51100000000E-03 0. -1.
         11   -1    0    0    0    0 -0.00000000000E+00 -0.00000000000E+00 -0.45593999997E+02  0.45594000000E+02  0.51100000000E-03 0.  1.
    9900012    2    1    2    0    0  0.32614828020E+02 -0.19416248076E+02 -0.24256870104E+02  0.46142318260E+02  0.10000004550E+02 0.  0.
         12    1    1    2    0    0 -0.32614828020E+02  0.19416248076E+02  0.24256870104E+02  0.45045681740E+02  0.00000000000E+00 0. -1.
         11    1    3    3    0    0  0.10592875783E+02 -0.85228114790E+01 -0.81328792136E+01  0.15842697290E+02  0.51100000000E-03 0. -1.
        -11    1    3    3    0    0  0.94062168327E+01 -0.72750488628E+01 -0.11036524790E+02  0.16223690417E+02  0.51100000000E-03 0.  1.
        -12    1    3    3    0    0  0.12615735404E+02 -0.36183877345E+01 -0.50874661009E+01  0.14075930552E+02  0.00000000000E+00 0.  1.
</event>
<event>
 7    1  0.1445801E-008  0.4614232E+02  0.7816164E-02  0.1320468E+00
        -11   -1    0    0    0    0  0.00000000000E+00  0.00000000000E+00  0.45593999997E+02  0.45594000000E+02  0.51100000000E-03 0. -1.
         11   -1    0    0    0    0 -0.00000000000E+00 -0.00000000000E+00 -0.45593999997E+02  0.45594000000E+02  0.51100000000E-03 0.  1.
    9900012    2    1    2    0    0  0.37916428007E+02  0.66860316756E+01 -0.23382791307E+02  0.46142318057E+02  0.10000002696E+02 0.  0.
         12    1    1    2    0    0 -0.37916428007E+02 -0.66860316756E+01  0.23382791307E+02  0.45045681943E+02  0.00000000000E+00 0. -1.
         11    1    3    3    0    0  0.18469973610E+01 -0.14125135060E+01  0.45409127412E-01  0.23256517164E+01  0.51100000000E-03 0. -1.
        -11    1    3    3    0    0  0.25745460834E+02  0.62624132650E+01 -0.15797792580E+02  0.30848287216E+02  0.51100000000E-03 0.  1.
         12    1    3    3    0    0  0.10323969812E+02  0.18361319166E+01 -0.76304078545E+01  0.12968379125E+02  0.00000000000E+00 0. -1.
</event>
<event>
 7    1  0.1445801E-008  0.4614231E+02  0.7816164E-02  0.1320468E+00
        -11   -1    0    0    0    0  0.00000000000E+00  0.00000000000E+00  0.45593999997E+02  0.45594000000E+02  0.51100000000E-03 0. -1.
         11   -1    0    0    0    0 -0.00000000000E+00 -0.00000000000E+00 -0.45593999997E+02  0.45594000000E+02  0.51100000000E-03 0.  1.
    9900012    2    1    2    0    0 -0.40856468191E+01  0.10806916312E+02 -0.43538855584E+02  0.46142313240E+02  0.99999587717E+01 0.  0.
         12    1    1    2    0    0  0.40856468191E+01 -0.10806916312E+02  0.43538855584E+02  0.45045686760E+02  0.00000000000E+00 0. -1.
         11    1    3    3    0    0 -0.55099153404E+01  0.40507993620E+01 -0.24846797695E+02  0.25770748893E+02  0.51100000000E-03 0. -1.
        -11    1    3    3    0    0 -0.14011962894E+01  0.29647318030E+01 -0.92011908529E+01  0.97680550305E+01  0.51100000000E-03 0.  1.
         12    1    3    3    0    0  0.28254648108E+01  0.37913851467E+01 -0.94908670360E+01  0.10603509316E+02  0.00000000000E+00 0. -1.
</event>
<event>
 7    1  0.1445801E-008  0.4614231E+02  0.7816164E-02  0.1320468E+00
        -11   -1    0    0    0    0  0.00000000000E+00  0.00000000000E+00  0.45593999997E+02  0.45594000000E+02  0.51100000000E-03 0.  1.
         11   -1    0    0    0    0 -0.00000000000E+00 -0.00000000000E+00 -0.45593999997E+02  0.45594000000E+02  0.51100000000E-03 0. -1.
    9900012    2    1    2    0    0  0.28934380202E+02 -0.19337982193E+02  0.28599967580E+02  0.46142311432E+02  0.99999422879E+01 0.  0.
         12    1    1    2    0    0 -0.28934380202E+02  0.19337982193E+02 -0.28599967580E+02  0.45045688568E+02  0.00000000000E+00 0. -1.
         11    1    3    3    0    0  0.14122188347E+02 -0.13388090201E+02  0.12298476903E+02  0.23020201940E+02  0.51100000000E-03 0. -1.
        -11    1    3    3    0    0  0.14182438639E+02 -0.64621943226E+01  0.15544878937E+02  0.22012377941E+02  0.51100000000E-03 0.  1.
         12    1    3    3    0    0  0.62975321609E+00  0.51230233053E+00  0.75661173951E+00  0.11097315511E+01  0.00000000000E+00 0. -1.
</event>
<event>
 7    1  0.1445801E-008  0.4614232E+02  0.7816164E-02  0.1320468E+00
        -11   -1    0    0    0    0  0.00000000000E+00  0.00000000000E+00  0.45593999997E+02  0.45594000000E+02  0.51100000000E-03 0.  1.
         11   -1    0    0    0    0 -0.00000000000E+00 -0.00000000000E+00 -0.45593999997E+02  0.45594000000E+02  0.51100000000E-03 0. -1.
    9900012    2    1    2    0    0 -0.40163548272E+02  0.13610619421E+02  0.15190587386E+02  0.46142317454E+02  0.99999972026E+01 0.  0.
         12    1    1    2    0    0  0.40163548272E+02 -0.13610619421E+02 -0.15190587386E+02  0.45045682546E+02  0.00000000000E+00 0. -1.
         11    1    3    3    0    0 -0.17323320748E+01 -0.78835703217E+00  0.17672019799E+00  0.19114684191E+01  0.51100000000E-03 0. -1.
        -11    1    3    3    0    0 -0.24196905762E+02  0.11851777180E+02  0.76785873013E+01  0.28016344765E+02  0.51100000000E-03 0.  1.
        -12    1    3    3    0    0 -0.14234310435E+02  0.25471992739E+01  0.73352798872E+01  0.16214504270E+02  0.00000000000E+00 0.  1.
</event>
<event>
 7    1  0.1445801E-008  0.4614232E+02  0.7816164E-02  0.1320468E+00
        -11   -1    0    0    0    0  0.00000000000E+00  0.00000000000E+00  0.45593999997E+02  0.45594000000E+02  0.51100000000E-03 0.  1.
         11   -1    0    0    0    0 -0.00000000000E+00 -0.00000000000E+00 -0.45593999997E+02  0.45594000000E+02  0.51100000000E-03 0. -1.
    9900012    2    1    2    0    0  0.13809038593E+02 -0.41634661259E+02 -0.10245922107E+02  0.46142317800E+02  0.10000000359E+02 0.  0.
         12    1    1    2    0    0 -0.13809038593E+02  0.41634661259E+02  0.10245922107E+02  0.45045682200E+02  0.00000000000E+00 0. -1.
         11    1    3    3    0    0  0.30027325406E+01 -0.16550842066E+02 -0.69676592347E+01  0.18207005554E+02  0.51100000000E-03 0. -1.
        -11    1    3    3    0    0  0.53397811335E+01 -0.14922063247E+02  0.30910536239E+00  0.15851712225E+02  0.51100000000E-03 0.  1.
         12    1    3    3    0    0  0.54665249185E+01 -0.10161755947E+02 -0.35873682347E+01  0.12083600021E+02  0.00000000000E+00 0. -1.
</event>
<event>
 7    1  0.1445801E-008  0.4614232E+02  0.7816164E-02  0.1320468E+00
        -11   -1    0    0    0    0  0.00000000000E+00  0.00000000000E+00  0.45593999997E+02  0.45594000000E+02  0.51100000000E-03 0.  1.
         11   -1    0    0    0    0 -0.00000000000E+00 -0.00000000000E+00 -0.45593999997E+02  0.45594000000E+02  0.51100000000E-03 0. -1.
    9900012    2    1    2    0    0 -0.42472311531E+02 -0.18231909830E+01  0.14896044698E+02  0.46142318523E+02  0.10000006943E+02 0.  0.
         12    1    1    2    0    0  0.42472311531E+02  0.18231909830E+01 -0.14896044698E+02  0.45045681477E+02  0.00000000000E+00 0. -1.
         11    1    3    3    0    0 -0.22154491849E+01 -0.13498840141E+01  0.15985663061E+01  0.30472637626E+01  0.51100000000E-03 0. -1.
        -11    1    3    3    0    0 -0.37340178028E+02 -0.93587615898E+00  0.14271397953E+02  0.39985466849E+02  0.51100000000E-03 0.  1.
        -12    1    3    3    0    0 -0.29166843174E+01  0.46256919005E+00 -0.97391956074E+00  0.31095879106E+01  0.00000000000E+00 0.  1.
</event>
<event>
 7    1  0.1445801E-008  0.4614232E+02  0.7816164E-02  0.1320468E+00
        -11   -1    0    0    0    0  0.00000000000E+00  0.00000000000E+00  0.45593999997E+02  0.45594000000E+02  0.51100000000E-03 0.  1.
         11   -1    0    0    0    0 -0.00000000000E+00 -0.00000000000E+00 -0.45593999997E+02  0.45594000000E+02  0.51100000000E-03 0. -1.
    9900012    2    1    2    0    0 -0.30097136341E+02 -0.20665683163E+02  0.26385704264E+02  0.46142318009E+02  0.10000002258E+02 0.  0.
         12    1    1    2    0    0  0.30097136341E+02  0.20665683163E+02 -0.26385704264E+02  0.45045681991E+02  0.00000000000E+00 0. -1.
         11    1    3    3    0    0 -0.11678216679E+01 -0.38353338921E+01  0.43305188970E+01  0.59014394592E+01  0.51100000000E-03 0. -1.
        -11    1    3    3    0    0 -0.22519206472E+02 -0.14611119300E+02  0.18288986198E+02  0.32482094817E+02  0.51100000000E-03 0.  1.
         12    1    3    3    0    0 -0.64101082017E+01 -0.22192299710E+01  0.37661991695E+01  0.77587837324E+01  0.00000000000E+00 0. -1.
</event>
<event>
 7    1  0.1445801E-008  0.4614232E+02  0.7816164E-02  0.1320468E+00
        -11   -1    0    0    0    0  0.00000000000E+00  0.00000000000E+00  0.45593999997E+02  0.45594000000E+02  0.51100000000E-03 0. -1.
         11   -1    0    0    0    0 -0.00000000000E+00 -0.00000000000E+00 -0.45593999997E+02  0.45594000000E+02  0.51100000000E-03 0.  1.
    9900012    2    1    2    0    0 -0.33427225538E+01  0.12303844196E+02 -0.43203645886E+02  0.46142318810E+02  0.10000009561E+02 0.  0.
         12    1    1    2    0    0  0.33427225538E+01 -0.12303844196E+02  0.43203645886E+02  0.45045681190E+02  0.00000000000E+00 0. -1.
         11    1    3    3    0    0 -0.93329024273E+00 -0.29396303237E+00 -0.33101769897E+01  0.34517701120E+01  0.51100000000E-03 0. -1.
        -11    1    3    3    0    0 -0.39221342876E+01  0.71050995508E+01 -0.31622236703E+02  0.32647073856E+02  0.51100000000E-03 0.  1.
        -12    1    3    3    0    0  0.15127019765E+01  0.54927076774E+01 -0.82712321933E+01  0.10043474842E+02  0.00000000000E+00 0.  1.
</event>
<event>
 7    1  0.1445801E-008  0.4614232E+02  0.7816164E-02  0.1320468E+00
        -11   -1    0    0    0    0  0.00000000000E+00  0.00000000000E+00  0.45593999997E+02  0.45594000000E+02  0.51100000000E-03 0. -1.
         11   -1    0    0    0    0 -0.00000000000E+00 -0.00000000000E+00 -0.45593999997E+02  0.45594000000E+02  0.51100000000E-03 0.  1.
    9900012    2    1    2    0    0 -0.43977655623E+02  0.42127106512E+01  0.87938818583E+01  0.46142317818E+02  0.10000000519E+02 0.  0.
         12    1    1    2    0    0  0.43977655623E+02 -0.42127106512E+01 -0.87938818583E+01  0.45045682182E+02  0.00000000000E+00 0. -1.
         11    1    3    3    0    0 -0.16244949572E+02  0.19937051293E+00  0.72366828120E+01  0.17785041849E+02  0.51100000000E-03 0. -1.
        -11    1    3    3    0    0 -0.13094958200E+02  0.23616681237E+01  0.27179849055E+01  0.13580973779E+02  0.51100000000E-03 0.  1.
         12    1    3    3    0    0 -0.14637747851E+02  0.16516720146E+01 -0.11607858593E+01  0.14776302189E+02  0.00000000000E+00 0. -1.
</event>
<event>
 7    1  0.1445801E-008  0.4614232E+02  0.7816164E-02  0.1320468E+00
        -11   -1    0    0    0    0  0.00000000000E+00  0.00000000000E+00  0.45593999997E+02  0.45594000000E+02  0.51100000000E-03 0. -1.
         11   -1    0    0    0    0 -0.00000000000E+00 -0.00000000000E+00 -0.45593999997E+02  0.45594000000E+02  0.51100000000E-03 0.  1.
    9900012    2    1    2    0    0 -0.30931866589E+02  0.21785000385E+02 -0.24448860761E+02  0.46142318687E+02  0.10000008448E+02 0.  0.
         12    1    1    2    0    0  0.30931866589E+02 -0.21785000385E+02  0.24448860761E+02  0.45045681313E+02  0.00000000000E+00 0. -1.
         11    1    3    3    0    0 -0.69918379504E+01  0.94294318142E+01 -0.93557184764E+01  0.15010977674E+02  0.51100000000E-03 0. -1.
        -11    1    3    3    0    0 -0.86387354170E+01  0.57849348680E+01 -0.75568226483E+01  0.12852968133E+02  0.51100000000E-03 0.  1.
         12    1    3    3    0    0 -0.15301293221E+02  0.65706337024E+01 -0.75363196359E+01  0.18278372880E+02  0.00000000000E+00 0. -1.
</event>
<event>
 7    1  0.1445801E-008  0.4614232E+02  0.7816164E-02  0.1320468E+00
        -11   -1    0    0    0    0  0.00000000000E+00  0.00000000000E+00  0.45593999997E+02  0.45594000000E+02  0.51100000000E-03 0. -1.
         11   -1    0    0    0    0 -0.00000000000E+00 -0.00000000000E+00 -0.45593999997E+02  0.45594000000E+02  0.51100000000E-03 0.  1.
    9900012    2    1    2    0    0 -0.11283682938E+02  0.27033724490E+02 -0.34219434700E+02  0.46142317947E+02  0.10000001695E+02 0.  0.
         12    1    1    2    0    0  0.11283682938E+02 -0.27033724490E+02  0.34219434700E+02  0.45045682053E+02  0.00000000000E+00 0. -1.
         11    1    3    3    0    0  0.43727565501E+00  0.18991776839E+01 -0.37402041317E+01  0.42174889545E+01  0.51100000000E-03 0. -1.
        -11    1    3    3    0    0 -0.10473690396E+02  0.22661033602E+02 -0.30136560522E+02  0.39133526736E+02  0.51100000000E-03 0.  1.
        -12    1    3    3    0    0 -0.12472681967E+01  0.24735132041E+01 -0.34267004556E+00  0.27913022562E+01  0.00000000000E+00 0.  1.
</event>
<event>
 7    1  0.1445801E-008  0.4614232E+02  0.7816164E-02  0.1320468E+00
        -11   -1    0    0    0    0  0.00000000000E+00  0.00000000000E+00  0.45593999997E+02  0.45594000000E+02  0.51100000000E-03 0.  1.
         11   -1    0    0    0    0 -0.00000000000E+00 -0.00000000000E+00 -0.45593999997E+02  0.45594000000E+02  0.51100000000E-03 0. -1.
    9900012    2    1    2    0    0 -0.11135907970E+02 -0.27980816623E+02  0.33498940959E+02  0.46142316627E+02  0.99999896544E+01 0.  0.
         12    1    1    2    0    0  0.11135907970E+02  0.27980816623E+02 -0.33498940959E+02  0.45045683373E+02  0.00000000000E+00 0. -1.
         11    1    3    3    0    0 -0.96910379079E+00 -0.29603727079E+01  0.17116601776E+00  0.31196581213E+01  0.51100000000E-03 0. -1.
        -11    1    3    3    0    0 -0.42398799061E+01 -0.13246478591E+02  0.15117691288E+02  0.20542404115E+02  0.51100000000E-03 0.  1.
         12    1    3    3    0    0 -0.59269242726E+01 -0.11773965323E+02  0.18210083654E+02  0.22480254390E+02  0.00000000000E+00 0. -1.
</event>
<event>
 7    1  0.1445801E-008  0.4614232E+02  0.7816164E-02  0.1320468E+00
        -11   -1    0    0    0    0  0.00000000000E+00  0.00000000000E+00  0.45593999997E+02  0.45594000000E+02  0.51100000000E-03 0.  1.
         11   -1    0    0    0    0 -0.00000000000E+00 -0.00000000000E+00 -0.45593999997E+02  0.45594000000E+02  0.51100000000E-03 0. -1.
    9900012    2    1    2    0    0 -0.36123653473E+02  0.26040942575E+02  0.67870727890E+01  0.46142318881E+02  0.10000010213E+02 0.  0.
         12    1    1    2    0    0  0.36123653473E+02 -0.26040942575E+02 -0.67870727890E+01  0.45045681119E+02  0.00000000000E+00 0. -1.
         11    1    3    3    0    0 -0.13432312804E+02  0.11981400761E+02  0.16780219251E+01  0.18077520552E+02  0.51100000000E-03 0. -1.
        -11    1    3    3    0    0 -0.45198700435E+01  0.40586719347E+00  0.25136292225E+01  0.51877052267E+01  0.51100000000E-03 0.  1.
        -12    1    3    3    0    0 -0.18171470625E+02  0.13653674621E+02  0.25954216413E+01  0.22877093103E+02  0.00000000000E+00 0.  1.
</event>
<event>
 7    1  0.1445801E-008  0.4614232E+02  0.7816164E-02  0.1320468E+00
        -11   -1    0    0    0    0  0.00000000000E+00  0.00000000000E+00  0.45593999997E+02  0.45594000000E+02  0.51100000000E-03 0.  1.
         11   -1    0    0    0    0 -0.00000000000E+00 -0.00000000000E+00 -0.45593999997E+02  0.45594000000E+02  0.51100000000E-03 0. -1.
    9900012    2    1    2    0    0  0.74623766009E+01 -0.16624777738E+02  0.41195183987E+02  0.46142317820E+02  0.10000000534E+02 0.  0.
         12    1    1    2    0    0 -0.74623766009E+01  0.16624777738E+02 -0.41195183987E+02  0.45045682180E+02  0.00000000000E+00 0. -1.
         11    1    3    3    0    0  0.12731291063E+00  0.62723627899E+00  0.20946562940E+01  0.21902555052E+01  0.51100000000E-03 0. -1.
        -11    1    3    3    0    0  0.59169527873E+01 -0.11729220372E+02  0.33393523939E+02  0.35884709587E+02  0.51100000000E-03 0.  1.
         12    1    3    3    0    0  0.14181109030E+01 -0.55227936455E+01  0.57070037536E+01  0.80673527274E+01  0.00000000000E+00 0. -1.
</event>
<event>
 7    1  0.1445801E-008  0.4614232E+02  0.7816164E-02  0.1320468E+00
        -11   -1    0    0    0    0  0.00000000000E+00  0.00000000000E+00  0.45593999997E+02  0.45594000000E+02  0.51100000000E-03 0.  1.
         11   -1    0    0    0    0 -0.00000000000E+00 -0.00000000000E+00 -0.45593999997E+02  0.45594000000E+02  0.51100000000E-03 0. -1.
    9900012    2    1    2    0    0  0.28064902780E+02 -0.20693770873E+02 -0.28517408041E+02  0.46142317828E+02  0.10000000606E+02 0.  0.
         12    1    1    2    0    0 -0.28064902780E+02  0.20693770873E+02  0.28517408041E+02  0.45045682172E+02  0.00000000000E+00 0. -1.
         11    1    3    3    0    0  0.56928571407E+01 -0.19977312128E+01 -0.29341441040E+01  0.67088564083E+01  0.51100000000E-03 0. -1.
        -11    1    3    3    0    0  0.22505934395E+02 -0.19135845150E+02 -0.25290781016E+02  0.38888574893E+02  0.51100000000E-03 0.  1.
        -12    1    3    3    0    0 -0.13388875524E+00  0.43980548940E+00 -0.29248292136E+00  0.54488652633E+00  0.00000000000E+00 0.  1.
</event>
<event>
 7    1  0.1445801E-008  0.4614232E+02  0.7816164E-02  0.1320468E+00
        -11   -1    0    0    0    0  0.00000000000E+00  0.00000000000E+00  0.45593999997E+02  0.45594000000E+02  0.51100000000E-03 0.  1.
         11   -1    0    0    0    0 -0.00000000000E+00 -0.00000000000E+00 -0.45593999997E+02  0.45594000000E+02  0.51100000000E-03 0. -1.
    9900012    2    1    2    0    0  0.19657237069E+02 -0.18751994354E+02  0.35931451874E+02  0.46142317685E+02  0.99999993102E+01 0.  0.
         12    1    1    2    0    0 -0.19657237069E+02  0.18751994354E+02 -0.35931451874E+02  0.45045682315E+02  0.00000000000E+00 0. -1.
         11    1    3    3    0    0  0.10919894292E+00 -0.79089804218E+00 -0.56691050805E+00  0.97919962598E+00  0.51100000000E-03 0. -1.
        -11    1    3    3    0    0  0.85559957281E+01 -0.88786572001E+01  0.17578990376E+02  0.21472226701E+02  0.51100000000E-03 0.  1.
         12    1    3    3    0    0  0.10992042398E+02 -0.90824391120E+01  0.18919372005E+02  0.23690891359E+02  0.00000000000E+00 0. -1.
</event>
<event>
 7    1  0.1445801E-008  0.4614232E+02  0.7816164E-02  0.1320468E+00
        -11   -1    0    0    0    0  0.00000000000E+00  0.00000000000E+00  0.45593999997E+02  0.45594000000E+02  0.51100000000E-03 0. -1.
         11   -1    0    0    0    0 -0.00000000000E+00 -0.00000000000E+00 -0.45593999997E+02  0.45594000000E+02  0.51100000000E-03 0.  1.
    9900012    2    1    2    0    0 -0.25915320231E+02 -0.35324757355E+02 -0.10472399821E+02  0.46142318044E+02  0.10000002578E+02 0.  0.
         12    1    1    2    0    0  0.25915320231E+02  0.35324757355E+02  0.10472399821E+02  0.45045681956E+02  0.00000000000E+00 0. -1.
         11    1    3    3    0    0 -0.23465986434E+01 -0.70869564659E+00  0.74406435194E+00  0.25617194877E+01  0.51100000000E-03 0. -1.
        -11    1    3    3    0    0 -0.14039466748E+02 -0.16913728888E+02 -0.50804520201E+01  0.22560847600E+02  0.51100000000E-03 0.  1.
        -12    1    3    3    0    0 -0.95292548396E+01 -0.17702332821E+02 -0.61360121529E+01  0.21019750956E+02  0.00000000000E+00 0.  1.
</event>
<event>
 7    1  0.1445801E-008  0.4614232E+02  0.7816164E-02  0.1320468E+00
        -11   -1    0    0    0    0  0.00000000000E+00  0.00000000000E+00  0.45593999997E+02  0.45594000000E+02  0.51100000000E-03 0.  1.
         11   -1    0    0    0    0 -0.00000000000E+00 -0.00000000000E+00 -0.45593999997E+02  0.45594000000E+02  0.51100000000E-03 0. -1.
    9900012    2    1    2    0    0 -0.29388162788E+02  0.25935952725E+02  0.22198549652E+02  0.46142319158E+02  0.10000012742E+02 0.  0.
         12    1    1    2    0    0  0.29388162788E+02 -0.25935952725E+02 -0.22198549652E+02  0.45045680842E+02  0.00000000000E+00 0. -1.
         11    1    3    3    0    0 -0.12394225183E+02  0.10554289521E+02  0.11599624730E+02  0.19989025472E+02  0.51100000000E-03 0. -1.
        -11    1    3    3    0    0 -0.12884582643E+02  0.14847465394E+02  0.96624964186E+01  0.21904874704E+02  0.51100000000E-03 0.  1.
        -12    1    3    3    0    0 -0.41093549623E+01  0.53419781035E+00  0.93642850283E+00  0.42484189822E+01  0.00000000000E+00 0.  1.
</event>
<event>
 7    1  0.1445801E-008  0.4614232E+02  0.7816164E-02  0.1320468E+00
        -11   -1    0    0    0    0  0.00000000000E+00  0.00000000000E+00  0.45593999997E+02  0.45594000000E+02  0.51100000000E-03 0.  1.
         11   -1    0    0    0    0 -0.00000000000E+00 -0.00000000000E+00 -0.45593999997E+02  0.45594000000E+02  0.51100000000E-03 0. -1.
    9900012    2    1    2    0    0 -0.12600399234E+02  0.16237548288E+02  0.40083481414E+02  0.46142317438E+02  0.99999970539E+01 0.  0.
         12    1    1    2    0    0  0.12600399234E+02 -0.16237548288E+02 -0.40083481414E+02  0.45045682562E+02  0.00000000000E+00 0. -1.
         11    1    3    3    0    0 -0.76648392471E+01  0.51182074050E+01  0.11340288311E+02  0.14613279815E+02  0.51100000000E-03 0. -1.
        -11    1    3    3    0    0 -0.24925277930E+01  0.45563856164E+01  0.17755146526E+02  0.18499150605E+02  0.51100000000E-03 0.  1.
        -12    1    3    3    0    0 -0.24430321936E+01  0.65629552663E+01  0.10988046577E+02  0.13029887018E+02  0.00000000000E+00 0.  1.
</event>
<event>
 7    1  0.1445801E-008  0.4614232E+02  0.7816164E-02  0.1320468E+00
        -11   -1    0    0    0    0  0.00000000000E+00  0.00000000000E+00  0.45593999997E+02  0.45594000000E+02  0.51100000000E-03 0. -1.
         11   -1    0    0    0    0 -0.00000000000E+00 -0.00000000000E+00 -0.45593999997E+02  0.45594000000E+02  0.51100000000E-03 0.  1.
    9900012    2    1    2    0    0 -0.43149121971E+02 -0.12862052064E+02 -0.13544115419E+01  0.46142317179E+02  0.99999946964E+01 0.  0.
         12    1    1    2    0    0  0.43149121971E+02  0.12862052064E+02  0.13544115419E+01  0.45045682821E+02  0.00000000000E+00 0. -1.
         11    1    3    3    0    0 -0.11073866129E+02 -0.19738561687E+01  0.10625586389E+01  0.11298480001E+02  0.51100000000E-03 0. -1.
        -11    1    3    3    0    0 -0.28497662150E+01 -0.21826458729E+01 -0.24558542224E+01  0.43492908283E+01  0.51100000000E-03 0.  1.
        -12    1    3    3    0    0 -0.29225489627E+02 -0.87055500223E+01  0.38884041708E-01  0.30494546350E+02  0.00000000000E+00 0.  1.
</event>
<event>
 7    1  0.1445801E-008  0.4614232E+02  0.7816164E-02  0.1320468E+00
        -11   -1    0    0    0    0  0.00000000000E+00  0.00000000000E+00  0.45593999997E+02  0.45594000000E+02  0.51100000000E-03 0. -1.
         11   -1    0    0    0    0 -0.00000000000E+00 -0.00000000000E+00 -0.45593999997E+02  0.45594000000E+02  0.51100000000E-03 0.  1.
    9900012    2    1    2    0    0  0.23552986195E+00  0.23071089513E+02 -0.38688278018E+02  0.46142317614E+02  0.99999986592E+01 0.  0.
         12    1    1    2    0    0 -0.23552986195E+00 -0.23071089513E+02  0.38688278018E+02  0.45045682386E+02  0.00000000000E+00 0. -1.
         11    1    3    3    0    0  0.44535155020E+01  0.85184911630E+01 -0.12807106717E+02  0.16013134445E+02  0.51100000000E-03 0. -1.
        -11    1    3    3    0    0 -0.39282044124E+01  0.86575997703E+01 -0.15297848013E+02  0.18011356911E+02  0.51100000000E-03 0.  1.
         12    1    3    3    0    0 -0.28978122762E+00  0.58949985801E+01 -0.10583323287E+02  0.12117826258E+02  0.00000000000E+00 0. -1.
</event>
<event>
 7    1  0.1445801E-008  0.4614232E+02  0.7816164E-02  0.1320468E+00
        -11   -1    0    0    0    0  0.00000000000E+00  0.00000000000E+00  0.45593999997E+02  0.45594000000E+02  0.51100000000E-03 0.  1.
         11   -1    0    0    0    0 -0.00000000000E+00 -0.00000000000E+00 -0.45593999997E+02  0.45594000000E+02  0.51100000000E-03 0. -1.
    9900012    2    1    2    0    0 -0.33515740512E+02  0.20692725228E+02  0.21854511891E+02  0.46142318416E+02  0.10000005968E+02 0.  0.
         12    1    1    2    0    0  0.33515740512E+02 -0.20692725228E+02 -0.21854511891E+02  0.45045681584E+02  0.00000000000E+00 0. -1.
         11    1    3    3    0    0 -0.19544821871E+01  0.14722835525E+01  0.37747777851E+01  0.44985072042E+01  0.51100000000E-03 0. -1.
        -11    1    3    3    0    0 -0.28799830789E+02  0.17696121965E+02  0.14251749223E+02  0.36683720398E+02  0.51100000000E-03 0.  1.
        -12    1    3    3    0    0 -0.27614275361E+01  0.15243197111E+01  0.38279848823E+01  0.49600908135E+01  0.00000000000E+00 0.  1.
</event>
<event>
 7    1  0.1445801E-008  0.4614232E+02  0.7816164E-02  0.1320468E+00
        -11   -1    0    0    0    0  0.00000000000E+00  0.00000000000E+00  0.45593999997E+02  0.45594000000E+02  0.51100000000E-03 0.  1.
         11   -1    0    0    0    0 -0.00000000000E+00 -0.00000000000E+00 -0.45593999997E+02  0.45594000000E+02  0.51100000000E-03 0. -1.
    9900012    2    1    2    0    0 -0.33993890939E+01 -0.18294955318E+01  0.44879958404E+02  0.46142316895E+02  0.99999920981E+01 0.  0.
         12    1    1    2    0    0  0.33993890939E+01  0.18294955318E+01 -0.44879958404E+02  0.45045683105E+02  0.00000000000E+00 0. -1.
         11    1    3    3    0    0 -0.30678708630E+01  0.12270105794E+01  0.70021481576E+01  0.77425748738E+01  0.51100000000E-03 0. -1.
        -11    1    3    3    0    0 -0.22391975175E+01 -0.16215871695E+01  0.30929555564E+02  0.31052873589E+02  0.51100000000E-03 0.  1.
        -12    1    3    3    0    0  0.19076792866E+01 -0.14349189417E+01  0.69482546820E+01  0.73468684319E+01  0.00000000000E+00 0.  1.
</event>
<event>
 7    1  0.1445801E-008  0.4614232E+02  0.7816164E-02  0.1320468E+00
        -11   -1    0    0    0    0  0.00000000000E+00  0.00000000000E+00  0.45593999997E+02  0.45594000000E+02  0.51100000000E-03 0.  1.
         11   -1    0    0    0    0 -0.00000000000E+00 -0.00000000000E+00 -0.45593999997E+02  0.45594000000E+02  0.51100000000E-03 0. -1.
    9900012    2    1    2    0    0  0.25899920645E+02  0.36645838140E+02 -0.39230277054E+01  0.46142317757E+02  0.99999999636E+01 0.  0.
         12    1    1    2    0    0 -0.25899920645E+02 -0.36645838140E+02  0.39230277054E+01  0.45045682243E+02  0.00000000000E+00 0. -1.
         11    1    3    3    0    0  0.13070584395E+02  0.16041867871E+02 -0.54060724469E+01  0.21387083035E+02  0.51100000000E-03 0. -1.
        -11    1    3    3    0    0  0.62672920083E+01  0.14288079771E+02  0.83745096937E+00  0.15624643901E+02  0.51100000000E-03 0.  1.
         12    1    3    3    0    0  0.65620442418E+01  0.63158904983E+01  0.64559377220E+00  0.91305908208E+01  0.00000000000E+00 0. -1.
</event>
<event>
 7    1  0.1445801E-008  0.4614232E+02  0.7816164E-02  0.1320468E+00
        -11   -1    0    0    0    0  0.00000000000E+00  0.00000000000E+00  0.45593999997E+02  0.45594000000E+02  0.51100000000E-03 0.  1.
         11   -1    0    0    0    0 -0.00000000000E+00 -0.00000000000E+00 -0.45593999997E+02  0.45594000000E+02  0.51100000000E-03 0. -1.
    9900012    2    1    2    0    0 -0.30425527250E+02 -0.10276771453E+01  0.33201576321E+02  0.46142317643E+02  0.99999989255E+01 0.  0.
         12    1    1    2    0    0  0.30425527250E+02  0.10276771453E+01 -0.33201576321E+02  0.45045682357E+02  0.00000000000E+00 0. -1.
         11    1    3    3    0    0 -0.25544402865E+02  0.25551171952E+00  0.26037131322E+02  0.36476211587E+02  0.51100000000E-03 0.  1.
        -11    1    3    3    0    0 -0.24692268530E+01  0.81150036284E+00  0.54559112060E+01  0.60433915511E+01  0.51100000000E-03 0. -1.
         12    1    3    3    0    0 -0.24118975323E+01 -0.20946892277E+01  0.17085337930E+01  0.36227145056E+01  0.00000000000E+00 0. -1.
</event>
<event>
 7    1  0.1445801E-008  0.4614232E+02  0.7816164E-02  0.1320468E+00
        -11   -1    0    0    0    0  0.00000000000E+00  0.00000000000E+00  0.45593999997E+02  0.45594000000E+02  0.51100000000E-03 0.  1.
         11   -1    0    0    0    0 -0.00000000000E+00 -0.00000000000E+00 -0.45593999997E+02  0.45594000000E+02  0.51100000000E-03 0. -1.
    9900012    2    1    2    0    0 -0.12695985093E+01 -0.61360803187E+01  0.44607736192E+02  0.46142317741E+02  0.99999998135E+01 0.  0.
         12    1    1    2    0    0  0.12695985093E+01  0.61360803187E+01 -0.44607736192E+02  0.45045682259E+02  0.00000000000E+00 0. -1.
         11    1    3    3    0    0  0.24199655017E+00 -0.27290319702E+01  0.21836691991E+01  0.35035109900E+01  0.51100000000E-03 0. -1.
        -11    1    3    3    0    0 -0.15061466288E+01 -0.10782039300E+01  0.14507830616E+02  0.14625599161E+02  0.51100000000E-03 0.  1.
         12    1    3    3    0    0 -0.54484306819E-02 -0.23288444186E+01  0.27916236377E+02  0.28013207590E+02  0.00000000000E+00 0. -1.
</event>
<event>
 7    1  0.1445801E-008  0.4614232E+02  0.7816164E-02  0.1320468E+00
        -11   -1    0    0    0    0  0.00000000000E+00  0.00000000000E+00  0.45593999997E+02  0.45594000000E+02  0.51100000000E-03 0.  1.
         11   -1    0    0    0    0 -0.00000000000E+00 -0.00000000000E+00 -0.45593999997E+02  0.45594000000E+02  0.51100000000E-03 0. -1.
    9900012    2    1    2    0    0 -0.10590839209E+02  0.43342480008E+02 -0.61949168926E+01  0.46142318257E+02  0.10000004525E+02 0.  0.
         12    1    1    2    0    0  0.10590839209E+02 -0.43342480008E+02  0.61949168926E+01  0.45045681743E+02  0.00000000000E+00 0. -1.
         11    1    3    3    0    0 -0.24083369908E+01  0.76676636436E+01  0.26150486616E+01  0.84517236453E+01  0.51100000000E-03 0. -1.
        -11    1    3    3    0    0 -0.39823582710E+01  0.21098591536E+02 -0.48247700007E+01  0.22006547844E+02  0.51100000000E-03 0.  1.
        -12    1    3    3    0    0 -0.42001439475E+01  0.14576224828E+02 -0.39851955534E+01  0.15684046768E+02  0.00000000000E+00 0.  1.
</event>
<event>
 7    1  0.1445801E-008  0.4614232E+02  0.7816164E-02  0.1320468E+00
        -11   -1    0    0    0    0  0.00000000000E+00  0.00000000000E+00  0.45593999997E+02  0.45594000000E+02  0.51100000000E-03 0. -1.
         11   -1    0    0    0    0 -0.00000000000E+00 -0.00000000000E+00 -0.45593999997E+02  0.45594000000E+02  0.51100000000E-03 0.  1.
    9900012    2    1    2    0    0 -0.80182104762E+01  0.25317102041E+02 -0.36384970711E+02  0.46142318202E+02  0.10000004018E+02 0.  0.
         12    1    1    2    0    0  0.80182104762E+01 -0.25317102041E+02  0.36384970711E+02  0.45045681798E+02  0.00000000000E+00 0. -1.
         11    1    3    3    0    0 -0.12507217959E+01  0.11826494968E+02 -0.16691911559E+02  0.20495126250E+02  0.51100000000E-03 0. -1.
        -11    1    3    3    0    0 -0.72737482216E+01  0.13295756183E+02 -0.16482031885E+02  0.22390665935E+02  0.51100000000E-03 0.  1.
         12    1    3    3    0    0  0.50625954136E+00  0.19485089052E+00 -0.32110272668E+01  0.32565260172E+01  0.00000000000E+00 0. -1.
</event>
<event>
 7    1  0.1445801E-008  0.4614232E+02  0.7816164E-02  0.1320468E+00
        -11   -1    0    0    0    0  0.00000000000E+00  0.00000000000E+00  0.45593999997E+02  0.45594000000E+02  0.51100000000E-03 0. -1.
         11   -1    0    0    0    0 -0.00000000000E+00 -0.00000000000E+00 -0.45593999997E+02  0.45594000000E+02  0.51100000000E-03 0.  1.
    9900012    2    1    2    0    0 -0.24176987419E+02 -0.30056454534E+02 -0.23263626467E+02  0.46142317674E+02  0.99999992049E+01 0.  0.
         12    1    1    2    0    0  0.24176987419E+02  0.30056454534E+02  0.23263626467E+02  0.45045682326E+02  0.00000000000E+00 0. -1.
         11    1    3    3    0    0 -0.32595097115E+01 -0.24896442148E+01 -0.64170345554E+00  0.41514473936E+01  0.51100000000E-03 0. -1.
        -11    1    3    3    0    0 -0.14606709071E+02 -0.21564770757E+02 -0.20171042019E+02  0.32943379064E+02  0.51100000000E-03 0.  1.
        -12    1    3    3    0    0 -0.63107686358E+01 -0.60020395621E+01 -0.24508809923E+01  0.90474912168E+01  0.00000000000E+00 0.  1.
</event>
<event>
 7    1  0.1445801E-008  0.4614232E+02  0.7816164E-02  0.1320468E+00
        -11   -1    0    0    0    0  0.00000000000E+00  0.00000000000E+00  0.45593999997E+02  0.45594000000E+02  0.51100000000E-03 0. -1.
         11   -1    0    0    0    0 -0.00000000000E+00 -0.00000000000E+00 -0.45593999997E+02  0.45594000000E+02  0.51100000000E-03 0.  1.
    9900012    2    1    2    0    0  0.26168885400E+02  0.31714233512E+02 -0.18398648507E+02  0.46142318329E+02  0.10000005181E+02 0.  0.
         12    1    1    2    0    0 -0.26168885400E+02 -0.31714233512E+02  0.18398648507E+02  0.45045681671E+02  0.00000000000E+00 0. -1.
         11    1    3    3    0    0  0.53240522014E+01  0.19314886578E+01 -0.11370626455E+01  0.57765986532E+01  0.51100000000E-03 0. -1.
        -11    1    3    3    0    0  0.10744969507E+02  0.17892595070E+02 -0.10486376934E+02  0.23357299277E+02  0.51100000000E-03 0.  1.
        -12    1    3    3    0    0  0.10099863691E+02  0.11890149784E+02 -0.67752089276E+01  0.17008420399E+02  0.00000000000E+00 0.  1.
</event>
<event>
 7    1  0.1445801E-008  0.4614232E+02  0.7816164E-02  0.1320468E+00
        -11   -1    0    0    0    0  0.00000000000E+00  0.00000000000E+00  0.45593999997E+02  0.45594000000E+02  0.51100000000E-03 0.  1.
         11   -1    0    0    0    0 -0.00000000000E+00 -0.00000000000E+00 -0.45593999997E+02  0.45594000000E+02  0.51100000000E-03 0. -1.
    9900012    2    1    2    0    0 -0.14709397928E+01 -0.40286490912E+02  0.20098468154E+02  0.46142318343E+02  0.10000005304E+02 0.  0.
         12    1    1    2    0    0  0.14709397928E+01  0.40286490912E+02 -0.20098468154E+02  0.45045681657E+02  0.00000000000E+00 0. -1.
         11    1    3    3    0    0 -0.42574092548E+01 -0.23946279341E+02  0.11058326899E+02  0.26717717378E+02  0.51100000000E-03 0. -1.
        -11    1    3    3    0    0  0.39209881087E+01 -0.12657814782E+02  0.78016002514E+01  0.15377236083E+02  0.51100000000E-03 0.  1.
        -12    1    3    3    0    0 -0.11345186467E+01 -0.36823967880E+01  0.12385410035E+01  0.40473648812E+01  0.00000000000E+00 0.  1.
</event>
<event>
 7    1  0.1445801E-008  0.4614232E+02  0.7816164E-02  0.1320468E+00
        -11   -1    0    0    0    0  0.00000000000E+00  0.00000000000E+00  0.45593999997E+02  0.45594000000E+02  0.51100000000E-03 0.  1.
         11   -1    0    0    0    0 -0.00000000000E+00 -0.00000000000E+00 -0.45593999997E+02  0.45594000000E+02  0.51100000000E-03 0. -1.
    9900012    2    1    2    0    0 -0.39444784925E+02 -0.16830778430E+02  0.13782139967E+02  0.46142317162E+02  0.99999945323E+01 0.  0.
         12    1    1    2    0    0  0.39444784925E+02  0.16830778430E+02 -0.13782139967E+02  0.45045682838E+02  0.00000000000E+00 0. -1.
         11    1    3    3    0    0 -0.12068272297E+01 -0.31028960592E+01  0.84848266581E+00  0.34357414065E+01  0.51100000000E-03 0. -1.
        -11    1    3    3    0    0 -0.15967227078E+02 -0.44567357750E+01  0.52989066318E+01  0.17403828489E+02  0.51100000000E-03 0.  1.
         12    1    3    3    0    0 -0.22270730617E+02 -0.92711465961E+01  0.76347506690E+01  0.25302747266E+02  0.00000000000E+00 0. -1.
</event>
<event>
 7    1  0.1445801E-008  0.4614232E+02  0.7816164E-02  0.1320468E+00
        -11   -1    0    0    0    0  0.00000000000E+00  0.00000000000E+00  0.45593999997E+02  0.45594000000E+02  0.51100000000E-03 0.  1.
         11   -1    0    0    0    0 -0.00000000000E+00 -0.00000000000E+00 -0.45593999997E+02  0.45594000000E+02  0.51100000000E-03 0. -1.
    9900012    2    1    2    0    0 -0.42499397976E+02  0.25594184300E+01  0.14709320188E+02  0.46142317061E+02  0.99999936182E+01 0.  0.
         12    1    1    2    0    0  0.42499397976E+02 -0.25594184300E+01 -0.14709320188E+02  0.45045682939E+02  0.00000000000E+00 0. -1.
         11    1    3    3    0    0 -0.29897612390E+02 -0.25817624540E+00  0.13259704847E+02  0.32707088750E+02  0.51100000000E-03 0. -1.
        -11    1    3    3    0    0 -0.11226265445E+02  0.30256916805E+01  0.30034274535E+00  0.11630737380E+02  0.51100000000E-03 0.  1.
         12    1    3    3    0    0 -0.13755201411E+01 -0.20809700512E+00  0.11492725948E+01  0.18044909308E+01  0.00000000000E+00 0. -1.
</event>
<event>
 7    1  0.1445801E-008  0.4614232E+02  0.7816164E-02  0.1320468E+00
        -11   -1    0    0    0    0  0.00000000000E+00  0.00000000000E+00  0.45593999997E+02  0.45594000000E+02  0.51100000000E-03 0.  1.
         11   -1    0    0    0    0 -0.00000000000E+00 -0.00000000000E+00 -0.45593999997E+02  0.45594000000E+02  0.51100000000E-03 0. -1.
    9900012    2    1    2    0    0 -0.12151005359E+02 -0.35734431346E+02  0.24586926628E+02  0.46142317900E+02  0.10000001266E+02 0.  0.
         12    1    1    2    0    0  0.12151005359E+02  0.35734431346E+02 -0.24586926628E+02  0.45045682100E+02  0.00000000000E+00 0. -1.
         11    1    3    3    0    0 -0.12511112236E+01 -0.91256483866E-03  0.73061313099E+00  0.14488188068E+01  0.51100000000E-03 0. -1.
        -11    1    3    3    0    0 -0.48187978965E+01 -0.88231172054E+01  0.46436265199E+01  0.11073909784E+02  0.51100000000E-03 0.  1.
        -12    1    3    3    0    0 -0.60810962391E+01 -0.26910401575E+02  0.19212686977E+02  0.33619589309E+02  0.00000000000E+00 0.  1.
</event>
<event>
 7    1  0.1445801E-008  0.4614232E+02  0.7816164E-02  0.1320468E+00
        -11   -1    0    0    0    0  0.00000000000E+00  0.00000000000E+00  0.45593999997E+02  0.45594000000E+02  0.51100000000E-03 0.  1.
         11   -1    0    0    0    0 -0.00000000000E+00 -0.00000000000E+00 -0.45593999997E+02  0.45594000000E+02  0.51100000000E-03 0. -1.
    9900012    2    1    2    0    0 -0.21226796395E+02  0.39659312464E+02 -0.23823294944E+01  0.46142318252E+02  0.10000004473E+02 0.  0.
         12    1    1    2    0    0  0.21226796395E+02 -0.39659312464E+02  0.23823294944E+01  0.45045681748E+02  0.00000000000E+00 0. -1.
         11    1    3    3    0    0 -0.75463626734E+01  0.12254526603E+02 -0.35011100432E+01  0.14811440972E+02  0.51100000000E-03 0. -1.
        -11    1    3    3    0    0 -0.10729444692E+02  0.25821383728E+02  0.10229514548E+01  0.27980551656E+02  0.51100000000E-03 0.  1.
         12    1    3    3    0    0 -0.29509890299E+01  0.15834021326E+01  0.95829094000E-01  0.33503256235E+01  0.00000000000E+00 0. -1.
</event>
<event>
 7    1  0.1445801E-008  0.4614232E+02  0.7816164E-02  0.1320468E+00
        -11   -1    0    0    0    0  0.00000000000E+00  0.00000000000E+00  0.45593999997E+02  0.45594000000E+02  0.51100000000E-03 0.  1.
         11   -1    0    0    0    0 -0.00000000000E+00 -0.00000000000E+00 -0.45593999997E+02  0.45594000000E+02  0.51100000000E-03 0. -1.
    9900012    2    1    2    0    0 -0.42234654243E+02  0.14543164105E+02 -0.58175535123E+01  0.46142316854E+02  0.99999917318E+01 0.  0.
         12    1    1    2    0    0  0.42234654243E+02 -0.14543164105E+02  0.58175535123E+01  0.45045683146E+02  0.00000000000E+00 0. -1.
         11    1    3    3    0    0 -0.15143721711E+01 -0.21678412507E+00  0.70920071323E+00  0.16862041224E+01  0.51100000000E-03 0. -1.
        -11    1    3    3    0    0 -0.10073760786E+02  0.46398945113E+01  0.15180656962E+01  0.11194364706E+02  0.51100000000E-03 0.  1.
        -12    1    3    3    0    0 -0.30646521286E+02  0.10120053719E+02 -0.80448199217E+01  0.33261748026E+02  0.00000000000E+00 0.  1.
</event>
<event>
 7    1  0.1445801E-008  0.4614232E+02  0.7816164E-02  0.1320468E+00
        -11   -1    0    0    0    0  0.00000000000E+00  0.00000000000E+00  0.45593999997E+02  0.45594000000E+02  0.51100000000E-03 0.  1.
         11   -1    0    0    0    0 -0.00000000000E+00 -0.00000000000E+00 -0.45593999997E+02  0.45594000000E+02  0.51100000000E-03 0. -1.
    9900012    2    1    2    0    0  0.20118996659E+02 -0.22397159920E+02  0.33506816766E+02  0.46142316868E+02  0.99999918550E+01 0.  0.
         12    1    1    2    0    0 -0.20118996659E+02  0.22397159920E+02 -0.33506816766E+02  0.45045683132E+02  0.00000000000E+00 0. -1.
         11    1    3    3    0    0  0.18409820553E+01 -0.61612319587E+01  0.69494159180E+01  0.94680714002E+01  0.51100000000E-03 0. -1.
        -11    1    3    3    0    0  0.57174235543E+01 -0.89915984880E+01  0.13155187256E+02  0.16929167950E+02  0.51100000000E-03 0.  1.
         12    1    3    3    0    0  0.12560591049E+02 -0.72443294735E+01  0.13402213592E+02  0.19745077518E+02  0.00000000000E+00 0. -1.
</event>
<event>
 7    1  0.1514946E-008  0.4614232E+02  0.7816164E-02  0.1320468E+00
        -11   -1    0    0    0    0  0.00000000000E+00  0.00000000000E+00  0.45593999997E+02  0.45594000000E+02  0.51100000000E-03 0.  1.
         11   -1    0    0    0    0 -0.00000000000E+00 -0.00000000000E+00 -0.45593999997E+02  0.45594000000E+02  0.51100000000E-03 0. -1.
    9900012    2    1    2    0    0  0.39905422257E+02 -0.16620530048E+02  0.12666051757E+02  0.46142316393E+02  0.99999875203E+01 0.  0.
         12    1    1    2    0    0 -0.39905422257E+02  0.16620530048E+02 -0.12666051757E+02  0.45045683607E+02  0.00000000000E+00 0. -1.
         11    1    3    3    0    0  0.25062304518E+02 -0.10403697049E+02  0.11911273408E+02  0.29635020744E+02  0.51100000000E-03 0. -1.
        -11    1    3    3    0    0  0.12685749936E+02 -0.60905093088E+01  0.16493876403E+01  0.14168381521E+02  0.51100000000E-03 0.  1.
         12    1    3    3    0    0  0.21573678030E+01 -0.12632369055E+00 -0.89460929162E+00  0.23389141277E+01  0.00000000000E+00 0. -1.
</event>
<event>
 7    1  0.1445801E-008  0.4614232E+02  0.7816164E-02  0.1320468E+00
        -11   -1    0    0    0    0  0.00000000000E+00  0.00000000000E+00  0.45593999997E+02  0.45594000000E+02  0.51100000000E-03 0. -1.
         11   -1    0    0    0    0 -0.00000000000E+00 -0.00000000000E+00 -0.45593999997E+02  0.45594000000E+02  0.51100000000E-03 0.  1.
    9900012    2    1    2    0    0  0.28935300200E+02 -0.29027100828E+02 -0.18689282085E+02  0.46142318242E+02  0.10000004387E+02 0.  0.
         12    1    1    2    0    0 -0.28935300200E+02  0.29027100828E+02  0.18689282085E+02  0.45045681758E+02  0.00000000000E+00 0. -1.
         11    1    3    3    0    0  0.48784465652E+01 -0.26601683222E+01 -0.33430692247E-01  0.55566945448E+01  0.51100000000E-03 0. -1.
        -11    1    3    3    0    0  0.18175347168E+02 -0.16466309117E+02 -0.12459574105E+02  0.27508608975E+02  0.51100000000E-03 0.  1.
        -12    1    3    3    0    0  0.58815064662E+01 -0.99006233893E+01 -0.61962772884E+01  0.13077014722E+02  0.00000000000E+00 0.  1.
</event>
<event>
 7    1  0.1445801E-008  0.4614232E+02  0.7816164E-02  0.1320468E+00
        -11   -1    0    0    0    0  0.00000000000E+00  0.00000000000E+00  0.45593999997E+02  0.45594000000E+02  0.51100000000E-03 0.  1.
         11   -1    0    0    0    0 -0.00000000000E+00 -0.00000000000E+00 -0.45593999997E+02  0.45594000000E+02  0.51100000000E-03 0. -1.
    9900012    2    1    2    0    0 -0.27329833799E+02 -0.24933533655E+02  0.25700438418E+02  0.46142318177E+02  0.10000003794E+02 0.  0.
         12    1    1    2    0    0  0.27329833799E+02  0.24933533655E+02 -0.25700438418E+02  0.45045681823E+02  0.00000000000E+00 0. -1.
         11    1    3    3    0    0 -0.16091780798E+02 -0.15065378300E+02  0.14226454560E+02  0.26235530148E+02  0.51100000000E-03 0. -1.
        -11    1    3    3    0    0 -0.63992972246E+01 -0.88502896107E+01  0.98362395059E+01  0.14697967174E+02  0.51100000000E-03 0.  1.
         12    1    3    3    0    0 -0.48387557761E+01 -0.10178657443E+01  0.16377443528E+01  0.52088208550E+01  0.00000000000E+00 0. -1.
</event>
<event>
 7    1  0.1445801E-008  0.4614233E+02  0.7816164E-02  0.1320468E+00
        -11   -1    0    0    0    0  0.00000000000E+00  0.00000000000E+00  0.45593999997E+02  0.45594000000E+02  0.51100000000E-03 0.  1.
         11   -1    0    0    0    0 -0.00000000000E+00 -0.00000000000E+00 -0.45593999997E+02  0.45594000000E+02  0.51100000000E-03 0. -1.
    9900012    2    1    2    0    0  0.40903187206E+02 -0.10049786119E+02  0.15970083115E+02  0.46142328961E+02  0.10000102131E+02 0.  0.
         12    1    1    2    0    0 -0.40903187206E+02  0.10049786119E+02 -0.15970083115E+02  0.45045671039E+02  0.00000000000E+00 0. -1.
         11    1    3    3    0    0  0.17625234693E+02 -0.51836857715E+01  0.41285389842E+01  0.18829878666E+02  0.51100000000E-03 0. -1.
        -11    1    3    3    0    0  0.94763645952E+01 -0.48526354674E+01  0.67266534118E+01  0.12593546891E+02  0.51100000000E-03 0.  1.
        -12    1    3    3    0    0  0.13801587917E+02 -0.13464880049E-01  0.51148907192E+01  0.14718903404E+02  0.00000000000E+00 0.  1.
</event>
<event>
 7    1  0.1445801E-008  0.4614232E+02  0.7816164E-02  0.1320468E+00
        -11   -1    0    0    0    0  0.00000000000E+00  0.00000000000E+00  0.45593999997E+02  0.45594000000E+02  0.51100000000E-03 0. -1.
         11   -1    0    0    0    0 -0.00000000000E+00 -0.00000000000E+00 -0.45593999997E+02  0.45594000000E+02  0.51100000000E-03 0.  1.
    9900012    2    1    2    0    0  0.44590090058E+02 -0.59083519316E+01  0.24348820326E+01  0.46142318692E+02  0.10000008493E+02 0.  0.
         12    1    1    2    0    0 -0.44590090058E+02  0.59083519316E+01 -0.24348820326E+01  0.45045681308E+02  0.00000000000E+00 0. -1.
         11    1    3    3    0    0  0.63606767052E+00  0.66463979513E+00 -0.61380159568E+00  0.11059298345E+01  0.51100000000E-03 0. -1.
        -11    1    3    3    0    0  0.38530846404E+02 -0.37215829839E+01  0.36394764891E+01  0.38880870539E+02  0.51100000000E-03 0.  1.
         12    1    3    3    0    0  0.54231759841E+01 -0.28514087428E+01 -0.59079286078E+00  0.61555183192E+01  0.00000000000E+00 0. -1.
</event>
<event>
 7    1  0.1445801E-008  0.4614232E+02  0.7816164E-02  0.1320468E+00
        -11   -1    0    0    0    0  0.00000000000E+00  0.00000000000E+00  0.45593999997E+02  0.45594000000E+02  0.51100000000E-03 0.  1.
         11   -1    0    0    0    0 -0.00000000000E+00 -0.00000000000E+00 -0.45593999997E+02  0.45594000000E+02  0.51100000000E-03 0. -1.
    9900012    2    1    2    0    0  0.80149528810E+00  0.31385555562E+02  0.32301980459E+02  0.46142318362E+02  0.10000005483E+02 0.  0.
         12    1    1    2    0    0 -0.80149528810E+00 -0.31385555562E+02 -0.32301980459E+02  0.45045681638E+02  0.00000000000E+00 0. -1.
         11    1    3    3    0    0  0.21521318754E+00  0.10590072770E+02  0.80279074964E+01  0.13290720711E+02  0.51100000000E-03 0. -1.
        -11    1    3    3    0    0  0.18097289654E+01  0.78171864375E+01  0.14450374708E+02  0.16528667587E+02  0.51100000000E-03 0.  1.
        -12    1    3    3    0    0 -0.12234468649E+01  0.12978296355E+02  0.98236982543E+01  0.16322930065E+02  0.00000000000E+00 0.  1.
</event>
<event>
 7    1  0.1445801E-008  0.4614232E+02  0.7816164E-02  0.1320468E+00
        -11   -1    0    0    0    0  0.00000000000E+00  0.00000000000E+00  0.45593999997E+02  0.45594000000E+02  0.51100000000E-03 0.  1.
         11   -1    0    0    0    0 -0.00000000000E+00 -0.00000000000E+00 -0.45593999997E+02  0.45594000000E+02  0.51100000000E-03 0. -1.
    9900012    2    1    2    0    0  0.19362978813E+02 -0.40663848782E+02 -0.79995986818E+00  0.46142317831E+02  0.10000000642E+02 0.  0.
         12    1    1    2    0    0 -0.19362978813E+02  0.40663848782E+02  0.79995986818E+00  0.45045682169E+02  0.00000000000E+00 0. -1.
         11    1    3    3    0    0  0.19299282683E+01 -0.53397349802E+01 -0.17778917239E+01  0.59496463780E+01  0.51100000000E-03 0.  1.
        -11    1    3    3    0    0  0.46298126970E+01 -0.16569533032E+02 -0.18749905464E+01  0.17306073509E+02  0.51100000000E-03 0. -1.
        -12    1    3    3    0    0  0.12803237848E+02 -0.18754580770E+02  0.28529224021E+01  0.22886597944E+02  0.00000000000E+00 0.  1.
</event>
<event>
 7    1  0.1445801E-008  0.4614232E+02  0.7816164E-02  0.1320468E+00
        -11   -1    0    0    0    0  0.00000000000E+00  0.00000000000E+00  0.45593999997E+02  0.45594000000E+02  0.51100000000E-03 0.  1.
         11   -1    0    0    0    0 -0.00000000000E+00 -0.00000000000E+00 -0.45593999997E+02  0.45594000000E+02  0.51100000000E-03 0. -1.
    9900012    2    1    2    0    0 -0.41161572403E+02 -0.99089619917E+01 -0.15383462586E+02  0.46142317726E+02  0.99999996755E+01 0.  0.
         12    1    1    2    0    0  0.41161572403E+02  0.99089619917E+01  0.15383462586E+02  0.45045682274E+02  0.00000000000E+00 0. -1.
         11    1    3    3    0    0 -0.87087252921E+01 -0.30098065485E+01 -0.52646877392E+01  0.10612151946E+02  0.51100000000E-03 0. -1.
        -11    1    3    3    0    0 -0.25725009694E+02 -0.85611804940E+01 -0.85020933549E+01  0.28414002303E+02  0.51100000000E-03 0.  1.
        -12    1    3    3    0    0 -0.67278374164E+01  0.16620250507E+01 -0.16166814923E+01  0.71161634761E+01  0.00000000000E+00 0.  1.
</event>
<event>
 7    1  0.1445801E-008  0.4614232E+02  0.7816164E-02  0.1320468E+00
        -11   -1    0    0    0    0  0.00000000000E+00  0.00000000000E+00  0.45593999997E+02  0.45594000000E+02  0.51100000000E-03 0.  1.
         11   -1    0    0    0    0 -0.00000000000E+00 -0.00000000000E+00 -0.45593999997E+02  0.45594000000E+02  0.51100000000E-03 0. -1.
    9900012    2    1    2    0    0 -0.60553561639E+01 -0.32149795821E+02  0.30965086274E+02  0.46142320101E+02  0.10000021336E+02 0.  0.
         12    1    1    2    0    0  0.60553561639E+01  0.32149795821E+02 -0.30965086274E+02  0.45045679899E+02  0.00000000000E+00 0. -1.
         11    1    3    3    0    0 -0.11185115299E+01 -0.22644216312E+02  0.21206541826E+02  0.31043985197E+02  0.51100000000E-03 0. -1.
        -11    1    3    3    0    0 -0.30543029086E+01 -0.30614848384E+01  0.60256761285E+01  0.74168880766E+01  0.51100000000E-03 0.  1.
         12    1    3    3    0    0 -0.18825417254E+01 -0.64440946702E+01  0.37328683196E+01  0.76814468272E+01  0.00000000000E+00 0. -1.
</event>
<event>
 7    1  0.1445801E-008  0.4614232E+02  0.7816164E-02  0.1320468E+00
        -11   -1    0    0    0    0  0.00000000000E+00  0.00000000000E+00  0.45593999997E+02  0.45594000000E+02  0.51100000000E-03 0.  1.
         11   -1    0    0    0    0 -0.00000000000E+00 -0.00000000000E+00 -0.45593999997E+02  0.45594000000E+02  0.51100000000E-03 0. -1.
    9900012    2    1    2    0    0  0.37664170478E+02 -0.17972862293E+02  0.16955823370E+02  0.46142318043E+02  0.10000002570E+02 0.  0.
         12    1    1    2    0    0 -0.37664170478E+02  0.17972862293E+02 -0.16955823370E+02  0.45045681957E+02  0.00000000000E+00 0. -1.
         11    1    3    3    0    0  0.48974626442E+01 -0.24779164797E+00  0.18740689446E+01  0.52496357705E+01  0.51100000000E-03 0. -1.
        -11    1    3    3    0    0  0.26621159278E+02 -0.12393089996E+02  0.14462800020E+02  0.32732970926E+02  0.51100000000E-03 0.  1.
        -12    1    3    3    0    0  0.61455485564E+01 -0.53319806494E+01  0.61895440457E+00  0.81597113466E+01  0.00000000000E+00 0.  1.
</event>
<event>
 7    1  0.1445801E-008  0.4614232E+02  0.7816164E-02  0.1320468E+00
        -11   -1    0    0    0    0  0.00000000000E+00  0.00000000000E+00  0.45593999997E+02  0.45594000000E+02  0.51100000000E-03 0. -1.
         11   -1    0    0    0    0 -0.00000000000E+00 -0.00000000000E+00 -0.45593999997E+02  0.45594000000E+02  0.51100000000E-03 0.  1.
    9900012    2    1    2    0    0 -0.40346805694E+02  0.93912577900E+01 -0.17693292586E+02  0.46142322570E+02  0.10000043854E+02 0.  0.
         12    1    1    2    0    0  0.40346805694E+02 -0.93912577900E+01  0.17693292586E+02  0.45045677430E+02  0.00000000000E+00 0. -1.
         11    1    3    3    0    0 -0.21702948058E+02  0.39193213167E+01 -0.52164991560E+01  0.22662543937E+02  0.51100000000E-03 0. -1.
        -11    1    3    3    0    0 -0.10651444800E+02  0.11339664973E+01 -0.56628443172E+01  0.12116392300E+02  0.51100000000E-03 0.  1.
         12    1    3    3    0    0 -0.79924128357E+01  0.43379699760E+01 -0.68139491130E+01  0.11363386333E+02  0.00000000000E+00 0. -1.
</event>
<event>
 7    1  0.1445801E-008  0.4614232E+02  0.7816164E-02  0.1320468E+00
        -11   -1    0    0    0    0  0.00000000000E+00  0.00000000000E+00  0.45593999997E+02  0.45594000000E+02  0.51100000000E-03 0.  1.
         11   -1    0    0    0    0 -0.00000000000E+00 -0.00000000000E+00 -0.45593999997E+02  0.45594000000E+02  0.51100000000E-03 0. -1.
    9900012    2    1    2    0    0 -0.13015092725E+02  0.21821719106E+02  0.37195878695E+02  0.46142318129E+02  0.10000003351E+02 0.  0.
         12    1    1    2    0    0  0.13015092725E+02 -0.21821719106E+02 -0.37195878695E+02  0.45045681871E+02  0.00000000000E+00 0. -1.
         11    1    3    3    0    0 -0.22145395333E+00  0.89639105752E+01  0.11634082091E+02  0.14688519361E+02  0.51100000000E-03 0. -1.
        -11    1    3    3    0    0 -0.17487887059E+01  0.32454346581E+01  0.51332408657E+01  0.63199106089E+01  0.51100000000E-03 0.  1.
         12    1    3    3    0    0 -0.11044850065E+02  0.96123738730E+01  0.20428555738E+02  0.25133888159E+02  0.00000000000E+00 0. -1.
</event>
<event>
 7    1  0.1445801E-008  0.4614232E+02  0.7816164E-02  0.1320468E+00
        -11   -1    0    0    0    0  0.00000000000E+00  0.00000000000E+00  0.45593999997E+02  0.45594000000E+02  0.51100000000E-03 0. -1.
         11   -1    0    0    0    0 -0.00000000000E+00 -0.00000000000E+00 -0.45593999997E+02  0.45594000000E+02  0.51100000000E-03 0.  1.
    9900012    2    1    2    0    0  0.38446243540E+02 -0.78608553965E+01 -0.22118022763E+02  0.46142316291E+02  0.99999865908E+01 0.  0.
         12    1    1    2    0    0 -0.38446243540E+02  0.78608553965E+01  0.22118022763E+02  0.45045683709E+02  0.00000000000E+00 0. -1.
         11    1    3    3    0    0  0.24337046274E+02 -0.83209420994E+01 -0.16713220701E+02  0.30673468099E+02  0.51100000000E-03 0. -1.
        -11    1    3    3    0    0  0.79457569890E+01  0.89388203755E-01 -0.47546990669E+01  0.92601408119E+01  0.51100000000E-03 0.  1.
         12    1    3    3    0    0  0.61634402764E+01  0.37069849908E+00 -0.65010299568E+00  0.62087073794E+01  0.00000000000E+00 0. -1.
</event>
<event>
 7    1  0.1445801E-008  0.4614232E+02  0.7816164E-02  0.1320468E+00
        -11   -1    0    0    0    0  0.00000000000E+00  0.00000000000E+00  0.45593999997E+02  0.45594000000E+02  0.51100000000E-03 0. -1.
         11   -1    0    0    0    0 -0.00000000000E+00 -0.00000000000E+00 -0.45593999997E+02  0.45594000000E+02  0.51100000000E-03 0.  1.
    9900012    2    1    2    0    0 -0.68485959037E-01  0.20514967450E+02 -0.40102927503E+02  0.46142319029E+02  0.10000011565E+02 0.  0.
         12    1    1    2    0    0  0.68485959037E-01 -0.20514967450E+02  0.40102927503E+02  0.45045680971E+02  0.00000000000E+00 0. -1.
         11    1    3    3    0    0 -0.23480325780E+01  0.11421819210E+01 -0.26979193571E+01  0.37545446656E+01  0.51100000000E-03 0. -1.
        -11    1    3    3    0    0  0.21840679607E+01  0.76489760041E+01 -0.11858430320E+02  0.14279333202E+02  0.51100000000E-03 0.  1.
        -12    1    3    3    0    0  0.95478658210E-01  0.11723809525E+02 -0.25546577826E+02  0.28108441162E+02  0.00000000000E+00 0.  1.
</event>
<event>
 7    1  0.1445801E-008  0.4614232E+02  0.7816164E-02  0.1320468E+00
        -11   -1    0    0    0    0  0.00000000000E+00  0.00000000000E+00  0.45593999997E+02  0.45594000000E+02  0.51100000000E-03 0.  1.
         11   -1    0    0    0    0 -0.00000000000E+00 -0.00000000000E+00 -0.45593999997E+02  0.45594000000E+02  0.51100000000E-03 0. -1.
    9900012    2    1    2    0    0 -0.22825920883E+01 -0.22434402018E+01  0.44931839660E+02  0.46142318012E+02  0.10000002285E+02 0.  0.
         12    1    1    2    0    0  0.22825920883E+01  0.22434402018E+01 -0.44931839660E+02  0.45045681988E+02  0.00000000000E+00 0. -1.
         11    1    3    3    0    0  0.28632205155E+01  0.52686585014E+00  0.68828074274E+01  0.74731959488E+01  0.51100000000E-03 0. -1.
        -11    1    3    3    0    0 -0.47807496783E+01 -0.17974370715E+01  0.36108131725E+02  0.36467568118E+02  0.51100000000E-03 0.  1.
         12    1    3    3    0    0 -0.36506292549E+00 -0.97286898048E+00  0.19409005073E+01  0.22015539448E+01  0.00000000000E+00 0. -1.
</event>
<event>
 7    1  0.1445801E-008  0.4614232E+02  0.7816164E-02  0.1320468E+00
        -11   -1    0    0    0    0  0.00000000000E+00  0.00000000000E+00  0.45593999997E+02  0.45594000000E+02  0.51100000000E-03 0.  1.
         11   -1    0    0    0    0 -0.00000000000E+00 -0.00000000000E+00 -0.45593999997E+02  0.45594000000E+02  0.51100000000E-03 0. -1.
    9900012    2    1    2    0    0 -0.40475829126E+01  0.19438810016E+02  0.40433444591E+02  0.46142315370E+02  0.99999781975E+01 0.  0.
         12    1    1    2    0    0  0.40475829126E+01 -0.19438810016E+02 -0.40433444591E+02  0.45045684630E+02  0.00000000000E+00 0. -1.
         11    1    3    3    0    0 -0.23329029920E+01  0.17842203700E+01  0.33606191900E+01  0.44631424243E+01  0.51100000000E-03 0. -1.
        -11    1    3    3    0    0  0.17265904208E+01  0.52423495926E+01  0.16580413954E+02  0.17474938365E+02  0.51100000000E-03 0.  1.
        -12    1    3    3    0    0 -0.34412703414E+01  0.12412240053E+02  0.20492411447E+02  0.24204234580E+02  0.00000000000E+00 0.  1.
</event>
<event>
 7    1  0.1445801E-008  0.4614232E+02  0.7816164E-02  0.1320468E+00
        -11   -1    0    0    0    0  0.00000000000E+00  0.00000000000E+00  0.45593999997E+02  0.45594000000E+02  0.51100000000E-03 0.  1.
         11   -1    0    0    0    0 -0.00000000000E+00 -0.00000000000E+00 -0.45593999997E+02  0.45594000000E+02  0.51100000000E-03 0. -1.
    9900012    2    1    2    0    0  0.10948511280E+02  0.40379769910E+02  0.16694849695E+02  0.46142315150E+02  0.99999761927E+01 0.  0.
         12    1    1    2    0    0 -0.10948511280E+02 -0.40379769910E+02 -0.16694849695E+02  0.45045684850E+02  0.00000000000E+00 0. -1.
         11    1    3    3    0    0  0.49203058771E+01  0.20852852525E+02  0.40739676957E+01  0.21809357657E+02  0.51100000000E-03 0. -1.
        -11    1    3    3    0    0  0.37638746708E+01  0.16995378944E+02  0.10506574062E+02  0.20332185244E+02  0.51100000000E-03 0.  1.
         12    1    3    3    0    0  0.22643307324E+01  0.25315384408E+01  0.21143079371E+01  0.40007722499E+01  0.00000000000E+00 0. -1.
</event>
<event>
 7    1  0.1445801E-008  0.4614232E+02  0.7816164E-02  0.1320468E+00
        -11   -1    0    0    0    0  0.00000000000E+00  0.00000000000E+00  0.45593999997E+02  0.45594000000E+02  0.51100000000E-03 0.  1.
         11   -1    0    0    0    0 -0.00000000000E+00 -0.00000000000E+00 -0.45593999997E+02  0.45594000000E+02  0.51100000000E-03 0. -1.
    9900012    2    1    2    0    0 -0.21109505771E+02 -0.39790064962E+02 -0.50306172403E+00  0.46142316803E+02  0.99999912600E+01 0.  0.
         12    1    1    2    0    0  0.21109505771E+02  0.39790064962E+02  0.50306172403E+00  0.45045683197E+02  0.00000000000E+00 0. -1.
         11    1    3    3    0    0 -0.46597058870E+01 -0.93311066470E+01  0.22401527990E+01  0.10667740859E+02  0.51100000000E-03 0. -1.
        -11    1    3    3    0    0 -0.11080107910E+02 -0.25077428503E+02 -0.41940444820E+01  0.27735108094E+02  0.51100000000E-03 0.  1.
        -12    1    3    3    0    0 -0.53696919749E+01 -0.53815298124E+01  0.14508299589E+01  0.77394678497E+01  0.00000000000E+00 0.  1.
</event>
<event>
 7    1  0.1445801E-008  0.4614232E+02  0.7816164E-02  0.1320468E+00
        -11   -1    0    0    0    0  0.00000000000E+00  0.00000000000E+00  0.45593999997E+02  0.45594000000E+02  0.51100000000E-03 0.  1.
         11   -1    0    0    0    0 -0.00000000000E+00 -0.00000000000E+00 -0.45593999997E+02  0.45594000000E+02  0.51100000000E-03 0. -1.
    9900012    2    1    2    0    0 -0.35699661069E+02 -0.12660323086E+02  0.24379580667E+02  0.46142317248E+02  0.99999953215E+01 0.  0.
         12    1    1    2    0    0  0.35699661069E+02  0.12660323086E+02 -0.24379580667E+02  0.45045682752E+02  0.00000000000E+00 0. -1.
         11    1    3    3    0    0 -0.77577629232E+01 -0.64724499964E+00  0.84743176330E+01  0.11507209534E+02  0.51100000000E-03 0. -1.
        -11    1    3    3    0    0 -0.24827660789E+02 -0.92998187470E+01  0.12646899288E+02  0.29374196684E+02  0.51100000000E-03 0.  1.
        -12    1    3    3    0    0 -0.31142373568E+01 -0.27132593394E+01  0.32583637464E+01  0.52609110295E+01  0.00000000000E+00 0.  1.
</event>
<event>
 7    1  0.1445801E-008  0.4614232E+02  0.7816164E-02  0.1320468E+00
        -11   -1    0    0    0    0  0.00000000000E+00  0.00000000000E+00  0.45593999997E+02  0.45594000000E+02  0.51100000000E-03 0.  1.
         11   -1    0    0    0    0 -0.00000000000E+00 -0.00000000000E+00 -0.45593999997E+02  0.45594000000E+02  0.51100000000E-03 0. -1.
    9900012    2    1    2    0    0 -0.95155300447E+01  0.10980889034E+02  0.42637874263E+02  0.46142316992E+02  0.99999929830E+01 0.  0.
         12    1    1    2    0    0  0.95155300447E+01 -0.10980889034E+02 -0.42637874263E+02  0.45045683008E+02  0.00000000000E+00 0. -1.
         11    1    3    3    0    0 -0.74152399104E+00  0.36672471366E+01  0.51649480091E+01  0.63777149190E+01  0.51100000000E-03 0. -1.
        -11    1    3    3    0    0 -0.19604567893E+01  0.56969146106E+01  0.13364731976E+02  0.14659955251E+02  0.51100000000E-03 0.  1.
        -12    1    3    3    0    0 -0.68135492644E+01  0.16167272867E+01  0.24108194278E+02  0.25104646822E+02  0.00000000000E+00 0.  1.
</event>
<event>
 7    1  0.1445801E-008  0.4614232E+02  0.7816164E-02  0.1320468E+00
        -11   -1    0    0    0    0  0.00000000000E+00  0.00000000000E+00  0.45593999997E+02  0.45594000000E+02  0.51100000000E-03 0.  1.
         11   -1    0    0    0    0 -0.00000000000E+00 -0.00000000000E+00 -0.45593999997E+02  0.45594000000E+02  0.51100000000E-03 0. -1.
    9900012    2    1    2    0    0 -0.32997539453E+00  0.20408630770E+02  0.40155851277E+02  0.46142317793E+02  0.10000000295E+02 0.  0.
         12    1    1    2    0    0  0.32997539453E+00 -0.20408630770E+02 -0.40155851277E+02  0.45045682207E+02  0.00000000000E+00 0. -1.
         11    1    3    3    0    0 -0.58495011419E+00 -0.63722749548E+00  0.23634058579E+01  0.25167266493E+01  0.51100000000E-03 0. -1.
        -11    1    3    3    0    0  0.25708773475E+01  0.15873951480E+02  0.26673947346E+02  0.31146287310E+02  0.51100000000E-03 0.  1.
        -12    1    3    3    0    0 -0.23159026279E+01  0.51719067853E+01  0.11118498074E+02  0.12479303835E+02  0.00000000000E+00 0.  1.
</event>
<event>
 7    1  0.1445801E-008  0.4614232E+02  0.7816164E-02  0.1320468E+00
        -11   -1    0    0    0    0  0.00000000000E+00  0.00000000000E+00  0.45593999997E+02  0.45594000000E+02  0.51100000000E-03 0.  1.
         11   -1    0    0    0    0 -0.00000000000E+00 -0.00000000000E+00 -0.45593999997E+02  0.45594000000E+02  0.51100000000E-03 0. -1.
    9900012    2    1    2    0    0 -0.38834214151E+02  0.60260596120E+01  0.22015992021E+02  0.46142317767E+02  0.10000000052E+02 0.  0.
         12    1    1    2    0    0  0.38834214151E+02 -0.60260596120E+01 -0.22015992021E+02  0.45045682233E+02  0.00000000000E+00 0. -1.
         11    1    3    3    0    0 -0.98410417077E+01  0.11998258114E+01  0.15176755066E+01  0.10029407913E+02  0.51100000000E-03 0. -1.
        -11    1    3    3    0    0 -0.28142716753E+02  0.39931077743E+01  0.18960398155E+02  0.34168027663E+02  0.51100000000E-03 0.  1.
        -12    1    3    3    0    0 -0.85045569051E+00  0.83312602627E+00  0.15379183596E+01  0.19448821913E+01  0.00000000000E+00 0.  1.
</event>
<event>
 7    1  0.1445801E-008  0.4614232E+02  0.7816164E-02  0.1320468E+00
        -11   -1    0    0    0    0  0.00000000000E+00  0.00000000000E+00  0.45593999997E+02  0.45594000000E+02  0.51100000000E-03 0.  1.
         11   -1    0    0    0    0 -0.00000000000E+00 -0.00000000000E+00 -0.45593999997E+02  0.45594000000E+02  0.51100000000E-03 0. -1.
    9900012    2    1    2    0    0 -0.38741651513E+02 -0.19278818650E+02  0.12510994884E+02  0.46142318703E+02  0.10000008589E+02 0.  0.
         12    1    1    2    0    0  0.38741651513E+02  0.19278818650E+02 -0.12510994884E+02  0.45045681297E+02  0.00000000000E+00 0. -1.
         11    1    3    3    0    0 -0.10160021462E+01  0.52583818248E+00  0.20562316669E+00  0.11623456040E+01  0.51100000000E-03 0. -1.
        -11    1    3    3    0    0 -0.36150213965E+02 -0.16784964841E+02  0.11425102457E+02  0.41462102948E+02  0.51100000000E-03 0.  1.
         12    1    3    3    0    0 -0.15754354018E+01 -0.30196919918E+01  0.88026926074E+00  0.35178701513E+01  0.00000000000E+00 0. -1.
</event>
<event>
 7    1  0.1445801E-008  0.4614232E+02  0.7816164E-02  0.1320468E+00
        -11   -1    0    0    0    0  0.00000000000E+00  0.00000000000E+00  0.45593999997E+02  0.45594000000E+02  0.51100000000E-03 0.  1.
         11   -1    0    0    0    0 -0.00000000000E+00 -0.00000000000E+00 -0.45593999997E+02  0.45594000000E+02  0.51100000000E-03 0. -1.
    9900012    2    1    2    0    0  0.31877250475E+02 -0.29066745651E+02  0.12964516994E+02  0.46142317616E+02  0.99999986755E+01 0.  0.
         12    1    1    2    0    0 -0.31877250475E+02  0.29066745651E+02 -0.12964516994E+02  0.45045682384E+02  0.00000000000E+00 0. -1.
         11    1    3    3    0    0  0.50450319965E+01 -0.86592086550E+01  0.17427663718E+01  0.10172093062E+02  0.51100000000E-03 0.  1.
        -11    1    3    3    0    0  0.11369154055E+02 -0.11370302862E+02  0.34433080871E+01  0.16443777606E+02  0.51100000000E-03 0. -1.
        -12    1    3    3    0    0  0.15463064423E+02 -0.90372341341E+01  0.77784425347E+01  0.19526446948E+02  0.00000000000E+00 0.  1.
</event>
<event>
 7    1  0.1445801E-008  0.4614232E+02  0.7816164E-02  0.1320468E+00
        -11   -1    0    0    0    0  0.00000000000E+00  0.00000000000E+00  0.45593999997E+02  0.45594000000E+02  0.51100000000E-03 0.  1.
         11   -1    0    0    0    0 -0.00000000000E+00 -0.00000000000E+00 -0.45593999997E+02  0.45594000000E+02  0.51100000000E-03 0. -1.
    9900012    2    1    2    0    0 -0.37635871318E+02  0.14260708718E+02  0.20230839842E+02  0.46142317591E+02  0.99999984509E+01 0.  0.
         12    1    1    2    0    0  0.37635871318E+02 -0.14260708718E+02 -0.20230839842E+02  0.45045682409E+02  0.00000000000E+00 0. -1.
         11    1    3    3    0    0 -0.13111771798E+02  0.24544442181E+01  0.84909797214E+01  0.15812640292E+02  0.51100000000E-03 0.  1.
        -11    1    3    3    0    0 -0.10137086759E+02  0.82855577383E+01  0.45066886449E+01  0.13846343842E+02  0.51100000000E-03 0. -1.
         12    1    3    3    0    0 -0.14387012761E+02  0.35207067616E+01  0.72331714754E+01  0.16483333457E+02  0.00000000000E+00 0. -1.
</event>
<event>
 7    1  0.1487525E-008  0.4614232E+02  0.7816164E-02  0.1320468E+00
        -11   -1    0    0    0    0  0.00000000000E+00  0.00000000000E+00  0.45593999997E+02  0.45594000000E+02  0.51100000000E-03 0.  1.
         11   -1    0    0    0    0 -0.00000000000E+00 -0.00000000000E+00 -0.45593999997E+02  0.45594000000E+02  0.51100000000E-03 0. -1.
    9900012    2    1    2    0    0 -0.10948530748E+02 -0.36578867900E+02  0.23900409308E+02  0.46142317994E+02  0.10000002120E+02 0.  0.
         12    1    1    2    0    0  0.10948530748E+02  0.36578867900E+02 -0.23900409308E+02  0.45045682006E+02  0.00000000000E+00 0. -1.
         11    1    3    3    0    0 -0.36883975858E+01 -0.12788191596E+02  0.12343995983E+02  0.18152585439E+02  0.51100000000E-03 0. -1.
        -11    1    3    3    0    0 -0.50293944015E+01 -0.17200368393E+02  0.10960457956E+02  0.21006644657E+02  0.51100000000E-03 0.  1.
         12    1    3    3    0    0 -0.22307387604E+01 -0.65903079111E+01  0.59595536924E+00  0.69830878974E+01  0.00000000000E+00 0. -1.
</event>
<event>
 7    1  0.1445801E-008  0.4614231E+02  0.7816164E-02  0.1320468E+00
        -11   -1    0    0    0    0  0.00000000000E+00  0.00000000000E+00  0.45593999997E+02  0.45594000000E+02  0.51100000000E-03 0. -1.
         11   -1    0    0    0    0 -0.00000000000E+00 -0.00000000000E+00 -0.45593999997E+02  0.45594000000E+02  0.51100000000E-03 0.  1.
    9900012    2    1    2    0    0  0.22759768108E+02  0.26509593554E+02 -0.28431464750E+02  0.46142314496E+02  0.99999702215E+01 0.  0.
         12    1    1    2    0    0 -0.22759768108E+02 -0.26509593554E+02  0.28431464750E+02  0.45045685504E+02  0.00000000000E+00 0. -1.
         11    1    3    3    0    0  0.11136830033E+02  0.11708517574E+02 -0.97409348749E+01  0.18868073020E+02  0.51100000000E-03 0. -1.
        -11    1    3    3    0    0  0.55882212937E+01  0.11704796890E+02 -0.13603367100E+02  0.18795799642E+02  0.51100000000E-03 0.  1.
        -12    1    3    3    0    0  0.60347167812E+01  0.30962790899E+01 -0.50871627755E+01  0.84784418342E+01  0.00000000000E+00 0.  1.
</event>
<event>
 7    1  0.1445801E-008  0.4614232E+02  0.7816164E-02  0.1320468E+00
        -11   -1    0    0    0    0  0.00000000000E+00  0.00000000000E+00  0.45593999997E+02  0.45594000000E+02  0.51100000000E-03 0.  1.
         11   -1    0    0    0    0 -0.00000000000E+00 -0.00000000000E+00 -0.45593999997E+02  0.45594000000E+02  0.51100000000E-03 0. -1.
    9900012    2    1    2    0    0  0.32498726735E+02 -0.31126125073E+02 -0.20274636929E+01  0.46142317516E+02  0.99999977632E+01 0.  0.
         12    1    1    2    0    0 -0.32498726735E+02  0.31126125073E+02  0.20274636929E+01  0.45045682484E+02  0.00000000000E+00 0. -1.
         11    1    3    3    0    0  0.13852482979E+01 -0.53004926644E+01  0.36332100822E-01  0.54786362916E+01  0.51100000000E-03 0. -1.
        -11    1    3    3    0    0  0.18004429484E+02 -0.15556129108E+02 -0.30133161104E+01  0.23984009425E+02  0.51100000000E-03 0.  1.
         12    1    3    3    0    0  0.13109048954E+02 -0.10269503301E+02  0.94952031668E+00  0.16679671799E+02  0.00000000000E+00 0. -1.
</event>
<event>
 7    1  0.1445801E-008  0.4614232E+02  0.7816164E-02  0.1320468E+00
        -11   -1    0    0    0    0  0.00000000000E+00  0.00000000000E+00  0.45593999997E+02  0.45594000000E+02  0.51100000000E-03 0.  1.
         11   -1    0    0    0    0 -0.00000000000E+00 -0.00000000000E+00 -0.45593999997E+02  0.45594000000E+02  0.51100000000E-03 0. -1.
    9900012    2    1    2    0    0  0.38687683236E+02 -0.20378693059E+02  0.10820594896E+02  0.46142320530E+02  0.10000025251E+02 0.  0.
         12    1    1    2    0    0 -0.38687683236E+02  0.20378693059E+02 -0.10820594896E+02  0.45045679470E+02  0.00000000000E+00 0. -1.
         11    1    3    3    0    0  0.16967554070E+01 -0.16600930265E+01 -0.79330007633E-01  0.23751171085E+01  0.51100000000E-03 0. -1.
        -11    1    3    3    0    0  0.17610189223E+02 -0.56100024490E+01  0.81819434848E+01  0.20212251022E+02  0.51100000000E-03 0.  1.
        -12    1    3    3    0    0  0.19380738607E+02 -0.13108597583E+02  0.27179814187E+01  0.23554952399E+02  0.00000000000E+00 0.  1.
</event>
<event>
 7    1  0.1445801E-008  0.4614232E+02  0.7816164E-02  0.1320468E+00
        -11   -1    0    0    0    0  0.00000000000E+00  0.00000000000E+00  0.45593999997E+02  0.45594000000E+02  0.51100000000E-03 0. -1.
         11   -1    0    0    0    0 -0.00000000000E+00 -0.00000000000E+00 -0.45593999997E+02  0.45594000000E+02  0.51100000000E-03 0.  1.
    9900012    2    1    2    0    0 -0.17924446635E+01  0.42623774387E+02 -0.14460790334E+02  0.46142318099E+02  0.10000003081E+02 0.  0.
         12    1    1    2    0    0  0.17924446635E+01 -0.42623774387E+02  0.14460790334E+02  0.45045681901E+02  0.00000000000E+00 0. -1.
         11    1    3    3    0    0  0.14554932482E+01  0.37104480537E+01 -0.33459276650E+01  0.52039521093E+01  0.51100000000E-03 0. -1.
        -11    1    3    3    0    0 -0.32168672682E+01  0.32190806094E+02 -0.11140893407E+02  0.34215723552E+02  0.51100000000E-03 0.  1.
         12    1    3    3    0    0 -0.31070643508E-01  0.67225202389E+01  0.26030738030E-01  0.67226424378E+01  0.00000000000E+00 0. -1.
</event>
<event>
 7    1  0.1445801E-008  0.4614232E+02  0.7816164E-02  0.1320468E+00
        -11   -1    0    0    0    0  0.00000000000E+00  0.00000000000E+00  0.45593999997E+02  0.45594000000E+02  0.51100000000E-03 0. -1.
         11   -1    0    0    0    0 -0.00000000000E+00 -0.00000000000E+00 -0.45593999997E+02  0.45594000000E+02  0.51100000000E-03 0.  1.
    9900012    2    1    2    0    0  0.12811511626E+02  0.16952818653E+00 -0.43185062971E+02  0.46142320587E+02  0.10000025767E+02 0.  0.
         12    1    1    2    0    0 -0.12811511626E+02 -0.16952818653E+00  0.43185062971E+02  0.45045679413E+02  0.00000000000E+00 0. -1.
         11    1    3    3    0    0  0.80901816844E+01 -0.35537912812E+01 -0.20967028358E+02  0.22752950371E+02  0.51100000000E-03 0. -1.
        -11    1    3    3    0    0  0.12976430021E+01 -0.48333243115E+00 -0.89350407814E+01  0.90417056812E+01  0.51100000000E-03 0.  1.
         12    1    3    3    0    0  0.34236869397E+01  0.42066518988E+01 -0.13282993832E+02  0.14347664534E+02  0.00000000000E+00 0. -1.
</event>
<event>
 7    1  0.1445801E-008  0.4614232E+02  0.7816164E-02  0.1320468E+00
        -11   -1    0    0    0    0  0.00000000000E+00  0.00000000000E+00  0.45593999997E+02  0.45594000000E+02  0.51100000000E-03 0.  1.
         11   -1    0    0    0    0 -0.00000000000E+00 -0.00000000000E+00 -0.45593999997E+02  0.45594000000E+02  0.51100000000E-03 0. -1.
    9900012    2    1    2    0    0 -0.19432631476E+02 -0.16428040574E+02  0.37169960301E+02  0.46142316167E+02  0.99999854626E+01 0.  0.
         12    1    1    2    0    0  0.19432631476E+02  0.16428040574E+02 -0.37169960301E+02  0.45045683833E+02  0.00000000000E+00 0. -1.
         11    1    3    3    0    0 -0.14496435789E+02 -0.70769577396E+01  0.19568821477E+02  0.25360771986E+02  0.51100000000E-03 0. -1.
        -11    1    3    3    0    0  0.16691790351E+00 -0.17392407750E+01  0.41762821064E+01  0.45270467805E+01  0.51100000000E-03 0.  1.
        -12    1    3    3    0    0 -0.51031135905E+01 -0.76118420599E+01  0.13424856718E+02  0.16254497401E+02  0.00000000000E+00 0.  1.
</event>
<event>
 7    1  0.1445801E-008  0.4614232E+02  0.7816164E-02  0.1320468E+00
        -11   -1    0    0    0    0  0.00000000000E+00  0.00000000000E+00  0.45593999997E+02  0.45594000000E+02  0.51100000000E-03 0.  1.
         11   -1    0    0    0    0 -0.00000000000E+00 -0.00000000000E+00 -0.45593999997E+02  0.45594000000E+02  0.51100000000E-03 0. -1.
    9900012    2    1    2    0    0  0.19851804310E+02 -0.29381390170E+02  0.27780447197E+02  0.46142317974E+02  0.10000001944E+02 0.  0.
         12    1    1    2    0    0 -0.19851804310E+02  0.29381390170E+02 -0.27780447197E+02  0.45045682026E+02  0.00000000000E+00 0. -1.
         11    1    3    3    0    0 -0.73335833495E+00  0.10591667176E+00  0.43709496753E+00  0.86028196572E+00  0.51100000000E-03 0. -1.
        -11    1    3    3    0    0  0.12153541109E+01 -0.22932308039E+01  0.11156691768E+01  0.28250152403E+01  0.51100000000E-03 0.  1.
         12    1    3    3    0    0  0.19369808534E+02 -0.27194076038E+02  0.26227683053E+02  0.42457020768E+02  0.00000000000E+00 0. -1.
</event>
<event>
 7    1  0.1445801E-008  0.4614232E+02  0.7816164E-02  0.1320468E+00
        -11   -1    0    0    0    0  0.00000000000E+00  0.00000000000E+00  0.45593999997E+02  0.45594000000E+02  0.51100000000E-03 0. -1.
         11   -1    0    0    0    0 -0.00000000000E+00 -0.00000000000E+00 -0.45593999997E+02  0.45594000000E+02  0.51100000000E-03 0.  1.
    9900012    2    1    2    0    0 -0.37177904871E+02 -0.24189113128E+02 -0.78615425437E+01  0.46142315904E+02  0.99999830669E+01 0.  0.
         12    1    1    2    0    0  0.37177904871E+02  0.24189113128E+02  0.78615425437E+01  0.45045684096E+02  0.00000000000E+00 0. -1.
         11    1    3    3    0    0 -0.15270704418E+02 -0.72730457010E+01 -0.55629913513E+01  0.17805574415E+02  0.51100000000E-03 0. -1.
        -11    1    3    3    0    0 -0.21700523263E+02 -0.16940540762E+02 -0.29172080735E+01  0.27684015865E+02  0.51100000000E-03 0.  1.
         12    1    3    3    0    0 -0.20667718969E+00  0.24473335198E-01  0.61865688105E+00  0.65272562485E+00  0.00000000000E+00 0. -1.
</event>
<event>
 7    1  0.1445801E-008  0.4614232E+02  0.7816164E-02  0.1320468E+00
        -11   -1    0    0    0    0  0.00000000000E+00  0.00000000000E+00  0.45593999997E+02  0.45594000000E+02  0.51100000000E-03 0.  1.
         11   -1    0    0    0    0 -0.00000000000E+00 -0.00000000000E+00 -0.45593999997E+02  0.45594000000E+02  0.51100000000E-03 0. -1.
    9900012    2    1    2    0    0 -0.84513489967E+01  0.41700556878E+02  0.14790261617E+02  0.46142316716E+02  0.99999904739E+01 0.  0.
         12    1    1    2    0    0  0.84513489967E+01 -0.41700556878E+02 -0.14790261617E+02  0.45045683284E+02  0.00000000000E+00 0. -1.
         11    1    3    3    0    0 -0.47554413466E+01  0.16972686624E+02  0.79434169952E+01  0.19333499100E+02  0.51100000000E-03 0. -1.
        -11    1    3    3    0    0 -0.42571404603E+01  0.10836958708E+02  0.53906649294E+01  0.12830517822E+02  0.51100000000E-03 0.  1.
         12    1    3    3    0    0  0.56123281019E+00  0.13890911546E+02  0.14561796920E+01  0.13978299794E+02  0.00000000000E+00 0. -1.
</event>
<event>
 7    1  0.1445801E-008  0.4614232E+02  0.7816164E-02  0.1320468E+00
        -11   -1    0    0    0    0  0.00000000000E+00  0.00000000000E+00  0.45593999997E+02  0.45594000000E+02  0.51100000000E-03 0.  1.
         11   -1    0    0    0    0 -0.00000000000E+00 -0.00000000000E+00 -0.45593999997E+02  0.45594000000E+02  0.51100000000E-03 0. -1.
    9900012    2    1    2    0    0  0.39272042740E+02  0.17984743912E+02  0.12781592462E+02  0.46142318071E+02  0.10000002830E+02 0.  0.
         12    1    1    2    0    0 -0.39272042740E+02 -0.17984743912E+02 -0.12781592462E+02  0.45045681929E+02  0.00000000000E+00 0. -1.
         11    1    3    3    0    0  0.41596143412E+01 -0.81837517278E+00  0.17146660652E+01  0.45729869197E+01  0.51100000000E-03 0. -1.
        -11    1    3    3    0    0  0.25533960614E+02  0.14767279837E+02  0.64376015897E+01  0.30191031995E+02  0.51100000000E-03 0.  1.
        -12    1    3    3    0    0  0.95784677842E+01  0.40358392475E+01  0.46293248073E+01  0.11378299157E+02  0.00000000000E+00 0.  1.
</event>
<event>
 7    1  0.1445801E-008  0.4614232E+02  0.7816164E-02  0.1320468E+00
        -11   -1    0    0    0    0  0.00000000000E+00  0.00000000000E+00  0.45593999997E+02  0.45594000000E+02  0.51100000000E-03 0.  1.
         11   -1    0    0    0    0 -0.00000000000E+00 -0.00000000000E+00 -0.45593999997E+02  0.45594000000E+02  0.51100000000E-03 0. -1.
    9900012    2    1    2    0    0  0.15663877041E+02  0.18364434462E+02  0.38032935234E+02  0.46142315860E+02  0.99999826671E+01 0.  0.
         12    1    1    2    0    0 -0.15663877041E+02 -0.18364434462E+02 -0.38032935234E+02  0.45045684140E+02  0.00000000000E+00 0. -1.
         11    1    3    3    0    0  0.13193593747E+01  0.63257300306E+01  0.10941625142E+02  0.12707270777E+02  0.51100000000E-03 0. -1.
        -11    1    3    3    0    0  0.12894474321E+02  0.12607055279E+02  0.24748219177E+02  0.30621555538E+02  0.51100000000E-03 0.  1.
         12    1    3    3    0    0  0.14500433454E+01 -0.56835084798E+00  0.23430909150E+01  0.28134895461E+01  0.00000000000E+00 0. -1.
</event>
<event>
 7    1  0.1445801E-008  0.4614232E+02  0.7816164E-02  0.1320468E+00
        -11   -1    0    0    0    0  0.00000000000E+00  0.00000000000E+00  0.45593999997E+02  0.45594000000E+02  0.51100000000E-03 0.  1.
         11   -1    0    0    0    0 -0.00000000000E+00 -0.00000000000E+00 -0.45593999997E+02  0.45594000000E+02  0.51100000000E-03 0. -1.
    9900012    2    1    2    0    0  0.15833083374E+02  0.22586787166E+01  0.42110870072E+02  0.46142317223E+02  0.99999950908E+01 0.  0.
         12    1    1    2    0    0 -0.15833083374E+02 -0.22586787166E+01 -0.42110870072E+02  0.45045682777E+02  0.00000000000E+00 0. -1.
         11    1    3    3    0    0  0.16609436690E+01  0.16579885729E+01  0.39837363268E+01  0.46236149669E+01  0.51100000000E-03 0. -1.
        -11    1    3    3    0    0  0.86376928367E+01 -0.43308511878E-01  0.32386956591E+02  0.33519047878E+02  0.51100000000E-03 0.  1.
        -12    1    3    3    0    0  0.55344468679E+01  0.64399865556E+00  0.57401771538E+01  0.79996543775E+01  0.00000000000E+00 0.  1.
</event>
<event>
 7    1  0.1445801E-008  0.4614232E+02  0.7816164E-02  0.1320468E+00
        -11   -1    0    0    0    0  0.00000000000E+00  0.00000000000E+00  0.45593999997E+02  0.45594000000E+02  0.51100000000E-03 0.  1.
         11   -1    0    0    0    0 -0.00000000000E+00 -0.00000000000E+00 -0.45593999997E+02  0.45594000000E+02  0.51100000000E-03 0. -1.
    9900012    2    1    2    0    0  0.52592071439E+01 -0.40625722512E+02  0.18735119058E+02  0.46142320124E+02  0.10000021545E+02 0.  0.
         12    1    1    2    0    0 -0.52592071439E+01  0.40625722512E+02 -0.18735119058E+02  0.45045679876E+02  0.00000000000E+00 0. -1.
         11    1    3    3    0    0  0.22688322292E+01 -0.16128186290E+02  0.30777822797E+01  0.16575244695E+02  0.51100000000E-03 0. -1.
        -11    1    3    3    0    0  0.32100610341E+01 -0.11720822808E+02  0.92483414906E+01  0.15271345708E+02  0.51100000000E-03 0.  1.
         12    1    3    3    0    0 -0.21968611942E+00 -0.12776713414E+02  0.64089952879E+01  0.14295729721E+02  0.00000000000E+00 0. -1.
</event>
<event>
 7    1  0.1445801E-008  0.4614232E+02  0.7816164E-02  0.1320468E+00
        -11   -1    0    0    0    0  0.00000000000E+00  0.00000000000E+00  0.45593999997E+02  0.45594000000E+02  0.51100000000E-03 0.  1.
         11   -1    0    0    0    0 -0.00000000000E+00 -0.00000000000E+00 -0.45593999997E+02  0.45594000000E+02  0.51100000000E-03 0. -1.
    9900012    2    1    2    0    0  0.23638550481E+02 -0.10025365226E+02  0.37011140066E+02  0.46142317568E+02  0.99999982382E+01 0.  0.
         12    1    1    2    0    0 -0.23638550481E+02  0.10025365226E+02 -0.37011140066E+02  0.45045682432E+02  0.00000000000E+00 0. -1.
         11    1    3    3    0    0  0.14395047006E+02 -0.85247906446E+01  0.19820053496E+02  0.25936922614E+02  0.51100000000E-03 0. -1.
        -11    1    3    3    0    0  0.64461601803E+01  0.98564456525E+00  0.13265539475E+02  0.14781712150E+02  0.51100000000E-03 0.  1.
        -12    1    3    3    0    0  0.27973432950E+01 -0.24862191464E+01  0.39255470956E+01  0.54236828036E+01  0.00000000000E+00 0.  1.
</event>
<event>
 7    1  0.1445801E-008  0.4614232E+02  0.7816164E-02  0.1320468E+00
        -11   -1    0    0    0    0  0.00000000000E+00  0.00000000000E+00  0.45593999997E+02  0.45594000000E+02  0.51100000000E-03 0.  1.
         11   -1    0    0    0    0 -0.00000000000E+00 -0.00000000000E+00 -0.45593999997E+02  0.45594000000E+02  0.51100000000E-03 0. -1.
    9900012    2    1    2    0    0  0.38216866432E+02 -0.18901367046E+02  0.14536947616E+02  0.46142318719E+02  0.10000008731E+02 0.  0.
         12    1    1    2    0    0 -0.38216866432E+02  0.18901367046E+02 -0.14536947616E+02  0.45045681281E+02  0.00000000000E+00 0. -1.
         11    1    3    3    0    0  0.25470424027E+01  0.38929208949E+00  0.27498556408E+01  0.37683789138E+01  0.51100000000E-03 0. -1.
        -11    1    3    3    0    0  0.72722869095E+01 -0.55773301451E+01  0.25036959293E+01  0.95005927188E+01  0.51100000000E-03 0.  1.
         12    1    3    3    0    0  0.28397537120E+02 -0.13713328991E+02  0.92833960457E+01  0.32873347086E+02  0.00000000000E+00 0. -1.
</event>
<event>
 7    1  0.1445801E-008  0.4614232E+02  0.7816164E-02  0.1320468E+00
        -11   -1    0    0    0    0  0.00000000000E+00  0.00000000000E+00  0.45593999997E+02  0.45594000000E+02  0.51100000000E-03 0.  1.
         11   -1    0    0    0    0 -0.00000000000E+00 -0.00000000000E+00 -0.45593999997E+02  0.45594000000E+02  0.51100000000E-03 0. -1.
    9900012    2    1    2    0    0 -0.32714089654E+02 -0.23117955063E+02  0.20602470294E+02  0.46142319958E+02  0.10000020034E+02 0.  0.
         12    1    1    2    0    0  0.32714089654E+02  0.23117955063E+02 -0.20602470294E+02  0.45045680042E+02  0.00000000000E+00 0. -1.
         11    1    3    3    0    0 -0.68899097693E+01 -0.50855025584E+01  0.10260791748E+01  0.86247337138E+01  0.51100000000E-03 0. -1.
        -11    1    3    3    0    0 -0.17936493736E+02 -0.13421211612E+02  0.10881543100E+02  0.24904913354E+02  0.51100000000E-03 0.  1.
         12    1    3    3    0    0 -0.78876861486E+01 -0.46112408932E+01  0.86948480196E+01  0.12612672890E+02  0.00000000000E+00 0. -1.
</event>
<event>
 7    1  0.1445801E-008  0.4614232E+02  0.7816164E-02  0.1320468E+00
        -11   -1    0    0    0    0  0.00000000000E+00  0.00000000000E+00  0.45593999997E+02  0.45594000000E+02  0.51100000000E-03 0.  1.
         11   -1    0    0    0    0 -0.00000000000E+00 -0.00000000000E+00 -0.45593999997E+02  0.45594000000E+02  0.51100000000E-03 0. -1.
    9900012    2    1    2    0    0 -0.72242200278E+01 -0.43266016493E+02  0.10245781133E+02  0.46142316864E+02  0.99999918165E+01 0.  0.
         12    1    1    2    0    0  0.72242200278E+01  0.43266016493E+02 -0.10245781133E+02  0.45045683136E+02  0.00000000000E+00 0. -1.
         11    1    3    3    0    0 -0.77387090415E+01 -0.29484336767E+02  0.74673659578E+01  0.31384315937E+02  0.51100000000E-03 0. -1.
        -11    1    3    3    0    0 -0.11602686835E+01 -0.90167605032E+01  0.33200437926E+01  0.96783719930E+01  0.51100000000E-03 0.  1.
         12    1    3    3    0    0  0.16747576972E+01 -0.47649192231E+01 -0.54162861730E+00  0.50796289339E+01  0.00000000000E+00 0. -1.
</event>
<event>
 7    1  0.1445801E-008  0.4614232E+02  0.7816164E-02  0.1320468E+00
        -11   -1    0    0    0    0  0.00000000000E+00  0.00000000000E+00  0.45593999997E+02  0.45594000000E+02  0.51100000000E-03 0. -1.
         11   -1    0    0    0    0 -0.00000000000E+00 -0.00000000000E+00 -0.45593999997E+02  0.45594000000E+02  0.51100000000E-03 0.  1.
    9900012    2    1    2    0    0  0.37628663471E+02 -0.17408006113E+02 -0.17611318308E+02  0.46142317366E+02  0.99999963943E+01 0.  0.
         12    1    1    2    0    0 -0.37628663471E+02  0.17408006113E+02  0.17611318308E+02  0.45045682634E+02  0.00000000000E+00 0. -1.
         11    1    3    3    0    0  0.15165282223E+02 -0.95321314366E+01 -0.44217361613E+01  0.18449906926E+02  0.51100000000E-03 0. -1.
        -11    1    3    3    0    0  0.89680134611E+01 -0.30731644314E+01 -0.81674172186E+01  0.12513045566E+02  0.51100000000E-03 0.  1.
        -12    1    3    3    0    0  0.13495367787E+02 -0.48027102448E+01 -0.50221649283E+01  0.15179364874E+02  0.00000000000E+00 0.  1.
</event>
<event>
 7    1  0.1445801E-008  0.4614232E+02  0.7816164E-02  0.1320468E+00
        -11   -1    0    0    0    0  0.00000000000E+00  0.00000000000E+00  0.45593999997E+02  0.45594000000E+02  0.51100000000E-03 0.  1.
         11   -1    0    0    0    0 -0.00000000000E+00 -0.00000000000E+00 -0.45593999997E+02  0.45594000000E+02  0.51100000000E-03 0. -1.
    9900012    2    1    2    0    0  0.93594478138E+01 -0.35122176642E+02  0.26607272807E+02  0.46142317391E+02  0.99999966269E+01 0.  0.
         12    1    1    2    0    0 -0.93594478138E+01  0.35122176642E+02 -0.26607272807E+02  0.45045682609E+02  0.00000000000E+00 0. -1.
         11    1    3    3    0    0  0.82236885961E+00 -0.11391381678E+02  0.41000259136E+01  0.12134664389E+02  0.51100000000E-03 0. -1.
        -11    1    3    3    0    0  0.15325670170E+01 -0.75603338041E+01  0.86460595982E+01  0.11587137512E+02  0.51100000000E-03 0.  1.
        -12    1    3    3    0    0  0.70045119372E+01 -0.16170461160E+02  0.13861187296E+02  0.22420515490E+02  0.00000000000E+00 0.  1.
</event>
<event>
 7    1  0.1445801E-008  0.4614232E+02  0.7816164E-02  0.1320468E+00
        -11   -1    0    0    0    0  0.00000000000E+00  0.00000000000E+00  0.45593999997E+02  0.45594000000E+02  0.51100000000E-03 0.  1.
         11   -1    0    0    0    0 -0.00000000000E+00 -0.00000000000E+00 -0.45593999997E+02  0.45594000000E+02  0.51100000000E-03 0. -1.
    9900012    2    1    2    0    0  0.32514058677E+02  0.19372832538E+02  0.24426276950E+02  0.46142315880E+02  0.99999828496E+01 0.  0.
         12    1    1    2    0    0 -0.32514058677E+02 -0.19372832538E+02 -0.24426276950E+02  0.45045684120E+02  0.00000000000E+00 0. -1.
         11    1    3    3    0    0  0.79826089289E+01  0.44605777268E+01  0.96252892247E+01  0.13276482663E+02  0.51100000000E-03 0. -1.
        -11    1    3    3    0    0  0.17223630623E+02  0.74399409894E+01  0.80005522045E+01  0.20396446004E+02  0.51100000000E-03 0.  1.
        -12    1    3    3    0    0  0.73078191249E+01  0.74723138218E+01  0.68004355204E+01  0.12469387214E+02  0.00000000000E+00 0.  1.
</event>
<event>
 7    1  0.1445801E-008  0.4614232E+02  0.7816164E-02  0.1320468E+00
        -11   -1    0    0    0    0  0.00000000000E+00  0.00000000000E+00  0.45593999997E+02  0.45594000000E+02  0.51100000000E-03 0. -1.
         11   -1    0    0    0    0 -0.00000000000E+00 -0.00000000000E+00 -0.45593999997E+02  0.45594000000E+02  0.51100000000E-03 0.  1.
    9900012    2    1    2    0    0 -0.24113029041E+02 -0.26965077304E+02 -0.26843248237E+02  0.46142317194E+02  0.99999948312E+01 0.  0.
         12    1    1    2    0    0  0.24113029041E+02  0.26965077304E+02  0.26843248237E+02  0.45045682806E+02  0.00000000000E+00 0. -1.
         11    1    3    3    0    0 -0.49475691746E+01 -0.90801084747E+01 -0.11290783280E+02  0.15310408159E+02  0.51100000000E-03 0. -1.
        -11    1    3    3    0    0 -0.10587272867E+01 -0.15825320446E+01 -0.26469681345E+01  0.32606367025E+01  0.51100000000E-03 0.  1.
         12    1    3    3    0    0 -0.18106732580E+02 -0.16302436785E+02 -0.12905496822E+02  0.27571272333E+02  0.00000000000E+00 0. -1.
</event>
<event>
 7    1  0.1445801E-008  0.4614232E+02  0.7816164E-02  0.1320468E+00
        -11   -1    0    0    0    0  0.00000000000E+00  0.00000000000E+00  0.45593999997E+02  0.45594000000E+02  0.51100000000E-03 0.  1.
         11   -1    0    0    0    0 -0.00000000000E+00 -0.00000000000E+00 -0.45593999997E+02  0.45594000000E+02  0.51100000000E-03 0. -1.
    9900012    2    1    2    0    0  0.40115138994E+02 -0.12706751553E+02  0.16075679443E+02  0.46142318952E+02  0.10000010858E+02 0.  0.
         12    1    1    2    0    0 -0.40115138994E+02  0.12706751553E+02 -0.16075679443E+02  0.45045681048E+02  0.00000000000E+00 0. -1.
         11    1    3    3    0    0  0.65196672425E+01 -0.18443762001E+01  0.45872005344E+01  0.81823097915E+01  0.51100000000E-03 0. -1.
        -11    1    3    3    0    0  0.21012833823E+02 -0.59439556799E+01  0.10975862255E+02  0.24440526731E+02  0.51100000000E-03 0.  1.
        -12    1    3    3    0    0  0.12582637929E+02 -0.49184196729E+01  0.51261665403E+00  0.13519482429E+02  0.00000000000E+00 0.  1.
</event>
<event>
 7    1  0.1445801E-008  0.4614232E+02  0.7816164E-02  0.1320468E+00
        -11   -1    0    0    0    0  0.00000000000E+00  0.00000000000E+00  0.45593999997E+02  0.45594000000E+02  0.51100000000E-03 0.  1.
         11   -1    0    0    0    0 -0.00000000000E+00 -0.00000000000E+00 -0.45593999997E+02  0.45594000000E+02  0.51100000000E-03 0. -1.
    9900012    2    1    2    0    0 -0.46060164175E+01 -0.11246512533E+02  0.43375271554E+02  0.46142316369E+02  0.99999873053E+01 0.  0.
         12    1    1    2    0    0  0.46060164175E+01  0.11246512533E+02 -0.43375271554E+02  0.45045683631E+02  0.00000000000E+00 0. -1.
         11    1    3    3    0    0 -0.12554190583E+01  0.11064878906E-01  0.24002450630E+01  0.27087591379E+01  0.51100000000E-03 0. -1.
        -11    1    3    3    0    0 -0.54540661743E+01 -0.70285447999E+01  0.32870176495E+02  0.34052838104E+02  0.51100000000E-03 0.  1.
        -12    1    3    3    0    0  0.21034688152E+01 -0.42290326117E+01  0.81048499962E+01  0.93807191274E+01  0.00000000000E+00 0.  1.
</event>
<event>
 7    1  0.1445801E-008  0.4614232E+02  0.7816164E-02  0.1320468E+00
        -11   -1    0    0    0    0  0.00000000000E+00  0.00000000000E+00  0.45593999997E+02  0.45594000000E+02  0.51100000000E-03 0. -1.
         11   -1    0    0    0    0 -0.00000000000E+00 -0.00000000000E+00 -0.45593999997E+02  0.45594000000E+02  0.51100000000E-03 0.  1.
    9900012    2    1    2    0    0  0.14417834792E+02 -0.30685376321E+02 -0.29658848960E+02  0.46142316504E+02  0.99999885333E+01 0.  0.
         12    1    1    2    0    0 -0.14417834792E+02  0.30685376321E+02  0.29658848960E+02  0.45045683496E+02  0.00000000000E+00 0. -1.
         11    1    3    3    0    0  0.53326805444E+01 -0.34586932744E+01 -0.53549158993E+01  0.83111470631E+01  0.51100000000E-03 0. -1.
        -11    1    3    3    0    0  0.67998897579E+00 -0.75959616034E+01 -0.59434916312E+01  0.96688215786E+01  0.51100000000E-03 0.  1.
         12    1    3    3    0    0  0.84051652717E+01 -0.19630721443E+02 -0.18360441429E+02  0.28162347862E+02  0.00000000000E+00 0. -1.
</event>
<event>
 7    1  0.1504363E-008  0.4614232E+02  0.7816164E-02  0.1320468E+00
        -11   -1    0    0    0    0  0.00000000000E+00  0.00000000000E+00  0.45593999997E+02  0.45594000000E+02  0.51100000000E-03 0.  1.
         11   -1    0    0    0    0 -0.00000000000E+00 -0.00000000000E+00 -0.45593999997E+02  0.45594000000E+02  0.51100000000E-03 0. -1.
    9900012    2    1    2    0    0  0.31897596773E+02 -0.20894496238E+02  0.23980761262E+02  0.46142316926E+02  0.99999923843E+01 0.  0.
         12    1    1    2    0    0 -0.31897596773E+02  0.20894496238E+02 -0.23980761262E+02  0.45045683074E+02  0.00000000000E+00 0. -1.
         11    1    3    3    0    0  0.12188773622E+02 -0.97235967778E+01  0.15154345274E+02  0.21743245334E+02  0.51100000000E-03 0. -1.
        -11    1    3    3    0    0  0.95032994665E+01 -0.52985189016E+01  0.31475792373E+01  0.11326705550E+02  0.51100000000E-03 0.  1.
         12    1    3    3    0    0  0.10205523685E+02 -0.58723805588E+01  0.56788367501E+01  0.13072366042E+02  0.00000000000E+00 0. -1.
</event>
<event>
 7    1  0.1445801E-008  0.4614232E+02  0.7816164E-02  0.1320468E+00
        -11   -1    0    0    0    0  0.00000000000E+00  0.00000000000E+00  0.45593999997E+02  0.45594000000E+02  0.51100000000E-03 0.  1.
         11   -1    0    0    0    0 -0.00000000000E+00 -0.00000000000E+00 -0.45593999997E+02  0.45594000000E+02  0.51100000000E-03 0. -1.
    9900012    2    1    2    0    0  0.44417517622E+02  0.17364275152E+01 -0.72926135145E+01  0.46142320251E+02  0.10000022701E+02 0.  0.
         12    1    1    2    0    0 -0.44417517622E+02 -0.17364275152E+01  0.72926135145E+01  0.45045679749E+02  0.00000000000E+00 0. -1.
         11    1    3    3    0    0  0.30343473330E+02  0.69492101855E+00 -0.26931732874E+01  0.30470682165E+02  0.51100000000E-03 0. -1.
        -11    1    3    3    0    0  0.69115170839E+01 -0.18600610717E+01 -0.30983378514E+01  0.77992687666E+01  0.51100000000E-03 0.  1.
         12    1    3    3    0    0  0.71625272081E+01  0.29015675683E+01 -0.15011023756E+01  0.78723693194E+01  0.00000000000E+00 0. -1.
</event>
<event>
 7    1  0.1445801E-008  0.4614232E+02  0.7816164E-02  0.1320468E+00
        -11   -1    0    0    0    0  0.00000000000E+00  0.00000000000E+00  0.45593999997E+02  0.45594000000E+02  0.51100000000E-03 0.  1.
         11   -1    0    0    0    0 -0.00000000000E+00 -0.00000000000E+00 -0.45593999997E+02  0.45594000000E+02  0.51100000000E-03 0. -1.
    9900012    2    1    2    0    0  0.36476356605E+02 -0.24174014501E+02 -0.10686715802E+02  0.46142318044E+02  0.10000002579E+02 0.  0.
         12    1    1    2    0    0 -0.36476356605E+02  0.24174014501E+02  0.10686715802E+02  0.45045681956E+02  0.00000000000E+00 0. -1.
         11    1    3    3    0    0  0.92258174289E+01 -0.69483017783E+01 -0.52981609498E+01  0.12706892403E+02  0.51100000000E-03 0. -1.
        -11    1    3    3    0    0  0.18003818390E+02 -0.88923467113E+01 -0.60451990537E+01  0.20970353801E+02  0.51100000000E-03 0.  1.
         12    1    3    3    0    0  0.92467207856E+01 -0.83333660117E+01  0.65664420186E+00  0.12465071840E+02  0.00000000000E+00 0. -1.
</event>
<event>
 7    1  0.1445801E-008  0.4614232E+02  0.7816164E-02  0.1320468E+00
        -11   -1    0    0    0    0  0.00000000000E+00  0.00000000000E+00  0.45593999997E+02  0.45594000000E+02  0.51100000000E-03 0.  1.
         11   -1    0    0    0    0 -0.00000000000E+00 -0.00000000000E+00 -0.45593999997E+02  0.45594000000E+02  0.51100000000E-03 0. -1.
    9900012    2    1    2    0    0 -0.21562395455E+02  0.34723056584E+02  0.18933725377E+02  0.46142317489E+02  0.99999975162E+01 0.  0.
         12    1    1    2    0    0  0.21562395455E+02 -0.34723056584E+02 -0.18933725377E+02  0.45045682511E+02  0.00000000000E+00 0. -1.
         11    1    3    3    0    0 -0.71088213267E+00  0.48819944678E+01  0.41086065592E+01  0.64202703611E+01  0.51100000000E-03 0. -1.
        -11    1    3    3    0    0 -0.64988542918E+01  0.78811387599E+01  0.15892501835E+01  0.10337948136E+02  0.51100000000E-03 0.  1.
         12    1    3    3    0    0 -0.14352659030E+02  0.21959923356E+02  0.13235868634E+02  0.29384098991E+02  0.00000000000E+00 0. -1.
</event>
<event>
 7    1  0.1445801E-008  0.4614232E+02  0.7816164E-02  0.1320468E+00
        -11   -1    0    0    0    0  0.00000000000E+00  0.00000000000E+00  0.45593999997E+02  0.45594000000E+02  0.51100000000E-03 0.  1.
         11   -1    0    0    0    0 -0.00000000000E+00 -0.00000000000E+00 -0.45593999997E+02  0.45594000000E+02  0.51100000000E-03 0. -1.
    9900012    2    1    2    0    0 -0.24292029297E+02  0.22727836246E+02 -0.30371964055E+02  0.46142318427E+02  0.10000006074E+02 0.  0.
         12    1    1    2    0    0  0.24292029297E+02 -0.22727836246E+02  0.30371964055E+02  0.45045681573E+02  0.00000000000E+00 0. -1.
         11    1    3    3    0    0 -0.21193028808E+01  0.42142243022E+01 -0.29560020499E+01  0.55667835911E+01  0.51100000000E-03 0. -1.
        -11    1    3    3    0    0 -0.10275935993E+02  0.40451566335E+01 -0.12076626384E+02  0.16364689359E+02  0.51100000000E-03 0.  1.
        -12    1    3    3    0    0 -0.11896790423E+02  0.14468455310E+02 -0.15339335621E+02  0.24210845478E+02  0.00000000000E+00 0.  1.
</event>
<event>
 7    1  0.1445801E-008  0.4614232E+02  0.7816164E-02  0.1320468E+00
        -11   -1    0    0    0    0  0.00000000000E+00  0.00000000000E+00  0.45593999997E+02  0.45594000000E+02  0.51100000000E-03 0. -1.
         11   -1    0    0    0    0 -0.00000000000E+00 -0.00000000000E+00 -0.45593999997E+02  0.45594000000E+02  0.51100000000E-03 0.  1.
    9900012    2    1    2    0    0 -0.24418950605E+02  0.13589832143E+02 -0.35329091901E+02  0.46142318510E+02  0.10000006832E+02 0.  0.
         12    1    1    2    0    0  0.24418950605E+02 -0.13589832143E+02  0.35329091901E+02  0.45045681490E+02  0.00000000000E+00 0. -1.
         11    1    3    3    0    0 -0.63094636047E+01  0.82664329440E+01 -0.14832398075E+02  0.18114725433E+02  0.51100000000E-03 0. -1.
        -11    1    3    3    0    0 -0.11471713259E+02  0.32542519193E+01 -0.10746790483E+02  0.16052534585E+02  0.51100000000E-03 0.  1.
         12    1    3    3    0    0 -0.66377737415E+01  0.20691472801E+01 -0.97499033423E+01  0.11975058492E+02  0.00000000000E+00 0. -1.
</event>
<event>
 7    1  0.1445801E-008  0.4614232E+02  0.7816164E-02  0.1320468E+00
        -11   -1    0    0    0    0  0.00000000000E+00  0.00000000000E+00  0.45593999997E+02  0.45594000000E+02  0.51100000000E-03 0.  1.
         11   -1    0    0    0    0 -0.00000000000E+00 -0.00000000000E+00 -0.45593999997E+02  0.45594000000E+02  0.51100000000E-03 0. -1.
    9900012    2    1    2    0    0  0.43750067822E+02  0.95698205644E+01 -0.48439255519E+01  0.46142317467E+02  0.99999973186E+01 0.  0.
         12    1    1    2    0    0 -0.43750067822E+02 -0.95698205644E+01  0.48439255519E+01  0.45045682533E+02  0.00000000000E+00 0. -1.
         11    1    3    3    0    0  0.75279492406E+01  0.37078028135E+01  0.81843461087E-01  0.83919318447E+01  0.51100000000E-03 0. -1.
        -11    1    3    3    0    0  0.27846538930E+02  0.41014540930E+01 -0.58297554131E+00  0.28153001914E+02  0.51100000000E-03 0.  1.
        -12    1    3    3    0    0  0.83755796523E+01  0.17605636579E+01 -0.43427934717E+01  0.95973837082E+01  0.00000000000E+00 0.  1.
</event>
<event>
 7    1  0.1445801E-008  0.4614232E+02  0.7816164E-02  0.1320468E+00
        -11   -1    0    0    0    0  0.00000000000E+00  0.00000000000E+00  0.45593999997E+02  0.45594000000E+02  0.51100000000E-03 0.  1.
         11   -1    0    0    0    0 -0.00000000000E+00 -0.00000000000E+00 -0.45593999997E+02  0.45594000000E+02  0.51100000000E-03 0. -1.
    9900012    2    1    2    0    0 -0.26138444668E+02  0.34912924286E+02  0.11268651455E+02  0.46142322322E+02  0.10000041586E+02 0.  0.
         12    1    1    2    0    0  0.26138444668E+02 -0.34912924286E+02 -0.11268651455E+02  0.45045677678E+02  0.00000000000E+00 0. -1.
         11    1    3    3    0    0 -0.50606630320E+00  0.79840745631E-01 -0.71106532729E+00  0.87640847137E+00  0.51100000000E-03 0. -1.
        -11    1    3    3    0    0 -0.19528401679E+02  0.21896000273E+02  0.76494339706E+01  0.30320078173E+02  0.51100000000E-03 0.  1.
         12    1    3    3    0    0 -0.61039766862E+01  0.12937083267E+02  0.43302828120E+01  0.14945835677E+02  0.00000000000E+00 0. -1.
</event>
<event>
 7    1  0.1445801E-008  0.4614232E+02  0.7816164E-02  0.1320468E+00
        -11   -1    0    0    0    0  0.00000000000E+00  0.00000000000E+00  0.45593999997E+02  0.45594000000E+02  0.51100000000E-03 0. -1.
         11   -1    0    0    0    0 -0.00000000000E+00 -0.00000000000E+00 -0.45593999997E+02  0.45594000000E+02  0.51100000000E-03 0.  1.
    9900012    2    1    2    0    0 -0.23138112535E+01  0.41571853087E+02  0.17191299264E+02  0.46142318054E+02  0.10000002673E+02 0.  0.
         12    1    1    2    0    0  0.23138112535E+01 -0.41571853087E+02 -0.17191299264E+02  0.45045681946E+02  0.00000000000E+00 0. -1.
         11    1    3    3    0    0  0.32279506266E+01  0.81346686687E+01  0.46298434477E+01  0.99009065347E+01  0.51100000000E-03 0. -1.
        -11    1    3    3    0    0 -0.11953659977E+01  0.15197063856E+02  0.56557453945E+01  0.16259369789E+02  0.51100000000E-03 0.  1.
         12    1    3    3    0    0 -0.43463958825E+01  0.18240120562E+02  0.69057104215E+01  0.19982041730E+02  0.00000000000E+00 0. -1.
</event>
<event>
 7    1  0.1445801E-008  0.4614232E+02  0.7816164E-02  0.1320468E+00
        -11   -1    0    0    0    0  0.00000000000E+00  0.00000000000E+00  0.45593999997E+02  0.45594000000E+02  0.51100000000E-03 0. -1.
         11   -1    0    0    0    0 -0.00000000000E+00 -0.00000000000E+00 -0.45593999997E+02  0.45594000000E+02  0.51100000000E-03 0.  1.
    9900012    2    1    2    0    0  0.37788952263E+02  0.86430364201E+01 -0.22943548053E+02  0.46142318865E+02  0.10000010064E+02 0.  0.
         12    1    1    2    0    0 -0.37788952263E+02 -0.86430364201E+01  0.22943548053E+02  0.45045681135E+02  0.00000000000E+00 0. -1.
         11    1    3    3    0    0  0.18527433991E+02  0.38313630040E+00 -0.86730842245E+01  0.20460571691E+02  0.51100000000E-03 0. -1.
        -11    1    3    3    0    0  0.13472502820E+02  0.77398402772E+01 -0.10546678771E+02  0.18778868259E+02  0.51100000000E-03 0.  1.
        -12    1    3    3    0    0  0.57890154522E+01  0.52005984253E+00 -0.37237850576E+01  0.69028789140E+01  0.00000000000E+00 0.  1.
</event>
<event>
 7    1  0.1445801E-008  0.4614232E+02  0.7816164E-02  0.1320468E+00
        -11   -1    0    0    0    0  0.00000000000E+00  0.00000000000E+00  0.45593999997E+02  0.45594000000E+02  0.51100000000E-03 0.  1.
         11   -1    0    0    0    0 -0.00000000000E+00 -0.00000000000E+00 -0.45593999997E+02  0.45594000000E+02  0.51100000000E-03 0. -1.
    9900012    2    1    2    0    0 -0.52155114676E+01 -0.29136715990E+02  0.33955319425E+02  0.46142317679E+02  0.99999992493E+01 0.  0.
         12    1    1    2    0    0  0.52155114676E+01  0.29136715990E+02 -0.33955319425E+02  0.45045682321E+02  0.00000000000E+00 0. -1.
         11    1    3    3    0    0 -0.18250560280E+01 -0.14914416618E+02  0.11418289833E+02  0.18871883730E+02  0.51100000000E-03 0. -1.
        -11    1    3    3    0    0 -0.27442862766E+01 -0.93526142935E+01  0.18505885831E+02  0.20915790971E+02  0.51100000000E-03 0.  1.
        -12    1    3    3    0    0 -0.64616916296E+00 -0.48696850779E+01  0.40311437611E+01  0.63546429772E+01  0.00000000000E+00 0.  1.
</event>
<event>
 7    1  0.1445801E-008  0.4614232E+02  0.7816164E-02  0.1320468E+00
        -11   -1    0    0    0    0  0.00000000000E+00  0.00000000000E+00  0.45593999997E+02  0.45594000000E+02  0.51100000000E-03 0. -1.
         11   -1    0    0    0    0 -0.00000000000E+00 -0.00000000000E+00 -0.45593999997E+02  0.45594000000E+02  0.51100000000E-03 0.  1.
    9900012    2    1    2    0    0 -0.85378984332E+00  0.40248769104E+02 -0.20209432308E+02  0.46142317346E+02  0.99999962170E+01 0.  0.
         12    1    1    2    0    0  0.85378984332E+00 -0.40248769104E+02  0.20209432308E+02  0.45045682654E+02  0.00000000000E+00 0. -1.
         11    1    3    3    0    0 -0.36203355361E+01  0.14028345449E+02 -0.69421823529E+01  0.16065341624E+02  0.51100000000E-03 0. -1.
        -11    1    3    3    0    0  0.27631636598E+01  0.15019453544E+02 -0.10519272903E+02  0.18543844284E+02  0.51100000000E-03 0.  1.
         12    1    3    3    0    0  0.33820329575E-02  0.11200970112E+02 -0.27479770528E+01  0.11533131438E+02  0.00000000000E+00 0. -1.
</event>
<event>
 7    1  0.1445801E-008  0.4614232E+02  0.7816164E-02  0.1320468E+00
        -11   -1    0    0    0    0  0.00000000000E+00  0.00000000000E+00  0.45593999997E+02  0.45594000000E+02  0.51100000000E-03 0.  1.
         11   -1    0    0    0    0 -0.00000000000E+00 -0.00000000000E+00 -0.45593999997E+02  0.45594000000E+02  0.51100000000E-03 0. -1.
    9900012    2    1    2    0    0  0.23552143991E+02 -0.13419484421E+02  0.35976763070E+02  0.46142317302E+02  0.99999958144E+01 0.  0.
         12    1    1    2    0    0 -0.23552143991E+02  0.13419484421E+02 -0.35976763070E+02  0.45045682698E+02  0.00000000000E+00 0. -1.
         11    1    3    3    0    0  0.45753347197E+01 -0.55665474011E+01  0.15440743043E+02  0.17039268874E+02  0.51100000000E-03 0. -1.
        -11    1    3    3    0    0  0.11596254957E+02 -0.56255266745E+01  0.12168411524E+02  0.17725403201E+02  0.51100000000E-03 0.  1.
         12    1    3    3    0    0  0.73805543147E+01 -0.22274103452E+01  0.83676085036E+01  0.11377645227E+02  0.00000000000E+00 0. -1.
</event>
<event>
 7    1  0.1445801E-008  0.4614232E+02  0.7816164E-02  0.1320468E+00
        -11   -1    0    0    0    0  0.00000000000E+00  0.00000000000E+00  0.45593999997E+02  0.45594000000E+02  0.51100000000E-03 0.  1.
         11   -1    0    0    0    0 -0.00000000000E+00 -0.00000000000E+00 -0.45593999997E+02  0.45594000000E+02  0.51100000000E-03 0. -1.
    9900012    2    1    2    0    0  0.41832616633E+02  0.16439206608E+02 -0.29829642853E+01  0.46142318695E+02  0.10000008518E+02 0.  0.
         12    1    1    2    0    0 -0.41832616633E+02 -0.16439206608E+02  0.29829642853E+01  0.45045681305E+02  0.00000000000E+00 0. -1.
         11    1    3    3    0    0  0.27680712328E+02  0.14676850839E+02 -0.25913256114E+01  0.31437982668E+02  0.51100000000E-03 0. -1.
        -11    1    3    3    0    0  0.44866023036E+01  0.12597708457E+01 -0.16519866484E+01  0.49442575744E+01  0.51100000000E-03 0.  1.
         12    1    3    3    0    0  0.96653020014E+01  0.50258492262E+00  0.12603479745E+01  0.97600784526E+01  0.00000000000E+00 0. -1.
</event>
<event>
 7    1  0.1445801E-008  0.4614232E+02  0.7816164E-02  0.1320468E+00
        -11   -1    0    0    0    0  0.00000000000E+00  0.00000000000E+00  0.45593999997E+02  0.45594000000E+02  0.51100000000E-03 0.  1.
         11   -1    0    0    0    0 -0.00000000000E+00 -0.00000000000E+00 -0.45593999997E+02  0.45594000000E+02  0.51100000000E-03 0. -1.
    9900012    2    1    2    0    0 -0.51803877232E+01 -0.35192792469E+02  0.27635925453E+02  0.46142318360E+02  0.10000005465E+02 0.  0.
         12    1    1    2    0    0  0.51803877232E+01  0.35192792469E+02 -0.27635925453E+02  0.45045681640E+02  0.00000000000E+00 0. -1.
         11    1    3    3    0    0 -0.22864488930E+01 -0.35910426101E+01  0.21052469140E+01  0.47492631426E+01  0.51100000000E-03 0. -1.
        -11    1    3    3    0    0 -0.12408438988E+01 -0.18060084074E+02  0.19084848361E+02  0.26304709989E+02  0.51100000000E-03 0.  1.
        -12    1    3    3    0    0 -0.16530949313E+01 -0.13541665785E+02  0.64458301780E+01  0.15088345229E+02  0.00000000000E+00 0.  1.
</event>
<event>
 7    1  0.1445801E-008  0.4614232E+02  0.7816164E-02  0.1320468E+00
        -11   -1    0    0    0    0  0.00000000000E+00  0.00000000000E+00  0.45593999997E+02  0.45594000000E+02  0.51100000000E-03 0. -1.
         11   -1    0    0    0    0 -0.00000000000E+00 -0.00000000000E+00 -0.45593999997E+02  0.45594000000E+02  0.51100000000E-03 0.  1.
    9900012    2    1    2    0    0  0.53169608551E+01  0.38431866098E+02 -0.22887438945E+02  0.46142320230E+02  0.10000022510E+02 0.  0.
         12    1    1    2    0    0 -0.53169608551E+01 -0.38431866098E+02  0.22887438945E+02  0.45045679770E+02  0.00000000000E+00 0. -1.
         11    1    3    3    0    0  0.15152758694E+01  0.32158090863E+01 -0.85049101923E+00  0.36552461305E+01  0.51100000000E-03 0.  1.
        -11    1    3    3    0    0  0.62937314296E+01  0.26943434187E+02 -0.16239463367E+02  0.32082391928E+02  0.51100000000E-03 0. -1.
        -12    1    3    3    0    0 -0.24920464439E+01  0.82726228248E+01 -0.57974845583E+01  0.10404682171E+02  0.00000000000E+00 0.  1.
</event>
<event>
 7    1  0.1445801E-008  0.4614232E+02  0.7816164E-02  0.1320468E+00
        -11   -1    0    0    0    0  0.00000000000E+00  0.00000000000E+00  0.45593999997E+02  0.45594000000E+02  0.51100000000E-03 0. -1.
         11   -1    0    0    0    0 -0.00000000000E+00 -0.00000000000E+00 -0.45593999997E+02  0.45594000000E+02  0.51100000000E-03 0.  1.
    9900012    2    1    2    0    0  0.29974480257E+02 -0.13379640677E+01 -0.33598420930E+02  0.46142317593E+02  0.99999984672E+01 0.  0.
         12    1    1    2    0    0 -0.29974480257E+02  0.13379640677E+01  0.33598420930E+02  0.45045682407E+02  0.00000000000E+00 0. -1.
         11    1    3    3    0    0  0.14727390127E+01  0.10627074246E+01 -0.14477948829E+00  0.18218860094E+01  0.51100000000E-03 0. -1.
        -11    1    3    3    0    0  0.13967965964E+02 -0.34429929832E+01 -0.14656862405E+02  0.20537329175E+02  0.51100000000E-03 0.  1.
         12    1    3    3    0    0  0.14533775280E+02  0.10423214909E+01 -0.18796779037E+02  0.23783102408E+02  0.00000000000E+00 0. -1.
</event>
<event>
 7    1  0.1445801E-008  0.4614232E+02  0.7816164E-02  0.1320468E+00
        -11   -1    0    0    0    0  0.00000000000E+00  0.00000000000E+00  0.45593999997E+02  0.45594000000E+02  0.51100000000E-03 0.  1.
         11   -1    0    0    0    0 -0.00000000000E+00 -0.00000000000E+00 -0.45593999997E+02  0.45594000000E+02  0.51100000000E-03 0. -1.
    9900012    2    1    2    0    0  0.21202473671E+02 -0.71658694872E+01  0.39092440911E+02  0.46142317502E+02  0.99999976409E+01 0.  0.
         12    1    1    2    0    0 -0.21202473671E+02  0.71658694872E+01 -0.39092440911E+02  0.45045682498E+02  0.00000000000E+00 0. -1.
         11    1    3    3    0    0  0.62050835820E+01 -0.52284280815E+01  0.16125676262E+02  0.18052062421E+02  0.51100000000E-03 0. -1.
        -11    1    3    3    0    0  0.73997677964E+01  0.11075865547E+01  0.14483802959E+02  0.16302265481E+02  0.51100000000E-03 0.  1.
        -12    1    3    3    0    0  0.75976222927E+01 -0.30450279604E+01  0.84829616904E+01  0.11787989601E+02  0.00000000000E+00 0.  1.
</event>
<event>
 7    1  0.1445801E-008  0.4614232E+02  0.7816164E-02  0.1320468E+00
        -11   -1    0    0    0    0  0.00000000000E+00  0.00000000000E+00  0.45593999997E+02  0.45594000000E+02  0.51100000000E-03 0.  1.
         11   -1    0    0    0    0 -0.00000000000E+00 -0.00000000000E+00 -0.45593999997E+02  0.45594000000E+02  0.51100000000E-03 0. -1.
    9900012    2    1    2    0    0 -0.90072066707E+01  0.42192114866E+02  0.12954110709E+02  0.46142319706E+02  0.10000017738E+02 0.  0.
         12    1    1    2    0    0  0.90072066707E+01 -0.42192114866E+02 -0.12954110709E+02  0.45045680294E+02  0.00000000000E+00 0. -1.
         11    1    3    3    0    0 -0.19866060203E+01  0.37090461877E+01 -0.10369903450E+01  0.43334716267E+01  0.51100000000E-03 0. -1.
        -11    1    3    3    0    0 -0.62996668186E+01  0.34689369301E+02  0.11027411561E+02  0.36941060496E+02  0.51100000000E-03 0.  1.
         12    1    3    3    0    0 -0.72093383185E+00  0.37936993769E+01  0.29636894929E+01  0.48677875840E+01  0.00000000000E+00 0. -1.
</event>
<event>
 7    1  0.1445801E-008  0.4614232E+02  0.7816164E-02  0.1320468E+00
        -11   -1    0    0    0    0  0.00000000000E+00  0.00000000000E+00  0.45593999997E+02  0.45594000000E+02  0.51100000000E-03 0.  1.
         11   -1    0    0    0    0 -0.00000000000E+00 -0.00000000000E+00 -0.45593999997E+02  0.45594000000E+02  0.51100000000E-03 0. -1.
    9900012    2    1    2    0    0  0.19219743296E+02 -0.11981684984E+02  0.38937824811E+02  0.46142317538E+02  0.99999979700E+01 0.  0.
         12    1    1    2    0    0 -0.19219743296E+02  0.11981684984E+02 -0.38937824811E+02  0.45045682462E+02  0.00000000000E+00 0. -1.
         11    1    3    3    0    0  0.18644677831E+01  0.11105416375E+01  0.68732107448E+01  0.72076743161E+01  0.51100000000E-03 0.  1.
        -11    1    3    3    0    0  0.70783227578E-01 -0.94518535630E+00  0.11347885126E+01  0.14785570170E+01  0.51100000000E-03 0. -1.
         12    1    3    3    0    0  0.17284492285E+02 -0.12147041265E+02  0.30929825554E+02  0.37456086205E+02  0.00000000000E+00 0. -1.
</event>
<event>
 7    1  0.1445801E-008  0.4614232E+02  0.7816164E-02  0.1320468E+00
        -11   -1    0    0    0    0  0.00000000000E+00  0.00000000000E+00  0.45593999997E+02  0.45594000000E+02  0.51100000000E-03 0. -1.
         11   -1    0    0    0    0 -0.00000000000E+00 -0.00000000000E+00 -0.45593999997E+02  0.45594000000E+02  0.51100000000E-03 0.  1.
    9900012    2    1    2    0    0  0.39411180590E+01  0.35575239476E+02  0.27349285481E+02  0.46142317724E+02  0.99999996652E+01 0.  0.
         12    1    1    2    0    0 -0.39411180590E+01 -0.35575239476E+02 -0.27349285481E+02  0.45045682276E+02  0.00000000000E+00 0. -1.
         11    1    3    3    0    0  0.17011904018E+01  0.95125442403E+01  0.12462169213E+02  0.15769851250E+02  0.51100000000E-03 0. -1.
        -11    1    3    3    0    0  0.29365732920E+01  0.11702157211E+02  0.60580681783E+01  0.13500523560E+02  0.51100000000E-03 0.  1.
         12    1    3    3    0    0 -0.69664563486E+00  0.14360538025E+02  0.88290480900E+01  0.16871942914E+02  0.00000000000E+00 0. -1.
</event>
<event>
 7    1  0.1445801E-008  0.4614232E+02  0.7816164E-02  0.1320468E+00
        -11   -1    0    0    0    0  0.00000000000E+00  0.00000000000E+00  0.45593999997E+02  0.45594000000E+02  0.51100000000E-03 0. -1.
         11   -1    0    0    0    0 -0.00000000000E+00 -0.00000000000E+00 -0.45593999997E+02  0.45594000000E+02  0.51100000000E-03 0.  1.
    9900012    2    1    2    0    0  0.22087837442E+02  0.32150538841E+02 -0.22529619900E+02  0.46142317815E+02  0.10000000489E+02 0.  0.
         12    1    1    2    0    0 -0.22087837442E+02 -0.32150538841E+02  0.22529619900E+02  0.45045682185E+02  0.00000000000E+00 0. -1.
         11    1    3    3    0    0 -0.34243619493E+00  0.24121856368E+00 -0.63545854482E-01  0.42365939126E+00  0.51100000000E-03 0. -1.
        -11    1    3    3    0    0  0.16877946212E+02  0.24263131492E+02 -0.20754858759E+02  0.36115492251E+02  0.51100000000E-03 0.  1.
        -12    1    3    3    0    0  0.55523274257E+01  0.76461887856E+01 -0.17112152867E+01  0.96031661729E+01  0.00000000000E+00 0.  1.
</event>
<event>
 7    1  0.1445801E-008  0.4614232E+02  0.7816164E-02  0.1320468E+00
        -11   -1    0    0    0    0  0.00000000000E+00  0.00000000000E+00  0.45593999997E+02  0.45594000000E+02  0.51100000000E-03 0.  1.
         11   -1    0    0    0    0 -0.00000000000E+00 -0.00000000000E+00 -0.45593999997E+02  0.45594000000E+02  0.51100000000E-03 0. -1.
    9900012    2    1    2    0    0  0.19700018279E+01 -0.26336567292E+02  0.36491337904E+02  0.46142318454E+02  0.10000006319E+02 0.  0.
         12    1    1    2    0    0 -0.19700018279E+01  0.26336567292E+02 -0.36491337904E+02  0.45045681546E+02  0.00000000000E+00 0. -1.
         11    1    3    3    0    0  0.28012002689E+01 -0.17745051053E+02  0.22368065384E+02  0.28689090419E+02  0.51100000000E-03 0. -1.
        -11    1    3    3    0    0  0.21634171384E+01 -0.48644785154E+01  0.89114645982E+01  0.10380641911E+02  0.51100000000E-03 0.  1.
         12    1    3    3    0    0 -0.29946155794E+01 -0.37270377234E+01  0.52118079221E+01  0.70725861237E+01  0.00000000000E+00 0. -1.
</event>
<event>
 7    1  0.1445801E-008  0.4614231E+02  0.7816164E-02  0.1320468E+00
        -11   -1    0    0    0    0  0.00000000000E+00  0.00000000000E+00  0.45593999997E+02  0.45594000000E+02  0.51100000000E-03 0. -1.
         11   -1    0    0    0    0 -0.00000000000E+00 -0.00000000000E+00 -0.45593999997E+02  0.45594000000E+02  0.51100000000E-03 0.  1.
    9900012    2    1    2    0    0  0.39292009069E+02  0.18056386518E+02 -0.12618190073E+02  0.46142314396E+02  0.99999693163E+01 0.  0.
         12    1    1    2    0    0 -0.39292009069E+02 -0.18056386518E+02  0.12618190073E+02  0.45045685604E+02  0.00000000000E+00 0. -1.
         11    1    3    3    0    0  0.50327490861E+01  0.44341707057E+01 -0.73243522818E-02  0.67074948467E+01  0.51100000000E-03 0. -1.
        -11    1    3    3    0    0  0.16000419593E+02  0.46772361884E+01 -0.84175483500E+01  0.18674717830E+02  0.51100000000E-03 0.  1.
         12    1    3    3    0    0  0.18258840390E+02  0.89449796236E+01 -0.41933173710E+01  0.20760101720E+02  0.00000000000E+00 0. -1.
</event>
<event>
 7    1  0.1445801E-008  0.4614232E+02  0.7816164E-02  0.1320468E+00
        -11   -1    0    0    0    0  0.00000000000E+00  0.00000000000E+00  0.45593999997E+02  0.45594000000E+02  0.51100000000E-03 0.  1.
         11   -1    0    0    0    0 -0.00000000000E+00 -0.00000000000E+00 -0.45593999997E+02  0.45594000000E+02  0.51100000000E-03 0. -1.
    9900012    2    1    2    0    0  0.15094567893E+02 -0.33068783152E+02  0.26603062334E+02  0.46142319579E+02  0.10000016577E+02 0.  0.
         12    1    1    2    0    0 -0.15094567893E+02  0.33068783152E+02 -0.26603062334E+02  0.45045680421E+02  0.00000000000E+00 0. -1.
         11    1    3    3    0    0  0.34369828223E+01 -0.89027817526E+01  0.41595224446E+01  0.10410283430E+02  0.51100000000E-03 0. -1.
        -11    1    3    3    0    0  0.69223973284E+01 -0.96050403340E+01  0.13672266351E+02  0.18086106602E+02  0.51100000000E-03 0.  1.
        -12    1    3    3    0    0  0.47351877422E+01 -0.14560961065E+02  0.87712735388E+01  0.17645929547E+02  0.00000000000E+00 0.  1.
</event>
<event>
 7    1  0.1445801E-008  0.4614232E+02  0.7816164E-02  0.1320468E+00
        -11   -1    0    0    0    0  0.00000000000E+00  0.00000000000E+00  0.45593999997E+02  0.45594000000E+02  0.51100000000E-03 0.  1.
         11   -1    0    0    0    0 -0.00000000000E+00 -0.00000000000E+00 -0.45593999997E+02  0.45594000000E+02  0.51100000000E-03 0. -1.
    9900012    2    1    2    0    0 -0.20186953708E+02  0.23328835847E+02  0.32823250604E+02  0.46142318051E+02  0.10000002645E+02 0.  0.
         12    1    1    2    0    0  0.20186953708E+02 -0.23328835847E+02 -0.32823250604E+02  0.45045681949E+02  0.00000000000E+00 0. -1.
         11    1    3    3    0    0 -0.68545865535E+01  0.11702762997E+02  0.92135512668E+01  0.16396022255E+02  0.51100000000E-03 0. -1.
        -11    1    3    3    0    0 -0.50913503701E+01  0.65705432332E+01  0.92603296618E+01  0.12443777267E+02  0.51100000000E-03 0.  1.
         12    1    3    3    0    0 -0.82410167840E+01  0.50555296174E+01  0.14349369676E+02  0.17302518529E+02  0.00000000000E+00 0. -1.
</event>
<event>
 7    1  0.1445801E-008  0.4614232E+02  0.7816164E-02  0.1320468E+00
        -11   -1    0    0    0    0  0.00000000000E+00  0.00000000000E+00  0.45593999997E+02  0.45594000000E+02  0.51100000000E-03 0.  1.
         11   -1    0    0    0    0 -0.00000000000E+00 -0.00000000000E+00 -0.45593999997E+02  0.45594000000E+02  0.51100000000E-03 0. -1.
    9900012    2    1    2    0    0  0.30153403156E+02  0.18011697747E+02  0.28203981290E+02  0.46142317208E+02  0.99999949526E+01 0.  0.
         12    1    1    2    0    0 -0.30153403156E+02 -0.18011697747E+02 -0.28203981290E+02  0.45045682792E+02  0.00000000000E+00 0. -1.
         11    1    3    3    0    0  0.66913251216E+01  0.66737979374E+01  0.68494728048E+01  0.11671704621E+02  0.51100000000E-03 0. -1.
        -11    1    3    3    0    0  0.17553292998E+02  0.97374748451E+01  0.19709281133E+02  0.28131695193E+02  0.51100000000E-03 0.  1.
        -12    1    3    3    0    0  0.59087850367E+01  0.16004249645E+01  0.16452273526E+01  0.63389173933E+01  0.00000000000E+00 0.  1.
</event>
<event>
 7    1  0.1445801E-008  0.4614232E+02  0.7816164E-02  0.1320468E+00
        -11   -1    0    0    0    0  0.00000000000E+00  0.00000000000E+00  0.45593999997E+02  0.45594000000E+02  0.51100000000E-03 0. -1.
         11   -1    0    0    0    0 -0.00000000000E+00 -0.00000000000E+00 -0.45593999997E+02  0.45594000000E+02  0.51100000000E-03 0.  1.
    9900012    2    1    2    0    0  0.39842352379E+02 -0.85253843583E+00 -0.20999372875E+02  0.46142317343E+02  0.99999961860E+01 0.  0.
         12    1    1    2    0    0 -0.39842352379E+02  0.85253843583E+00  0.20999372875E+02  0.45045682657E+02  0.00000000000E+00 0. -1.
         11    1    3    3    0    0  0.87747916462E+01  0.35953374178E+01 -0.56437218421E+01  0.11035171774E+02  0.51100000000E-03 0. -1.
        -11    1    3    3    0    0  0.76209378446E+01  0.37393075568E+00 -0.34916713354E+01  0.83910837689E+01  0.51100000000E-03 0.  1.
         12    1    3    3    0    0  0.23446622889E+02 -0.48218066093E+01 -0.11863979698E+02  0.26716061800E+02  0.00000000000E+00 0. -1.
</event>
<event>
 7    1  0.1445801E-008  0.4614232E+02  0.7816164E-02  0.1320468E+00
        -11   -1    0    0    0    0  0.00000000000E+00  0.00000000000E+00  0.45593999997E+02  0.45594000000E+02  0.51100000000E-03 0. -1.
         11   -1    0    0    0    0 -0.00000000000E+00 -0.00000000000E+00 -0.45593999997E+02  0.45594000000E+02  0.51100000000E-03 0.  1.
    9900012    2    1    2    0    0 -0.35947551846E+02 -0.22544717585E+02 -0.15120275209E+02  0.46142317664E+02  0.99999991153E+01 0.  0.
         12    1    1    2    0    0  0.35947551846E+02  0.22544717585E+02  0.15120275209E+02  0.45045682336E+02  0.00000000000E+00 0. -1.
         11    1    3    3    0    0 -0.77425719762E+01 -0.12643362932E+01 -0.37019126592E+01  0.86746829721E+01  0.51100000000E-03 0. -1.
        -11    1    3    3    0    0 -0.20503985654E+02 -0.12944383158E+02 -0.89971937588E+01  0.25863487368E+02  0.51100000000E-03 0.  1.
         12    1    3    3    0    0 -0.77009942159E+01 -0.83359981341E+01 -0.24211687906E+01  0.11604147324E+02  0.00000000000E+00 0. -1.
</event>
