<event>
 7    1  0.5038211E-009  0.4778721E+02  0.7816164E-02  0.1312668E+00
        -11   -1    0    0    0    0  0.00000000000E+00  0.00000000000E+00  0.45593999997E+02  0.45594000000E+02  0.51100000000E-03 0. -1.
         11   -1    0    0    0    0 -0.00000000000E+00 -0.00000000000E+00 -0.45593999997E+02  0.45594000000E+02  0.51100000000E-03 0.  1.
    9900012    2    1    2    0    0 -0.41084354737E+02  0.38060074107E+01 -0.13461746224E+02  0.47787210745E+02  0.19999725068E+02 0.  0.
         12    1    1    2    0    0  0.41084354737E+02 -0.38060074107E+01  0.13461746224E+02  0.43400789255E+02  0.00000000000E+00 0. -1.
         11    1    3    3    0    0 -0.50236887553E+00 -0.10282351800E+01  0.32155051751E+01  0.34130801140E+01  0.51100000000E-03 0. -1.
        -11    1    3    3    0    0 -0.29938748694E+02  0.28511588814E+01 -0.10193872115E+02  0.31754886384E+02  0.51100000000E-03 0.  1.
         12    1    3    3    0    0 -0.10643237168E+02  0.19830837093E+01 -0.64833792842E+01  0.12619244246E+02  0.00000000000E+00 0. -1.
</event>
<event>
 7    1  0.5038211E-009  0.4778727E+02  0.7816164E-02  0.1312668E+00
        -11   -1    0    0    0    0  0.00000000000E+00  0.00000000000E+00  0.45593999997E+02  0.45594000000E+02  0.51100000000E-03 0.  1.
         11   -1    0    0    0    0 -0.00000000000E+00 -0.00000000000E+00 -0.45593999997E+02  0.45594000000E+02  0.51100000000E-03 0. -1.
    9900012    2    1    2    0    0 -0.13859793288E+02 -0.31787138384E+02  0.26098032459E+02  0.47787270342E+02  0.19999996797E+02 0.  0.
         12    1    1    2    0    0  0.13859793288E+02  0.31787138384E+02 -0.26098032459E+02  0.43400729658E+02  0.00000000000E+00 0. -1.
         11    1    3    3    0    0 -0.17156774220E+01  0.20525562398E+01  0.43624897300E+00  0.27105072517E+01  0.51100000000E-03 0. -1.
        -11    1    3    3    0    0 -0.11191935258E+02 -0.18356875193E+02  0.16027501802E+02  0.26816321447E+02  0.51100000000E-03 0.  1.
        -12    1    3    3    0    0 -0.95218060739E+00 -0.15482819430E+02  0.96342816845E+01  0.18260441643E+02  0.00000000000E+00 0.  1.
</event>
<event>
 7    1  0.5038211E-009  0.4778727E+02  0.7816164E-02  0.1312668E+00
        -11   -1    0    0    0    0  0.00000000000E+00  0.00000000000E+00  0.45593999997E+02  0.45594000000E+02  0.51100000000E-03 0.  1.
         11   -1    0    0    0    0 -0.00000000000E+00 -0.00000000000E+00 -0.45593999997E+02  0.45594000000E+02  0.51100000000E-03 0. -1.
    9900012    2    1    2    0    0  0.24909072857E+02 -0.47736772516E+01  0.35218935803E+02  0.47787270234E+02  0.19999996306E+02 0.  0.
         12    1    1    2    0    0 -0.24909072857E+02  0.47736772516E+01 -0.35218935803E+02  0.43400729766E+02  0.00000000000E+00 0. -1.
         11    1    3    3    0    0  0.33559573535E+00 -0.58050781680E+01  0.65652589085E+01  0.87700730801E+01  0.51100000000E-03 0. -1.
        -11    1    3    3    0    0  0.23658986647E+02 -0.12992519054E+01  0.23959449767E+02  0.33697046430E+02  0.51100000000E-03 0.  1.
         12    1    3    3    0    0  0.91449047404E+00  0.23306528218E+01  0.46942271275E+01  0.53201507241E+01  0.00000000000E+00 0. -1.
</event>
<event>
 7    1  0.5038211E-009  0.4778727E+02  0.7816164E-02  0.1312668E+00
        -11   -1    0    0    0    0  0.00000000000E+00  0.00000000000E+00  0.45593999997E+02  0.45594000000E+02  0.51100000000E-03 0. -1.
         11   -1    0    0    0    0 -0.00000000000E+00 -0.00000000000E+00 -0.45593999997E+02  0.45594000000E+02  0.51100000000E-03 0.  1.
    9900012    2    1    2    0    0 -0.22784989082E+02 -0.98663175871E+01 -0.35596671727E+02  0.47787274336E+02  0.20000015005E+02 0.  0.
         12    1    1    2    0    0  0.22784989082E+02  0.98663175871E+01  0.35596671727E+02  0.43400725664E+02  0.00000000000E+00 0. -1.
         11    1    3    3    0    0 -0.40945647684E+00 -0.46070739755E+01 -0.93501290750E+00  0.47187958867E+01  0.51100000000E-03 0. -1.
        -11    1    3    3    0    0 -0.21067208355E+01  0.13835183946E+01 -0.18490253250E+00  0.25271693719E+01  0.51100000000E-03 0.  1.
         12    1    3    3    0    0 -0.20268811770E+02 -0.66427620061E+01 -0.34476756287E+02  0.40541309077E+02  0.00000000000E+00 0. -1.
</event>
<event>
 7    1  0.5038211E-009  0.4778727E+02  0.7816164E-02  0.1312668E+00
        -11   -1    0    0    0    0  0.00000000000E+00  0.00000000000E+00  0.45593999997E+02  0.45594000000E+02  0.51100000000E-03 0.  1.
         11   -1    0    0    0    0 -0.00000000000E+00 -0.00000000000E+00 -0.45593999997E+02  0.45594000000E+02  0.51100000000E-03 0. -1.
    9900012    2    1    2    0    0 -0.64813890202E+01  0.88312251891E+01  0.41995531438E+02  0.47787267256E+02  0.19999982728E+02 0.  0.
         12    1    1    2    0    0  0.64813890202E+01 -0.88312251891E+01 -0.41995531438E+02  0.43400732744E+02  0.00000000000E+00 0. -1.
         11    1    3    3    0    0 -0.40117650285E+01 -0.57400785769E+01  0.12066204765E+02  0.13951202758E+02  0.51100000000E-03 0. -1.
        -11    1    3    3    0    0 -0.29693564133E+01  0.12437739909E+02  0.28451538109E+02  0.31193019613E+02  0.51100000000E-03 0.  1.
         12    1    3    3    0    0  0.49973242160E+00  0.21335638566E+01  0.14777885641E+01  0.26430448849E+01  0.00000000000E+00 0. -1.
</event>
<event>
 7    1  0.5038211E-009  0.4778727E+02  0.7816164E-02  0.1312668E+00
        -11   -1    0    0    0    0  0.00000000000E+00  0.00000000000E+00  0.45593999997E+02  0.45594000000E+02  0.51100000000E-03 0.  1.
         11   -1    0    0    0    0 -0.00000000000E+00 -0.00000000000E+00 -0.45593999997E+02  0.45594000000E+02  0.51100000000E-03 0. -1.
    9900012    2    1    2    0    0 -0.33753219829E+02  0.18165874860E+02  0.20355454329E+02  0.47787269830E+02  0.19999994465E+02 0.  0.
         12    1    1    2    0    0  0.33753219829E+02 -0.18165874860E+02 -0.20355454329E+02  0.43400730170E+02  0.00000000000E+00 0. -1.
         11    1    3    3    0    0 -0.27603667664E+01  0.52675055128E+01 -0.27888641331E+01  0.65684094290E+01  0.51100000000E-03 0. -1.
        -11    1    3    3    0    0 -0.11718947317E+02  0.54328596823E+01  0.12478159876E+02  0.17959793003E+02  0.51100000000E-03 0.  1.
         12    1    3    3    0    0 -0.19273905746E+02  0.74655096652E+01  0.10666158586E+02  0.23259067399E+02  0.00000000000E+00 0. -1.
</event>
<event>
 7    1  0.5038211E-009  0.4778727E+02  0.7816164E-02  0.1312668E+00
        -11   -1    0    0    0    0  0.00000000000E+00  0.00000000000E+00  0.45593999997E+02  0.45594000000E+02  0.51100000000E-03 0. -1.
         11   -1    0    0    0    0 -0.00000000000E+00 -0.00000000000E+00 -0.45593999997E+02  0.45594000000E+02  0.51100000000E-03 0.  1.
    9900012    2    1    2    0    0 -0.21570097900E+02 -0.35656376329E+02 -0.12123404968E+02  0.47787271384E+02  0.20000001549E+02 0.  0.
         12    1    1    2    0    0  0.21570097900E+02  0.35656376329E+02  0.12123404968E+02  0.43400728616E+02  0.00000000000E+00 0. -1.
         11    1    3    3    0    0  0.20575126417E+01 -0.57409750170E+01 -0.62652505566E+01  0.87433127140E+01  0.51100000000E-03 0. -1.
        -11    1    3    3    0    0 -0.22625434930E+01 -0.64908064880E+01 -0.15686952305E+01  0.70505657156E+01  0.51100000000E-03 0.  1.
         12    1    3    3    0    0 -0.21365067049E+02 -0.23424594824E+02 -0.42894591811E+01  0.31993392955E+02  0.00000000000E+00 0. -1.
</event>
<event>
 7    1  0.5038211E-009  0.4778727E+02  0.7816164E-02  0.1312668E+00
        -11   -1    0    0    0    0  0.00000000000E+00  0.00000000000E+00  0.45593999997E+02  0.45594000000E+02  0.51100000000E-03 0.  1.
         11   -1    0    0    0    0 -0.00000000000E+00 -0.00000000000E+00 -0.45593999997E+02  0.45594000000E+02  0.51100000000E-03 0. -1.
    9900012    2    1    2    0    0 -0.21907474413E+02  0.17926033259E+02  0.32898982236E+02  0.47787272636E+02  0.20000007258E+02 0.  0.
         12    1    1    2    0    0  0.21907474413E+02 -0.17926033259E+02 -0.32898982236E+02  0.43400727364E+02  0.00000000000E+00 0. -1.
         11    1    3    3    0    0 -0.82136087641E+01  0.62215034713E+01  0.14378527988E+01  0.10403744293E+02  0.51100000000E-03 0. -1.
        -11    1    3    3    0    0 -0.31965382660E+01  0.44854906988E+01  0.18110705295E+02  0.18929741948E+02  0.51100000000E-03 0.  1.
         12    1    3    3    0    0 -0.10497327383E+02  0.72190390890E+01  0.13350424142E+02  0.18453786395E+02  0.00000000000E+00 0. -1.
</event>
<event>
 7    1  0.5038211E-009  0.4778727E+02  0.7816164E-02  0.1312668E+00
        -11   -1    0    0    0    0  0.00000000000E+00  0.00000000000E+00  0.45593999997E+02  0.45594000000E+02  0.51100000000E-03 0. -1.
         11   -1    0    0    0    0 -0.00000000000E+00 -0.00000000000E+00 -0.45593999997E+02  0.45594000000E+02  0.51100000000E-03 0.  1.
    9900012    2    1    2    0    0 -0.22902166181E+02  0.12651967399E+02 -0.34627182068E+02  0.47787271517E+02  0.20000002157E+02 0.  0.
         12    1    1    2    0    0  0.22902166181E+02 -0.12651967399E+02  0.34627182068E+02  0.43400728483E+02  0.00000000000E+00 0. -1.
         11    1    3    3    0    0 -0.15775872789E+02 -0.23868881486E+01 -0.14818387113E+02  0.21775215135E+02  0.51100000000E-03 0. -1.
        -11    1    3    3    0    0 -0.72545117393E+01  0.13602423498E+02 -0.18200283026E+02  0.23851712057E+02  0.51100000000E-03 0.  1.
        -12    1    3    3    0    0  0.12821834672E+00  0.14364320496E+01 -0.16085119292E+01  0.21603443253E+01  0.00000000000E+00 0.  1.
</event>
<event>
 7    1  0.5038211E-009  0.4778727E+02  0.7816164E-02  0.1312668E+00
        -11   -1    0    0    0    0  0.00000000000E+00  0.00000000000E+00  0.45593999997E+02  0.45594000000E+02  0.51100000000E-03 0. -1.
         11   -1    0    0    0    0 -0.00000000000E+00 -0.00000000000E+00 -0.45593999997E+02  0.45594000000E+02  0.51100000000E-03 0.  1.
    9900012    2    1    2    0    0  0.42871872767E+02 -0.34496093463E+01 -0.58073829966E+01  0.47787274470E+02  0.20000015620E+02 0.  0.
         12    1    1    2    0    0 -0.42871872767E+02  0.34496093463E+01  0.58073829966E+01  0.43400725530E+02  0.00000000000E+00 0. -1.
         11    1    3    3    0    0  0.96250111130E+01  0.32553444439E+01  0.37184957151E+01  0.10819672685E+02  0.51100000000E-03 0. -1.
        -11    1    3    3    0    0  0.26698570634E+02 -0.11795918626E+01 -0.96079587325E+01  0.28399260239E+02  0.51100000000E-03 0.  1.
         12    1    3    3    0    0  0.65482910204E+01 -0.55253619277E+01  0.82080020808E-01  0.85683415460E+01  0.00000000000E+00 0. -1.
</event>
<event>
 7    1  0.5038211E-009  0.4778727E+02  0.7816164E-02  0.1312668E+00
        -11   -1    0    0    0    0  0.00000000000E+00  0.00000000000E+00  0.45593999997E+02  0.45594000000E+02  0.51100000000E-03 0. -1.
         11   -1    0    0    0    0 -0.00000000000E+00 -0.00000000000E+00 -0.45593999997E+02  0.45594000000E+02  0.51100000000E-03 0.  1.
    9900012    2    1    2    0    0  0.31629339713E+02  0.23452626131E+02  0.18253286854E+02  0.47787270927E+02  0.19999999463E+02 0.  0.
         12    1    1    2    0    0 -0.31629339713E+02 -0.23452626131E+02 -0.18253286854E+02  0.43400729073E+02  0.00000000000E+00 0. -1.
         11    1    3    3    0    0  0.68845635954E+01  0.23400141099E+01  0.14762177953E+01  0.74197103160E+01  0.51100000000E-03 0. -1.
        -11    1    3    3    0    0  0.25496576680E+02  0.21557640771E+02  0.11951121772E+02  0.35463172587E+02  0.51100000000E-03 0.  1.
        -12    1    3    3    0    0 -0.75180056257E+00 -0.44502875037E+00  0.48259472868E+01  0.49043880239E+01  0.00000000000E+00 0.  1.
</event>
<event>
 7    1  0.5038211E-009  0.4778727E+02  0.7816164E-02  0.1312668E+00
        -11   -1    0    0    0    0  0.00000000000E+00  0.00000000000E+00  0.45593999997E+02  0.45594000000E+02  0.51100000000E-03 0.  1.
         11   -1    0    0    0    0 -0.00000000000E+00 -0.00000000000E+00 -0.45593999997E+02  0.45594000000E+02  0.51100000000E-03 0. -1.
    9900012    2    1    2    0    0  0.29800730555E+02  0.31441459054E+02  0.26408843351E+01  0.47787272367E+02  0.20000006029E+02 0.  0.
         12    1    1    2    0    0 -0.29800730555E+02 -0.31441459054E+02 -0.26408843351E+01  0.43400727633E+02  0.00000000000E+00 0. -1.
         11    1    3    3    0    0  0.47129676399E+01  0.61387625918E+01 -0.66254628621E+01  0.10187896178E+02  0.51100000000E-03 0. -1.
        -11    1    3    3    0    0  0.19197766976E+02  0.21388945207E+02  0.45492148128E+01  0.29098738626E+02  0.51100000000E-03 0.  1.
         12    1    3    3    0    0  0.58899959395E+01  0.39137512544E+01  0.47171323844E+01  0.85006375632E+01  0.00000000000E+00 0. -1.
</event>
<event>
 7    1  0.5038211E-009  0.4778727E+02  0.7816164E-02  0.1312668E+00
        -11   -1    0    0    0    0  0.00000000000E+00  0.00000000000E+00  0.45593999997E+02  0.45594000000E+02  0.51100000000E-03 0.  1.
         11   -1    0    0    0    0 -0.00000000000E+00 -0.00000000000E+00 -0.45593999997E+02  0.45594000000E+02  0.51100000000E-03 0. -1.
    9900012    2    1    2    0    0  0.34979699201E+02  0.53403856320E+01  0.25130142693E+02  0.47787272510E+02  0.20000006682E+02 0.  0.
         12    1    1    2    0    0 -0.34979699201E+02 -0.53403856320E+01 -0.25130142693E+02  0.43400727490E+02  0.00000000000E+00 0. -1.
         11    1    3    3    0    0  0.43558943541E+01  0.16098318843E+01  0.65423855327E+01  0.80229784394E+01  0.51100000000E-03 0. -1.
        -11    1    3    3    0    0  0.27022002652E+02  0.91112856638E+01  0.16574243089E+02  0.32983475984E+02  0.51100000000E-03 0.  1.
        -12    1    3    3    0    0  0.36018021949E+01 -0.53807319161E+01  0.20135140714E+01  0.67808180863E+01  0.00000000000E+00 0.  1.
</event>
<event>
 7    1  0.5038211E-009  0.4778728E+02  0.7816164E-02  0.1312668E+00
        -11   -1    0    0    0    0  0.00000000000E+00  0.00000000000E+00  0.45593999997E+02  0.45594000000E+02  0.51100000000E-03 0. -1.
         11   -1    0    0    0    0 -0.00000000000E+00 -0.00000000000E+00 -0.45593999997E+02  0.45594000000E+02  0.51100000000E-03 0.  1.
    9900012    2    1    2    0    0 -0.25808852189E+02  0.27859977856E+02 -0.21008277226E+02  0.47787275013E+02  0.20000018093E+02 0.  0.
         12    1    1    2    0    0  0.25808852189E+02 -0.27859977856E+02  0.21008277226E+02  0.43400724987E+02  0.00000000000E+00 0. -1.
         11    1    3    3    0    0 -0.63472684175E+01  0.17737292407E+01 -0.10744755451E+02  0.12604907844E+02  0.51100000000E-03 0. -1.
        -11    1    3    3    0    0 -0.18522447763E+02  0.24291550060E+02 -0.11686640202E+02  0.32706849969E+02  0.51100000000E-03 0.  1.
        -12    1    3    3    0    0 -0.93913600876E+00  0.17946985548E+01  0.14231184278E+01  0.24755171995E+01  0.00000000000E+00 0.  1.
</event>
<event>
 7    1  0.5038211E-009  0.4778727E+02  0.7816164E-02  0.1312668E+00
        -11   -1    0    0    0    0  0.00000000000E+00  0.00000000000E+00  0.45593999997E+02  0.45594000000E+02  0.51100000000E-03 0. -1.
         11   -1    0    0    0    0 -0.00000000000E+00 -0.00000000000E+00 -0.45593999997E+02  0.45594000000E+02  0.51100000000E-03 0.  1.
    9900012    2    1    2    0    0 -0.16461024570E+02 -0.36363494009E+02 -0.17039784976E+02  0.47787270761E+02  0.19999998708E+02 0.  0.
         12    1    1    2    0    0  0.16461024570E+02  0.36363494009E+02  0.17039784976E+02  0.43400729239E+02  0.00000000000E+00 0. -1.
         11    1    3    3    0    0 -0.52778317265E+01 -0.15366637815E+01 -0.70920466697E+01  0.89729576806E+01  0.51100000000E-03 0. -1.
        -11    1    3    3    0    0 -0.70220522375E+01 -0.28870209477E+02 -0.10535382128E+02  0.31524474456E+02  0.51100000000E-03 0.  1.
        -12    1    3    3    0    0 -0.41611406062E+01 -0.59566207508E+01  0.58764382214E+00  0.72898386247E+01  0.00000000000E+00 0.  1.
</event>
<event>
 7    1  0.5038211E-009  0.4778727E+02  0.7816164E-02  0.1312668E+00
        -11   -1    0    0    0    0  0.00000000000E+00  0.00000000000E+00  0.45593999997E+02  0.45594000000E+02  0.51100000000E-03 0.  1.
         11   -1    0    0    0    0 -0.00000000000E+00 -0.00000000000E+00 -0.45593999997E+02  0.45594000000E+02  0.51100000000E-03 0. -1.
    9900012    2    1    2    0    0  0.31589113416E+02 -0.16890840513E+02  0.24504096893E+02  0.47787270235E+02  0.19999996308E+02 0.  0.
         12    1    1    2    0    0 -0.31589113416E+02  0.16890840513E+02 -0.24504096893E+02  0.43400729765E+02  0.00000000000E+00 0. -1.
         11    1    3    3    0    0  0.94271699136E+01 -0.74965419557E+01  0.15014971973E+00  0.12045423159E+02  0.51100000000E-03 0. -1.
        -11    1    3    3    0    0  0.16059817066E+02 -0.10306952371E+02  0.22037419516E+02  0.29151309586E+02  0.51100000000E-03 0.  1.
         12    1    3    3    0    0  0.61021264361E+01  0.91265381380E+00  0.23165276568E+01  0.65905374902E+01  0.00000000000E+00 0. -1.
</event>
<event>
 7    1  0.5038211E-009  0.4778727E+02  0.7816164E-02  0.1312668E+00
        -11   -1    0    0    0    0  0.00000000000E+00  0.00000000000E+00  0.45593999997E+02  0.45594000000E+02  0.51100000000E-03 0.  1.
         11   -1    0    0    0    0 -0.00000000000E+00 -0.00000000000E+00 -0.45593999997E+02  0.45594000000E+02  0.51100000000E-03 0. -1.
    9900012    2    1    2    0    0 -0.10902829837E+02 -0.33033392225E+02 -0.25952775084E+02  0.47787271494E+02  0.20000002048E+02 0.  0.
         12    1    1    2    0    0  0.10902829837E+02  0.33033392225E+02  0.25952775084E+02  0.43400728506E+02  0.00000000000E+00 0. -1.
         11    1    3    3    0    0 -0.13963083299E+02 -0.17101065718E+02 -0.21800878359E+02  0.31027285434E+02  0.51100000000E-03 0. -1.
        -11    1    3    3    0    0  0.19082724153E+01 -0.10173203306E+02 -0.29791762752E+01  0.10770843081E+02  0.51100000000E-03 0.  1.
         12    1    3    3    0    0  0.11519810471E+01 -0.57591232001E+01 -0.11727204495E+01  0.59891429787E+01  0.00000000000E+00 0. -1.
</event>
<event>
 7    1  0.5038211E-009  0.4778727E+02  0.7816164E-02  0.1312668E+00
        -11   -1    0    0    0    0  0.00000000000E+00  0.00000000000E+00  0.45593999997E+02  0.45594000000E+02  0.51100000000E-03 0.  1.
         11   -1    0    0    0    0 -0.00000000000E+00 -0.00000000000E+00 -0.45593999997E+02  0.45594000000E+02  0.51100000000E-03 0. -1.
    9900012    2    1    2    0    0  0.21144774548E+02 -0.18562524111E+02  0.33044736026E+02  0.47787269925E+02  0.19999994895E+02 0.  0.
         12    1    1    2    0    0 -0.21144774548E+02  0.18562524111E+02 -0.33044736026E+02  0.43400730075E+02  0.00000000000E+00 0. -1.
         11    1    3    3    0    0  0.20328234508E+00  0.30786995121E+01  0.22768133107E+01  0.38345265041E+01  0.51100000000E-03 0. -1.
        -11    1    3    3    0    0  0.60357651539E+01 -0.58184914835E+01  0.35113041604E+01  0.90892552668E+01  0.51100000000E-03 0.  1.
         12    1    3    3    0    0  0.14905727049E+02 -0.15822732139E+02  0.27256618555E+02  0.34863488154E+02  0.00000000000E+00 0. -1.
</event>
<event>
 7    1  0.5038211E-009  0.4778727E+02  0.7816164E-02  0.1312668E+00
        -11   -1    0    0    0    0  0.00000000000E+00  0.00000000000E+00  0.45593999997E+02  0.45594000000E+02  0.51100000000E-03 0. -1.
         11   -1    0    0    0    0 -0.00000000000E+00 -0.00000000000E+00 -0.45593999997E+02  0.45594000000E+02  0.51100000000E-03 0.  1.
    9900012    2    1    2    0    0 -0.13223813388E+02 -0.17272705499E+01  0.41300974025E+02  0.47787272362E+02  0.20000006007E+02 0.  0.
         12    1    1    2    0    0  0.13223813388E+02  0.17272705499E+01 -0.41300974025E+02  0.43400727638E+02  0.00000000000E+00 0. -1.
         11    1    3    3    0    0 -0.11218709026E+02  0.97233447687E+00  0.24533197162E+02  0.26994122134E+02  0.51100000000E-03 0.  1.
        -11    1    3    3    0    0  0.30503412068E+01  0.31706226095E+01  0.76841792414E+01  0.88546055860E+01  0.51100000000E-03 0. -1.
         12    1    3    3    0    0 -0.50554455687E+01 -0.58702276363E+01  0.90835976218E+01  0.11938544641E+02  0.00000000000E+00 0. -1.
</event>
<event>
 7    1  0.5038211E-009  0.4778728E+02  0.7816164E-02  0.1312668E+00
        -11   -1    0    0    0    0  0.00000000000E+00  0.00000000000E+00  0.45593999997E+02  0.45594000000E+02  0.51100000000E-03 0.  1.
         11   -1    0    0    0    0 -0.00000000000E+00 -0.00000000000E+00 -0.45593999997E+02  0.45594000000E+02  0.51100000000E-03 0. -1.
    9900012    2    1    2    0    0 -0.32563301702E+02 -0.15262261755E+02  0.24296450233E+02  0.47787277131E+02  0.20000027751E+02 0.  0.
         12    1    1    2    0    0  0.32563301702E+02  0.15262261755E+02 -0.24296450233E+02  0.43400722869E+02  0.00000000000E+00 0. -1.
         11    1    3    3    0    0  0.65222405972E+00 -0.18857158518E+01  0.43629764700E+00  0.20424682117E+01  0.51100000000E-03 0. -1.
        -11    1    3    3    0    0 -0.13950227185E+02  0.14074903255E+01  0.46202864467E+01  0.14762686566E+02  0.51100000000E-03 0.  1.
        -12    1    3    3    0    0 -0.19265298577E+02 -0.14784036228E+02  0.19239866140E+02  0.30982122354E+02  0.00000000000E+00 0.  1.
</event>
<event>
 7    1  0.5038211E-009  0.4778729E+02  0.7816164E-02  0.1312668E+00
        -11   -1    0    0    0    0  0.00000000000E+00  0.00000000000E+00  0.45593999997E+02  0.45594000000E+02  0.51100000000E-03 0. -1.
         11   -1    0    0    0    0 -0.00000000000E+00 -0.00000000000E+00 -0.45593999997E+02  0.45594000000E+02  0.51100000000E-03 0.  1.
    9900012    2    1    2    0    0  0.38510662050E+02 -0.19495953432E+02 -0.45231151319E+01  0.47787287307E+02  0.20000074148E+02 0.  0.
         12    1    1    2    0    0 -0.38510662050E+02  0.19495953432E+02  0.45231151319E+01  0.43400712693E+02  0.00000000000E+00 0. -1.
         11    1    3    3    0    0  0.61010553320E+01 -0.46485968349E+01 -0.98872824939E+00  0.77336868640E+01  0.51100000000E-03 0.  1.
        -11    1    3    3    0    0  0.10885498963E+01 -0.27080746479E+01  0.46404025065E+01  0.54819654194E+01  0.51100000000E-03 0. -1.
        -12    1    3    3    0    0  0.31321056822E+02 -0.12139281949E+02 -0.81747893891E+01  0.34571635024E+02  0.00000000000E+00 0.  1.
</event>
<event>
 7    1  0.5038211E-009  0.4778728E+02  0.7816164E-02  0.1312668E+00
        -11   -1    0    0    0    0  0.00000000000E+00  0.00000000000E+00  0.45593999997E+02  0.45594000000E+02  0.51100000000E-03 0. -1.
         11   -1    0    0    0    0 -0.00000000000E+00 -0.00000000000E+00 -0.45593999997E+02  0.45594000000E+02  0.51100000000E-03 0.  1.
    9900012    2    1    2    0    0 -0.35740805899E+02  0.43069856757E+01 -0.24241854088E+02  0.47787276256E+02  0.20000023760E+02 0.  0.
         12    1    1    2    0    0  0.35740805899E+02 -0.43069856757E+01  0.24241854088E+02  0.43400723744E+02  0.00000000000E+00 0. -1.
         11    1    3    3    0    0 -0.32467898362E+01 -0.22550120866E+01 -0.43141871348E+01  0.58514045020E+01  0.51100000000E-03 0. -1.
        -11    1    3    3    0    0 -0.26306965260E+02 -0.15709391287E+01 -0.16783180517E+02  0.31244190172E+02  0.51100000000E-03 0.  1.
        -12    1    3    3    0    0 -0.61870508024E+01  0.81329368910E+01 -0.31444864362E+01  0.10691681582E+02  0.00000000000E+00 0.  1.
</event>
<event>
 7    1  0.5038211E-009  0.4778727E+02  0.7816164E-02  0.1312668E+00
        -11   -1    0    0    0    0  0.00000000000E+00  0.00000000000E+00  0.45593999997E+02  0.45594000000E+02  0.51100000000E-03 0. -1.
         11   -1    0    0    0    0 -0.00000000000E+00 -0.00000000000E+00 -0.45593999997E+02  0.45594000000E+02  0.51100000000E-03 0.  1.
    9900012    2    1    2    0    0 -0.83254888520E+01  0.11985260492E+02 -0.40873746075E+02  0.47787270146E+02  0.19999995903E+02 0.  0.
         12    1    1    2    0    0  0.83254888520E+01 -0.11985260492E+02  0.40873746075E+02  0.43400729854E+02  0.00000000000E+00 0. -1.
         11    1    3    3    0    0 -0.46611327123E+01 -0.13892238975E+01 -0.20082382404E+01  0.52620454474E+01  0.51100000000E-03 0. -1.
        -11    1    3    3    0    0  0.30405601633E+01  0.68287070524E+01 -0.21948050913E+02  0.23186055836E+02  0.51100000000E-03 0.  1.
        -12    1    3    3    0    0 -0.67049163030E+01  0.65457773371E+01 -0.16917456922E+02  0.19339168862E+02  0.00000000000E+00 0.  1.
</event>
<event>
 7    1  0.5038211E-009  0.4778727E+02  0.7816164E-02  0.1312668E+00
        -11   -1    0    0    0    0  0.00000000000E+00  0.00000000000E+00  0.45593999997E+02  0.45594000000E+02  0.51100000000E-03 0.  1.
         11   -1    0    0    0    0 -0.00000000000E+00 -0.00000000000E+00 -0.45593999997E+02  0.45594000000E+02  0.51100000000E-03 0. -1.
    9900012    2    1    2    0    0  0.19243353523E+02 -0.25829845121E+02  0.29088414886E+02  0.47787269195E+02  0.19999991570E+02 0.  0.
         12    1    1    2    0    0 -0.19243353523E+02  0.25829845121E+02 -0.29088414886E+02  0.43400730805E+02  0.00000000000E+00 0. -1.
         11    1    3    3    0    0  0.55562530623E+01 -0.17832224563E+02  0.13734767581E+02  0.23184132973E+02  0.51100000000E-03 0. -1.
        -11    1    3    3    0    0  0.48518416380E+01 -0.86324850717E+01  0.10765963663E+02  0.14627581470E+02  0.51100000000E-03 0.  1.
         12    1    3    3    0    0  0.88352588231E+01  0.63486451394E+00  0.45876836415E+01  0.99755547524E+01  0.00000000000E+00 0. -1.
</event>
<event>
 7    1  0.5038211E-009  0.4778727E+02  0.7816164E-02  0.1312668E+00
        -11   -1    0    0    0    0  0.00000000000E+00  0.00000000000E+00  0.45593999997E+02  0.45594000000E+02  0.51100000000E-03 0.  1.
         11   -1    0    0    0    0 -0.00000000000E+00 -0.00000000000E+00 -0.45593999997E+02  0.45594000000E+02  0.51100000000E-03 0. -1.
    9900012    2    1    2    0    0 -0.30969546979E+02  0.29959646200E+02  0.51893868070E+01  0.47787274477E+02  0.20000015650E+02 0.  0.
         12    1    1    2    0    0  0.30969546979E+02 -0.29959646200E+02 -0.51893868070E+01  0.43400725523E+02  0.00000000000E+00 0. -1.
         11    1    3    3    0    0 -0.12731347556E+02  0.35485818908E+01 -0.33990551743E+01  0.13646729292E+02  0.51100000000E-03 0. -1.
        -11    1    3    3    0    0 -0.10890350215E+02  0.20157455037E+02  0.86552653961E+01  0.24491556519E+02  0.51100000000E-03 0.  1.
        -12    1    3    3    0    0 -0.73478492070E+01  0.62536092722E+01 -0.66823414725E-01  0.96489886655E+01  0.00000000000E+00 0.  1.
</event>
<event>
 7    1  0.5038211E-009  0.4778727E+02  0.7816164E-02  0.1312668E+00
        -11   -1    0    0    0    0  0.00000000000E+00  0.00000000000E+00  0.45593999997E+02  0.45594000000E+02  0.51100000000E-03 0. -1.
         11   -1    0    0    0    0 -0.00000000000E+00 -0.00000000000E+00 -0.45593999997E+02  0.45594000000E+02  0.51100000000E-03 0.  1.
    9900012    2    1    2    0    0  0.31177515237E+02 -0.18556703288E+02 -0.23816686818E+02  0.47787271155E+02  0.20000000505E+02 0.  0.
         12    1    1    2    0    0 -0.31177515237E+02  0.18556703288E+02  0.23816686818E+02  0.43400728845E+02  0.00000000000E+00 0. -1.
         11    1    3    3    0    0  0.13460978860E+02 -0.15353547684E+02 -0.17155501649E+02  0.26669094762E+02  0.51100000000E-03 0. -1.
        -11    1    3    3    0    0  0.11193739324E+02 -0.21554916077E+01  0.45460092747E+00  0.11408444521E+02  0.51100000000E-03 0.  1.
        -12    1    3    3    0    0  0.65227970530E+01 -0.10476639963E+01 -0.71157860974E+01  0.97097318720E+01  0.00000000000E+00 0.  1.
</event>
<event>
 7    1  0.5038211E-009  0.4778727E+02  0.7816164E-02  0.1312668E+00
        -11   -1    0    0    0    0  0.00000000000E+00  0.00000000000E+00  0.45593999997E+02  0.45594000000E+02  0.51100000000E-03 0.  1.
         11   -1    0    0    0    0 -0.00000000000E+00 -0.00000000000E+00 -0.45593999997E+02  0.45594000000E+02  0.51100000000E-03 0. -1.
    9900012    2    1    2    0    0  0.24737092561E+02 -0.34585833731E+02  0.86902111655E+01  0.47787269438E+02  0.19999992673E+02 0.  0.
         12    1    1    2    0    0 -0.24737092561E+02  0.34585833731E+02 -0.86902111655E+01  0.43400730562E+02  0.00000000000E+00 0. -1.
         11    1    3    3    0    0  0.52028668164E+01 -0.18026022413E+02  0.12351829537E+01  0.18802472825E+02  0.51100000000E-03 0. -1.
        -11    1    3    3    0    0  0.22714640908E+01 -0.87471270123E+01  0.29711269641E+01  0.95131159870E+01  0.51100000000E-03 0.  1.
         12    1    3    3    0    0  0.17262761654E+02 -0.78126843059E+01  0.44839012477E+01  0.19471680626E+02  0.00000000000E+00 0. -1.
</event>
<event>
 7    1  0.5038211E-009  0.4778725E+02  0.7816164E-02  0.1312668E+00
        -11   -1    0    0    0    0  0.00000000000E+00  0.00000000000E+00  0.45593999997E+02  0.45594000000E+02  0.51100000000E-03 0. -1.
         11   -1    0    0    0    0 -0.00000000000E+00 -0.00000000000E+00 -0.45593999997E+02  0.45594000000E+02  0.51100000000E-03 0.  1.
    9900012    2    1    2    0    0 -0.38867250976E+02 -0.34518195019E+01 -0.19001236922E+02  0.47787248153E+02  0.19999895630E+02 0.  0.
         12    1    1    2    0    0  0.38867250976E+02  0.34518195019E+01  0.19001236922E+02  0.43400751847E+02  0.00000000000E+00 0. -1.
         11    1    3    3    0    0 -0.25011338593E+02  0.65778105588E+00 -0.80906170149E+01  0.26295585524E+02  0.51100000000E-03 0.  1.
        -11    1    3    3    0    0 -0.60836564939E+01 -0.42334992688E+01 -0.11515925586E+02  0.13694887176E+02  0.51100000000E-03 0. -1.
        -12    1    3    3    0    0 -0.77722558891E+01  0.12389871097E+00  0.60530567944E+00  0.77967754529E+01  0.00000000000E+00 0.  1.
</event>
<event>
 7    1  0.5038211E-009  0.4778727E+02  0.7816164E-02  0.1312668E+00
        -11   -1    0    0    0    0  0.00000000000E+00  0.00000000000E+00  0.45593999997E+02  0.45594000000E+02  0.51100000000E-03 0. -1.
         11   -1    0    0    0    0 -0.00000000000E+00 -0.00000000000E+00 -0.45593999997E+02  0.45594000000E+02  0.51100000000E-03 0.  1.
    9900012    2    1    2    0    0  0.41305902142E+02  0.82464789339E+01 -0.10461422295E+02  0.47787270478E+02  0.19999997417E+02 0.  0.
         12    1    1    2    0    0 -0.41305902142E+02 -0.82464789339E+01  0.10461422295E+02  0.43400729522E+02  0.00000000000E+00 0. -1.
         11    1    3    3    0    0  0.10718767150E+02 -0.25146275395E+01 -0.35947410777E+01  0.11581773809E+02  0.51100000000E-03 0. -1.
        -11    1    3    3    0    0  0.27392289896E+01 -0.32467632921E+01 -0.18441253745E+01  0.46309443951E+01  0.51100000000E-03 0.  1.
        -12    1    3    3    0    0  0.27847906003E+02  0.14007869766E+02 -0.50225558432E+01  0.31574552274E+02  0.00000000000E+00 0.  1.
</event>
<event>
 7    1  0.5038211E-009  0.4778727E+02  0.7816164E-02  0.1312668E+00
        -11   -1    0    0    0    0  0.00000000000E+00  0.00000000000E+00  0.45593999997E+02  0.45594000000E+02  0.51100000000E-03 0.  1.
         11   -1    0    0    0    0 -0.00000000000E+00 -0.00000000000E+00 -0.45593999997E+02  0.45594000000E+02  0.51100000000E-03 0. -1.
    9900012    2    1    2    0    0 -0.23729395769E+02 -0.31202257180E+02  0.18626814583E+02  0.47787270764E+02  0.19999998722E+02 0.  0.
         12    1    1    2    0    0  0.23729395769E+02  0.31202257180E+02 -0.18626814583E+02  0.43400729236E+02  0.00000000000E+00 0. -1.
         11    1    3    3    0    0 -0.17974045795E+02 -0.25995894295E+02  0.10109374429E+02  0.33182108041E+02  0.51100000000E-03 0. -1.
        -11    1    3    3    0    0 -0.77633688761E+01 -0.38115130566E+01  0.41336058866E+01  0.95856260084E+01  0.51100000000E-03 0.  1.
         12    1    3    3    0    0  0.20080189012E+01 -0.13948498285E+01  0.43838342673E+01  0.50195367151E+01  0.00000000000E+00 0. -1.
</event>
<event>
 7    1  0.5038211E-009  0.4778727E+02  0.7816164E-02  0.1312668E+00
        -11   -1    0    0    0    0  0.00000000000E+00  0.00000000000E+00  0.45593999997E+02  0.45594000000E+02  0.51100000000E-03 0.  1.
         11   -1    0    0    0    0 -0.00000000000E+00 -0.00000000000E+00 -0.45593999997E+02  0.45594000000E+02  0.51100000000E-03 0. -1.
    9900012    2    1    2    0    0  0.63427013284E+01  0.33166579075E+02  0.27264845763E+02  0.47787266802E+02  0.19999980656E+02 0.  0.
         12    1    1    2    0    0 -0.63427013284E+01 -0.33166579075E+02 -0.27264845763E+02  0.43400733198E+02  0.00000000000E+00 0. -1.
         11    1    3    3    0    0  0.10145908308E+02  0.24757475722E+02  0.19688111858E+02  0.33218877289E+02  0.51100000000E-03 0. -1.
        -11    1    3    3    0    0 -0.45004369092E-01  0.54717456218E+01  0.80944292625E+01  0.97704560226E+01  0.51100000000E-03 0.  1.
         12    1    3    3    0    0 -0.37582026100E+01  0.29373577306E+01 -0.51769535751E+00  0.47979334904E+01  0.00000000000E+00 0. -1.
</event>
<event>
 7    1  0.5038211E-009  0.4778727E+02  0.7816164E-02  0.1312668E+00
        -11   -1    0    0    0    0  0.00000000000E+00  0.00000000000E+00  0.45593999997E+02  0.45594000000E+02  0.51100000000E-03 0.  1.
         11   -1    0    0    0    0 -0.00000000000E+00 -0.00000000000E+00 -0.45593999997E+02  0.45594000000E+02  0.51100000000E-03 0. -1.
    9900012    2    1    2    0    0  0.36336853107E+02 -0.23250666176E+02 -0.47605449608E+01  0.47787272360E+02  0.20000005999E+02 0.  0.
         12    1    1    2    0    0 -0.36336853107E+02  0.23250666176E+02  0.47605449608E+01  0.43400727640E+02  0.00000000000E+00 0. -1.
         11    1    3    3    0    0  0.31753905084E+01 -0.40757114459E+01  0.24759233031E+01  0.57292866166E+01  0.51100000000E-03 0. -1.
        -11    1    3    3    0    0  0.16864659223E+02 -0.18397563514E+02 -0.61629426282E+01  0.25707371240E+02  0.51100000000E-03 0.  1.
        -12    1    3    3    0    0  0.16296803375E+02 -0.77739121618E+00 -0.10735256358E+01  0.16350614504E+02  0.00000000000E+00 0.  1.
</event>
<event>
 7    1  0.5038211E-009  0.4778727E+02  0.7816164E-02  0.1312668E+00
        -11   -1    0    0    0    0  0.00000000000E+00  0.00000000000E+00  0.45593999997E+02  0.45594000000E+02  0.51100000000E-03 0.  1.
         11   -1    0    0    0    0 -0.00000000000E+00 -0.00000000000E+00 -0.45593999997E+02  0.45594000000E+02  0.51100000000E-03 0. -1.
    9900012    2    1    2    0    0 -0.15572086489E+02  0.21818718851E+02  0.34133222801E+02  0.47787271104E+02  0.20000000273E+02 0.  0.
         12    1    1    2    0    0  0.15572086489E+02 -0.21818718851E+02 -0.34133222801E+02  0.43400728896E+02  0.00000000000E+00 0. -1.
         11    1    3    3    0    0  0.15093055446E+01  0.13959456242E+02  0.13195329425E+02  0.19268137967E+02  0.51100000000E-03 0. -1.
        -11    1    3    3    0    0 -0.90442861997E+01  0.16788840251E+01  0.92226191407E+01  0.13025915266E+02  0.51100000000E-03 0.  1.
         12    1    3    3    0    0 -0.80371058339E+01  0.61803785830E+01  0.11715274235E+02  0.15493217872E+02  0.00000000000E+00 0. -1.
</event>
<event>
 7    1  0.5038211E-009  0.4778729E+02  0.7816164E-02  0.1312668E+00
        -11   -1    0    0    0    0  0.00000000000E+00  0.00000000000E+00  0.45593999997E+02  0.45594000000E+02  0.51100000000E-03 0. -1.
         11   -1    0    0    0    0 -0.00000000000E+00 -0.00000000000E+00 -0.45593999997E+02  0.45594000000E+02  0.51100000000E-03 0.  1.
    9900012    2    1    2    0    0 -0.12167864053E+02 -0.29293858668E+01 -0.41556986207E+02  0.47787293557E+02  0.20000102641E+02 0.  0.
         12    1    1    2    0    0  0.12167864053E+02  0.29293858668E+01  0.41556986207E+02  0.43400706443E+02  0.00000000000E+00 0. -1.
         11    1    3    3    0    0 -0.15297277788E+02 -0.36059120479E+01 -0.19223776193E+02  0.24830684260E+02  0.51100000000E-03 0. -1.
        -11    1    3    3    0    0  0.22706463061E+01  0.76825577431E+00 -0.21821458209E+02  0.21952723982E+02  0.51100000000E-03 0.  1.
         12    1    3    3    0    0  0.85876742919E+00 -0.91729593179E-01 -0.51175180483E+00  0.10038853149E+01  0.00000000000E+00 0. -1.
</event>
<event>
 7    1  0.5038211E-009  0.4778726E+02  0.7816164E-02  0.1312668E+00
        -11   -1    0    0    0    0  0.00000000000E+00  0.00000000000E+00  0.45593999997E+02  0.45594000000E+02  0.51100000000E-03 0.  1.
         11   -1    0    0    0    0 -0.00000000000E+00 -0.00000000000E+00 -0.45593999997E+02  0.45594000000E+02  0.51100000000E-03 0. -1.
    9900012    2    1    2    0    0  0.31696669997E+02  0.28047702729E+02  0.96058046701E+01  0.47787262672E+02  0.19999961825E+02 0.  0.
         12    1    1    2    0    0 -0.31696669997E+02 -0.28047702729E+02 -0.96058046701E+01  0.43400737328E+02  0.00000000000E+00 0. -1.
         11    1    3    3    0    0  0.23054692337E+02  0.15024824504E+02  0.18126705843E+00  0.27519030654E+02  0.51100000000E-03 0. -1.
        -11    1    3    3    0    0  0.32736431473E+01  0.24231766062E+01  0.70645191438E+01  0.81545052158E+01  0.51100000000E-03 0.  1.
        -12    1    3    3    0    0  0.53683345121E+01  0.10599701620E+02  0.23600184679E+01  0.12113726802E+02  0.00000000000E+00 0.  1.
</event>
<event>
 7    1  0.5038211E-009  0.4778728E+02  0.7816164E-02  0.1312668E+00
        -11   -1    0    0    0    0  0.00000000000E+00  0.00000000000E+00  0.45593999997E+02  0.45594000000E+02  0.51100000000E-03 0.  1.
         11   -1    0    0    0    0 -0.00000000000E+00 -0.00000000000E+00 -0.45593999997E+02  0.45594000000E+02  0.51100000000E-03 0. -1.
    9900012    2    1    2    0    0  0.14728583211E+02  0.39864476074E+02  0.88042428435E+01  0.47787282170E+02  0.20000050726E+02 0.  0.
         12    1    1    2    0    0 -0.14728583211E+02 -0.39864476074E+02 -0.88042428435E+01  0.43400717830E+02  0.00000000000E+00 0. -1.
         11    1    3    3    0    0  0.17418245890E+01  0.27142224305E+00  0.36472922144E+00  0.18001807129E+01  0.51100000000E-03 0. -1.
        -11    1    3    3    0    0  0.10552817217E+02  0.37721686717E+02  0.12298915848E+02  0.41055461650E+02  0.51100000000E-03 0.  1.
        -12    1    3    3    0    0  0.24339414054E+01  0.18713671139E+01 -0.38594022263E+01  0.49316398068E+01  0.00000000000E+00 0.  1.
</event>
<event>
 7    1  0.5038211E-009  0.4778727E+02  0.7816164E-02  0.1312668E+00
        -11   -1    0    0    0    0  0.00000000000E+00  0.00000000000E+00  0.45593999997E+02  0.45594000000E+02  0.51100000000E-03 0.  1.
         11   -1    0    0    0    0 -0.00000000000E+00 -0.00000000000E+00 -0.45593999997E+02  0.45594000000E+02  0.51100000000E-03 0. -1.
    9900012    2    1    2    0    0  0.23856878458E+02  0.10760160544E+02  0.34622129708E+02  0.47787267631E+02  0.19999984435E+02 0.  0.
         12    1    1    2    0    0 -0.23856878458E+02 -0.10760160544E+02 -0.34622129708E+02  0.43400732369E+02  0.00000000000E+00 0. -1.
         11    1    3    3    0    0  0.15594539596E+02 -0.92556001898E-01  0.15593891322E+02  0.22053745229E+02  0.51100000000E-03 0. -1.
        -11    1    3    3    0    0 -0.12491547950E+00  0.67889946110E+01  0.12904281065E+02  0.14581718752E+02  0.51100000000E-03 0.  1.
         12    1    3    3    0    0  0.83872543418E+01  0.40637219349E+01  0.61239573210E+01  0.11151803649E+02  0.00000000000E+00 0. -1.
</event>
<event>
 7    1  0.5038211E-009  0.4778725E+02  0.7816164E-02  0.1312668E+00
        -11   -1    0    0    0    0  0.00000000000E+00  0.00000000000E+00  0.45593999997E+02  0.45594000000E+02  0.51100000000E-03 0.  1.
         11   -1    0    0    0    0 -0.00000000000E+00 -0.00000000000E+00 -0.45593999997E+02  0.45594000000E+02  0.51100000000E-03 0. -1.
    9900012    2    1    2    0    0 -0.12970226831E+02 -0.33510378145E+01  0.41281581727E+02  0.47787248527E+02  0.19999897336E+02 0.  0.
         12    1    1    2    0    0  0.12970226831E+02  0.33510378145E+01 -0.41281581727E+02  0.43400751473E+02  0.00000000000E+00 0. -1.
         11    1    3    3    0    0 -0.53817883719E+01 -0.61749074648E+01  0.10102067717E+02  0.13005571910E+02  0.51100000000E-03 0. -1.
        -11    1    3    3    0    0  0.14508559743E+01 -0.37851164500E+01  0.10676489881E+02  0.11420136866E+02  0.51100000000E-03 0.  1.
        -12    1    3    3    0    0 -0.90392944337E+01  0.66089861004E+01  0.20503024130E+02  0.23361539752E+02  0.00000000000E+00 0.  1.
</event>
<event>
 7    1  0.1079788E-008  0.4778728E+02  0.7816164E-02  0.1312668E+00
        -11   -1    0    0    0    0  0.00000000000E+00  0.00000000000E+00  0.45593999997E+02  0.45594000000E+02  0.51100000000E-03 0.  1.
         11   -1    0    0    0    0 -0.00000000000E+00 -0.00000000000E+00 -0.45593999997E+02  0.45594000000E+02  0.51100000000E-03 0. -1.
    9900012    2    1    2    0    0  0.29998682204E+02 -0.29023414892E+02 -0.11888785459E+02  0.47787276900E+02  0.20000026696E+02 0.  0.
         12    1    1    2    0    0 -0.29998682204E+02  0.29023414892E+02  0.11888785459E+02  0.43400723100E+02  0.00000000000E+00 0. -1.
         11    1    3    3    0    0  0.27402108850E+00  0.10346111271E+01 -0.12489727985E+01  0.16448224992E+01  0.51100000000E-03 0. -1.
        -11    1    3    3    0    0  0.97002442672E+01 -0.15595014971E+02  0.18579117246E+01  0.18459443844E+02  0.51100000000E-03 0.  1.
        -12    1    3    3    0    0  0.20024416848E+02 -0.14463011048E+02 -0.12497724385E+02  0.27683010557E+02  0.00000000000E+00 0.  1.
</event>
<event>
 7    1  0.5038211E-009  0.4778727E+02  0.7816164E-02  0.1312668E+00
        -11   -1    0    0    0    0  0.00000000000E+00  0.00000000000E+00  0.45593999997E+02  0.45594000000E+02  0.51100000000E-03 0.  1.
         11   -1    0    0    0    0 -0.00000000000E+00 -0.00000000000E+00 -0.45593999997E+02  0.45594000000E+02  0.51100000000E-03 0. -1.
    9900012    2    1    2    0    0  0.43152968567E+02 -0.22939523884E+00  0.46251290973E+01  0.47787272615E+02  0.20000007162E+02 0.  0.
         12    1    1    2    0    0 -0.43152968567E+02  0.22939523884E+00 -0.46251290973E+01  0.43400727385E+02  0.00000000000E+00 0. -1.
         11    1    3    3    0    0  0.17719448353E+02 -0.35700005579E+01 -0.50646043104E+01  0.18771626754E+02  0.51100000000E-03 0. -1.
        -11    1    3    3    0    0  0.23236444012E+02 -0.10580316420E+00  0.77818663026E+01  0.24505121262E+02  0.51100000000E-03 0.  1.
         12    1    3    3    0    0  0.21970762024E+01  0.34464084833E+01  0.19078671051E+01  0.45105245996E+01  0.00000000000E+00 0. -1.
</event>
<event>
 7    1  0.5038211E-009  0.4778727E+02  0.7816164E-02  0.1312668E+00
        -11   -1    0    0    0    0  0.00000000000E+00  0.00000000000E+00  0.45593999997E+02  0.45594000000E+02  0.51100000000E-03 0.  1.
         11   -1    0    0    0    0 -0.00000000000E+00 -0.00000000000E+00 -0.45593999997E+02  0.45594000000E+02  0.51100000000E-03 0. -1.
    9900012    2    1    2    0    0  0.42230400227E+02  0.84138365380E+01  0.54243706331E+01  0.47787272525E+02  0.20000006750E+02 0.  0.
         12    1    1    2    0    0 -0.42230400227E+02 -0.84138365380E+01 -0.54243706331E+01  0.43400727475E+02  0.00000000000E+00 0. -1.
         11    1    3    3    0    0  0.53889876407E+01  0.48617405686E+01 -0.46517070158E+01  0.86206779067E+01  0.51100000000E-03 0. -1.
        -11    1    3    3    0    0  0.32289779831E+02  0.28074065799E+01  0.11416734449E+02  0.34363545204E+02  0.51100000000E-03 0.  1.
        -12    1    3    3    0    0  0.45516327549E+01  0.74468938952E+00 -0.13406567999E+01  0.48030494144E+01  0.00000000000E+00 0.  1.
</event>
<event>
 7    1  0.5038211E-009  0.4778726E+02  0.7816164E-02  0.1312668E+00
        -11   -1    0    0    0    0  0.00000000000E+00  0.00000000000E+00  0.45593999997E+02  0.45594000000E+02  0.51100000000E-03 0.  1.
         11   -1    0    0    0    0 -0.00000000000E+00 -0.00000000000E+00 -0.45593999997E+02  0.45594000000E+02  0.51100000000E-03 0. -1.
    9900012    2    1    2    0    0 -0.40338834356E+02 -0.15639626194E+02  0.34357978556E+01  0.47787260702E+02  0.19999952844E+02 0.  0.
         12    1    1    2    0    0  0.40338834356E+02  0.15639626194E+02 -0.34357978556E+01  0.43400739298E+02  0.00000000000E+00 0. -1.
         11    1    3    3    0    0 -0.40345325390E+01 -0.33941694357E+01  0.61468386032E+00  0.53080764384E+01  0.51100000000E-03 0. -1.
        -11    1    3    3    0    0 -0.31011447848E+02 -0.10648986192E+02  0.91833284169E+01  0.34050614174E+02  0.51100000000E-03 0.  1.
        -12    1    3    3    0    0 -0.52928539694E+01 -0.15964705665E+01 -0.63622144216E+01  0.84285700897E+01  0.00000000000E+00 0.  1.
</event>
<event>
 7    1  0.5038211E-009  0.4778727E+02  0.7816164E-02  0.1312668E+00
        -11   -1    0    0    0    0  0.00000000000E+00  0.00000000000E+00  0.45593999997E+02  0.45594000000E+02  0.51100000000E-03 0.  1.
         11   -1    0    0    0    0 -0.00000000000E+00 -0.00000000000E+00 -0.45593999997E+02  0.45594000000E+02  0.51100000000E-03 0. -1.
    9900012    2    1    2    0    0  0.17001652902E+02 -0.59554255973E+01  0.39485446213E+02  0.47787265466E+02  0.19999974565E+02 0.  0.
         12    1    1    2    0    0 -0.17001652902E+02  0.59554255973E+01 -0.39485446213E+02  0.43400734534E+02  0.00000000000E+00 0. -1.
         11    1    3    3    0    0  0.11147395832E+02  0.45203359820E+00  0.12779822971E+02  0.16964452353E+02  0.51100000000E-03 0. -1.
        -11    1    3    3    0    0 -0.33610654765E+01  0.79690631789E+00  0.85948902460E+01  0.92630426653E+01  0.51100000000E-03 0.  1.
         12    1    3    3    0    0  0.92153225460E+01 -0.72043655134E+01  0.18110732996E+02  0.21559770447E+02  0.00000000000E+00 0. -1.
</event>
<event>
 7    1  0.5038211E-009  0.4778727E+02  0.7816164E-02  0.1312668E+00
        -11   -1    0    0    0    0  0.00000000000E+00  0.00000000000E+00  0.45593999997E+02  0.45594000000E+02  0.51100000000E-03 0.  1.
         11   -1    0    0    0    0 -0.00000000000E+00 -0.00000000000E+00 -0.45593999997E+02  0.45594000000E+02  0.51100000000E-03 0. -1.
    9900012    2    1    2    0    0  0.29215793212E+02 -0.24496061559E+02  0.20736525721E+02  0.47787273003E+02  0.20000008929E+02 0.  0.
         12    1    1    2    0    0 -0.29215793212E+02  0.24496061559E+02 -0.20736525721E+02  0.43400726997E+02  0.00000000000E+00 0. -1.
         11    1    3    3    0    0  0.35983452870E+01 -0.17079368012E+01 -0.68117804707E+00  0.40409331489E+01  0.51100000000E-03 0. -1.
        -11    1    3    3    0    0  0.14831422522E+02 -0.89250860571E+01  0.17825818514E+01  0.17401317578E+02  0.51100000000E-03 0.  1.
        -12    1    3    3    0    0  0.10786025404E+02 -0.13863038700E+02  0.19635121917E+02  0.26345022276E+02  0.00000000000E+00 0.  1.
</event>
<event>
 7    1  0.5038211E-009  0.4778727E+02  0.7816164E-02  0.1312668E+00
        -11   -1    0    0    0    0  0.00000000000E+00  0.00000000000E+00  0.45593999997E+02  0.45594000000E+02  0.51100000000E-03 0.  1.
         11   -1    0    0    0    0 -0.00000000000E+00 -0.00000000000E+00 -0.45593999997E+02  0.45594000000E+02  0.51100000000E-03 0. -1.
    9900012    2    1    2    0    0 -0.36691685623E+02  0.22746795175E+02 -0.44639445623E+01  0.47787270909E+02  0.19999999383E+02 0.  0.
         12    1    1    2    0    0  0.36691685623E+02 -0.22746795175E+02  0.44639445623E+01  0.43400729091E+02  0.00000000000E+00 0. -1.
         11    1    3    3    0    0 -0.54665745914E+01  0.86762898620E+01 -0.42441582086E+00  0.10263604269E+02  0.51100000000E-03 0. -1.
        -11    1    3    3    0    0 -0.31836325968E+02  0.10438864244E+02 -0.45282018233E+01  0.33808669744E+02  0.51100000000E-03 0.  1.
        -12    1    3    3    0    0  0.61121493726E+00  0.36316410696E+01  0.48867308191E+00  0.37149968962E+01  0.00000000000E+00 0.  1.
</event>
<event>
 7    1  0.5038211E-009  0.4778727E+02  0.7816164E-02  0.1312668E+00
        -11   -1    0    0    0    0  0.00000000000E+00  0.00000000000E+00  0.45593999997E+02  0.45594000000E+02  0.51100000000E-03 0.  1.
         11   -1    0    0    0    0 -0.00000000000E+00 -0.00000000000E+00 -0.45593999997E+02  0.45594000000E+02  0.51100000000E-03 0. -1.
    9900012    2    1    2    0    0  0.15431736938E+02  0.33067787670E+02  0.23494813646E+02  0.47787270115E+02  0.19999995762E+02 0.  0.
         12    1    1    2    0    0 -0.15431736938E+02 -0.33067787670E+02 -0.23494813646E+02  0.43400729885E+02  0.00000000000E+00 0. -1.
         11    1    3    3    0    0  0.95477973219E+01  0.11437155881E+02  0.62016151026E+01  0.16137812692E+02  0.51100000000E-03 0. -1.
        -11    1    3    3    0    0 -0.22250673641E+01 -0.20436664900E+00  0.46219713193E+01  0.51337422646E+01  0.51100000000E-03 0.  1.
        -12    1    3    3    0    0  0.81090069805E+01  0.21834998438E+02  0.12671227224E+02  0.26515715158E+02  0.00000000000E+00 0.  1.
</event>
<event>
 7    1  0.5038211E-009  0.4778727E+02  0.7816164E-02  0.1312668E+00
        -11   -1    0    0    0    0  0.00000000000E+00  0.00000000000E+00  0.45593999997E+02  0.45594000000E+02  0.51100000000E-03 0.  1.
         11   -1    0    0    0    0 -0.00000000000E+00 -0.00000000000E+00 -0.45593999997E+02  0.45594000000E+02  0.51100000000E-03 0. -1.
    9900012    2    1    2    0    0  0.24978365824E+02 -0.16270964038E+01  0.35455001064E+02  0.47787270716E+02  0.19999998504E+02 0.  0.
         12    1    1    2    0    0 -0.24978365824E+02  0.16270964038E+01 -0.35455001064E+02  0.43400729284E+02  0.00000000000E+00 0. -1.
         11    1    3    3    0    0  0.23768512453E+02 -0.22760605643E+01  0.22960218417E+02  0.33125432313E+02  0.51100000000E-03 0. -1.
        -11    1    3    3    0    0  0.21374588920E+00  0.40746416753E+01  0.60907592908E+01  0.73311486881E+01  0.51100000000E-03 0.  1.
         12    1    3    3    0    0  0.99610748138E+00 -0.34256775148E+01  0.64040233562E+01  0.73306897149E+01  0.00000000000E+00 0. -1.
</event>
<event>
 7    1  0.5038211E-009  0.4778727E+02  0.7816164E-02  0.1312668E+00
        -11   -1    0    0    0    0  0.00000000000E+00  0.00000000000E+00  0.45593999997E+02  0.45594000000E+02  0.51100000000E-03 0. -1.
         11   -1    0    0    0    0 -0.00000000000E+00 -0.00000000000E+00 -0.45593999997E+02  0.45594000000E+02  0.51100000000E-03 0.  1.
    9900012    2    1    2    0    0 -0.24245326987E+02 -0.35910052818E+02  0.25011724961E+01  0.47787266850E+02  0.19999980876E+02 0.  0.
         12    1    1    2    0    0  0.24245326987E+02  0.35910052818E+02 -0.25011724961E+01  0.43400733150E+02  0.00000000000E+00 0. -1.
         11    1    3    3    0    0 -0.22088972064E+02 -0.23588859577E+02  0.80048763969E+01  0.33293167908E+02  0.51100000000E-03 0. -1.
        -11    1    3    3    0    0  0.48535227462E+00 -0.71795890823E+01 -0.12184616217E+01  0.72984049769E+01  0.51100000000E-03 0.  1.
         12    1    3    3    0    0 -0.26417071971E+01 -0.51416041591E+01 -0.42852422791E+01  0.71956939648E+01  0.00000000000E+00 0. -1.
</event>
<event>
 7    1  0.5038211E-009  0.4778728E+02  0.7816164E-02  0.1312668E+00
        -11   -1    0    0    0    0  0.00000000000E+00  0.00000000000E+00  0.45593999997E+02  0.45594000000E+02  0.51100000000E-03 0.  1.
         11   -1    0    0    0    0 -0.00000000000E+00 -0.00000000000E+00 -0.45593999997E+02  0.45594000000E+02  0.51100000000E-03 0. -1.
    9900012    2    1    2    0    0  0.22515283798E+02  0.21528666405E+01  0.37041190654E+02  0.47787278297E+02  0.20000033066E+02 0.  0.
         12    1    1    2    0    0 -0.22515283798E+02 -0.21528666405E+01 -0.37041190654E+02  0.43400721703E+02  0.00000000000E+00 0. -1.
         11    1    3    3    0    0  0.73313168583E+01  0.25479420662E+00  0.18377523957E+01  0.75624375101E+01  0.51100000000E-03 0. -1.
        -11    1    3    3    0    0  0.17110685229E+02  0.63369958023E+00  0.30201332145E+02  0.34717396039E+02  0.51100000000E-03 0.  1.
        -12    1    3    3    0    0 -0.19267182885E+01  0.12643728536E+01  0.50021061131E+01  0.55074447472E+01  0.00000000000E+00 0.  1.
</event>
<event>
 7    1  0.5038211E-009  0.4778727E+02  0.7816164E-02  0.1312668E+00
        -11   -1    0    0    0    0  0.00000000000E+00  0.00000000000E+00  0.45593999997E+02  0.45594000000E+02  0.51100000000E-03 0.  1.
         11   -1    0    0    0    0 -0.00000000000E+00 -0.00000000000E+00 -0.45593999997E+02  0.45594000000E+02  0.51100000000E-03 0. -1.
    9900012    2    1    2    0    0 -0.27201232997E+02 -0.33808329342E+02  0.84448066648E+00  0.47787270086E+02  0.19999995631E+02 0.  0.
         12    1    1    2    0    0  0.27201232997E+02  0.33808329342E+02 -0.84448066648E+00  0.43400729914E+02  0.00000000000E+00 0. -1.
         11    1    3    3    0    0 -0.50699565734E+01 -0.13257079269E+02  0.40111206842E+01  0.14749362692E+02  0.51100000000E-03 0. -1.
        -11    1    3    3    0    0 -0.16759001977E+02 -0.19982269748E+02 -0.62491328100E+01  0.26818033349E+02  0.51100000000E-03 0.  1.
        -12    1    3    3    0    0 -0.53722744462E+01 -0.56898032513E+00  0.30824927922E+01  0.62198740461E+01  0.00000000000E+00 0.  1.
</event>
<event>
 7    1  0.5038211E-009  0.4778727E+02  0.7816164E-02  0.1312668E+00
        -11   -1    0    0    0    0  0.00000000000E+00  0.00000000000E+00  0.45593999997E+02  0.45594000000E+02  0.51100000000E-03 0.  1.
         11   -1    0    0    0    0 -0.00000000000E+00 -0.00000000000E+00 -0.45593999997E+02  0.45594000000E+02  0.51100000000E-03 0. -1.
    9900012    2    1    2    0    0  0.21719019563E+02 -0.14290830444E+02  0.34751686605E+02  0.47787269967E+02  0.19999995085E+02 0.  0.
         12    1    1    2    0    0 -0.21719019563E+02  0.14290830444E+02 -0.34751686605E+02  0.43400730033E+02  0.00000000000E+00 0. -1.
         11    1    3    3    0    0  0.16818380703E+02 -0.13218088080E+02  0.12602475265E+02  0.24827367259E+02  0.51100000000E-03 0. -1.
        -11    1    3    3    0    0  0.30610993693E+01  0.78597621486E+00  0.15417410673E+02  0.15737999875E+02  0.51100000000E-03 0.  1.
         12    1    3    3    0    0  0.18395394904E+01 -0.18587185789E+01  0.67318006671E+01  0.72219028319E+01  0.00000000000E+00 0. -1.
</event>
<event>
 7    1  0.5038211E-009  0.4778727E+02  0.7816164E-02  0.1312668E+00
        -11   -1    0    0    0    0  0.00000000000E+00  0.00000000000E+00  0.45593999997E+02  0.45594000000E+02  0.51100000000E-03 0.  1.
         11   -1    0    0    0    0 -0.00000000000E+00 -0.00000000000E+00 -0.45593999997E+02  0.45594000000E+02  0.51100000000E-03 0. -1.
    9900012    2    1    2    0    0  0.42299936514E+01  0.68235640794E+01  0.42651720849E+02  0.47787272306E+02  0.20000005751E+02 0.  0.
         12    1    1    2    0    0 -0.42299936514E+01 -0.68235640794E+01 -0.42651720849E+02  0.43400727694E+02  0.00000000000E+00 0. -1.
         11    1    3    3    0    0 -0.37985224968E+01  0.57868829899E+00  0.10517848922E+01  0.39837049372E+01  0.51100000000E-03 0. -1.
        -11    1    3    3    0    0  0.80214428661E+01  0.21821539543E+01  0.35598873717E+02  0.36556602027E+02  0.51100000000E-03 0.  1.
         12    1    3    3    0    0  0.70732821000E-02  0.40627218261E+01  0.60010622390E+01  0.72469653417E+01  0.00000000000E+00 0. -1.
</event>
<event>
 7    1  0.5038211E-009  0.4778727E+02  0.7816164E-02  0.1312668E+00
        -11   -1    0    0    0    0  0.00000000000E+00  0.00000000000E+00  0.45593999997E+02  0.45594000000E+02  0.51100000000E-03 0.  1.
         11   -1    0    0    0    0 -0.00000000000E+00 -0.00000000000E+00 -0.45593999997E+02  0.45594000000E+02  0.51100000000E-03 0. -1.
    9900012    2    1    2    0    0 -0.18898911564E+01  0.26991488103E+02  0.33933924988E+02  0.47787269779E+02  0.19999994231E+02 0.  0.
         12    1    1    2    0    0  0.18898911564E+01 -0.26991488103E+02 -0.33933924988E+02  0.43400730221E+02  0.00000000000E+00 0. -1.
         11    1    3    3    0    0 -0.47034417519E+01 -0.41381344626E+00  0.25978948807E+01  0.53891246000E+01  0.51100000000E-03 0. -1.
        -11    1    3    3    0    0  0.48154574114E+01  0.11157213203E+02  0.14419071962E+02  0.18856873364E+02  0.51100000000E-03 0.  1.
         12    1    3    3    0    0 -0.20019068159E+01  0.16248088346E+02  0.16916958145E+02  0.23541271815E+02  0.00000000000E+00 0. -1.
</event>
<event>
 7    1  0.5038211E-009  0.4778728E+02  0.7816164E-02  0.1312668E+00
        -11   -1    0    0    0    0  0.00000000000E+00  0.00000000000E+00  0.45593999997E+02  0.45594000000E+02  0.51100000000E-03 0. -1.
         11   -1    0    0    0    0 -0.00000000000E+00 -0.00000000000E+00 -0.45593999997E+02  0.45594000000E+02  0.51100000000E-03 0.  1.
    9900012    2    1    2    0    0 -0.54271268342E+01  0.39472944259E+02 -0.17206274251E+02  0.47787275263E+02  0.20000019234E+02 0.  0.
         12    1    1    2    0    0  0.54271268342E+01 -0.39472944259E+02  0.17206274251E+02  0.43400724737E+02  0.00000000000E+00 0. -1.
         11    1    3    3    0    0 -0.36575752535E+01  0.31263642445E+02 -0.17822079759E+02  0.36172084856E+02  0.51100000000E-03 0.  1.
        -11    1    3    3    0    0 -0.47825393043E+01  0.34030127222E+01  0.88586609628E+00  0.59361550507E+01  0.51100000000E-03 0. -1.
        -12    1    3    3    0    0  0.30129877237E+01  0.48062890914E+01 -0.27006058818E+00  0.56790353560E+01  0.00000000000E+00 0.  1.
</event>
<event>
 7    1  0.5038211E-009  0.4778726E+02  0.7816164E-02  0.1312668E+00
        -11   -1    0    0    0    0  0.00000000000E+00  0.00000000000E+00  0.45593999997E+02  0.45594000000E+02  0.51100000000E-03 0.  1.
         11   -1    0    0    0    0 -0.00000000000E+00 -0.00000000000E+00 -0.45593999997E+02  0.45594000000E+02  0.51100000000E-03 0. -1.
    9900012    2    1    2    0    0  0.99798348657E+01 -0.36637541269E+02  0.21017071471E+02  0.47787264667E+02  0.19999970925E+02 0.  0.
         12    1    1    2    0    0 -0.99798348657E+01  0.36637541269E+02 -0.21017071471E+02  0.43400735333E+02  0.00000000000E+00 0. -1.
         11    1    3    3    0    0  0.56721249053E+01 -0.58490010660E+01  0.11029095283E+02  0.13712211982E+02  0.51100000000E-03 0. -1.
        -11    1    3    3    0    0 -0.33947399510E+00 -0.16003542931E+02  0.73321059454E+00  0.16023926703E+02  0.51100000000E-03 0.  1.
        -12    1    3    3    0    0  0.46471839555E+01 -0.14784997272E+02  0.92547655928E+01  0.18051125982E+02  0.00000000000E+00 0.  1.
</event>
<event>
 7    1  0.5038211E-009  0.4778727E+02  0.7816164E-02  0.1312668E+00
        -11   -1    0    0    0    0  0.00000000000E+00  0.00000000000E+00  0.45593999997E+02  0.45594000000E+02  0.51100000000E-03 0.  1.
         11   -1    0    0    0    0 -0.00000000000E+00 -0.00000000000E+00 -0.45593999997E+02  0.45594000000E+02  0.51100000000E-03 0. -1.
    9900012    2    1    2    0    0  0.21435087074E+02  0.76750566218E+01  0.36949338900E+02  0.47787273080E+02  0.20000009281E+02 0.  0.
         12    1    1    2    0    0 -0.21435087074E+02 -0.76750566218E+01 -0.36949338900E+02  0.43400726920E+02  0.00000000000E+00 0. -1.
         11    1    3    3    0    0  0.83368727271E+00  0.22027080075E+01 -0.16130633677E+01  0.28546332031E+01  0.51100000000E-03 0. -1.
        -11    1    3    3    0    0  0.72120155621E+01 -0.11746650536E+01  0.18674584487E+02  0.20053256905E+02  0.51100000000E-03 0.  1.
         12    1    3    3    0    0  0.13389384240E+02  0.66470136679E+01  0.19887817780E+02  0.24879382972E+02  0.00000000000E+00 0. -1.
</event>
<event>
 7    1  0.5038211E-009  0.4778727E+02  0.7816164E-02  0.1312668E+00
        -11   -1    0    0    0    0  0.00000000000E+00  0.00000000000E+00  0.45593999997E+02  0.45594000000E+02  0.51100000000E-03 0.  1.
         11   -1    0    0    0    0 -0.00000000000E+00 -0.00000000000E+00 -0.45593999997E+02  0.45594000000E+02  0.51100000000E-03 0. -1.
    9900012    2    1    2    0    0 -0.39253426174E+02 -0.18514596271E+02 -0.39058778978E-01  0.47787271122E+02  0.20000000355E+02 0.  0.
         12    1    1    2    0    0  0.39253426174E+02  0.18514596271E+02  0.39058778978E-01  0.43400728878E+02  0.00000000000E+00 0. -1.
         11    1    3    3    0    0  0.14487433287E+01  0.60289806859E+00  0.93959736135E+00  0.18289851766E+01  0.51100000000E-03 0. -1.
        -11    1    3    3    0    0 -0.31859649540E+02 -0.15448550328E+02 -0.46364674330E+01  0.35709827871E+02  0.51100000000E-03 0.  1.
         12    1    3    3    0    0 -0.88425199629E+01 -0.36689440123E+01  0.36578112927E+01  0.10248458075E+02  0.00000000000E+00 0. -1.
</event>
<event>
 7    1  0.5038211E-009  0.4778727E+02  0.7816164E-02  0.1312668E+00
        -11   -1    0    0    0    0  0.00000000000E+00  0.00000000000E+00  0.45593999997E+02  0.45594000000E+02  0.51100000000E-03 0.  1.
         11   -1    0    0    0    0 -0.00000000000E+00 -0.00000000000E+00 -0.45593999997E+02  0.45594000000E+02  0.51100000000E-03 0. -1.
    9900012    2    1    2    0    0 -0.63129898092E-03  0.20489277739E+02  0.38259803519E+02  0.47787273416E+02  0.20000010813E+02 0.  0.
         12    1    1    2    0    0  0.63129898092E-03 -0.20489277739E+02 -0.38259803519E+02  0.43400726584E+02  0.00000000000E+00 0. -1.
         11    1    3    3    0    0 -0.57410447812E+01  0.32324196558E+00  0.10198781148E+02  0.11708083435E+02  0.51100000000E-03 0. -1.
        -11    1    3    3    0    0  0.39129237479E+00  0.12325252972E+02  0.20588807702E+02  0.23999249433E+02  0.51100000000E-03 0.  1.
         12    1    3    3    0    0  0.53491211074E+01  0.78407828020E+01  0.74722146698E+01  0.12079940548E+02  0.00000000000E+00 0. -1.
</event>
<event>
 7    1  0.5038211E-009  0.4778727E+02  0.7816164E-02  0.1312668E+00
        -11   -1    0    0    0    0  0.00000000000E+00  0.00000000000E+00  0.45593999997E+02  0.45594000000E+02  0.51100000000E-03 0. -1.
         11   -1    0    0    0    0 -0.00000000000E+00 -0.00000000000E+00 -0.45593999997E+02  0.45594000000E+02  0.51100000000E-03 0.  1.
    9900012    2    1    2    0    0  0.11785545434E+02  0.54702180586E+00 -0.41766313030E+02  0.47787271687E+02  0.20000002929E+02 0.  0.
         12    1    1    2    0    0 -0.11785545434E+02 -0.54702180586E+00  0.41766313030E+02  0.43400728313E+02  0.00000000000E+00 0. -1.
         11    1    3    3    0    0  0.12984207492E+02  0.33677982651E+01 -0.37024453563E+02  0.39379460017E+02  0.51100000000E-03 0. -1.
        -11    1    3    3    0    0 -0.16812923173E+01 -0.46897779169E+01 -0.30537033041E+01  0.58434463202E+01  0.51100000000E-03 0.  1.
         12    1    3    3    0    0  0.48263025963E+00  0.18690014577E+01 -0.16881561622E+01  0.25643653492E+01  0.00000000000E+00 0. -1.
</event>
<event>
 7    1  0.5038211E-009  0.4778728E+02  0.7816164E-02  0.1312668E+00
        -11   -1    0    0    0    0  0.00000000000E+00  0.00000000000E+00  0.45593999997E+02  0.45594000000E+02  0.51100000000E-03 0. -1.
         11   -1    0    0    0    0 -0.00000000000E+00 -0.00000000000E+00 -0.45593999997E+02  0.45594000000E+02  0.51100000000E-03 0.  1.
    9900012    2    1    2    0    0  0.14992197127E+02 -0.22963121813E+02 -0.33638541390E+02  0.47787281055E+02  0.20000045641E+02 0.  0.
         12    1    1    2    0    0 -0.14992197127E+02  0.22963121813E+02  0.33638541390E+02  0.43400718945E+02  0.00000000000E+00 0. -1.
         11    1    3    3    0    0  0.61062349352E+01 -0.48852557482E+01 -0.21939256858E+02  0.23291260604E+02  0.51100000000E-03 0. -1.
        -11    1    3    3    0    0  0.58611300493E+01 -0.79043306067E+01 -0.18424624328E+01  0.10011291419E+02  0.51100000000E-03 0.  1.
        -12    1    3    3    0    0  0.30248321422E+01 -0.10173535459E+02 -0.98568220999E+01  0.14484729032E+02  0.00000000000E+00 0.  1.
</event>
<event>
 7    1  0.5038211E-009  0.4778726E+02  0.7816164E-02  0.1312668E+00
        -11   -1    0    0    0    0  0.00000000000E+00  0.00000000000E+00  0.45593999997E+02  0.45594000000E+02  0.51100000000E-03 0. -1.
         11   -1    0    0    0    0 -0.00000000000E+00 -0.00000000000E+00 -0.45593999997E+02  0.45594000000E+02  0.51100000000E-03 0.  1.
    9900012    2    1    2    0    0  0.10478143049E+02 -0.33349595285E+02 -0.25722305459E+02  0.47787262845E+02  0.19999962618E+02 0.  0.
         12    1    1    2    0    0 -0.10478143049E+02  0.33349595285E+02  0.25722305459E+02  0.43400737155E+02  0.00000000000E+00 0. -1.
         11    1    3    3    0    0  0.65601311334E+01 -0.48970989029E+01 -0.61026508197E+01  0.10210741669E+02  0.51100000000E-03 0. -1.
        -11    1    3    3    0    0  0.22617320924E+01 -0.75750174527E+01 -0.13692646291E+02  0.15810910290E+02  0.51100000000E-03 0.  1.
        -12    1    3    3    0    0  0.16562798230E+01 -0.20877478929E+02 -0.59270083483E+01  0.21765610886E+02  0.00000000000E+00 0.  1.
</event>
<event>
 7    1  0.5038211E-009  0.4778726E+02  0.7816164E-02  0.1312668E+00
        -11   -1    0    0    0    0  0.00000000000E+00  0.00000000000E+00  0.45593999997E+02  0.45594000000E+02  0.51100000000E-03 0.  1.
         11   -1    0    0    0    0 -0.00000000000E+00 -0.00000000000E+00 -0.45593999997E+02  0.45594000000E+02  0.51100000000E-03 0. -1.
    9900012    2    1    2    0    0 -0.11739330648E+02  0.28422471233E+02  0.30626384180E+02  0.47787260801E+02  0.19999953297E+02 0.  0.
         12    1    1    2    0    0  0.11739330648E+02 -0.28422471233E+02 -0.30626384180E+02  0.43400739199E+02  0.00000000000E+00 0. -1.
         11    1    3    3    0    0 -0.64584297627E+01  0.43158911441E+01  0.17528697150E+02  0.19172726864E+02  0.51100000000E-03 0. -1.
        -11    1    3    3    0    0 -0.38727458038E+01  0.19339158122E+02  0.13038287856E+02  0.23643141657E+02  0.51100000000E-03 0.  1.
        -12    1    3    3    0    0 -0.14081550819E+01  0.47674219665E+01  0.59399174077E-01  0.49713922801E+01  0.00000000000E+00 0.  1.
</event>
<event>
 7    1  0.5038211E-009  0.4778727E+02  0.7816164E-02  0.1312668E+00
        -11   -1    0    0    0    0  0.00000000000E+00  0.00000000000E+00  0.45593999997E+02  0.45594000000E+02  0.51100000000E-03 0.  1.
         11   -1    0    0    0    0 -0.00000000000E+00 -0.00000000000E+00 -0.45593999997E+02  0.45594000000E+02  0.51100000000E-03 0. -1.
    9900012    2    1    2    0    0 -0.76460718488E+01 -0.36559480427E+02  0.22103521783E+02  0.47787266147E+02  0.19999977668E+02 0.  0.
         12    1    1    2    0    0  0.76460718488E+01  0.36559480427E+02 -0.22103521783E+02  0.43400733853E+02  0.00000000000E+00 0. -1.
         11    1    3    3    0    0 -0.55093551291E+01 -0.11409689416E+01  0.11647163187E+01  0.57455520560E+01  0.51100000000E-03 0. -1.
        -11    1    3    3    0    0  0.19496822992E+01 -0.22378473866E+02  0.10243500114E+02  0.24688593489E+02  0.51100000000E-03 0.  1.
        -12    1    3    3    0    0 -0.40863990189E+01 -0.13040037619E+02  0.10695305351E+02  0.17353120601E+02  0.00000000000E+00 0.  1.
</event>
<event>
 7    1  0.5038211E-009  0.4778727E+02  0.7816164E-02  0.1312668E+00
        -11   -1    0    0    0    0  0.00000000000E+00  0.00000000000E+00  0.45593999997E+02  0.45594000000E+02  0.51100000000E-03 0.  1.
         11   -1    0    0    0    0 -0.00000000000E+00 -0.00000000000E+00 -0.45593999997E+02  0.45594000000E+02  0.51100000000E-03 0. -1.
    9900012    2    1    2    0    0 -0.19830864519E+02  0.11599267999E+02  0.36821426398E+02  0.47787266738E+02  0.19999980366E+02 0.  0.
         12    1    1    2    0    0  0.19830864519E+02 -0.11599267999E+02 -0.36821426398E+02  0.43400733262E+02  0.00000000000E+00 0. -1.
         11    1    3    3    0    0 -0.48127744737E+01  0.41941324642E+01  0.75038214357E+00  0.64278004702E+01  0.51100000000E-03 0. -1.
        -11    1    3    3    0    0 -0.16807787681E+02  0.75756549779E+01  0.33019217921E+02  0.37817469871E+02  0.51100000000E-03 0.  1.
        -12    1    3    3    0    0  0.17896976355E+01 -0.17051944342E+00  0.30518263338E+01  0.35419963973E+01  0.00000000000E+00 0.  1.
</event>
<event>
 7    1  0.5038211E-009  0.4778727E+02  0.7816164E-02  0.1312668E+00
        -11   -1    0    0    0    0  0.00000000000E+00  0.00000000000E+00  0.45593999997E+02  0.45594000000E+02  0.51100000000E-03 0.  1.
         11   -1    0    0    0    0 -0.00000000000E+00 -0.00000000000E+00 -0.45593999997E+02  0.45594000000E+02  0.51100000000E-03 0. -1.
    9900012    2    1    2    0    0  0.40306456877E+01 -0.13843762735E+02 -0.40935652160E+02  0.47787268565E+02  0.19999988694E+02 0.  0.
         12    1    1    2    0    0 -0.40306456877E+01  0.13843762735E+02  0.40935652160E+02  0.43400731435E+02  0.00000000000E+00 0. -1.
         11    1    3    3    0    0 -0.61595916091E-01  0.11306668774E+01 -0.24140708744E+02  0.24167250993E+02  0.51100000000E-03 0. -1.
        -11    1    3    3    0    0  0.40809784877E+01 -0.10679177717E+02 -0.15241158778E+02  0.19052352697E+02  0.51100000000E-03 0.  1.
         12    1    3    3    0    0  0.11263116117E-01 -0.42952518956E+01 -0.15537846378E+01  0.45676648744E+01  0.00000000000E+00 0. -1.
</event>
<event>
 7    1  0.5038211E-009  0.4778727E+02  0.7816164E-02  0.1312668E+00
        -11   -1    0    0    0    0  0.00000000000E+00  0.00000000000E+00  0.45593999997E+02  0.45594000000E+02  0.51100000000E-03 0.  1.
         11   -1    0    0    0    0 -0.00000000000E+00 -0.00000000000E+00 -0.45593999997E+02  0.45594000000E+02  0.51100000000E-03 0. -1.
    9900012    2    1    2    0    0 -0.68911960704E+01 -0.24016741544E+02  0.35487051504E+02  0.47787270949E+02  0.19999999565E+02 0.  0.
         12    1    1    2    0    0  0.68911960704E+01  0.24016741544E+02 -0.35487051504E+02  0.43400729051E+02  0.00000000000E+00 0. -1.
         11    1    3    3    0    0 -0.21186026517E+01 -0.21122243818E+02  0.23536933205E+02  0.31695818117E+02  0.51100000000E-03 0. -1.
        -11    1    3    3    0    0 -0.91652923149E+00  0.21904692780E+01  0.85233381397E+01  0.88479079332E+01  0.51100000000E-03 0.  1.
         12    1    3    3    0    0 -0.38560641872E+01 -0.50849670038E+01  0.34267801593E+01  0.72435448991E+01  0.00000000000E+00 0. -1.
</event>
<event>
 7    1  0.5038211E-009  0.4778727E+02  0.7816164E-02  0.1312668E+00
        -11   -1    0    0    0    0  0.00000000000E+00  0.00000000000E+00  0.45593999997E+02  0.45594000000E+02  0.51100000000E-03 0.  1.
         11   -1    0    0    0    0 -0.00000000000E+00 -0.00000000000E+00 -0.45593999997E+02  0.45594000000E+02  0.51100000000E-03 0. -1.
    9900012    2    1    2    0    0  0.33891122122E+02  0.50982232194E+00  0.27106370508E+02  0.47787269595E+02  0.19999993393E+02 0.  0.
         12    1    1    2    0    0 -0.33891122122E+02 -0.50982232194E+00 -0.27106370508E+02  0.43400730405E+02  0.00000000000E+00 0. -1.
         11    1    3    3    0    0  0.28073310420E+02  0.31503464117E+00  0.14469129264E+02  0.31584263592E+02  0.51100000000E-03 0. -1.
        -11    1    3    3    0    0  0.55139427049E+01  0.24972256078E+01  0.12485770904E+02  0.13875668460E+02  0.51100000000E-03 0.  1.
         12    1    3    3    0    0  0.30386899792E+00 -0.23024379270E+01  0.15147034051E+00  0.23273375431E+01  0.00000000000E+00 0. -1.
</event>
<event>
 7    1  0.5038211E-009  0.4778727E+02  0.7816164E-02  0.1312668E+00
        -11   -1    0    0    0    0  0.00000000000E+00  0.00000000000E+00  0.45593999997E+02  0.45594000000E+02  0.51100000000E-03 0.  1.
         11   -1    0    0    0    0 -0.00000000000E+00 -0.00000000000E+00 -0.45593999997E+02  0.45594000000E+02  0.51100000000E-03 0. -1.
    9900012    2    1    2    0    0  0.62948017831E+01 -0.25641773383E+02  0.34445587183E+02  0.47787267885E+02  0.19999985597E+02 0.  0.
         12    1    1    2    0    0 -0.62948017831E+01  0.25641773383E+02 -0.34445587183E+02  0.43400732115E+02  0.00000000000E+00 0. -1.
         11    1    3    3    0    0  0.87569307522E+01 -0.12865133450E+02  0.24276884246E+02  0.28836827215E+02  0.51100000000E-03 0.  1.
        -11    1    3    3    0    0 -0.21942297581E+01 -0.10169652830E+02  0.22973950521E+01  0.10654318711E+02  0.51100000000E-03 0. -1.
         12    1    3    3    0    0 -0.26789921101E+00 -0.26069871024E+01  0.78713078853E+01  0.82961219593E+01  0.00000000000E+00 0. -1.
</event>
<event>
 7    1  0.5038211E-009  0.4778727E+02  0.7816164E-02  0.1312668E+00
        -11   -1    0    0    0    0  0.00000000000E+00  0.00000000000E+00  0.45593999997E+02  0.45594000000E+02  0.51100000000E-03 0.  1.
         11   -1    0    0    0    0 -0.00000000000E+00 -0.00000000000E+00 -0.45593999997E+02  0.45594000000E+02  0.51100000000E-03 0. -1.
    9900012    2    1    2    0    0 -0.79537620763E+01 -0.37422288943E+02  0.20492276138E+02  0.47787269335E+02  0.19999992208E+02 0.  0.
         12    1    1    2    0    0  0.79537620763E+01  0.37422288943E+02 -0.20492276138E+02  0.43400730665E+02  0.00000000000E+00 0. -1.
         11    1    3    3    0    0  0.58050532385E+01 -0.60014742266E+01  0.21548389788E+01  0.86232051629E+01  0.51100000000E-03 0. -1.
        -11    1    3    3    0    0 -0.72406913943E+01 -0.21909823021E+02  0.12141861919E+02  0.26074753456E+02  0.51100000000E-03 0.  1.
         12    1    3    3    0    0 -0.65181239205E+01 -0.95109916959E+01  0.61955752402E+01  0.13089310717E+02  0.00000000000E+00 0. -1.
</event>
<event>
 7    1  0.5038211E-009  0.4778727E+02  0.7816164E-02  0.1312668E+00
        -11   -1    0    0    0    0  0.00000000000E+00  0.00000000000E+00  0.45593999997E+02  0.45594000000E+02  0.51100000000E-03 0.  1.
         11   -1    0    0    0    0 -0.00000000000E+00 -0.00000000000E+00 -0.45593999997E+02  0.45594000000E+02  0.51100000000E-03 0. -1.
    9900012    2    1    2    0    0 -0.30496270823E+02 -0.27301732370E+02  0.14429698977E+02  0.47787270316E+02  0.19999996678E+02 0.  0.
         12    1    1    2    0    0  0.30496270823E+02  0.27301732370E+02 -0.14429698977E+02  0.43400729684E+02  0.00000000000E+00 0. -1.
         11    1    3    3    0    0 -0.25853266305E+02 -0.21038916989E+02  0.94496614992E+01  0.34645685292E+02  0.51100000000E-03 0. -1.
        -11    1    3    3    0    0 -0.73833596981E+01 -0.54514851448E+01  0.29656959270E+01  0.96451046292E+01  0.51100000000E-03 0.  1.
         12    1    3    3    0    0  0.27403551793E+01 -0.81133023667E+00  0.20143415512E+01  0.34964803941E+01  0.00000000000E+00 0. -1.
</event>
<event>
 7    1  0.5038211E-009  0.4778727E+02  0.7816164E-02  0.1312668E+00
        -11   -1    0    0    0    0  0.00000000000E+00  0.00000000000E+00  0.45593999997E+02  0.45594000000E+02  0.51100000000E-03 0.  1.
         11   -1    0    0    0    0 -0.00000000000E+00 -0.00000000000E+00 -0.45593999997E+02  0.45594000000E+02  0.51100000000E-03 0. -1.
    9900012    2    1    2    0    0 -0.10817337491E+02 -0.10872166945E+02  0.40600551571E+02  0.47787267376E+02  0.19999983272E+02 0.  0.
         12    1    1    2    0    0  0.10817337491E+02  0.10872166945E+02 -0.40600551571E+02  0.43400732624E+02  0.00000000000E+00 0. -1.
         11    1    3    3    0    0 -0.43967330180E+01 -0.35081082783E+01  0.37913702948E+01  0.67832568798E+01  0.51100000000E-03 0. -1.
        -11    1    3    3    0    0 -0.10119448656E+02 -0.85275781883E+01  0.33060632649E+02  0.35610788566E+02  0.51100000000E-03 0.  1.
        -12    1    3    3    0    0  0.36988441838E+01  0.11635195218E+01  0.37485486271E+01  0.53932219298E+01  0.00000000000E+00 0.  1.
</event>
<event>
 7    1  0.5038211E-009  0.4778727E+02  0.7816164E-02  0.1312668E+00
        -11   -1    0    0    0    0  0.00000000000E+00  0.00000000000E+00  0.45593999997E+02  0.45594000000E+02  0.51100000000E-03 0.  1.
         11   -1    0    0    0    0 -0.00000000000E+00 -0.00000000000E+00 -0.45593999997E+02  0.45594000000E+02  0.51100000000E-03 0. -1.
    9900012    2    1    2    0    0  0.40494825618E+02  0.13481369725E+02 -0.78768585586E+01  0.47787272676E+02  0.20000007440E+02 0.  0.
         12    1    1    2    0    0 -0.40494825618E+02 -0.13481369725E+02  0.78768585586E+01  0.43400727324E+02  0.00000000000E+00 0. -1.
         11    1    3    3    0    0  0.33612227429E+01  0.46222475237E+01 -0.67263679180E+01  0.88264951213E+01  0.51100000000E-03 0. -1.
        -11    1    3    3    0    0  0.17805038948E+02  0.14367194442E+01  0.21601363329E+01  0.17993047656E+02  0.51100000000E-03 0.  1.
        -12    1    3    3    0    0  0.19328563927E+02  0.74224027568E+01 -0.33106269734E+01  0.20967729899E+02  0.00000000000E+00 0.  1.
</event>
<event>
 7    1  0.5038211E-009  0.4778727E+02  0.7816164E-02  0.1312668E+00
        -11   -1    0    0    0    0  0.00000000000E+00  0.00000000000E+00  0.45593999997E+02  0.45594000000E+02  0.51100000000E-03 0.  1.
         11   -1    0    0    0    0 -0.00000000000E+00 -0.00000000000E+00 -0.45593999997E+02  0.45594000000E+02  0.51100000000E-03 0. -1.
    9900012    2    1    2    0    0 -0.26240695379E+02  0.29022034260E+02  0.18782183134E+02  0.47787274547E+02  0.20000015970E+02 0.  0.
         12    1    1    2    0    0  0.26240695379E+02 -0.29022034260E+02 -0.18782183134E+02  0.43400725453E+02  0.00000000000E+00 0. -1.
         11    1    3    3    0    0 -0.51195039813E+01 -0.22537311620E+01  0.66208995658E-01  0.55940154681E+01  0.51100000000E-03 0. -1.
        -11    1    3    3    0    0 -0.19193599927E+02  0.29193944742E+02  0.17804427423E+02  0.39213241690E+02  0.51100000000E-03 0.  1.
        -12    1    3    3    0    0 -0.19275914710E+01  0.20818206804E+01  0.91154671577E+00  0.29800173891E+01  0.00000000000E+00 0.  1.
</event>
<event>
 7    1  0.5038211E-009  0.4778727E+02  0.7816164E-02  0.1312668E+00
        -11   -1    0    0    0    0  0.00000000000E+00  0.00000000000E+00  0.45593999997E+02  0.45594000000E+02  0.51100000000E-03 0.  1.
         11   -1    0    0    0    0 -0.00000000000E+00 -0.00000000000E+00 -0.45593999997E+02  0.45594000000E+02  0.51100000000E-03 0. -1.
    9900012    2    1    2    0    0  0.28953693860E+02  0.31351394662E+00  0.32329685080E+02  0.47787271706E+02  0.20000003014E+02 0.  0.
         12    1    1    2    0    0 -0.28953693860E+02 -0.31351394662E+00 -0.32329685080E+02  0.43400728294E+02  0.00000000000E+00 0. -1.
         11    1    3    3    0    0  0.27419491177E+02 -0.57203915579E+01  0.28135203987E+02  0.39700643316E+02  0.51100000000E-03 0. -1.
        -11    1    3    3    0    0  0.48626994093E+00  0.50324057621E+01  0.42945961386E+01  0.66336356897E+01  0.51100000000E-03 0.  1.
         12    1    3    3    0    0  0.10479327413E+01  0.10014997425E+01 -0.10011504570E+00  0.14529927002E+01  0.00000000000E+00 0. -1.
</event>
<event>
 7    1  0.5422339E-009  0.4778725E+02  0.7816164E-02  0.1312668E+00
        -11   -1    0    0    0    0  0.00000000000E+00  0.00000000000E+00  0.45593999997E+02  0.45594000000E+02  0.51100000000E-03 0.  1.
         11   -1    0    0    0    0 -0.00000000000E+00 -0.00000000000E+00 -0.45593999997E+02  0.45594000000E+02  0.51100000000E-03 0. -1.
    9900012    2    1    2    0    0 -0.15375051357E+02 -0.28545204580E+02  0.28851411743E+02  0.47787252676E+02  0.19999916250E+02 0.  0.
         12    1    1    2    0    0  0.15375051357E+02  0.28545204580E+02 -0.28851411743E+02  0.43400747324E+02  0.00000000000E+00 0. -1.
         11    1    3    3    0    0 -0.15418766026E+02 -0.14102067339E+02  0.15832429661E+02  0.26215882175E+02  0.51100000000E-03 0.  1.
        -11    1    3    3    0    0 -0.40642110180E+01 -0.99645499713E+01  0.61301144022E+01  0.12385005861E+02  0.51100000000E-03 0. -1.
         12    1    3    3    0    0  0.41079256873E+01 -0.44785872691E+01  0.68888676800E+01  0.91863646396E+01  0.00000000000E+00 0. -1.
</event>
<event>
 7    1  0.5038211E-009  0.4778728E+02  0.7816164E-02  0.1312668E+00
        -11   -1    0    0    0    0  0.00000000000E+00  0.00000000000E+00  0.45593999997E+02  0.45594000000E+02  0.51100000000E-03 0.  1.
         11   -1    0    0    0    0 -0.00000000000E+00 -0.00000000000E+00 -0.45593999997E+02  0.45594000000E+02  0.51100000000E-03 0. -1.
    9900012    2    1    2    0    0 -0.23017159349E+02  0.23511091834E+02  0.28303022306E+02  0.47787284160E+02  0.20000059800E+02 0.  0.
         12    1    1    2    0    0  0.23017159349E+02 -0.23511091834E+02 -0.28303022306E+02  0.43400715840E+02  0.00000000000E+00 0. -1.
         11    1    3    3    0    0  0.13619556225E+01 -0.60026206190E+00  0.51857829284E+00  0.15761222565E+01  0.51100000000E-03 0. -1.
        -11    1    3    3    0    0 -0.23502451497E+02  0.25268344279E+02  0.23665414784E+02  0.41843832355E+02  0.51100000000E-03 0.  1.
        -12    1    3    3    0    0 -0.87666347489E+00 -0.11569903836E+01  0.41190292295E+01  0.43673295490E+01  0.00000000000E+00 0.  1.
</event>
<event>
 7    1  0.5038211E-009  0.4778730E+02  0.7816164E-02  0.1312668E+00
        -11   -1    0    0    0    0  0.00000000000E+00  0.00000000000E+00  0.45593999997E+02  0.45594000000E+02  0.51100000000E-03 0.  1.
         11   -1    0    0    0    0 -0.00000000000E+00 -0.00000000000E+00 -0.45593999997E+02  0.45594000000E+02  0.51100000000E-03 0. -1.
    9900012    2    1    2    0    0 -0.32556387749E+02  0.14143943199E+02  0.24973004198E+02  0.47787303563E+02  0.20000148267E+02 0.  0.
         12    1    1    2    0    0  0.32556387749E+02 -0.14143943199E+02 -0.24973004198E+02  0.43400696437E+02  0.00000000000E+00 0. -1.
         11    1    3    3    0    0 -0.13806939012E+01  0.15036730123E+01 -0.11200404904E+01  0.23284843005E+01  0.51100000000E-03 0. -1.
        -11    1    3    3    0    0 -0.86308872599E+00 -0.28568562565E+01  0.35007724336E+01  0.46002127899E+01  0.51100000000E-03 0.  1.
        -12    1    3    3    0    0 -0.30312605122E+02  0.15497126443E+02  0.22592272255E+02  0.40858606473E+02  0.00000000000E+00 0.  1.
</event>
<event>
 7    1  0.5038211E-009  0.4778731E+02  0.7816164E-02  0.1312668E+00
        -11   -1    0    0    0    0  0.00000000000E+00  0.00000000000E+00  0.45593999997E+02  0.45594000000E+02  0.51100000000E-03 0. -1.
         11   -1    0    0    0    0 -0.00000000000E+00 -0.00000000000E+00 -0.45593999997E+02  0.45594000000E+02  0.51100000000E-03 0.  1.
    9900012    2    1    2    0    0 -0.13940513449E+02  0.16345171764E+02 -0.37710968642E+02  0.47787312089E+02  0.20000187136E+02 0.  0.
         12    1    1    2    0    0  0.13940513449E+02 -0.16345171764E+02  0.37710968642E+02  0.43400687911E+02  0.00000000000E+00 0. -1.
         11    1    3    3    0    0  0.22590799283E+01  0.30151266896E+01 -0.17805734616E+02  0.18199961993E+02  0.51100000000E-03 0. -1.
        -11    1    3    3    0    0 -0.23842208694E+01  0.53895469726E+01 -0.63918742339E+01  0.86941234294E+01  0.51100000000E-03 0.  1.
         12    1    3    3    0    0 -0.13815372508E+02  0.79404981020E+01 -0.13513359793E+02  0.20893226666E+02  0.00000000000E+00 0. -1.
</event>
<event>
 7    1  0.5038211E-009  0.4778727E+02  0.7816164E-02  0.1312668E+00
        -11   -1    0    0    0    0  0.00000000000E+00  0.00000000000E+00  0.45593999997E+02  0.45594000000E+02  0.51100000000E-03 0. -1.
         11   -1    0    0    0    0 -0.00000000000E+00 -0.00000000000E+00 -0.45593999997E+02  0.45594000000E+02  0.51100000000E-03 0.  1.
    9900012    2    1    2    0    0 -0.16126978623E+02  0.31778106683E+02 -0.24772886992E+02  0.47787269202E+02  0.19999991601E+02 0.  0.
         12    1    1    2    0    0  0.16126978623E+02 -0.31778106683E+02  0.24772886992E+02  0.43400730798E+02  0.00000000000E+00 0. -1.
         11    1    3    3    0    0 -0.57486150602E+01  0.87450664621E+01 -0.33020181027E+01  0.10973882009E+02  0.51100000000E-03 0.  1.
        -11    1    3    3    0    0 -0.91062520790E+01  0.82892296423E+01 -0.17664719713E+02  0.21533171568E+02  0.51100000000E-03 0. -1.
        -12    1    3    3    0    0 -0.12721114842E+01  0.14743810578E+02 -0.38061491769E+01  0.15280215625E+02  0.00000000000E+00 0.  1.
</event>
<event>
 7    1  0.5038211E-009  0.4778727E+02  0.7816164E-02  0.1312668E+00
        -11   -1    0    0    0    0  0.00000000000E+00  0.00000000000E+00  0.45593999997E+02  0.45594000000E+02  0.51100000000E-03 0.  1.
         11   -1    0    0    0    0 -0.00000000000E+00 -0.00000000000E+00 -0.45593999997E+02  0.45594000000E+02  0.51100000000E-03 0. -1.
    9900012    2    1    2    0    0  0.41632015925E+02 -0.31158897508E+01  0.11861276085E+02  0.47787269715E+02  0.19999993937E+02 0.  0.
         12    1    1    2    0    0 -0.41632015925E+02  0.31158897508E+01 -0.11861276085E+02  0.43400730285E+02  0.00000000000E+00 0. -1.
         11    1    3    3    0    0  0.23132992714E+02  0.50542990455E+01  0.51688010008E+01  0.24236290863E+02  0.51100000000E-03 0. -1.
        -11    1    3    3    0    0  0.16390467528E+02 -0.92958081378E+01  0.83827333250E+01  0.20623522807E+02  0.51100000000E-03 0.  1.
        -12    1    3    3    0    0  0.21085556831E+01  0.11256193415E+01 -0.16902582407E+01  0.29274560442E+01  0.00000000000E+00 0.  1.
</event>
<event>
 7    1  0.5038211E-009  0.4778727E+02  0.7816164E-02  0.1312668E+00
        -11   -1    0    0    0    0  0.00000000000E+00  0.00000000000E+00  0.45593999997E+02  0.45594000000E+02  0.51100000000E-03 0. -1.
         11   -1    0    0    0    0 -0.00000000000E+00 -0.00000000000E+00 -0.45593999997E+02  0.45594000000E+02  0.51100000000E-03 0.  1.
    9900012    2    1    2    0    0  0.16902472266E+01  0.22126206528E+02 -0.37298757324E+02  0.47787271332E+02  0.20000001310E+02 0.  0.
         12    1    1    2    0    0 -0.16902472266E+01 -0.22126206528E+02  0.37298757324E+02  0.43400728668E+02  0.00000000000E+00 0. -1.
         11    1    3    3    0    0 -0.74897917991E+01  0.77237371545E+01 -0.16619851940E+02  0.19798297291E+02  0.51100000000E-03 0. -1.
        -11    1    3    3    0    0  0.31229096632E+00  0.77179237746E+01 -0.76809416828E+01  0.10893150987E+02  0.51100000000E-03 0.  1.
         12    1    3    3    0    0  0.88677480593E+01  0.66845455992E+01 -0.12997963701E+02  0.17095823054E+02  0.00000000000E+00 0. -1.
</event>
<event>
 7    1  0.5038211E-009  0.4778724E+02  0.7816164E-02  0.1312668E+00
        -11   -1    0    0    0    0  0.00000000000E+00  0.00000000000E+00  0.45593999997E+02  0.45594000000E+02  0.51100000000E-03 0.  1.
         11   -1    0    0    0    0 -0.00000000000E+00 -0.00000000000E+00 -0.45593999997E+02  0.45594000000E+02  0.51100000000E-03 0. -1.
    9900012    2    1    2    0    0  0.87423288421E+01  0.19602311715E+02  0.37721974525E+02  0.47787236179E+02  0.19999841035E+02 0.  0.
         12    1    1    2    0    0 -0.87423288421E+01 -0.19602311715E+02 -0.37721974525E+02  0.43400763821E+02  0.00000000000E+00 0. -1.
         11    1    3    3    0    0 -0.21934900805E+01  0.23247959491E+01  0.13937952567E+01  0.34869385450E+01  0.51100000000E-03 0. -1.
        -11    1    3    3    0    0  0.83676890366E+01  0.69375589816E+00  0.97444792544E+01  0.12862907652E+02  0.51100000000E-03 0.  1.
        -12    1    3    3    0    0  0.25681298861E+01  0.16583759868E+02  0.26583700014E+02  0.31437389982E+02  0.00000000000E+00 0.  1.
</event>
<event>
 7    1  0.5038211E-009  0.4778729E+02  0.7816164E-02  0.1312668E+00
        -11   -1    0    0    0    0  0.00000000000E+00  0.00000000000E+00  0.45593999997E+02  0.45594000000E+02  0.51100000000E-03 0.  1.
         11   -1    0    0    0    0 -0.00000000000E+00 -0.00000000000E+00 -0.45593999997E+02  0.45594000000E+02  0.51100000000E-03 0. -1.
    9900012    2    1    2    0    0  0.13116152553E+01 -0.24356437831E+02  0.35897977768E+02  0.47787294865E+02  0.20000108606E+02 0.  0.
         12    1    1    2    0    0 -0.13116152553E+01  0.24356437831E+02 -0.35897977768E+02  0.43400705135E+02  0.00000000000E+00 0. -1.
         11    1    3    3    0    0 -0.30201692905E+01 -0.15615545386E+01  0.42390130380E+01  0.54340690939E+01  0.51100000000E-03 0. -1.
        -11    1    3    3    0    0 -0.20379634659E+01 -0.21430347874E+02  0.22798261158E+02  0.31355602644E+02  0.51100000000E-03 0.  1.
        -12    1    3    3    0    0  0.63697480118E+01 -0.13645354183E+01  0.88607035723E+01  0.10997623127E+02  0.00000000000E+00 0.  1.
</event>
<event>
 7    1  0.5038211E-009  0.4778727E+02  0.7816164E-02  0.1312668E+00
        -11   -1    0    0    0    0  0.00000000000E+00  0.00000000000E+00  0.45593999997E+02  0.45594000000E+02  0.51100000000E-03 0.  1.
         11   -1    0    0    0    0 -0.00000000000E+00 -0.00000000000E+00 -0.45593999997E+02  0.45594000000E+02  0.51100000000E-03 0. -1.
    9900012    2    1    2    0    0 -0.42848183924E+02  0.24875525260E+01  0.64396057342E+01  0.47787270684E+02  0.19999998358E+02 0.  0.
         12    1    1    2    0    0  0.42848183924E+02 -0.24875525260E+01 -0.64396057342E+01  0.43400729316E+02  0.00000000000E+00 0. -1.
         11    1    3    3    0    0 -0.20964975377E+01  0.51033413614E+00 -0.40640367643E+01  0.46013191520E+01  0.51100000000E-03 0. -1.
        -11    1    3    3    0    0 -0.28472683316E+02  0.17197963549E+01  0.27393030045E+01  0.28655805275E+02  0.51100000000E-03 0.  1.
        -12    1    3    3    0    0 -0.12279003070E+02  0.25742203498E+00  0.77643394940E+01  0.14530146258E+02  0.00000000000E+00 0.  1.
</event>
<event>
 7    1  0.5038211E-009  0.4778727E+02  0.7816164E-02  0.1312668E+00
        -11   -1    0    0    0    0  0.00000000000E+00  0.00000000000E+00  0.45593999997E+02  0.45594000000E+02  0.51100000000E-03 0. -1.
         11   -1    0    0    0    0 -0.00000000000E+00 -0.00000000000E+00 -0.45593999997E+02  0.45594000000E+02  0.51100000000E-03 0.  1.
    9900012    2    1    2    0    0 -0.22427725662E+02 -0.43283706110E+01 -0.36903730032E+02  0.47787274651E+02  0.20000016444E+02 0.  0.
         12    1    1    2    0    0  0.22427725662E+02  0.43283706110E+01  0.36903730032E+02  0.43400725349E+02  0.00000000000E+00 0. -1.
         11    1    3    3    0    0 -0.63108422206E+01  0.35673018011E+01 -0.35838425742E+01  0.80867978539E+01  0.51100000000E-03 0. -1.
        -11    1    3    3    0    0 -0.10235962579E+02 -0.10900954950E+02 -0.22176386410E+02  0.26746922500E+02  0.51100000000E-03 0.  1.
         12    1    3    3    0    0 -0.58809208626E+01  0.30052825380E+01 -0.11143501048E+02  0.12953554298E+02  0.00000000000E+00 0. -1.
</event>
<event>
 7    1  0.5038211E-009  0.4778728E+02  0.7816164E-02  0.1312668E+00
        -11   -1    0    0    0    0  0.00000000000E+00  0.00000000000E+00  0.45593999997E+02  0.45594000000E+02  0.51100000000E-03 0. -1.
         11   -1    0    0    0    0 -0.00000000000E+00 -0.00000000000E+00 -0.45593999997E+02  0.45594000000E+02  0.51100000000E-03 0.  1.
    9900012    2    1    2    0    0 -0.12889315574E+02  0.28941521076E+02 -0.29662716410E+02  0.47787276009E+02  0.20000022634E+02 0.  0.
         12    1    1    2    0    0  0.12889315574E+02 -0.28941521076E+02  0.29662716410E+02  0.43400723991E+02  0.00000000000E+00 0. -1.
         11    1    3    3    0    0 -0.96391738992E+01  0.11049267817E+02 -0.78351761743E+01  0.16624980562E+02  0.51100000000E-03 0. -1.
        -11    1    3    3    0    0 -0.30723215625E+00  0.78519948114E+00 -0.10278485204E+02  0.10313010626E+02  0.51100000000E-03 0.  1.
        -12    1    3    3    0    0 -0.29429095183E+01  0.17107053778E+02 -0.11549055031E+02  0.20849284820E+02  0.00000000000E+00 0.  1.
</event>
<event>
 7    1  0.5038211E-009  0.4778727E+02  0.7816164E-02  0.1312668E+00
        -11   -1    0    0    0    0  0.00000000000E+00  0.00000000000E+00  0.45593999997E+02  0.45594000000E+02  0.51100000000E-03 0.  1.
         11   -1    0    0    0    0 -0.00000000000E+00 -0.00000000000E+00 -0.45593999997E+02  0.45594000000E+02  0.51100000000E-03 0. -1.
    9900012    2    1    2    0    0 -0.56759168190E+01  0.64249479064E+00  0.43023186390E+02  0.47787269610E+02  0.19999993459E+02 0.  0.
         12    1    1    2    0    0  0.56759168190E+01 -0.64249479064E+00 -0.43023186390E+02  0.43400730390E+02  0.00000000000E+00 0. -1.
         11    1    3    3    0    0 -0.21601979596E+00 -0.43660901871E+01  0.37236112876E+01  0.57423592151E+01  0.51100000000E-03 0. -1.
        -11    1    3    3    0    0 -0.26386526698E+01 -0.38306546431E+00  0.33605584806E+02  0.33711193356E+02  0.51100000000E-03 0.  1.
        -12    1    3    3    0    0 -0.28212443533E+01  0.53916504420E+01  0.56939902961E+01  0.83337170387E+01  0.00000000000E+00 0.  1.
</event>
<event>
 7    1  0.5038211E-009  0.4778727E+02  0.7816164E-02  0.1312668E+00
        -11   -1    0    0    0    0  0.00000000000E+00  0.00000000000E+00  0.45593999997E+02  0.45594000000E+02  0.51100000000E-03 0.  1.
         11   -1    0    0    0    0 -0.00000000000E+00 -0.00000000000E+00 -0.45593999997E+02  0.45594000000E+02  0.51100000000E-03 0. -1.
    9900012    2    1    2    0    0  0.25578515945E+02 -0.22157477627E+02  0.27173680144E+02  0.47787272064E+02  0.20000004650E+02 0.  0.
         12    1    1    2    0    0 -0.25578515945E+02  0.22157477627E+02 -0.27173680144E+02  0.43400727936E+02  0.00000000000E+00 0. -1.
         11    1    3    3    0    0 -0.83631357794E+00 -0.74499294067E+01  0.93352876034E+01  0.11972821867E+02  0.51100000000E-03 0. -1.
        -11    1    3    3    0    0  0.23609173729E+02 -0.14279236905E+02  0.13724218398E+02  0.30816292146E+02  0.51100000000E-03 0.  1.
        -12    1    3    3    0    0  0.28056557945E+01 -0.42831131535E+00  0.41141741434E+01  0.49981580510E+01  0.00000000000E+00 0.  1.
</event>
<event>
 7    1  0.5038211E-009  0.4778727E+02  0.7816164E-02  0.1312668E+00
        -11   -1    0    0    0    0  0.00000000000E+00  0.00000000000E+00  0.45593999997E+02  0.45594000000E+02  0.51100000000E-03 0.  1.
         11   -1    0    0    0    0 -0.00000000000E+00 -0.00000000000E+00 -0.45593999997E+02  0.45594000000E+02  0.51100000000E-03 0. -1.
    9900012    2    1    2    0    0 -0.28327661497E+02  0.30172563589E+02  0.13068414771E+02  0.47787268853E+02  0.19999990010E+02 0.  0.
         12    1    1    2    0    0  0.28327661497E+02 -0.30172563589E+02 -0.13068414771E+02  0.43400731147E+02  0.00000000000E+00 0. -1.
         11    1    3    3    0    0 -0.40106770272E+01  0.21769234313E+01  0.79480319127E+01  0.91649188424E+01  0.51100000000E-03 0. -1.
        -11    1    3    3    0    0 -0.21823420764E+02  0.27521334140E+02  0.28885706712E+01  0.35242437025E+02  0.51100000000E-03 0.  1.
        -12    1    3    3    0    0 -0.24935637057E+01  0.47430601817E+00  0.22318121869E+01  0.33799129856E+01  0.00000000000E+00 0.  1.
</event>
<event>
 7    1  0.5038211E-009  0.4778727E+02  0.7816164E-02  0.1312668E+00
        -11   -1    0    0    0    0  0.00000000000E+00  0.00000000000E+00  0.45593999997E+02  0.45594000000E+02  0.51100000000E-03 0. -1.
         11   -1    0    0    0    0 -0.00000000000E+00 -0.00000000000E+00 -0.45593999997E+02  0.45594000000E+02  0.51100000000E-03 0.  1.
    9900012    2    1    2    0    0  0.34477459728E+02  0.24419859248E+02 -0.99296675754E+01  0.47787273587E+02  0.20000011594E+02 0.  0.
         12    1    1    2    0    0 -0.34477459728E+02 -0.24419859248E+02  0.99296675754E+01  0.43400726413E+02  0.00000000000E+00 0. -1.
         11    1    3    3    0    0  0.74723769766E+01  0.15956787019E+02 -0.75081222344E+01  0.19152737908E+02  0.51100000000E-03 0. -1.
        -11    1    3    3    0    0  0.12501540538E+02  0.34792907296E+01  0.65444702595E+00  0.12993162855E+02  0.51100000000E-03 0.  1.
         12    1    3    3    0    0  0.14503542214E+02  0.49837814997E+01 -0.30759923669E+01  0.15641372824E+02  0.00000000000E+00 0. -1.
</event>
<event>
 7    1  0.5038211E-009  0.4778725E+02  0.7816164E-02  0.1312668E+00
        -11   -1    0    0    0    0  0.00000000000E+00  0.00000000000E+00  0.45593999997E+02  0.45594000000E+02  0.51100000000E-03 0. -1.
         11   -1    0    0    0    0 -0.00000000000E+00 -0.00000000000E+00 -0.45593999997E+02  0.45594000000E+02  0.51100000000E-03 0.  1.
    9900012    2    1    2    0    0 -0.86293240231E+01  0.41840464719E+02 -0.76508148346E+01  0.47787254746E+02  0.19999925687E+02 0.  0.
         12    1    1    2    0    0  0.86293240231E+01 -0.41840464719E+02  0.76508148346E+01  0.43400745254E+02  0.00000000000E+00 0. -1.
         11    1    3    3    0    0 -0.58331700216E+01  0.89332771649E+01 -0.99717285968E+01  0.14603584658E+02  0.51100000000E-03 0. -1.
        -11    1    3    3    0    0  0.95137716467E-01  0.11082794907E+02  0.53004664684E+00  0.11095870577E+02  0.51100000000E-03 0.  1.
         12    1    3    3    0    0 -0.28912917180E+01  0.21824392647E+02  0.17908671154E+01  0.22087799511E+02  0.00000000000E+00 0. -1.
</event>
<event>
 7    1  0.5038211E-009  0.4778727E+02  0.7816164E-02  0.1312668E+00
        -11   -1    0    0    0    0  0.00000000000E+00  0.00000000000E+00  0.45593999997E+02  0.45594000000E+02  0.51100000000E-03 0.  1.
         11   -1    0    0    0    0 -0.00000000000E+00 -0.00000000000E+00 -0.45593999997E+02  0.45594000000E+02  0.51100000000E-03 0. -1.
    9900012    2    1    2    0    0 -0.27570217910E+02 -0.60531361765E+01  0.32967648969E+02  0.47787271300E+02  0.20000001165E+02 0.  0.
         12    1    1    2    0    0  0.27570217910E+02  0.60531361765E+01 -0.32967648969E+02  0.43400728700E+02  0.00000000000E+00 0. -1.
         11    1    3    3    0    0  0.21599897490E+01 -0.35241185278E+00  0.47167806917E+00  0.22388010836E+01  0.51100000000E-03 0. -1.
        -11    1    3    3    0    0 -0.19367576365E+02 -0.25428395203E+01  0.27207177706E+02  0.33493276431E+02  0.51100000000E-03 0.  1.
         12    1    3    3    0    0 -0.10362631294E+02 -0.31578848035E+01  0.52887931935E+01  0.12055193786E+02  0.00000000000E+00 0. -1.
</event>
<event>
 7    1  0.5038211E-009  0.4778727E+02  0.7816164E-02  0.1312668E+00
        -11   -1    0    0    0    0  0.00000000000E+00  0.00000000000E+00  0.45593999997E+02  0.45594000000E+02  0.51100000000E-03 0.  1.
         11   -1    0    0    0    0 -0.00000000000E+00 -0.00000000000E+00 -0.45593999997E+02  0.45594000000E+02  0.51100000000E-03 0. -1.
    9900012    2    1    2    0    0  0.26426744331E+02 -0.32314013829E+02 -0.11876654868E+02  0.47787271474E+02  0.20000001960E+02 0.  0.
         12    1    1    2    0    0 -0.26426744331E+02  0.32314013829E+02  0.11876654868E+02  0.43400728526E+02  0.00000000000E+00 0. -1.
         11    1    3    3    0    0 -0.84636346281E+00  0.24437376397E-01  0.32426010660E+00  0.90668251025E+00  0.51100000000E-03 0. -1.
        -11    1    3    3    0    0  0.93407674582E+01 -0.20777833962E+02 -0.11534096902E+02  0.25534363365E+02  0.51100000000E-03 0.  1.
        -12    1    3    3    0    0  0.17932340336E+02 -0.11560617244E+02 -0.66681807274E+00  0.21346225599E+02  0.00000000000E+00 0.  1.
</event>
<event>
 7    1  0.5038211E-009  0.4778727E+02  0.7816164E-02  0.1312668E+00
        -11   -1    0    0    0    0  0.00000000000E+00  0.00000000000E+00  0.45593999997E+02  0.45594000000E+02  0.51100000000E-03 0. -1.
         11   -1    0    0    0    0 -0.00000000000E+00 -0.00000000000E+00 -0.45593999997E+02  0.45594000000E+02  0.51100000000E-03 0.  1.
    9900012    2    1    2    0    0  0.32317530967E+02 -0.28171150112E+02  0.67517868606E+01  0.47787272676E+02  0.20000007439E+02 0.  0.
         12    1    1    2    0    0 -0.32317530967E+02  0.28171150112E+02 -0.67517868606E+01  0.43400727324E+02  0.00000000000E+00 0. -1.
         11    1    3    3    0    0  0.12599810042E+01 -0.27637483097E+01  0.64292886724E+01  0.71106687410E+01  0.51100000000E-03 0. -1.
        -11    1    3    3    0    0  0.26712378628E+02 -0.23545002281E+02  0.19906578862E+01  0.35663440993E+02  0.51100000000E-03 0.  1.
         12    1    3    3    0    0  0.43451713348E+01 -0.18623995212E+01 -0.16681596979E+01  0.50131629420E+01  0.00000000000E+00 0. -1.
</event>
<event>
 7    1  0.5038211E-009  0.4778727E+02  0.7816164E-02  0.1312668E+00
        -11   -1    0    0    0    0  0.00000000000E+00  0.00000000000E+00  0.45593999997E+02  0.45594000000E+02  0.51100000000E-03 0.  1.
         11   -1    0    0    0    0 -0.00000000000E+00 -0.00000000000E+00 -0.45593999997E+02  0.45594000000E+02  0.51100000000E-03 0. -1.
    9900012    2    1    2    0    0  0.42569467570E+01 -0.14761373281E+02  0.40590683533E+02  0.47787270438E+02  0.19999997236E+02 0.  0.
         12    1    1    2    0    0 -0.42569467570E+01  0.14761373281E+02 -0.40590683533E+02  0.43400729562E+02  0.00000000000E+00 0. -1.
         11    1    3    3    0    0  0.25834801417E+01 -0.52272157068E+01  0.60974247019E+01  0.84366309594E+01  0.51100000000E-03 0. -1.
        -11    1    3    3    0    0  0.71277968850E+01 -0.72828488787E+01  0.30672393858E+02  0.32320908426E+02  0.51100000000E-03 0.  1.
        -12    1    3    3    0    0 -0.54543302696E+01 -0.22513086958E+01  0.38208649724E+01  0.70297310526E+01  0.00000000000E+00 0.  1.
</event>
<event>
 7    1  0.5038211E-009  0.4778732E+02  0.7816164E-02  0.1312668E+00
        -11   -1    0    0    0    0  0.00000000000E+00  0.00000000000E+00  0.45593999997E+02  0.45594000000E+02  0.51100000000E-03 0.  1.
         11   -1    0    0    0    0 -0.00000000000E+00 -0.00000000000E+00 -0.45593999997E+02  0.45594000000E+02  0.51100000000E-03 0. -1.
    9900012    2    1    2    0    0 -0.37568211653E+02  0.16247734220E+02  0.14431189799E+02  0.47787324509E+02  0.20000243764E+02 0.  0.
         12    1    1    2    0    0  0.37568211653E+02 -0.16247734220E+02 -0.14431189799E+02  0.43400675491E+02  0.00000000000E+00 0. -1.
         11    1    3    3    0    0 -0.15262228213E+02 -0.22581563373E+01  0.32506206316E+01  0.15767099126E+02  0.51100000000E-03 0. -1.
        -11    1    3    3    0    0 -0.84436427067E+01  0.71556934535E+01  0.83887616463E+01  0.13887777834E+02  0.51100000000E-03 0.  1.
         12    1    3    3    0    0 -0.13862340733E+02  0.11350197103E+02  0.27918075210E+01  0.18132447549E+02  0.00000000000E+00 0. -1.
</event>
<event>
 7    1  0.5038211E-009  0.4778727E+02  0.7816164E-02  0.1312668E+00
        -11   -1    0    0    0    0  0.00000000000E+00  0.00000000000E+00  0.45593999997E+02  0.45594000000E+02  0.51100000000E-03 0.  1.
         11   -1    0    0    0    0 -0.00000000000E+00 -0.00000000000E+00 -0.45593999997E+02  0.45594000000E+02  0.51100000000E-03 0. -1.
    9900012    2    1    2    0    0 -0.16064148285E+02  0.73845176314E+01  0.39636288732E+02  0.47787270223E+02  0.19999996255E+02 0.  0.
         12    1    1    2    0    0  0.16064148285E+02 -0.73845176314E+01 -0.39636288732E+02  0.43400729777E+02  0.00000000000E+00 0. -1.
         11    1    3    3    0    0  0.11483326448E+00  0.93786388785E+00 -0.30087840403E+00  0.99161657202E+00  0.51100000000E-03 0. -1.
        -11    1    3    3    0    0  0.22594724864E+01  0.53110865091E+01  0.11802431111E+02  0.13138121487E+02  0.51100000000E-03 0.  1.
        -12    1    3    3    0    0 -0.18438454036E+02  0.11355672345E+01  0.28134736025E+02  0.33657532164E+02  0.00000000000E+00 0.  1.
</event>
<event>
 7    1  0.5038211E-009  0.4778727E+02  0.7816164E-02  0.1312668E+00
        -11   -1    0    0    0    0  0.00000000000E+00  0.00000000000E+00  0.45593999997E+02  0.45594000000E+02  0.51100000000E-03 0. -1.
         11   -1    0    0    0    0 -0.00000000000E+00 -0.00000000000E+00 -0.45593999997E+02  0.45594000000E+02  0.51100000000E-03 0.  1.
    9900012    2    1    2    0    0  0.25130850194E+01  0.43170059742E+02 -0.36950564376E+01  0.47787273088E+02  0.20000009316E+02 0.  0.
         12    1    1    2    0    0 -0.25130850194E+01 -0.43170059742E+02  0.36950564376E+01  0.43400726912E+02  0.00000000000E+00 0. -1.
         11    1    3    3    0    0 -0.56067550018E+00  0.24529684475E+01 -0.31607859933E+01  0.40400469771E+01  0.51100000000E-03 0. -1.
        -11    1    3    3    0    0  0.42006281915E+01  0.39469150306E+02  0.30286979064E+01  0.39807437927E+02  0.51100000000E-03 0.  1.
        -12    1    3    3    0    0 -0.11268676719E+01  0.12479409887E+01 -0.35629683507E+01  0.39397881833E+01  0.00000000000E+00 0.  1.
</event>
<event>
 7    1  0.5038211E-009  0.4778727E+02  0.7816164E-02  0.1312668E+00
        -11   -1    0    0    0    0  0.00000000000E+00  0.00000000000E+00  0.45593999997E+02  0.45594000000E+02  0.51100000000E-03 0.  1.
         11   -1    0    0    0    0 -0.00000000000E+00 -0.00000000000E+00 -0.45593999997E+02  0.45594000000E+02  0.51100000000E-03 0. -1.
    9900012    2    1    2    0    0 -0.23125016907E+02  0.10861139095E+02  0.35084074848E+02  0.47787273539E+02  0.20000011373E+02 0.  0.
         12    1    1    2    0    0  0.23125016907E+02 -0.10861139095E+02 -0.35084074848E+02  0.43400726461E+02  0.00000000000E+00 0. -1.
         11    1    3    3    0    0  0.33023970751E+01  0.17848271034E+01  0.22808454859E+01  0.43924583802E+01  0.51100000000E-03 0. -1.
        -11    1    3    3    0    0 -0.20402408809E+02  0.63961172799E+01  0.28031138663E+02  0.35254976053E+02  0.51100000000E-03 0.  1.
        -12    1    3    3    0    0 -0.60250051731E+01  0.26801947115E+01  0.47720906992E+01  0.81398391058E+01  0.00000000000E+00 0.  1.
</event>
<event>
 7    1  0.5038211E-009  0.4778729E+02  0.7816164E-02  0.1312668E+00
        -11   -1    0    0    0    0  0.00000000000E+00  0.00000000000E+00  0.45593999997E+02  0.45594000000E+02  0.51100000000E-03 0.  1.
         11   -1    0    0    0    0 -0.00000000000E+00 -0.00000000000E+00 -0.45593999997E+02  0.45594000000E+02  0.51100000000E-03 0. -1.
    9900012    2    1    2    0    0  0.39587983134E+02  0.13743092991E+02  0.11293382770E+02  0.47787291388E+02  0.20000092755E+02 0.  0.
         12    1    1    2    0    0 -0.39587983134E+02 -0.13743092991E+02 -0.11293382770E+02  0.43400708612E+02  0.00000000000E+00 0. -1.
         11    1    3    3    0    0  0.26625530173E+02  0.68214099118E+00  0.11481583066E+01  0.26659003002E+02  0.51100000000E-03 0. -1.
        -11    1    3    3    0    0  0.77440425937E+01  0.63638155281E+01  0.59758596447E+01  0.11669586219E+02  0.51100000000E-03 0.  1.
         12    1    3    3    0    0  0.52184103677E+01  0.66971364717E+01  0.41693648188E+01  0.94587021668E+01  0.00000000000E+00 0. -1.
</event>
<event>
 7    1  0.5038211E-009  0.4778727E+02  0.7816164E-02  0.1312668E+00
        -11   -1    0    0    0    0  0.00000000000E+00  0.00000000000E+00  0.45593999997E+02  0.45594000000E+02  0.51100000000E-03 0. -1.
         11   -1    0    0    0    0 -0.00000000000E+00 -0.00000000000E+00 -0.45593999997E+02  0.45594000000E+02  0.51100000000E-03 0.  1.
    9900012    2    1    2    0    0 -0.43360596316E+02 -0.18381089084E+01 -0.32131163164E+00  0.47787271914E+02  0.20000003964E+02 0.  0.
         12    1    1    2    0    0  0.43360596316E+02  0.18381089084E+01  0.32131163164E+00  0.43400728086E+02  0.00000000000E+00 0. -1.
         11    1    3    3    0    0  0.11447890758E+01 -0.76254852290E+00 -0.18908638340E+01  0.23382447643E+01  0.51100000000E-03 0. -1.
        -11    1    3    3    0    0 -0.43222085774E+02  0.31740989878E+00  0.40402564234E+00  0.43225139499E+02  0.51100000000E-03 0.  1.
         12    1    3    3    0    0 -0.12832996176E+01 -0.13929702843E+01  0.11655265601E+01  0.22238876509E+01  0.00000000000E+00 0. -1.
</event>
<event>
 7    1  0.5038211E-009  0.4778727E+02  0.7816164E-02  0.1312668E+00
        -11   -1    0    0    0    0  0.00000000000E+00  0.00000000000E+00  0.45593999997E+02  0.45594000000E+02  0.51100000000E-03 0.  1.
         11   -1    0    0    0    0 -0.00000000000E+00 -0.00000000000E+00 -0.45593999997E+02  0.45594000000E+02  0.51100000000E-03 0. -1.
    9900012    2    1    2    0    0 -0.82618978983E+01 -0.35681756725E+02  0.23284683696E+02  0.47787271726E+02  0.20000003109E+02 0.  0.
         12    1    1    2    0    0  0.82618978983E+01  0.35681756725E+02 -0.23284683696E+02  0.43400728274E+02  0.00000000000E+00 0. -1.
         11    1    3    3    0    0 -0.55464112707E+01 -0.19060806926E+01  0.64463666261E+01  0.87150137424E+01  0.51100000000E-03 0. -1.
        -11    1    3    3    0    0 -0.35651279375E+01 -0.31327833359E+02  0.17917485013E+02  0.36265404308E+02  0.51100000000E-03 0.  1.
         12    1    3    3    0    0  0.84964130987E+00 -0.24478426738E+01 -0.10791679427E+01  0.28068536762E+01  0.00000000000E+00 0. -1.
</event>
<event>
 7    1  0.5038211E-009  0.4778728E+02  0.7816164E-02  0.1312668E+00
        -11   -1    0    0    0    0  0.00000000000E+00  0.00000000000E+00  0.45593999997E+02  0.45594000000E+02  0.51100000000E-03 0.  1.
         11   -1    0    0    0    0 -0.00000000000E+00 -0.00000000000E+00 -0.45593999997E+02  0.45594000000E+02  0.51100000000E-03 0. -1.
    9900012    2    1    2    0    0 -0.40613164354E+02 -0.12024400604E+02  0.94661275065E+01  0.47787275366E+02  0.20000019706E+02 0.  0.
         12    1    1    2    0    0  0.40613164354E+02  0.12024400604E+02 -0.94661275065E+01  0.43400724634E+02  0.00000000000E+00 0. -1.
         11    1    3    3    0    0 -0.26189228525E+02 -0.10364558934E+02  0.13994621964E+02  0.31450742707E+02  0.51100000000E-03 0.  1.
        -11    1    3    3    0    0 -0.60792829603E+01  0.14952249592E+01 -0.39375528602E+01  0.73957894628E+01  0.51100000000E-03 0. -1.
        -12    1    3    3    0    0 -0.83446528691E+01 -0.31550666298E+01 -0.59094159758E+00  0.89407431970E+01  0.00000000000E+00 0.  1.
</event>
<event>
 7    1  0.5038211E-009  0.4778727E+02  0.7816164E-02  0.1312668E+00
        -11   -1    0    0    0    0  0.00000000000E+00  0.00000000000E+00  0.45593999997E+02  0.45594000000E+02  0.51100000000E-03 0. -1.
         11   -1    0    0    0    0 -0.00000000000E+00 -0.00000000000E+00 -0.45593999997E+02  0.45594000000E+02  0.51100000000E-03 0.  1.
    9900012    2    1    2    0    0  0.45399568558E+01  0.27949514262E+02 -0.32891291007E+02  0.47787267519E+02  0.19999983927E+02 0.  0.
         12    1    1    2    0    0 -0.45399568558E+01 -0.27949514262E+02  0.32891291007E+02  0.43400732481E+02  0.00000000000E+00 0. -1.
         11    1    3    3    0    0 -0.32872005231E+01 -0.64967018632E+00 -0.52857425049E+01  0.62583410517E+01  0.51100000000E-03 0. -1.
        -11    1    3    3    0    0  0.61037236544E+01  0.21826778781E+02 -0.25740022297E+02  0.34295954025E+02  0.51100000000E-03 0.  1.
        -12    1    3    3    0    0  0.17234337245E+01  0.67724056675E+01 -0.18655262058E+01  0.72329724424E+01  0.00000000000E+00 0.  1.
</event>
<event>
 7    1  0.5038211E-009  0.4778727E+02  0.7816164E-02  0.1312668E+00
        -11   -1    0    0    0    0  0.00000000000E+00  0.00000000000E+00  0.45593999997E+02  0.45594000000E+02  0.51100000000E-03 0. -1.
         11   -1    0    0    0    0 -0.00000000000E+00 -0.00000000000E+00 -0.45593999997E+02  0.45594000000E+02  0.51100000000E-03 0.  1.
    9900012    2    1    2    0    0 -0.34906017201E+02  0.87411562955E+01 -0.24264899016E+02  0.47787272189E+02  0.20000005220E+02 0.  0.
         12    1    1    2    0    0  0.34906017201E+02 -0.87411562955E+01  0.24264899016E+02  0.43400727811E+02  0.00000000000E+00 0. -1.
         11    1    3    3    0    0 -0.94437862471E+01  0.50904157460E+01 -0.36663994185E+01  0.11337544536E+02  0.51100000000E-03 0. -1.
        -11    1    3    3    0    0 -0.14995505699E+02  0.98151253282E+01 -0.12489371282E+02  0.21844593648E+02  0.51100000000E-03 0.  1.
        -12    1    3    3    0    0 -0.10466725255E+02 -0.61643847788E+01 -0.81091283156E+01  0.14605134005E+02  0.00000000000E+00 0.  1.
</event>
<event>
 7    1  0.5038211E-009  0.4778727E+02  0.7816164E-02  0.1312668E+00
        -11   -1    0    0    0    0  0.00000000000E+00  0.00000000000E+00  0.45593999997E+02  0.45594000000E+02  0.51100000000E-03 0. -1.
         11   -1    0    0    0    0 -0.00000000000E+00 -0.00000000000E+00 -0.45593999997E+02  0.45594000000E+02  0.51100000000E-03 0.  1.
    9900012    2    1    2    0    0  0.13008949705E+02  0.12503879053E+02 -0.39472060112E+02  0.47787270821E+02  0.19999998980E+02 0.  0.
         12    1    1    2    0    0 -0.13008949705E+02 -0.12503879053E+02  0.39472060112E+02  0.43400729179E+02  0.00000000000E+00 0. -1.
         11    1    3    3    0    0  0.90582615731E+01  0.38919222734E+01 -0.35616838445E+01  0.10482592894E+02  0.51100000000E-03 0. -1.
        -11    1    3    3    0    0  0.24368694743E+01  0.69633793008E+01 -0.21716432728E+02  0.22935353383E+02  0.51100000000E-03 0.  1.
         12    1    3    3    0    0  0.15138186574E+01  0.16485774790E+01 -0.14193943540E+02  0.14369324544E+02  0.00000000000E+00 0. -1.
</event>
<event>
 7    1  0.5038211E-009  0.4778727E+02  0.7816164E-02  0.1312668E+00
        -11   -1    0    0    0    0  0.00000000000E+00  0.00000000000E+00  0.45593999997E+02  0.45594000000E+02  0.51100000000E-03 0.  1.
         11   -1    0    0    0    0 -0.00000000000E+00 -0.00000000000E+00 -0.45593999997E+02  0.45594000000E+02  0.51100000000E-03 0. -1.
    9900012    2    1    2    0    0 -0.34124352337E+02 -0.13708865275E+02  0.23048193238E+02  0.47787267045E+02  0.19999981763E+02 0.  0.
         12    1    1    2    0    0  0.34124352337E+02  0.13708865275E+02 -0.23048193238E+02  0.43400732955E+02  0.00000000000E+00 0. -1.
         11    1    3    3    0    0 -0.40273260071E+01  0.22126552366E+01  0.27699131689E+01  0.53654093215E+01  0.51100000000E-03 0. -1.
        -11    1    3    3    0    0 -0.28899980273E+02 -0.17830754446E+02  0.21149803796E+02  0.40005735398E+02  0.51100000000E-03 0.  1.
        -12    1    3    3    0    0 -0.11970460572E+01  0.19092339346E+01 -0.87152372740E+00  0.24161223246E+01  0.00000000000E+00 0.  1.
</event>
<event>
 7    1  0.5038211E-009  0.4778727E+02  0.7816164E-02  0.1312668E+00
        -11   -1    0    0    0    0  0.00000000000E+00  0.00000000000E+00  0.45593999997E+02  0.45594000000E+02  0.51100000000E-03 0.  1.
         11   -1    0    0    0    0 -0.00000000000E+00 -0.00000000000E+00 -0.45593999997E+02  0.45594000000E+02  0.51100000000E-03 0. -1.
    9900012    2    1    2    0    0  0.29032605935E+02  0.10031922519E+02  0.30660913904E+02  0.47787270534E+02  0.19999997671E+02 0.  0.
         12    1    1    2    0    0 -0.29032605935E+02 -0.10031922519E+02 -0.30660913904E+02  0.43400729466E+02  0.00000000000E+00 0. -1.
         11    1    3    3    0    0 -0.11537525956E+01  0.16758327628E+01  0.43535395431E+00  0.20806474539E+01  0.51100000000E-03 0. -1.
        -11    1    3    3    0    0  0.28194159312E+02  0.57043456887E+01  0.31011040263E+02  0.42298165415E+02  0.51100000000E-03 0.  1.
        -12    1    3    3    0    0  0.19921992185E+01  0.26517440676E+01 -0.78548031348E+00  0.34084576643E+01  0.00000000000E+00 0.  1.
</event>
<event>
 7    1  0.5038211E-009  0.4778727E+02  0.7816164E-02  0.1312668E+00
        -11   -1    0    0    0    0  0.00000000000E+00  0.00000000000E+00  0.45593999997E+02  0.45594000000E+02  0.51100000000E-03 0. -1.
         11   -1    0    0    0    0 -0.00000000000E+00 -0.00000000000E+00 -0.45593999997E+02  0.45594000000E+02  0.51100000000E-03 0.  1.
    9900012    2    1    2    0    0 -0.13510153161E+02 -0.41215315334E+02 -0.15482037504E+01  0.47787269691E+02  0.19999993829E+02 0.  0.
         12    1    1    2    0    0  0.13510153161E+02  0.41215315334E+02  0.15482037504E+01  0.43400730309E+02  0.00000000000E+00 0. -1.
         11    1    3    3    0    0 -0.21806937522E+01 -0.37083879713E+01  0.26683105210E+01  0.50623559618E+01  0.51100000000E-03 0. -1.
        -11    1    3    3    0    0  0.49131395840E+00 -0.88363214290E+01  0.52629299274E+01  0.10296620683E+02  0.51100000000E-03 0.  1.
        -12    1    3    3    0    0 -0.11820773368E+02 -0.28670605933E+02 -0.94794441988E+01  0.32428293046E+02  0.00000000000E+00 0.  1.
</event>
<event>
 7    1  0.5038211E-009  0.4778729E+02  0.7816164E-02  0.1312668E+00
        -11   -1    0    0    0    0  0.00000000000E+00  0.00000000000E+00  0.45593999997E+02  0.45594000000E+02  0.51100000000E-03 0.  1.
         11   -1    0    0    0    0 -0.00000000000E+00 -0.00000000000E+00 -0.45593999997E+02  0.45594000000E+02  0.51100000000E-03 0. -1.
    9900012    2    1    2    0    0  0.35155488759E+02 -0.23598634585E+02  0.95298124279E+01  0.47787294141E+02  0.20000105304E+02 0.  0.
         12    1    1    2    0    0 -0.35155488759E+02  0.23598634585E+02 -0.95298124279E+01  0.43400705859E+02  0.00000000000E+00 0. -1.
         11    1    3    3    0    0  0.26559345416E+01  0.17065532927E+01  0.13053851890E+01  0.34161883998E+01  0.51100000000E-03 0. -1.
        -11    1    3    3    0    0  0.29118208156E+02 -0.15727103332E+02  0.86466343449E+01  0.34204913553E+02  0.51100000000E-03 0.  1.
        -12    1    3    3    0    0  0.33813460619E+01 -0.95780845459E+01 -0.42220710604E+00  0.10166192188E+02  0.00000000000E+00 0.  1.
</event>
<event>
 7    1  0.5038211E-009  0.4778727E+02  0.7816164E-02  0.1312668E+00
        -11   -1    0    0    0    0  0.00000000000E+00  0.00000000000E+00  0.45593999997E+02  0.45594000000E+02  0.51100000000E-03 0.  1.
         11   -1    0    0    0    0 -0.00000000000E+00 -0.00000000000E+00 -0.45593999997E+02  0.45594000000E+02  0.51100000000E-03 0. -1.
    9900012    2    1    2    0    0 -0.18945971305E+02  0.38852350696E+02  0.38946936332E+01  0.47787267036E+02  0.19999981726E+02 0.  0.
         12    1    1    2    0    0  0.18945971305E+02 -0.38852350696E+02 -0.38946936332E+01  0.43400732964E+02  0.00000000000E+00 0. -1.
         11    1    3    3    0    0  0.18510165169E+01 -0.96487353538E-01 -0.15226455475E+01  0.23987541933E+01  0.51100000000E-03 0. -1.
        -11    1    3    3    0    0 -0.91732496198E+01  0.22660318817E+02  0.66651865791E+01  0.25338967420E+02  0.51100000000E-03 0.  1.
         12    1    3    3    0    0 -0.11623738202E+02  0.16288519232E+02 -0.12478473984E+01  0.20049545424E+02  0.00000000000E+00 0. -1.
</event>
<event>
 7    1  0.5038211E-009  0.4778727E+02  0.7816164E-02  0.1312668E+00
        -11   -1    0    0    0    0  0.00000000000E+00  0.00000000000E+00  0.45593999997E+02  0.45594000000E+02  0.51100000000E-03 0.  1.
         11   -1    0    0    0    0 -0.00000000000E+00 -0.00000000000E+00 -0.45593999997E+02  0.45594000000E+02  0.51100000000E-03 0. -1.
    9900012    2    1    2    0    0  0.16243100897E+02  0.38379282742E+02  0.12116755217E+02  0.47787269275E+02  0.19999991931E+02 0.  0.
         12    1    1    2    0    0 -0.16243100897E+02 -0.38379282742E+02 -0.12116755217E+02  0.43400730725E+02  0.00000000000E+00 0. -1.
         11    1    3    3    0    0 -0.20609779575E+01  0.17155408159E+01  0.28004733911E+01  0.38772879578E+01  0.51100000000E-03 0. -1.
        -11    1    3    3    0    0  0.10464238920E+02  0.30065320456E+02  0.10667786467E+02  0.33574178452E+02  0.51100000000E-03 0.  1.
        -12    1    3    3    0    0  0.78398399338E+01  0.65984214694E+01 -0.13515046410E+01  0.10335802865E+02  0.00000000000E+00 0.  1.
</event>
<event>
 7    1  0.5038211E-009  0.4778727E+02  0.7816164E-02  0.1312668E+00
        -11   -1    0    0    0    0  0.00000000000E+00  0.00000000000E+00  0.45593999997E+02  0.45594000000E+02  0.51100000000E-03 0.  1.
         11   -1    0    0    0    0 -0.00000000000E+00 -0.00000000000E+00 -0.45593999997E+02  0.45594000000E+02  0.51100000000E-03 0. -1.
    9900012    2    1    2    0    0  0.21191797987E+01 -0.13705076649E+01  0.43327290680E+02  0.47787270375E+02  0.19999996950E+02 0.  0.
         12    1    1    2    0    0 -0.21191797987E+01  0.13705076649E+01 -0.43327290680E+02  0.43400729625E+02  0.00000000000E+00 0. -1.
         11    1    3    3    0    0  0.54158581134E+01 -0.58964258460E+00  0.31056946175E+01  0.62709279058E+01  0.51100000000E-03 0. -1.
        -11    1    3    3    0    0 -0.15151123010E+01  0.15920387321E+00  0.39250599070E+02  0.39280153243E+02  0.51100000000E-03 0.  1.
        -12    1    3    3    0    0 -0.17815660136E+01 -0.94006895354E+00  0.97099699217E+00  0.22361892266E+01  0.00000000000E+00 0.  1.
</event>
<event>
 7    1  0.5038211E-009  0.4778727E+02  0.7816164E-02  0.1312668E+00
        -11   -1    0    0    0    0  0.00000000000E+00  0.00000000000E+00  0.45593999997E+02  0.45594000000E+02  0.51100000000E-03 0.  1.
         11   -1    0    0    0    0 -0.00000000000E+00 -0.00000000000E+00 -0.45593999997E+02  0.45594000000E+02  0.51100000000E-03 0. -1.
    9900012    2    1    2    0    0 -0.26653898255E+02  0.28527477152E+02  0.18957210243E+02  0.47787273450E+02  0.20000010968E+02 0.  0.
         12    1    1    2    0    0  0.26653898255E+02 -0.28527477152E+02 -0.18957210243E+02  0.43400726550E+02  0.00000000000E+00 0. -1.
         11    1    3    3    0    0 -0.14794857258E+02  0.47133086265E+01  0.75631873821E+01  0.17271504947E+02  0.51100000000E-03 0. -1.
        -11    1    3    3    0    0 -0.33630244183E+00  0.11126283977E+02  0.37159569535E+01  0.11735230327E+02  0.51100000000E-03 0.  1.
         12    1    3    3    0    0 -0.11522738555E+02  0.12687884548E+02  0.76780659075E+01  0.18780538177E+02  0.00000000000E+00 0. -1.
</event>
<event>
 7    1  0.5038211E-009  0.4778727E+02  0.7816164E-02  0.1312668E+00
        -11   -1    0    0    0    0  0.00000000000E+00  0.00000000000E+00  0.45593999997E+02  0.45594000000E+02  0.51100000000E-03 0.  1.
         11   -1    0    0    0    0 -0.00000000000E+00 -0.00000000000E+00 -0.45593999997E+02  0.45594000000E+02  0.51100000000E-03 0. -1.
    9900012    2    1    2    0    0  0.23643482493E+02  0.75804888473E+01  0.35596983032E+02  0.47787271013E+02  0.19999999858E+02 0.  0.
         12    1    1    2    0    0 -0.23643482493E+02 -0.75804888473E+01 -0.35596983032E+02  0.43400728987E+02  0.00000000000E+00 0. -1.
         11    1    3    3    0    0 -0.11075037959E+01 -0.85339245112E+00 -0.67365584070E+00  0.15519844672E+01  0.51100000000E-03 0. -1.
        -11    1    3    3    0    0  0.15620038294E+02  0.97052791414E+01  0.17807832174E+02  0.25598768066E+02  0.51100000000E-03 0.  1.
         12    1    3    3    0    0  0.91309479957E+01 -0.12713978430E+01  0.18462806699E+02  0.20636518480E+02  0.00000000000E+00 0. -1.
</event>
<event>
 7    1  0.5038211E-009  0.4778727E+02  0.7816164E-02  0.1312668E+00
        -11   -1    0    0    0    0  0.00000000000E+00  0.00000000000E+00  0.45593999997E+02  0.45594000000E+02  0.51100000000E-03 0.  1.
         11   -1    0    0    0    0 -0.00000000000E+00 -0.00000000000E+00 -0.45593999997E+02  0.45594000000E+02  0.51100000000E-03 0. -1.
    9900012    2    1    2    0    0 -0.16206766001E+01 -0.29510860347E+02  0.31782161020E+02  0.47787271548E+02  0.20000002297E+02 0.  0.
         12    1    1    2    0    0  0.16206766001E+01  0.29510860347E+02 -0.31782161020E+02  0.43400728452E+02  0.00000000000E+00 0. -1.
         11    1    3    3    0    0 -0.15297521692E+01 -0.19092957264E+01  0.11459931588E+02  0.11718173242E+02  0.51100000000E-03 0. -1.
        -11    1    3    3    0    0 -0.24379240761E+00 -0.10921749501E+02  0.15007075202E+02  0.18562229211E+02  0.51100000000E-03 0.  1.
         12    1    3    3    0    0  0.15286797678E+00 -0.16679815119E+02  0.53151542300E+01  0.17506869095E+02  0.00000000000E+00 0. -1.
</event>
<event>
 7    1  0.5038211E-009  0.4778727E+02  0.7816164E-02  0.1312668E+00
        -11   -1    0    0    0    0  0.00000000000E+00  0.00000000000E+00  0.45593999997E+02  0.45594000000E+02  0.51100000000E-03 0.  1.
         11   -1    0    0    0    0 -0.00000000000E+00 -0.00000000000E+00 -0.45593999997E+02  0.45594000000E+02  0.51100000000E-03 0. -1.
    9900012    2    1    2    0    0  0.22498358285E+02 -0.66481398939E+01  0.36513683441E+02  0.47787274568E+02  0.20000016067E+02 0.  0.
         12    1    1    2    0    0 -0.22498358285E+02  0.66481398939E+01 -0.36513683441E+02  0.43400725432E+02  0.00000000000E+00 0. -1.
         11    1    3    3    0    0  0.35410238339E+01 -0.54615855995E+01  0.97994742359E+00  0.65824056596E+01  0.51100000000E-03 0. -1.
        -11    1    3    3    0    0  0.18185559393E+02 -0.24812688493E+01  0.35143851615E+02  0.39647970593E+02  0.51100000000E-03 0.  1.
         12    1    3    3    0    0  0.77177505801E+00  0.12947145549E+01  0.38988440242E+00  0.15568983159E+01  0.00000000000E+00 0. -1.
</event>
<event>
 7    1  0.5038211E-009  0.4778727E+02  0.7816164E-02  0.1312668E+00
        -11   -1    0    0    0    0  0.00000000000E+00  0.00000000000E+00  0.45593999997E+02  0.45594000000E+02  0.51100000000E-03 0.  1.
         11   -1    0    0    0    0 -0.00000000000E+00 -0.00000000000E+00 -0.45593999997E+02  0.45594000000E+02  0.51100000000E-03 0. -1.
    9900012    2    1    2    0    0 -0.75591457570E+01 -0.22951703498E+02  0.36051381041E+02  0.47787268981E+02  0.19999990592E+02 0.  0.
         12    1    1    2    0    0  0.75591457570E+01  0.22951703498E+02 -0.36051381041E+02  0.43400731019E+02  0.00000000000E+00 0. -1.
         11    1    3    3    0    0 -0.22418215130E+01  0.26873524493E+01  0.55094001154E+01  0.65269531004E+01  0.51100000000E-03 0. -1.
        -11    1    3    3    0    0 -0.41879231552E+01 -0.25315187564E+02  0.30768588237E+02  0.40063742263E+02  0.51100000000E-03 0.  1.
         12    1    3    3    0    0 -0.11294010888E+01 -0.32386838374E+00 -0.22660731163E+00  0.11965736179E+01  0.00000000000E+00 0. -1.
</event>
<event>
 7    1  0.5038211E-009  0.4778727E+02  0.7816164E-02  0.1312668E+00
        -11   -1    0    0    0    0  0.00000000000E+00  0.00000000000E+00  0.45593999997E+02  0.45594000000E+02  0.51100000000E-03 0.  1.
         11   -1    0    0    0    0 -0.00000000000E+00 -0.00000000000E+00 -0.45593999997E+02  0.45594000000E+02  0.51100000000E-03 0. -1.
    9900012    2    1    2    0    0 -0.18777168654E+02 -0.23908720947E+02  0.30974411160E+02  0.47787272509E+02  0.20000006679E+02 0.  0.
         12    1    1    2    0    0  0.18777168654E+02  0.23908720947E+02 -0.30974411160E+02  0.43400727491E+02  0.00000000000E+00 0. -1.
         11    1    3    3    0    0 -0.10494746894E+02 -0.16107151310E+02  0.10051570161E+02  0.21693641895E+02  0.51100000000E-03 0. -1.
        -11    1    3    3    0    0 -0.73278823329E+01 -0.83250077292E+01  0.94542438328E+01  0.14573480706E+02  0.51100000000E-03 0.  1.
         12    1    3    3    0    0 -0.95453942760E+00  0.52343809203E+00  0.11468597166E+02  0.11520149909E+02  0.00000000000E+00 0. -1.
</event>
<event>
 7    1  0.5038211E-009  0.4778727E+02  0.7816164E-02  0.1312668E+00
        -11   -1    0    0    0    0  0.00000000000E+00  0.00000000000E+00  0.45593999997E+02  0.45594000000E+02  0.51100000000E-03 0. -1.
         11   -1    0    0    0    0 -0.00000000000E+00 -0.00000000000E+00 -0.45593999997E+02  0.45594000000E+02  0.51100000000E-03 0.  1.
    9900012    2    1    2    0    0 -0.21197407857E+02  0.35746407225E+02 -0.12509500058E+02  0.47787270501E+02  0.19999997523E+02 0.  0.
         12    1    1    2    0    0  0.21197407857E+02 -0.35746407225E+02  0.12509500058E+02  0.43400729499E+02  0.00000000000E+00 0. -1.
         11    1    3    3    0    0 -0.10715852220E+02  0.27247330376E+02 -0.28956919575E+01  0.29421616774E+02  0.51100000000E-03 0. -1.
        -11    1    3    3    0    0 -0.87374404856E+01  0.39291335644E+01 -0.94719420054E+01  0.13472143201E+02  0.51100000000E-03 0.  1.
        -12    1    3    3    0    0 -0.17441151512E+01  0.45699432845E+01 -0.14186609477E+00  0.48935105265E+01  0.00000000000E+00 0.  1.
</event>
<event>
 7    1  0.5038211E-009  0.4778727E+02  0.7816164E-02  0.1312668E+00
        -11   -1    0    0    0    0  0.00000000000E+00  0.00000000000E+00  0.45593999997E+02  0.45594000000E+02  0.51100000000E-03 0. -1.
         11   -1    0    0    0    0 -0.00000000000E+00 -0.00000000000E+00 -0.45593999997E+02  0.45594000000E+02  0.51100000000E-03 0.  1.
    9900012    2    1    2    0    0  0.42878756512E+02 -0.66693927035E+01 -0.74498229652E+00  0.47787267775E+02  0.19999985093E+02 0.  0.
         12    1    1    2    0    0 -0.42878756512E+02  0.66693927035E+01  0.74498229652E+00  0.43400732225E+02  0.00000000000E+00 0. -1.
         11    1    3    3    0    0  0.25541764514E+01 -0.36690133124E+01 -0.22006092532E-01  0.44705660224E+01  0.51100000000E-03 0. -1.
        -11    1    3    3    0    0  0.11028992462E+00  0.26867189973E+01 -0.23640364600E+00  0.26993535861E+01  0.51100000000E-03 0.  1.
        -12    1    3    3    0    0  0.40214290136E+02 -0.56870983883E+01 -0.48657255799E+00  0.40617348166E+02  0.00000000000E+00 0.  1.
</event>
<event>
 7    1  0.5038211E-009  0.4778727E+02  0.7816164E-02  0.1312668E+00
        -11   -1    0    0    0    0  0.00000000000E+00  0.00000000000E+00  0.45593999997E+02  0.45594000000E+02  0.51100000000E-03 0. -1.
         11   -1    0    0    0    0 -0.00000000000E+00 -0.00000000000E+00 -0.45593999997E+02  0.45594000000E+02  0.51100000000E-03 0.  1.
    9900012    2    1    2    0    0  0.17272164972E+02  0.21876342716E+02 -0.33267415920E+02  0.47787274022E+02  0.20000013575E+02 0.  0.
         12    1    1    2    0    0 -0.17272164972E+02 -0.21876342716E+02  0.33267415920E+02  0.43400725978E+02  0.00000000000E+00 0. -1.
         11    1    3    3    0    0  0.14137171474E+01 -0.10856088462E+01 -0.48645242085E+00  0.18476414584E+01  0.51100000000E-03 0. -1.
        -11    1    3    3    0    0  0.74099413161E+01  0.14528677280E+02 -0.74363930874E+01  0.17924554004E+02  0.51100000000E-03 0.  1.
        -12    1    3    3    0    0  0.84485065081E+01  0.84332742820E+01 -0.25344570412E+02  0.28015078559E+02  0.00000000000E+00 0.  1.
</event>
<event>
 7    1  0.5038211E-009  0.4778727E+02  0.7816164E-02  0.1312668E+00
        -11   -1    0    0    0    0  0.00000000000E+00  0.00000000000E+00  0.45593999997E+02  0.45594000000E+02  0.51100000000E-03 0.  1.
         11   -1    0    0    0    0 -0.00000000000E+00 -0.00000000000E+00 -0.45593999997E+02  0.45594000000E+02  0.51100000000E-03 0. -1.
    9900012    2    1    2    0    0 -0.17422714286E+02 -0.16097714470E+02  0.36344681386E+02  0.47787271328E+02  0.20000001292E+02 0.  0.
         12    1    1    2    0    0  0.17422714286E+02  0.16097714470E+02 -0.36344681386E+02  0.43400728672E+02  0.00000000000E+00 0. -1.
         11    1    3    3    0    0 -0.15268434723E+01 -0.85693434773E+01  0.13601211636E+02  0.16147998540E+02  0.51100000000E-03 0. -1.
        -11    1    3    3    0    0 -0.12950667735E+02 -0.30925991668E+01  0.70477477755E+01  0.15065016208E+02  0.51100000000E-03 0.  1.
        -12    1    3    3    0    0 -0.29452030786E+01 -0.44357718260E+01  0.15695721974E+02  0.16574256579E+02  0.00000000000E+00 0.  1.
</event>
<event>
 7    1  0.5038211E-009  0.4778727E+02  0.7816164E-02  0.1312668E+00
        -11   -1    0    0    0    0  0.00000000000E+00  0.00000000000E+00  0.45593999997E+02  0.45594000000E+02  0.51100000000E-03 0.  1.
         11   -1    0    0    0    0 -0.00000000000E+00 -0.00000000000E+00 -0.45593999997E+02  0.45594000000E+02  0.51100000000E-03 0. -1.
    9900012    2    1    2    0    0 -0.36145191207E+01  0.10305010791E+02  0.42004344903E+02  0.47787274354E+02  0.20000015090E+02 0.  0.
         12    1    1    2    0    0  0.36145191207E+01 -0.10305010791E+02 -0.42004344903E+02  0.43400725646E+02  0.00000000000E+00 0. -1.
         11    1    3    3    0    0 -0.68568396480E+01  0.92588252229E+01  0.42691143104E+02  0.44218500588E+02  0.51100000000E-03 0.  1.
        -11    1    3    3    0    0  0.17097109404E+01  0.94275807768E+00 -0.53981840841E+00  0.20256624763E+01  0.51100000000E-03 0. -1.
        -12    1    3    3    0    0  0.15326095869E+01  0.10342749069E+00 -0.14697979316E+00  0.15431112894E+01  0.00000000000E+00 0.  1.
</event>
<event>
 7    1  0.5038211E-009  0.4778727E+02  0.7816164E-02  0.1312668E+00
        -11   -1    0    0    0    0  0.00000000000E+00  0.00000000000E+00  0.45593999997E+02  0.45594000000E+02  0.51100000000E-03 0. -1.
         11   -1    0    0    0    0 -0.00000000000E+00 -0.00000000000E+00 -0.45593999997E+02  0.45594000000E+02  0.51100000000E-03 0.  1.
    9900012    2    1    2    0    0  0.92549052684E+01 -0.34388376247E+02 -0.24807446798E+02  0.47787272943E+02  0.20000008658E+02 0.  0.
         12    1    1    2    0    0 -0.92549052684E+01  0.34388376247E+02  0.24807446798E+02  0.43400727057E+02  0.00000000000E+00 0. -1.
         11    1    3    3    0    0  0.11665149572E+02 -0.86569691620E+01 -0.85627868060E+01  0.16862388554E+02  0.51100000000E-03 0. -1.
        -11    1    3    3    0    0 -0.34204161950E+01 -0.11716825153E+02 -0.85759687483E+01  0.14917455508E+02  0.51100000000E-03 0.  1.
         12    1    3    3    0    0  0.10101718912E+01 -0.14014581932E+02 -0.76686912436E+01  0.16007428881E+02  0.00000000000E+00 0. -1.
</event>
<event>
 7    1  0.5038211E-009  0.4778727E+02  0.7816164E-02  0.1312668E+00
        -11   -1    0    0    0    0  0.00000000000E+00  0.00000000000E+00  0.45593999997E+02  0.45594000000E+02  0.51100000000E-03 0.  1.
         11   -1    0    0    0    0 -0.00000000000E+00 -0.00000000000E+00 -0.45593999997E+02  0.45594000000E+02  0.51100000000E-03 0. -1.
    9900012    2    1    2    0    0  0.25988272904E+02 -0.33243659179E+02  0.10153422070E+02  0.47787272081E+02  0.20000004726E+02 0.  0.
         12    1    1    2    0    0 -0.25988272904E+02  0.33243659179E+02 -0.10153422070E+02  0.43400727919E+02  0.00000000000E+00 0. -1.
         11    1    3    3    0    0 -0.79822876129E+00 -0.13950637751E+01 -0.11466239682E+01  0.19743654367E+01  0.51100000000E-03 0. -1.
        -11    1    3    3    0    0  0.18767614913E+02 -0.12974350923E+02  0.10939285596E+02  0.25302670235E+02  0.51100000000E-03 0.  1.
        -12    1    3    3    0    0  0.80188867524E+01 -0.18874244481E+02  0.36076044245E+00  0.20510236409E+02  0.00000000000E+00 0.  1.
</event>
<event>
 7    1  0.5038211E-009  0.4778727E+02  0.7816164E-02  0.1312668E+00
        -11   -1    0    0    0    0  0.00000000000E+00  0.00000000000E+00  0.45593999997E+02  0.45594000000E+02  0.51100000000E-03 0.  1.
         11   -1    0    0    0    0 -0.00000000000E+00 -0.00000000000E+00 -0.45593999997E+02  0.45594000000E+02  0.51100000000E-03 0. -1.
    9900012    2    1    2    0    0 -0.41759269450E+02  0.18588898460E+01 -0.11676088740E+02  0.47787272993E+02  0.20000008886E+02 0.  0.
         12    1    1    2    0    0  0.41759269450E+02 -0.18588898460E+01  0.11676088740E+02  0.43400727007E+02  0.00000000000E+00 0. -1.
         11    1    3    3    0    0 -0.31055797475E+02  0.34054556440E+01 -0.12984663389E+02  0.33832841568E+02  0.51100000000E-03 0. -1.
        -11    1    3    3    0    0 -0.54180219013E+01  0.16289362780E+01  0.42950609431E+01  0.71032347200E+01  0.51100000000E-03 0.  1.
         12    1    3    3    0    0 -0.52854500730E+01 -0.31755020760E+01 -0.29864862950E+01  0.68511967056E+01  0.00000000000E+00 0. -1.
</event>
<event>
 7    1  0.5038211E-009  0.4778727E+02  0.7816164E-02  0.1312668E+00
        -11   -1    0    0    0    0  0.00000000000E+00  0.00000000000E+00  0.45593999997E+02  0.45594000000E+02  0.51100000000E-03 0.  1.
         11   -1    0    0    0    0 -0.00000000000E+00 -0.00000000000E+00 -0.45593999997E+02  0.45594000000E+02  0.51100000000E-03 0. -1.
    9900012    2    1    2    0    0  0.32669089646E+02 -0.25795156224E+02 -0.12286744247E+02  0.47787267436E+02  0.19999983547E+02 0.  0.
         12    1    1    2    0    0 -0.32669089646E+02  0.25795156224E+02  0.12286744247E+02  0.43400732564E+02  0.00000000000E+00 0. -1.
         11    1    3    3    0    0  0.18207907801E+01 -0.41232998913E+01  0.28618047199E+01  0.53391766757E+01  0.51100000000E-03 0. -1.
        -11    1    3    3    0    0  0.13725445333E+02 -0.15795420498E+02 -0.11846427091E+02  0.24046226178E+02  0.51100000000E-03 0.  1.
        -12    1    3    3    0    0  0.17122853533E+02 -0.58764358347E+01 -0.33021218752E+01  0.18401864582E+02  0.00000000000E+00 0.  1.
</event>
<event>
 7    1  0.5038211E-009  0.4778727E+02  0.7816164E-02  0.1312668E+00
        -11   -1    0    0    0    0  0.00000000000E+00  0.00000000000E+00  0.45593999997E+02  0.45594000000E+02  0.51100000000E-03 0.  1.
         11   -1    0    0    0    0 -0.00000000000E+00 -0.00000000000E+00 -0.45593999997E+02  0.45594000000E+02  0.51100000000E-03 0. -1.
    9900012    2    1    2    0    0 -0.69836712397E+01  0.29440122484E+01  0.42733877731E+02  0.47787272148E+02  0.20000005032E+02 0.  0.
         12    1    1    2    0    0  0.69836712397E+01 -0.29440122484E+01 -0.42733877731E+02  0.43400727852E+02  0.00000000000E+00 0. -1.
         11    1    3    3    0    0 -0.38446155570E+01  0.78201080079E+01  0.24323994953E+02  0.25837799611E+02  0.51100000000E-03 0.  1.
        -11    1    3    3    0    0  0.15452329702E+01 -0.67368792632E+01  0.10678475723E+02  0.12720185972E+02  0.51100000000E-03 0. -1.
         12    1    3    3    0    0 -0.46842886528E+01  0.18607835037E+01  0.77314070559E+01  0.92292865648E+01  0.00000000000E+00 0. -1.
</event>
<event>
 7    1  0.5038211E-009  0.4778727E+02  0.7816164E-02  0.1312668E+00
        -11   -1    0    0    0    0  0.00000000000E+00  0.00000000000E+00  0.45593999997E+02  0.45594000000E+02  0.51100000000E-03 0.  1.
         11   -1    0    0    0    0 -0.00000000000E+00 -0.00000000000E+00 -0.45593999997E+02  0.45594000000E+02  0.51100000000E-03 0. -1.
    9900012    2    1    2    0    0 -0.82639856570E+01 -0.26715778157E+02  0.33190318334E+02  0.47787268525E+02  0.19999988511E+02 0.  0.
         12    1    1    2    0    0  0.82639856570E+01  0.26715778157E+02 -0.33190318334E+02  0.43400731475E+02  0.00000000000E+00 0. -1.
         11    1    3    3    0    0 -0.14553657385E+01  0.27535679640E+01  0.59025105594E+00  0.31699562356E+01  0.51100000000E-03 0. -1.
        -11    1    3    3    0    0 -0.63782632098E+01 -0.21402703547E+02  0.22773301594E+02  0.31896414006E+02  0.51100000000E-03 0.  1.
         12    1    3    3    0    0 -0.43035670870E+00 -0.80666425738E+01  0.98267656842E+01  0.12720898283E+02  0.00000000000E+00 0. -1.
</event>
<event>
 7    1  0.5038211E-009  0.4778726E+02  0.7816164E-02  0.1312668E+00
        -11   -1    0    0    0    0  0.00000000000E+00  0.00000000000E+00  0.45593999997E+02  0.45594000000E+02  0.51100000000E-03 0. -1.
         11   -1    0    0    0    0 -0.00000000000E+00 -0.00000000000E+00 -0.45593999997E+02  0.45594000000E+02  0.51100000000E-03 0.  1.
    9900012    2    1    2    0    0 -0.80045822035E+01  0.35108083678E+02 -0.24227533484E+02  0.47787259747E+02  0.19999948490E+02 0.  0.
         12    1    1    2    0    0  0.80045822035E+01 -0.35108083678E+02  0.24227533484E+02  0.43400740253E+02  0.00000000000E+00 0. -1.
         11    1    3    3    0    0  0.22416692702E+01  0.26397988544E+02 -0.14293615597E+02  0.30102928883E+02  0.51100000000E-03 0. -1.
        -11    1    3    3    0    0 -0.92376032816E+01  0.74669593015E+01 -0.57340323712E+01  0.13189690030E+02  0.51100000000E-03 0.  1.
         12    1    3    3    0    0 -0.10086481921E+01  0.12431358329E+01 -0.41998855157E+01  0.44946408332E+01  0.00000000000E+00 0. -1.
</event>
<event>
 7    1  0.5038211E-009  0.4778728E+02  0.7816164E-02  0.1312668E+00
        -11   -1    0    0    0    0  0.00000000000E+00  0.00000000000E+00  0.45593999997E+02  0.45594000000E+02  0.51100000000E-03 0.  1.
         11   -1    0    0    0    0 -0.00000000000E+00 -0.00000000000E+00 -0.45593999997E+02  0.45594000000E+02  0.51100000000E-03 0. -1.
    9900012    2    1    2    0    0  0.22580862270E+02  0.26117460548E+02  0.26298386958E+02  0.47787282922E+02  0.20000054156E+02 0.  0.
         12    1    1    2    0    0 -0.22580862270E+02 -0.26117460548E+02 -0.26298386958E+02  0.43400717078E+02  0.00000000000E+00 0. -1.
         11    1    3    3    0    0  0.35153187681E+01 -0.32463445434E+01  0.41895570828E+01  0.63599219922E+01  0.51100000000E-03 0. -1.
        -11    1    3    3    0    0  0.11941589126E+02  0.18787729724E+02  0.14749520386E+02  0.26704469493E+02  0.51100000000E-03 0.  1.
         12    1    3    3    0    0  0.71239543760E+01  0.10576075367E+02  0.73593094885E+01  0.14722891437E+02  0.00000000000E+00 0. -1.
</event>
<event>
 7    1  0.5038211E-009  0.4778727E+02  0.7816164E-02  0.1312668E+00
        -11   -1    0    0    0    0  0.00000000000E+00  0.00000000000E+00  0.45593999997E+02  0.45594000000E+02  0.51100000000E-03 0. -1.
         11   -1    0    0    0    0 -0.00000000000E+00 -0.00000000000E+00 -0.45593999997E+02  0.45594000000E+02  0.51100000000E-03 0.  1.
    9900012    2    1    2    0    0 -0.32215108839E+02  0.26009283388E+02 -0.13012583529E+02  0.47787269707E+02  0.19999993901E+02 0.  0.
         12    1    1    2    0    0  0.32215108839E+02 -0.26009283388E+02  0.13012583529E+02  0.43400730293E+02  0.00000000000E+00 0. -1.
         11    1    3    3    0    0  0.81362913984E+00  0.33877186151E+01  0.22796993054E+01  0.41636112903E+01  0.51100000000E-03 0. -1.
        -11    1    3    3    0    0 -0.21163284789E+02  0.10923724528E+02 -0.60617928541E+01  0.24575551133E+02  0.51100000000E-03 0.  1.
         12    1    3    3    0    0 -0.11865453190E+02  0.11697840245E+02 -0.92304899805E+01  0.19048107283E+02  0.00000000000E+00 0. -1.
</event>
<event>
 7    1  0.5038211E-009  0.4778727E+02  0.7816164E-02  0.1312668E+00
        -11   -1    0    0    0    0  0.00000000000E+00  0.00000000000E+00  0.45593999997E+02  0.45594000000E+02  0.51100000000E-03 0.  1.
         11   -1    0    0    0    0 -0.00000000000E+00 -0.00000000000E+00 -0.45593999997E+02  0.45594000000E+02  0.51100000000E-03 0. -1.
    9900012    2    1    2    0    0 -0.43384815654E+02 -0.60338168949E+00  0.10084604061E+01  0.47787270845E+02  0.19999999092E+02 0.  0.
         12    1    1    2    0    0  0.43384815654E+02  0.60338168949E+00 -0.10084604061E+01  0.43400729155E+02  0.00000000000E+00 0. -1.
         11    1    3    3    0    0 -0.96753228629E+01  0.42855980858E+01 -0.33960324006E+01  0.11113561975E+02  0.51100000000E-03 0. -1.
        -11    1    3    3    0    0 -0.30475201022E+02 -0.79724606886E+00  0.62899100570E+01  0.31127744014E+02  0.51100000000E-03 0.  1.
        -12    1    3    3    0    0 -0.32342917687E+01 -0.40917337064E+01 -0.18854172503E+01  0.55459648554E+01  0.00000000000E+00 0.  1.
</event>
<event>
 7    1  0.5038211E-009  0.4778726E+02  0.7816164E-02  0.1312668E+00
        -11   -1    0    0    0    0  0.00000000000E+00  0.00000000000E+00  0.45593999997E+02  0.45594000000E+02  0.51100000000E-03 0. -1.
         11   -1    0    0    0    0 -0.00000000000E+00 -0.00000000000E+00 -0.45593999997E+02  0.45594000000E+02  0.51100000000E-03 0.  1.
    9900012    2    1    2    0    0 -0.28675899390E+02  0.30622160723E+02  0.11117549055E+02  0.47787264636E+02  0.19999970782E+02 0.  0.
         12    1    1    2    0    0  0.28675899390E+02 -0.30622160723E+02 -0.11117549055E+02  0.43400735364E+02  0.00000000000E+00 0. -1.
         11    1    3    3    0    0 -0.22646048903E+02  0.22283336817E+02  0.12763259425E+02  0.34238741537E+02  0.51100000000E-03 0. -1.
        -11    1    3    3    0    0 -0.62363947546E+01  0.96514326853E+01 -0.27560967070E+01  0.11816887989E+02  0.51100000000E-03 0.  1.
         12    1    3    3    0    0  0.20654426760E+00 -0.13126087792E+01  0.11103863364E+01  0.17316351110E+01  0.00000000000E+00 0. -1.
</event>
<event>
 7    1  0.5038211E-009  0.4778727E+02  0.7816164E-02  0.1312668E+00
        -11   -1    0    0    0    0  0.00000000000E+00  0.00000000000E+00  0.45593999997E+02  0.45594000000E+02  0.51100000000E-03 0.  1.
         11   -1    0    0    0    0 -0.00000000000E+00 -0.00000000000E+00 -0.45593999997E+02  0.45594000000E+02  0.51100000000E-03 0. -1.
    9900012    2    1    2    0    0 -0.16106605578E+02 -0.34242009647E+02  0.21252891967E+02  0.47787269766E+02  0.19999994171E+02 0.  0.
         12    1    1    2    0    0  0.16106605578E+02  0.34242009647E+02 -0.21252891967E+02  0.43400730234E+02  0.00000000000E+00 0. -1.
         11    1    3    3    0    0 -0.30220837923E+01 -0.35299314924E+00 -0.74854671883E+00  0.31333555595E+01  0.51100000000E-03 0. -1.
        -11    1    3    3    0    0  0.19643915186E+01 -0.12703905563E+02  0.78977460351E+01  0.15087161538E+02  0.51100000000E-03 0.  1.
        -12    1    3    3    0    0 -0.15048913304E+02 -0.21185110935E+02  0.14103692650E+02  0.29566752668E+02  0.00000000000E+00 0.  1.
</event>
<event>
 7    1  0.5038211E-009  0.4778727E+02  0.7816164E-02  0.1312668E+00
        -11   -1    0    0    0    0  0.00000000000E+00  0.00000000000E+00  0.45593999997E+02  0.45594000000E+02  0.51100000000E-03 0. -1.
         11   -1    0    0    0    0 -0.00000000000E+00 -0.00000000000E+00 -0.45593999997E+02  0.45594000000E+02  0.51100000000E-03 0.  1.
    9900012    2    1    2    0    0  0.16289353901E+02  0.28983536662E+02 -0.27896869683E+02  0.47787265144E+02  0.19999973096E+02 0.  0.
         12    1    1    2    0    0 -0.16289353901E+02 -0.28983536662E+02  0.27896869683E+02  0.43400734856E+02  0.00000000000E+00 0. -1.
         11    1    3    3    0    0 -0.30936033355E+01  0.23377617411E+00 -0.47613682647E+01  0.56829271428E+01  0.51100000000E-03 0. -1.
        -11    1    3    3    0    0  0.94298107736E+01  0.15515577730E+02 -0.86858821106E+01  0.20127072113E+02  0.51100000000E-03 0.  1.
         12    1    3    3    0    0  0.99531464625E+01  0.13234182758E+02 -0.14449619308E+02  0.21977265888E+02  0.00000000000E+00 0. -1.
</event>
<event>
 7    1  0.5038211E-009  0.4778727E+02  0.7816164E-02  0.1312668E+00
        -11   -1    0    0    0    0  0.00000000000E+00  0.00000000000E+00  0.45593999997E+02  0.45594000000E+02  0.51100000000E-03 0. -1.
         11   -1    0    0    0    0 -0.00000000000E+00 -0.00000000000E+00 -0.45593999997E+02  0.45594000000E+02  0.51100000000E-03 0.  1.
    9900012    2    1    2    0    0  0.28507346604E+01 -0.42738688828E+02 -0.69929195780E+01  0.47787272643E+02  0.20000007289E+02 0.  0.
         12    1    1    2    0    0 -0.28507346604E+01  0.42738688828E+02  0.69929195780E+01  0.43400727357E+02  0.00000000000E+00 0. -1.
         11    1    3    3    0    0 -0.44431833576E+01 -0.34190542220E+02 -0.13065219714E+00  0.34478284846E+02  0.51100000000E-03 0. -1.
        -11    1    3    3    0    0  0.47687830257E+01 -0.41554786817E+01 -0.41052445697E+01  0.75407113629E+01  0.51100000000E-03 0.  1.
         12    1    3    3    0    0  0.25251349923E+01 -0.43926679264E+01 -0.27570228112E+01  0.57682764343E+01  0.00000000000E+00 0. -1.
</event>
<event>
 7    1  0.5038211E-009  0.4778727E+02  0.7816164E-02  0.1312668E+00
        -11   -1    0    0    0    0  0.00000000000E+00  0.00000000000E+00  0.45593999997E+02  0.45594000000E+02  0.51100000000E-03 0. -1.
         11   -1    0    0    0    0 -0.00000000000E+00 -0.00000000000E+00 -0.45593999997E+02  0.45594000000E+02  0.51100000000E-03 0.  1.
    9900012    2    1    2    0    0  0.10459399797E+02 -0.30246130769E+02 -0.29315451826E+02  0.47787272052E+02  0.20000004596E+02 0.  0.
         12    1    1    2    0    0 -0.10459399797E+02  0.30246130769E+02  0.29315451826E+02  0.43400727948E+02  0.00000000000E+00 0. -1.
         11    1    3    3    0    0  0.79089421153E+00 -0.33418660016E+01  0.24025746366E+01  0.41911749154E+01  0.51100000000E-03 0. -1.
        -11    1    3    3    0    0  0.30847460879E+01 -0.18001761288E+02 -0.15477494389E+02  0.23940173364E+02  0.51100000000E-03 0.  1.
         12    1    3    3    0    0  0.65837594976E+01 -0.89025034799E+01 -0.16240532073E+02  0.19655923773E+02  0.00000000000E+00 0. -1.
</event>
<event>
 7    1  0.5038211E-009  0.4778728E+02  0.7816164E-02  0.1312668E+00
        -11   -1    0    0    0    0  0.00000000000E+00  0.00000000000E+00  0.45593999997E+02  0.45594000000E+02  0.51100000000E-03 0. -1.
         11   -1    0    0    0    0 -0.00000000000E+00 -0.00000000000E+00 -0.45593999997E+02  0.45594000000E+02  0.51100000000E-03 0.  1.
    9900012    2    1    2    0    0 -0.21228905061E+02 -0.15275391631E+02 -0.34635512464E+02  0.47787277388E+02  0.20000028923E+02 0.  0.
         12    1    1    2    0    0  0.21228905061E+02  0.15275391631E+02  0.34635512464E+02  0.43400722612E+02  0.00000000000E+00 0. -1.
         11    1    3    3    0    0  0.33434161381E+01 -0.28013794369E+01 -0.67383410231E+01  0.80269171060E+01  0.51100000000E-03 0. -1.
        -11    1    3    3    0    0 -0.18037091022E+02 -0.70155945028E+01 -0.15892549558E+02  0.25042530832E+02  0.51100000000E-03 0.  1.
         12    1    3    3    0    0 -0.65352301771E+01 -0.54584176912E+01 -0.12004621883E+02  0.14717829450E+02  0.00000000000E+00 0. -1.
</event>
<event>
 7    1  0.5038211E-009  0.4778727E+02  0.7816164E-02  0.1312668E+00
        -11   -1    0    0    0    0  0.00000000000E+00  0.00000000000E+00  0.45593999997E+02  0.45594000000E+02  0.51100000000E-03 0.  1.
         11   -1    0    0    0    0 -0.00000000000E+00 -0.00000000000E+00 -0.45593999997E+02  0.45594000000E+02  0.51100000000E-03 0. -1.
    9900012    2    1    2    0    0 -0.17747277268E+02 -0.60827015765E+01  0.39136401609E+02  0.47787273742E+02  0.20000012297E+02 0.  0.
         12    1    1    2    0    0  0.17747277268E+02  0.60827015765E+01 -0.39136401609E+02  0.43400726258E+02  0.00000000000E+00 0. -1.
         11    1    3    3    0    0  0.37824745299E+01 -0.73270560035E+00  0.39455554508E+01  0.55146513165E+01  0.51100000000E-03 0. -1.
        -11    1    3    3    0    0  0.52229012941E+00 -0.71187678913E+00  0.11780914104E+01  0.14722279628E+01  0.51100000000E-03 0.  1.
         12    1    3    3    0    0 -0.22052041928E+02 -0.46381191870E+01  0.34012754747E+02  0.40800394462E+02  0.00000000000E+00 0. -1.
</event>
<event>
 7    1  0.5038211E-009  0.4778728E+02  0.7816164E-02  0.1312668E+00
        -11   -1    0    0    0    0  0.00000000000E+00  0.00000000000E+00  0.45593999997E+02  0.45594000000E+02  0.51100000000E-03 0.  1.
         11   -1    0    0    0    0 -0.00000000000E+00 -0.00000000000E+00 -0.45593999997E+02  0.45594000000E+02  0.51100000000E-03 0. -1.
    9900012    2    1    2    0    0  0.90687397896E+01 -0.41843661885E+02  0.71055431187E+01  0.47787276223E+02  0.20000023612E+02 0.  0.
         12    1    1    2    0    0 -0.90687397896E+01  0.41843661885E+02 -0.71055431187E+01  0.43400723777E+02  0.00000000000E+00 0. -1.
         11    1    3    3    0    0  0.53122335188E+01 -0.10739255865E+02  0.87992792797E+01  0.14865354271E+02  0.51100000000E-03 0. -1.
        -11    1    3    3    0    0  0.52180108239E+01 -0.19351825726E+02 -0.49383780505E+01  0.20642392640E+02  0.51100000000E-03 0.  1.
        -12    1    3    3    0    0 -0.14615045531E+01 -0.11752580294E+02  0.32446418895E+01  0.12279529312E+02  0.00000000000E+00 0.  1.
</event>
<event>
 7    1  0.5038211E-009  0.4778727E+02  0.7816164E-02  0.1312668E+00
        -11   -1    0    0    0    0  0.00000000000E+00  0.00000000000E+00  0.45593999997E+02  0.45594000000E+02  0.51100000000E-03 0.  1.
         11   -1    0    0    0    0 -0.00000000000E+00 -0.00000000000E+00 -0.45593999997E+02  0.45594000000E+02  0.51100000000E-03 0. -1.
    9900012    2    1    2    0    0 -0.12838542410E+02 -0.37429894575E+01  0.41289040416E+02  0.47787274202E+02  0.20000014396E+02 0.  0.
         12    1    1    2    0    0  0.12838542410E+02  0.37429894575E+01 -0.41289040416E+02  0.43400725798E+02  0.00000000000E+00 0. -1.
         11    1    3    3    0    0 -0.31853541293E+01 -0.20147656749E+01  0.16318245645E+01  0.41071417463E+01  0.51100000000E-03 0. -1.
        -11    1    3    3    0    0 -0.26845992824E+01 -0.81317717013E+01  0.15050354509E+02  0.17316060621E+02  0.51100000000E-03 0.  1.
        -12    1    3    3    0    0 -0.69685889983E+01  0.64035479187E+01  0.24606861343E+02  0.26364071835E+02  0.00000000000E+00 0.  1.
</event>
<event>
 7    1  0.5038211E-009  0.4778728E+02  0.7816164E-02  0.1312668E+00
        -11   -1    0    0    0    0  0.00000000000E+00  0.00000000000E+00  0.45593999997E+02  0.45594000000E+02  0.51100000000E-03 0.  1.
         11   -1    0    0    0    0 -0.00000000000E+00 -0.00000000000E+00 -0.45593999997E+02  0.45594000000E+02  0.51100000000E-03 0. -1.
    9900012    2    1    2    0    0 -0.13432962898E+02  0.22578159312E+02  0.34545696670E+02  0.47787275022E+02  0.20000018137E+02 0.  0.
         12    1    1    2    0    0  0.13432962898E+02 -0.22578159312E+02 -0.34545696670E+02  0.43400724978E+02  0.00000000000E+00 0. -1.
         11    1    3    3    0    0 -0.14941944164E+02  0.18761039978E+02  0.20175377570E+02  0.31341413128E+02  0.51100000000E-03 0. -1.
        -11    1    3    3    0    0 -0.25777902621E+01  0.18151745570E+01  0.81503665070E+01  0.87388978577E+01  0.51100000000E-03 0.  1.
         12    1    3    3    0    0  0.40867715280E+01  0.20019447767E+01  0.62199525930E+01  0.77069640371E+01  0.00000000000E+00 0. -1.
</event>
<event>
 7    1  0.5038211E-009  0.4778727E+02  0.7816164E-02  0.1312668E+00
        -11   -1    0    0    0    0  0.00000000000E+00  0.00000000000E+00  0.45593999997E+02  0.45594000000E+02  0.51100000000E-03 0.  1.
         11   -1    0    0    0    0 -0.00000000000E+00 -0.00000000000E+00 -0.45593999997E+02  0.45594000000E+02  0.51100000000E-03 0. -1.
    9900012    2    1    2    0    0 -0.90523088479E+01 -0.13201205985E+02  0.40341136803E+02  0.47787268975E+02  0.19999990564E+02 0.  0.
         12    1    1    2    0    0  0.90523088479E+01  0.13201205985E+02 -0.40341136803E+02  0.43400731025E+02  0.00000000000E+00 0. -1.
         11    1    3    3    0    0  0.32832163772E+01  0.13084165686E+01  0.18317217794E+01  0.39807874390E+01  0.51100000000E-03 0. -1.
        -11    1    3    3    0    0 -0.22578843323E+01 -0.12993621727E+00  0.10555245110E+02  0.10794819344E+02  0.51100000000E-03 0.  1.
         12    1    3    3    0    0 -0.10077640893E+02 -0.14379686336E+02  0.27954169914E+02  0.33011662192E+02  0.00000000000E+00 0. -1.
</event>
<event>
 7    1  0.6756941E-009  0.4778727E+02  0.7816164E-02  0.1312668E+00
        -11   -1    0    0    0    0  0.00000000000E+00  0.00000000000E+00  0.45593999997E+02  0.45594000000E+02  0.51100000000E-03 0.  1.
         11   -1    0    0    0    0 -0.00000000000E+00 -0.00000000000E+00 -0.45593999997E+02  0.45594000000E+02  0.51100000000E-03 0. -1.
    9900012    2    1    2    0    0 -0.32185395119E+02  0.10927300064E+02 -0.26987361521E+02  0.47787271578E+02  0.20000002434E+02 0.  0.
         12    1    1    2    0    0  0.32185395119E+02 -0.10927300064E+02  0.26987361521E+02  0.43400728422E+02  0.00000000000E+00 0. -1.
         11    1    3    3    0    0 -0.75312252860E+01 -0.16684362649E+01 -0.32397164951E+00  0.77206212036E+01  0.51100000000E-03 0. -1.
        -11    1    3    3    0    0 -0.22170772555E+02  0.64155956464E+01 -0.22371058307E+02  0.32142919489E+02  0.51100000000E-03 0.  1.
         12    1    3    3    0    0 -0.24833972780E+01  0.61801406830E+01 -0.42923315639E+01  0.79237308862E+01  0.00000000000E+00 0. -1.
</event>
<event>
 7    1  0.5038211E-009  0.4778727E+02  0.7816164E-02  0.1312668E+00
        -11   -1    0    0    0    0  0.00000000000E+00  0.00000000000E+00  0.45593999997E+02  0.45594000000E+02  0.51100000000E-03 0.  1.
         11   -1    0    0    0    0 -0.00000000000E+00 -0.00000000000E+00 -0.45593999997E+02  0.45594000000E+02  0.51100000000E-03 0. -1.
    9900012    2    1    2    0    0 -0.12517460456E+02 -0.59769711453E+01  0.41124351430E+02  0.47787270963E+02  0.19999999630E+02 0.  0.
         12    1    1    2    0    0  0.12517460456E+02  0.59769711453E+01 -0.41124351430E+02  0.43400729037E+02  0.00000000000E+00 0. -1.
         11    1    3    3    0    0 -0.50551251213E+00  0.13725383718E+01 -0.11554077326E+01  0.18639666767E+01  0.51100000000E-03 0. -1.
        -11    1    3    3    0    0 -0.12312420187E+02 -0.73621500054E+01  0.26443109381E+02  0.30083799254E+02  0.51100000000E-03 0.  1.
        -12    1    3    3    0    0  0.30047224347E+00  0.12640488283E-01  0.15836649783E+02  0.15839505033E+02  0.00000000000E+00 0.  1.
</event>
<event>
 7    1  0.5038211E-009  0.4778727E+02  0.7816164E-02  0.1312668E+00
        -11   -1    0    0    0    0  0.00000000000E+00  0.00000000000E+00  0.45593999997E+02  0.45594000000E+02  0.51100000000E-03 0.  1.
         11   -1    0    0    0    0 -0.00000000000E+00 -0.00000000000E+00 -0.45593999997E+02  0.45594000000E+02  0.51100000000E-03 0. -1.
    9900012    2    1    2    0    0  0.34750548596E+02 -0.66970609774E+01  0.25123141719E+02  0.47787268401E+02  0.19999987950E+02 0.  0.
         12    1    1    2    0    0 -0.34750548596E+02  0.66970609774E+01 -0.25123141719E+02  0.43400731599E+02  0.00000000000E+00 0. -1.
         11    1    3    3    0    0  0.44109959947E+01 -0.71360334641E+01  0.38418497534E+01  0.92271159662E+01  0.51100000000E-03 0. -1.
        -11    1    3    3    0    0  0.12749011540E+02  0.50462234832E+01  0.11597914889E+02  0.17958655203E+02  0.51100000000E-03 0.  1.
         12    1    3    3    0    0  0.17590541062E+02 -0.46072509966E+01  0.96833770764E+01  0.20601497232E+02  0.00000000000E+00 0. -1.
</event>
<event>
 7    1  0.5038211E-009  0.4778727E+02  0.7816164E-02  0.1312668E+00
        -11   -1    0    0    0    0  0.00000000000E+00  0.00000000000E+00  0.45593999997E+02  0.45594000000E+02  0.51100000000E-03 0. -1.
         11   -1    0    0    0    0 -0.00000000000E+00 -0.00000000000E+00 -0.45593999997E+02  0.45594000000E+02  0.51100000000E-03 0.  1.
    9900012    2    1    2    0    0 -0.13168729576E+02 -0.22213181359E+02 -0.34882406809E+02  0.47787272247E+02  0.20000005481E+02 0.  0.
         12    1    1    2    0    0  0.13168729576E+02  0.22213181359E+02  0.34882406809E+02  0.43400727753E+02  0.00000000000E+00 0. -1.
         11    1    3    3    0    0  0.26276451160E+01 -0.47204064436E+01 -0.15121333207E+02  0.16057442949E+02  0.51100000000E-03 0. -1.
        -11    1    3    3    0    0 -0.16637599475E+02 -0.16989800562E+02 -0.19386374069E+02  0.30680523777E+02  0.51100000000E-03 0.  1.
        -12    1    3    3    0    0  0.84122478306E+00 -0.50297435338E+00 -0.37469953369E+00  0.10493055210E+01  0.00000000000E+00 0.  1.
</event>
<event>
 7    1  0.5038211E-009  0.4778727E+02  0.7816164E-02  0.1312668E+00
        -11   -1    0    0    0    0  0.00000000000E+00  0.00000000000E+00  0.45593999997E+02  0.45594000000E+02  0.51100000000E-03 0.  1.
         11   -1    0    0    0    0 -0.00000000000E+00 -0.00000000000E+00 -0.45593999997E+02  0.45594000000E+02  0.51100000000E-03 0. -1.
    9900012    2    1    2    0    0 -0.36743532197E+02  0.11177219328E+02  0.20214010282E+02  0.47787267266E+02  0.19999982771E+02 0.  0.
         12    1    1    2    0    0  0.36743532197E+02 -0.11177219328E+02 -0.20214010282E+02  0.43400732734E+02  0.00000000000E+00 0. -1.
         11    1    3    3    0    0 -0.25945969049E+00  0.60170673004E+01  0.50505293988E+01  0.78600423470E+01  0.51100000000E-03 0. -1.
        -11    1    3    3    0    0 -0.32876809763E+02  0.41716613680E+01  0.14267580194E+02  0.36081175474E+02  0.51100000000E-03 0.  1.
         12    1    3    3    0    0 -0.36072627432E+01  0.98849065931E+00  0.89590068951E+00  0.38460494443E+01  0.00000000000E+00 0. -1.
</event>
<event>
 7    1  0.5038211E-009  0.4778727E+02  0.7816164E-02  0.1312668E+00
        -11   -1    0    0    0    0  0.00000000000E+00  0.00000000000E+00  0.45593999997E+02  0.45594000000E+02  0.51100000000E-03 0.  1.
         11   -1    0    0    0    0 -0.00000000000E+00 -0.00000000000E+00 -0.45593999997E+02  0.45594000000E+02  0.51100000000E-03 0. -1.
    9900012    2    1    2    0    0  0.41279292867E+02  0.13101250812E+02  0.28284531032E+01  0.47787274898E+02  0.20000017569E+02 0.  0.
         12    1    1    2    0    0 -0.41279292867E+02 -0.13101250812E+02 -0.28284531032E+01  0.43400725102E+02  0.00000000000E+00 0. -1.
         11    1    3    3    0    0  0.12034109985E+01  0.14958191879E+01 -0.58462967532E+00  0.20068545520E+01  0.51100000000E-03 0. -1.
        -11    1    3    3    0    0 -0.16277316899E+01  0.29709195132E+00  0.19344012668E+01  0.25455220691E+01  0.51100000000E-03 0.  1.
        -12    1    3    3    0    0  0.41703613559E+02  0.11308339672E+02  0.14786815117E+01  0.43234898277E+02  0.00000000000E+00 0.  1.
</event>
<event>
 7    1  0.5038211E-009  0.4778727E+02  0.7816164E-02  0.1312668E+00
        -11   -1    0    0    0    0  0.00000000000E+00  0.00000000000E+00  0.45593999997E+02  0.45594000000E+02  0.51100000000E-03 0.  1.
         11   -1    0    0    0    0 -0.00000000000E+00 -0.00000000000E+00 -0.45593999997E+02  0.45594000000E+02  0.51100000000E-03 0. -1.
    9900012    2    1    2    0    0  0.20205256364E+02  0.12717644918E+02  0.36244069572E+02  0.47787268945E+02  0.19999990426E+02 0.  0.
         12    1    1    2    0    0 -0.20205256364E+02 -0.12717644918E+02 -0.36244069572E+02  0.43400731055E+02  0.00000000000E+00 0. -1.
         11    1    3    3    0    0 -0.30542473764E+01  0.29552576561E+01  0.83725774158E+01  0.93894636532E+01  0.51100000000E-03 0. -1.
        -11    1    3    3    0    0  0.16887378758E+02  0.89440924225E+01  0.24711047234E+02  0.31238057017E+02  0.51100000000E-03 0.  1.
         12    1    3    3    0    0  0.63721249829E+01  0.81829483910E+00  0.31604449228E+01  0.71597482743E+01  0.00000000000E+00 0. -1.
</event>
<event>
 7    1  0.5038211E-009  0.4778727E+02  0.7816164E-02  0.1312668E+00
        -11   -1    0    0    0    0  0.00000000000E+00  0.00000000000E+00  0.45593999997E+02  0.45594000000E+02  0.51100000000E-03 0.  1.
         11   -1    0    0    0    0 -0.00000000000E+00 -0.00000000000E+00 -0.45593999997E+02  0.45594000000E+02  0.51100000000E-03 0. -1.
    9900012    2    1    2    0    0  0.20781611486E+02  0.35953430570E+02  0.12613432943E+02  0.47787271477E+02  0.20000001972E+02 0.  0.
         12    1    1    2    0    0 -0.20781611486E+02 -0.35953430570E+02 -0.12613432943E+02  0.43400728523E+02  0.00000000000E+00 0. -1.
         11    1    3    3    0    0  0.90433487594E+01  0.24829416299E+02  0.93298290830E+00  0.26441492543E+02  0.51100000000E-03 0. -1.
        -11    1    3    3    0    0  0.48252579185E+01  0.83173670394E+01  0.33982895781E+01  0.10198533265E+02  0.51100000000E-03 0.  1.
         12    1    3    3    0    0  0.69130048086E+01  0.28066472313E+01  0.82821604564E+01  0.11147245668E+02  0.00000000000E+00 0. -1.
</event>
<event>
 7    1  0.5038211E-009  0.4778727E+02  0.7816164E-02  0.1312668E+00
        -11   -1    0    0    0    0  0.00000000000E+00  0.00000000000E+00  0.45593999997E+02  0.45594000000E+02  0.51100000000E-03 0.  1.
         11   -1    0    0    0    0 -0.00000000000E+00 -0.00000000000E+00 -0.45593999997E+02  0.45594000000E+02  0.51100000000E-03 0. -1.
    9900012    2    1    2    0    0 -0.14420432696E+02  0.48048768904E+00  0.40932180141E+02  0.47787272833E+02  0.20000008154E+02 0.  0.
         12    1    1    2    0    0  0.14420432696E+02 -0.48048768904E+00 -0.40932180141E+02  0.43400727167E+02  0.00000000000E+00 0. -1.
         11    1    3    3    0    0 -0.73533524303E+01 -0.80473742764E+01  0.12982646763E+02  0.16952319662E+02  0.51100000000E-03 0. -1.
        -11    1    3    3    0    0 -0.38548574901E+01  0.88660294817E+01  0.18956373098E+02  0.21279344123E+02  0.51100000000E-03 0.  1.
        -12    1    3    3    0    0 -0.32122227761E+01 -0.33816751629E+00  0.89931602805E+01  0.95556090472E+01  0.00000000000E+00 0.  1.
</event>
<event>
 7    1  0.5038211E-009  0.4778727E+02  0.7816164E-02  0.1312668E+00
        -11   -1    0    0    0    0  0.00000000000E+00  0.00000000000E+00  0.45593999997E+02  0.45594000000E+02  0.51100000000E-03 0.  1.
         11   -1    0    0    0    0 -0.00000000000E+00 -0.00000000000E+00 -0.45593999997E+02  0.45594000000E+02  0.51100000000E-03 0. -1.
    9900012    2    1    2    0    0 -0.55383481602E+01 -0.28750549381E+02  0.32036788677E+02  0.47787271679E+02  0.20000002892E+02 0.  0.
         12    1    1    2    0    0  0.55383481602E+01  0.28750549381E+02 -0.32036788677E+02  0.43400728321E+02  0.00000000000E+00 0. -1.
         11    1    3    3    0    0 -0.11672668287E+02 -0.15437868871E+02  0.23144985082E+02  0.30170669779E+02  0.51100000000E-03 0. -1.
        -11    1    3    3    0    0  0.17921142956E+01 -0.71231414721E+01  0.26375592922E+01  0.78043281172E+01  0.51100000000E-03 0.  1.
         12    1    3    3    0    0  0.43422058307E+01 -0.61895390377E+01  0.62542443029E+01  0.98122737822E+01  0.00000000000E+00 0. -1.
</event>
<event>
 7    1  0.5038211E-009  0.4778727E+02  0.7816164E-02  0.1312668E+00
        -11   -1    0    0    0    0  0.00000000000E+00  0.00000000000E+00  0.45593999997E+02  0.45594000000E+02  0.51100000000E-03 0.  1.
         11   -1    0    0    0    0 -0.00000000000E+00 -0.00000000000E+00 -0.45593999997E+02  0.45594000000E+02  0.51100000000E-03 0. -1.
    9900012    2    1    2    0    0 -0.24080970176E+02 -0.14756519275E+02  0.32954143068E+02  0.47787268081E+02  0.19999986489E+02 0.  0.
         12    1    1    2    0    0  0.24080970176E+02  0.14756519275E+02 -0.32954143068E+02  0.43400731919E+02  0.00000000000E+00 0. -1.
         11    1    3    3    0    0 -0.11243052382E+02 -0.50830016569E+01  0.76349048673E+01  0.14509820995E+02  0.51100000000E-03 0. -1.
        -11    1    3    3    0    0 -0.33627691538E+01  0.20862404307E+00  0.16839777100E+02  0.17173521287E+02  0.51100000000E-03 0.  1.
        -12    1    3    3    0    0 -0.94751486400E+01 -0.98821416612E+01  0.84794611011E+01  0.16103925799E+02  0.00000000000E+00 0.  1.
</event>
<event>
 7    1  0.5038211E-009  0.4778727E+02  0.7816164E-02  0.1312668E+00
        -11   -1    0    0    0    0  0.00000000000E+00  0.00000000000E+00  0.45593999997E+02  0.45594000000E+02  0.51100000000E-03 0.  1.
         11   -1    0    0    0    0 -0.00000000000E+00 -0.00000000000E+00 -0.45593999997E+02  0.45594000000E+02  0.51100000000E-03 0. -1.
    9900012    2    1    2    0    0  0.63074348451E+01  0.96919223576E+01  0.41831885420E+02  0.47787265777E+02  0.19999975983E+02 0.  0.
         12    1    1    2    0    0 -0.63074348451E+01 -0.96919223576E+01 -0.41831885420E+02  0.43400734223E+02  0.00000000000E+00 0. -1.
         11    1    3    3    0    0 -0.36506990595E+01  0.81561880808E+01  0.10453459515E+02  0.13752302488E+02  0.51100000000E-03 0.  1.
        -11    1    3    3    0    0  0.10189991121E+02  0.70201805938E+00  0.18540243237E+02  0.21167649089E+02  0.51100000000E-03 0. -1.
         12    1    3    3    0    0 -0.23185721609E+00  0.83371621741E+00  0.12838182668E+02  0.12867314200E+02  0.00000000000E+00 0. -1.
</event>
<event>
 7    1  0.5038211E-009  0.4778727E+02  0.7816164E-02  0.1312668E+00
        -11   -1    0    0    0    0  0.00000000000E+00  0.00000000000E+00  0.45593999997E+02  0.45594000000E+02  0.51100000000E-03 0.  1.
         11   -1    0    0    0    0 -0.00000000000E+00 -0.00000000000E+00 -0.45593999997E+02  0.45594000000E+02  0.51100000000E-03 0. -1.
    9900012    2    1    2    0    0  0.30160606489E+02  0.31208291719E+02 -0.61734309156E-01  0.47787268820E+02  0.19999989858E+02 0.  0.
         12    1    1    2    0    0 -0.30160606489E+02 -0.31208291719E+02  0.61734309156E-01  0.43400731180E+02  0.00000000000E+00 0. -1.
         11    1    3    3    0    0  0.71696586048E+01  0.14433405416E+02 -0.26633544737E+01  0.16334645810E+02  0.51100000000E-03 0. -1.
        -11    1    3    3    0    0  0.12589453624E+02  0.40583445181E+01  0.62407563063E+01  0.14625715104E+02  0.51100000000E-03 0.  1.
        -12    1    3    3    0    0  0.10401494261E+02  0.12716541785E+02 -0.36391361417E+01  0.16826907906E+02  0.00000000000E+00 0.  1.
</event>
<event>
 7    1  0.5038211E-009  0.4778725E+02  0.7816164E-02  0.1312668E+00
        -11   -1    0    0    0    0  0.00000000000E+00  0.00000000000E+00  0.45593999997E+02  0.45594000000E+02  0.51100000000E-03 0. -1.
         11   -1    0    0    0    0 -0.00000000000E+00 -0.00000000000E+00 -0.45593999997E+02  0.45594000000E+02  0.51100000000E-03 0.  1.
    9900012    2    1    2    0    0 -0.24833475330E+02 -0.21756127060E+02 -0.28170808371E+02  0.47787251091E+02  0.19999909022E+02 0.  0.
         12    1    1    2    0    0  0.24833475330E+02  0.21756127060E+02  0.28170808371E+02  0.43400748909E+02  0.00000000000E+00 0. -1.
         11    1    3    3    0    0  0.13109200223E+00  0.55214449557E-02  0.20035886757E+01  0.20078803356E+01  0.51100000000E-03 0. -1.
        -11    1    3    3    0    0 -0.30543345536E+01 -0.76597389864E+01 -0.56418226750E+01  0.99915326283E+01  0.51100000000E-03 0.  1.
         12    1    3    3    0    0 -0.21910232779E+02 -0.14101909519E+02 -0.24532574371E+02  0.35787838127E+02  0.00000000000E+00 0. -1.
</event>
<event>
 7    1  0.5038211E-009  0.4778727E+02  0.7816164E-02  0.1312668E+00
        -11   -1    0    0    0    0  0.00000000000E+00  0.00000000000E+00  0.45593999997E+02  0.45594000000E+02  0.51100000000E-03 0.  1.
         11   -1    0    0    0    0 -0.00000000000E+00 -0.00000000000E+00 -0.45593999997E+02  0.45594000000E+02  0.51100000000E-03 0. -1.
    9900012    2    1    2    0    0 -0.15875818164E+02 -0.17438897840E+02  0.36434417141E+02  0.47787268294E+02  0.19999987459E+02 0.  0.
         12    1    1    2    0    0  0.15875818164E+02  0.17438897840E+02 -0.36434417141E+02  0.43400731706E+02  0.00000000000E+00 0. -1.
         11    1    3    3    0    0 -0.64825234056E+01 -0.10272436260E+02  0.74124052766E+01  0.14229891380E+02  0.51100000000E-03 0. -1.
        -11    1    3    3    0    0 -0.54287314772E+01  0.25515432440E+01  0.14010988294E+02  0.15241039715E+02  0.51100000000E-03 0.  1.
        -12    1    3    3    0    0 -0.39645632812E+01 -0.97180048236E+01  0.15011023570E+02  0.18316337199E+02  0.00000000000E+00 0.  1.
</event>
<event>
 7    1  0.5038211E-009  0.4778727E+02  0.7816164E-02  0.1312668E+00
        -11   -1    0    0    0    0  0.00000000000E+00  0.00000000000E+00  0.45593999997E+02  0.45594000000E+02  0.51100000000E-03 0.  1.
         11   -1    0    0    0    0 -0.00000000000E+00 -0.00000000000E+00 -0.45593999997E+02  0.45594000000E+02  0.51100000000E-03 0. -1.
    9900012    2    1    2    0    0 -0.40892233871E+02  0.12270892115E+02  0.78021654193E+01  0.47787269943E+02  0.19999994979E+02 0.  0.
         12    1    1    2    0    0  0.40892233871E+02 -0.12270892115E+02 -0.78021654193E+01  0.43400730057E+02  0.00000000000E+00 0. -1.
         11    1    3    3    0    0 -0.17745435459E+01 -0.22830791513E+01 -0.25236645864E+01  0.38380122998E+01  0.51100000000E-03 0. -1.
        -11    1    3    3    0    0 -0.35369058113E+02  0.10989595358E+02  0.67147901874E+01  0.37640800807E+02  0.51100000000E-03 0.  1.
         12    1    3    3    0    0 -0.37486322122E+01  0.35643759086E+01  0.36110398183E+01  0.63084568359E+01  0.00000000000E+00 0. -1.
</event>
<event>
 7    1  0.5038211E-009  0.4778727E+02  0.7816164E-02  0.1312668E+00
        -11   -1    0    0    0    0  0.00000000000E+00  0.00000000000E+00  0.45593999997E+02  0.45594000000E+02  0.51100000000E-03 0.  1.
         11   -1    0    0    0    0 -0.00000000000E+00 -0.00000000000E+00 -0.45593999997E+02  0.45594000000E+02  0.51100000000E-03 0. -1.
    9900012    2    1    2    0    0  0.35271755711E+02  0.13533840543E+02  0.21362624560E+02  0.47787270526E+02  0.19999997637E+02 0.  0.
         12    1    1    2    0    0 -0.35271755711E+02 -0.13533840543E+02 -0.21362624560E+02  0.43400729474E+02  0.00000000000E+00 0. -1.
         11    1    3    3    0    0  0.41468925656E+01 -0.33358190291E+01  0.68023308413E+01  0.86369040565E+01  0.51100000000E-03 0. -1.
        -11    1    3    3    0    0  0.93387588594E+01  0.10933140760E+01  0.29634619426E+01  0.98584917533E+01  0.51100000000E-03 0.  1.
         12    1    3    3    0    0  0.21786104286E+02  0.15776345496E+02  0.11596831776E+02  0.29291874716E+02  0.00000000000E+00 0. -1.
</event>
<event>
 7    1  0.5038211E-009  0.4778727E+02  0.7816164E-02  0.1312668E+00
        -11   -1    0    0    0    0  0.00000000000E+00  0.00000000000E+00  0.45593999997E+02  0.45594000000E+02  0.51100000000E-03 0.  1.
         11   -1    0    0    0    0 -0.00000000000E+00 -0.00000000000E+00 -0.45593999997E+02  0.45594000000E+02  0.51100000000E-03 0. -1.
    9900012    2    1    2    0    0 -0.36384413407E+02  0.15870306167E+02  0.17547965354E+02  0.47787271379E+02  0.20000001523E+02 0.  0.
         12    1    1    2    0    0  0.36384413407E+02 -0.15870306167E+02 -0.17547965354E+02  0.43400728621E+02  0.00000000000E+00 0. -1.
         11    1    3    3    0    0 -0.21586376343E+02  0.24219119621E+01  0.10944438506E+02  0.24323199535E+02  0.51100000000E-03 0.  1.
        -11    1    3    3    0    0 -0.99514727503E+01  0.97766388498E+01 -0.69120403415E+00  0.13967542389E+02  0.51100000000E-03 0. -1.
        -12    1    3    3    0    0 -0.48465643141E+01  0.36717553549E+01  0.72947308823E+01  0.94965294546E+01  0.00000000000E+00 0.  1.
</event>
<event>
 7    1  0.5038211E-009  0.4778721E+02  0.7816164E-02  0.1312668E+00
        -11   -1    0    0    0    0  0.00000000000E+00  0.00000000000E+00  0.45593999997E+02  0.45594000000E+02  0.51100000000E-03 0.  1.
         11   -1    0    0    0    0 -0.00000000000E+00 -0.00000000000E+00 -0.45593999997E+02  0.45594000000E+02  0.51100000000E-03 0. -1.
    9900012    2    1    2    0    0  0.40784747976E+02  0.97347159366E+01  0.11201245943E+02  0.47787213457E+02  0.19999737435E+02 0.  0.
         12    1    1    2    0    0 -0.40784747976E+02 -0.97347159366E+01 -0.11201245943E+02  0.43400786543E+02  0.00000000000E+00 0. -1.
         11    1    3    3    0    0  0.23449039767E+02  0.12443497268E+02  0.33207916807E+01  0.26753051189E+02  0.51100000000E-03 0. -1.
        -11    1    3    3    0    0  0.94338048554E+01 -0.24764083048E+01  0.87216595959E+01  0.13084212567E+02  0.51100000000E-03 0.  1.
        -12    1    3    3    0    0  0.79019033534E+01 -0.23237302684E+00 -0.84120533388E+00  0.79499497007E+01  0.00000000000E+00 0.  1.
</event>
<event>
 7    1  0.5038211E-009  0.4778727E+02  0.7816164E-02  0.1312668E+00
        -11   -1    0    0    0    0  0.00000000000E+00  0.00000000000E+00  0.45593999997E+02  0.45594000000E+02  0.51100000000E-03 0.  1.
         11   -1    0    0    0    0 -0.00000000000E+00 -0.00000000000E+00 -0.45593999997E+02  0.45594000000E+02  0.51100000000E-03 0. -1.
    9900012    2    1    2    0    0  0.53938315104E+01  0.13851143942E+02  0.40775919356E+02  0.47787271824E+02  0.20000003556E+02 0.  0.
         12    1    1    2    0    0 -0.53938315104E+01 -0.13851143942E+02 -0.40775919356E+02  0.43400728176E+02  0.00000000000E+00 0. -1.
         11    1    3    3    0    0  0.43328423527E+01 -0.17690106848E+01  0.49969017739E+01  0.68463091703E+01  0.51100000000E-03 0. -1.
        -11    1    3    3    0    0 -0.48589267532E+01  0.12027255971E+02  0.22943614577E+02  0.26356659604E+02  0.51100000000E-03 0.  1.
        -12    1    3    3    0    0  0.59199159109E+01  0.35928986559E+01  0.12835403005E+02  0.14584303050E+02  0.00000000000E+00 0.  1.
</event>
<event>
 7    1  0.5038211E-009  0.4778727E+02  0.7816164E-02  0.1312668E+00
        -11   -1    0    0    0    0  0.00000000000E+00  0.00000000000E+00  0.45593999997E+02  0.45594000000E+02  0.51100000000E-03 0.  1.
         11   -1    0    0    0    0 -0.00000000000E+00 -0.00000000000E+00 -0.45593999997E+02  0.45594000000E+02  0.51100000000E-03 0. -1.
    9900012    2    1    2    0    0 -0.73994640428E+01  0.35809028800E+02  0.23379146737E+02  0.47787272887E+02  0.20000008403E+02 0.  0.
         12    1    1    2    0    0  0.73994640428E+01 -0.35809028800E+02 -0.23379146737E+02  0.43400727113E+02  0.00000000000E+00 0. -1.
         11    1    3    3    0    0 -0.84481836444E+01  0.53551606058E+01  0.26414621221E+01  0.10345379375E+02  0.51100000000E-03 0. -1.
        -11    1    3    3    0    0  0.16327454030E+01  0.13722375104E+02  0.13095578541E+02  0.19038477188E+02  0.51100000000E-03 0.  1.
        -12    1    3    3    0    0 -0.58402580137E+00  0.16731493091E+02  0.76421060741E+01  0.18403416325E+02  0.00000000000E+00 0.  1.
</event>
<event>
 7    1  0.5038211E-009  0.4778727E+02  0.7816164E-02  0.1312668E+00
        -11   -1    0    0    0    0  0.00000000000E+00  0.00000000000E+00  0.45593999997E+02  0.45594000000E+02  0.51100000000E-03 0. -1.
         11   -1    0    0    0    0 -0.00000000000E+00 -0.00000000000E+00 -0.45593999997E+02  0.45594000000E+02  0.51100000000E-03 0.  1.
    9900012    2    1    2    0    0 -0.11721490659E+02 -0.27140552969E+02 -0.31774525126E+02  0.47787269526E+02  0.19999993077E+02 0.  0.
         12    1    1    2    0    0  0.11721490659E+02  0.27140552969E+02  0.31774525126E+02  0.43400730474E+02  0.00000000000E+00 0. -1.
         11    1    3    3    0    0  0.50007725249E+00 -0.30288925729E+01  0.40619992036E+00  0.30966540190E+01  0.51100000000E-03 0. -1.
        -11    1    3    3    0    0 -0.13280311216E+02 -0.11224856025E+02 -0.22996452653E+02  0.28830554862E+02  0.51100000000E-03 0.  1.
        -12    1    3    3    0    0  0.10587433048E+01 -0.12886804371E+02 -0.91842723929E+01  0.15860060645E+02  0.00000000000E+00 0.  1.
</event>
<event>
 7    1  0.5038211E-009  0.4778727E+02  0.7816164E-02  0.1312668E+00
        -11   -1    0    0    0    0  0.00000000000E+00  0.00000000000E+00  0.45593999997E+02  0.45594000000E+02  0.51100000000E-03 0.  1.
         11   -1    0    0    0    0 -0.00000000000E+00 -0.00000000000E+00 -0.45593999997E+02  0.45594000000E+02  0.51100000000E-03 0. -1.
    9900012    2    1    2    0    0  0.27031119477E+02 -0.32007427068E+02  0.11334301953E+02  0.47787271798E+02  0.20000003436E+02 0.  0.
         12    1    1    2    0    0 -0.27031119477E+02  0.32007427068E+02 -0.11334301953E+02  0.43400728202E+02  0.00000000000E+00 0. -1.
         11    1    3    3    0    0  0.86492948080E+01 -0.16034231869E+02  0.76121354221E+01  0.19744657461E+02  0.51100000000E-03 0. -1.
        -11    1    3    3    0    0 -0.14847257214E+00  0.11873872374E+01 -0.18273147726E+01  0.21842646578E+01  0.51100000000E-03 0.  1.
        -12    1    3    3    0    0  0.18530297241E+02 -0.17160582437E+02  0.55494813032E+01  0.25858349680E+02  0.00000000000E+00 0.  1.
</event>
<event>
 7    1  0.5038211E-009  0.4778727E+02  0.7816164E-02  0.1312668E+00
        -11   -1    0    0    0    0  0.00000000000E+00  0.00000000000E+00  0.45593999997E+02  0.45594000000E+02  0.51100000000E-03 0.  1.
         11   -1    0    0    0    0 -0.00000000000E+00 -0.00000000000E+00 -0.45593999997E+02  0.45594000000E+02  0.51100000000E-03 0. -1.
    9900012    2    1    2    0    0  0.15240816620E+02 -0.24906473085E+02  0.32109314213E+02  0.47787274752E+02  0.20000016905E+02 0.  0.
         12    1    1    2    0    0 -0.15240816620E+02  0.24906473085E+02 -0.32109314213E+02  0.43400725248E+02  0.00000000000E+00 0. -1.
         11    1    3    3    0    0  0.39117941086E+01 -0.14756589945E+02  0.72981772674E+01  0.16921065914E+02  0.51100000000E-03 0. -1.
        -11    1    3    3    0    0  0.63619659858E+01 -0.22723567341E+01  0.18288735292E+02  0.19496565214E+02  0.51100000000E-03 0.  1.
        -12    1    3    3    0    0  0.49670565261E+01 -0.78775264059E+01  0.65224016539E+01  0.11369643624E+02  0.00000000000E+00 0.  1.
</event>
<event>
 7    1  0.5038211E-009  0.4778727E+02  0.7816164E-02  0.1312668E+00
        -11   -1    0    0    0    0  0.00000000000E+00  0.00000000000E+00  0.45593999997E+02  0.45594000000E+02  0.51100000000E-03 0.  1.
         11   -1    0    0    0    0 -0.00000000000E+00 -0.00000000000E+00 -0.45593999997E+02  0.45594000000E+02  0.51100000000E-03 0. -1.
    9900012    2    1    2    0    0  0.80753520763E+01 -0.24085562919E+02  0.35189453359E+02  0.47787270974E+02  0.19999999681E+02 0.  0.
         12    1    1    2    0    0 -0.80753520763E+01  0.24085562919E+02 -0.35189453359E+02  0.43400729026E+02  0.00000000000E+00 0. -1.
         11    1    3    3    0    0  0.23609556926E+01  0.85036690716E+00 -0.90585803586E+00  0.26679232938E+01  0.51100000000E-03 0. -1.
        -11    1    3    3    0    0  0.52264665406E+01 -0.15236529825E+02  0.15524909860E+02  0.22371647683E+02  0.51100000000E-03 0.  1.
        -12    1    3    3    0    0  0.48792984310E+00 -0.96994000006E+01  0.20570401535E+02  0.22747699998E+02  0.00000000000E+00 0.  1.
</event>
<event>
 7    1  0.5038211E-009  0.4778727E+02  0.7816164E-02  0.1312668E+00
        -11   -1    0    0    0    0  0.00000000000E+00  0.00000000000E+00  0.45593999997E+02  0.45594000000E+02  0.51100000000E-03 0.  1.
         11   -1    0    0    0    0 -0.00000000000E+00 -0.00000000000E+00 -0.45593999997E+02  0.45594000000E+02  0.51100000000E-03 0. -1.
    9900012    2    1    2    0    0 -0.31769388281E+02  0.80372757612E+01  0.28455780568E+02  0.47787270961E+02  0.19999999618E+02 0.  0.
         12    1    1    2    0    0  0.31769388281E+02 -0.80372757612E+01 -0.28455780568E+02  0.43400729039E+02  0.00000000000E+00 0. -1.
         11    1    3    3    0    0 -0.19337111623E+02  0.96418365187E+01  0.67977367662E+01  0.22651669316E+02  0.51100000000E-03 0. -1.
        -11    1    3    3    0    0 -0.53636481299E+01 -0.16014071591E+01  0.81068545617E+01  0.98516149588E+01  0.51100000000E-03 0.  1.
         12    1    3    3    0    0 -0.70686285279E+01 -0.31535983751E-02  0.13551189240E+02  0.15283986686E+02  0.00000000000E+00 0. -1.
</event>
<event>
 7    1  0.5038211E-009  0.4778727E+02  0.7816164E-02  0.1312668E+00
        -11   -1    0    0    0    0  0.00000000000E+00  0.00000000000E+00  0.45593999997E+02  0.45594000000E+02  0.51100000000E-03 0. -1.
         11   -1    0    0    0    0 -0.00000000000E+00 -0.00000000000E+00 -0.45593999997E+02  0.45594000000E+02  0.51100000000E-03 0.  1.
    9900012    2    1    2    0    0 -0.21351405354E+01 -0.17100265415E+02 -0.39832716065E+02  0.47787272224E+02  0.20000005380E+02 0.  0.
         12    1    1    2    0    0  0.21351405354E+01  0.17100265415E+02  0.39832716065E+02  0.43400727776E+02  0.00000000000E+00 0. -1.
         11    1    3    3    0    0 -0.80083257015E+01 -0.68739826652E+01 -0.14340865105E+02  0.17805766775E+02  0.51100000000E-03 0. -1.
        -11    1    3    3    0    0  0.56184356024E+01 -0.15480588210E+00 -0.76667287390E+01  0.95062880925E+01  0.51100000000E-03 0.  1.
        -12    1    3    3    0    0  0.25474956371E+00 -0.10071476868E+02 -0.17825122220E+02  0.20475217357E+02  0.00000000000E+00 0.  1.
</event>
<event>
 7    1  0.5038211E-009  0.4778727E+02  0.7816164E-02  0.1312668E+00
        -11   -1    0    0    0    0  0.00000000000E+00  0.00000000000E+00  0.45593999997E+02  0.45594000000E+02  0.51100000000E-03 0.  1.
         11   -1    0    0    0    0 -0.00000000000E+00 -0.00000000000E+00 -0.45593999997E+02  0.45594000000E+02  0.51100000000E-03 0. -1.
    9900012    2    1    2    0    0 -0.10148465119E+02 -0.20434277894E+01  0.42148029261E+02  0.47787270605E+02  0.19999997999E+02 0.  0.
         12    1    1    2    0    0  0.10148465119E+02  0.20434277894E+01 -0.42148029261E+02  0.43400729395E+02  0.00000000000E+00 0. -1.
         11    1    3    3    0    0 -0.28509398453E+00  0.59604649541E+01  0.15076469248E+02  0.16214448690E+02  0.51100000000E-03 0. -1.
        -11    1    3    3    0    0 -0.12869912608E+01  0.10829752392E+01  0.11430656615E+02  0.11553747997E+02  0.51100000000E-03 0.  1.
         12    1    3    3    0    0 -0.85763798734E+01 -0.90868679827E+01  0.15640903398E+02  0.20019073919E+02  0.00000000000E+00 0. -1.
</event>
<event>
 7    1  0.5038211E-009  0.4778727E+02  0.7816164E-02  0.1312668E+00
        -11   -1    0    0    0    0  0.00000000000E+00  0.00000000000E+00  0.45593999997E+02  0.45594000000E+02  0.51100000000E-03 0.  1.
         11   -1    0    0    0    0 -0.00000000000E+00 -0.00000000000E+00 -0.45593999997E+02  0.45594000000E+02  0.51100000000E-03 0. -1.
    9900012    2    1    2    0    0  0.26703955023E+02 -0.55743294954E+01  0.33755726936E+02  0.47787268852E+02  0.19999990004E+02 0.  0.
         12    1    1    2    0    0 -0.26703955023E+02  0.55743294954E+01 -0.33755726936E+02  0.43400731148E+02  0.00000000000E+00 0. -1.
         11    1    3    3    0    0  0.12396819693E+01 -0.26307267304E+01  0.40124528643E+01  0.49555335499E+01  0.51100000000E-03 0. -1.
        -11    1    3    3    0    0  0.55000476798E+01  0.10161112880E+01  0.19022502431E+02  0.19827723158E+02  0.51100000000E-03 0.  1.
        -12    1    3    3    0    0  0.19964225373E+02 -0.39597140530E+01  0.10720771641E+02  0.23004012144E+02  0.00000000000E+00 0.  1.
</event>
<event>
 7    1  0.5038211E-009  0.4778727E+02  0.7816164E-02  0.1312668E+00
        -11   -1    0    0    0    0  0.00000000000E+00  0.00000000000E+00  0.45593999997E+02  0.45594000000E+02  0.51100000000E-03 0.  1.
         11   -1    0    0    0    0 -0.00000000000E+00 -0.00000000000E+00 -0.45593999997E+02  0.45594000000E+02  0.51100000000E-03 0. -1.
    9900012    2    1    2    0    0  0.13142903506E+02  0.35457533587E+02 -0.21299071530E+02  0.47787273639E+02  0.20000011828E+02 0.  0.
         12    1    1    2    0    0 -0.13142903506E+02 -0.35457533587E+02  0.21299071530E+02  0.43400726361E+02  0.00000000000E+00 0. -1.
         11    1    3    3    0    0  0.56318149736E+01  0.37550380085E+01  0.86611524891E+00  0.68240608312E+01  0.51100000000E-03 0. -1.
        -11    1    3    3    0    0  0.40737264462E+01  0.30241519054E+02 -0.21030236478E+02  0.37059621806E+02  0.51100000000E-03 0.  1.
        -12    1    3    3    0    0  0.34373620866E+01  0.14609765247E+01 -0.11349503013E+01  0.39035910015E+01  0.00000000000E+00 0.  1.
</event>
<event>
 7    1  0.5038211E-009  0.4778727E+02  0.7816164E-02  0.1312668E+00
        -11   -1    0    0    0    0  0.00000000000E+00  0.00000000000E+00  0.45593999997E+02  0.45594000000E+02  0.51100000000E-03 0.  1.
         11   -1    0    0    0    0 -0.00000000000E+00 -0.00000000000E+00 -0.45593999997E+02  0.45594000000E+02  0.51100000000E-03 0. -1.
    9900012    2    1    2    0    0  0.39909829689E+02 -0.14283237119E+01  0.16993781610E+02  0.47787271575E+02  0.20000002420E+02 0.  0.
         12    1    1    2    0    0 -0.39909829689E+02  0.14283237119E+01 -0.16993781610E+02  0.43400728425E+02  0.00000000000E+00 0. -1.
         11    1    3    3    0    0  0.13343203274E+02 -0.27678589978E+01  0.50407010337E+01  0.14529651895E+02  0.51100000000E-03 0.  1.
        -11    1    3    3    0    0  0.16648414054E+02  0.35621459802E+01 -0.68542675530E+00  0.17039025341E+02  0.51100000000E-03 0. -1.
        -12    1    3    3    0    0  0.99182123616E+01 -0.22226106943E+01  0.12638507331E+02  0.16218594338E+02  0.00000000000E+00 0.  1.
</event>
<event>
 7    1  0.5038211E-009  0.4778726E+02  0.7816164E-02  0.1312668E+00
        -11   -1    0    0    0    0  0.00000000000E+00  0.00000000000E+00  0.45593999997E+02  0.45594000000E+02  0.51100000000E-03 0.  1.
         11   -1    0    0    0    0 -0.00000000000E+00 -0.00000000000E+00 -0.45593999997E+02  0.45594000000E+02  0.51100000000E-03 0. -1.
    9900012    2    1    2    0    0  0.12932352109E+02  0.30305824000E+02  0.28247753242E+02  0.47787259653E+02  0.19999948064E+02 0.  0.
         12    1    1    2    0    0 -0.12932352109E+02 -0.30305824000E+02 -0.28247753242E+02  0.43400740347E+02  0.00000000000E+00 0. -1.
         11    1    3    3    0    0  0.84044828350E+01  0.44455659876E+01  0.61158787562E+01  0.11304970672E+02  0.51100000000E-03 0. -1.
        -11    1    3    3    0    0  0.59756971137E+01  0.63552309577E+01  0.32868847205E+01  0.93220989025E+01  0.51100000000E-03 0.  1.
         12    1    3    3    0    0 -0.14478278400E+01  0.19505027055E+02  0.18844989765E+02  0.27160190079E+02  0.00000000000E+00 0. -1.
</event>
<event>
 7    1  0.5038211E-009  0.4778727E+02  0.7816164E-02  0.1312668E+00
        -11   -1    0    0    0    0  0.00000000000E+00  0.00000000000E+00  0.45593999997E+02  0.45594000000E+02  0.51100000000E-03 0.  1.
         11   -1    0    0    0    0 -0.00000000000E+00 -0.00000000000E+00 -0.45593999997E+02  0.45594000000E+02  0.51100000000E-03 0. -1.
    9900012    2    1    2    0    0  0.16101708313E+02  0.70468837062E+01  0.39682484134E+02  0.47787272730E+02  0.20000007683E+02 0.  0.
         12    1    1    2    0    0 -0.16101708313E+02 -0.70468837062E+01 -0.39682484134E+02  0.43400727270E+02  0.00000000000E+00 0. -1.
         11    1    3    3    0    0  0.48913338945E+01  0.94946563502E+00  0.72875611175E+01  0.88280903689E+01  0.51100000000E-03 0. -1.
        -11    1    3    3    0    0  0.87995263594E+01  0.46496015221E+01  0.34199230242E+02  0.35617942218E+02  0.51100000000E-03 0.  1.
        -12    1    3    3    0    0  0.24108480594E+01  0.14478165492E+01 -0.18043072256E+01  0.33412401425E+01  0.00000000000E+00 0.  1.
</event>
<event>
 7    1  0.5038211E-009  0.4778727E+02  0.7816164E-02  0.1312668E+00
        -11   -1    0    0    0    0  0.00000000000E+00  0.00000000000E+00  0.45593999997E+02  0.45594000000E+02  0.51100000000E-03 0.  1.
         11   -1    0    0    0    0 -0.00000000000E+00 -0.00000000000E+00 -0.45593999997E+02  0.45594000000E+02  0.51100000000E-03 0. -1.
    9900012    2    1    2    0    0  0.32553509873E+02 -0.27156720493E+00  0.28702234855E+02  0.47787273745E+02  0.20000012311E+02 0.  0.
         12    1    1    2    0    0 -0.32553509873E+02  0.27156720493E+00 -0.28702234855E+02  0.43400726255E+02  0.00000000000E+00 0. -1.
         11    1    3    3    0    0  0.87245222780E+00  0.14584248267E+01  0.21145179233E+01  0.27128144378E+01  0.51100000000E-03 0. -1.
        -11    1    3    3    0    0 -0.15989229014E+01  0.21208017834E+01  0.34729192281E+01  0.43721302445E+01  0.51100000000E-03 0.  1.
        -12    1    3    3    0    0  0.33279980547E+02 -0.38507938150E+01  0.23114797704E+02  0.40702329062E+02  0.00000000000E+00 0.  1.
</event>
<event>
 7    1  0.5038211E-009  0.4778727E+02  0.7816164E-02  0.1312668E+00
        -11   -1    0    0    0    0  0.00000000000E+00  0.00000000000E+00  0.45593999997E+02  0.45594000000E+02  0.51100000000E-03 0. -1.
         11   -1    0    0    0    0 -0.00000000000E+00 -0.00000000000E+00 -0.45593999997E+02  0.45594000000E+02  0.51100000000E-03 0.  1.
    9900012    2    1    2    0    0 -0.64303571969E+01 -0.79087975111E+01 -0.42186787153E+02  0.47787267494E+02  0.19999983813E+02 0.  0.
         12    1    1    2    0    0  0.64303571969E+01  0.79087975111E+01  0.42186787153E+02  0.43400732506E+02  0.00000000000E+00 0. -1.
         11    1    3    3    0    0 -0.16483235107E+01 -0.12992519134E+02 -0.23718170848E+02  0.27093802843E+02  0.51100000000E-03 0.  1.
        -11    1    3    3    0    0 -0.40653872868E+00  0.44812148117E+01 -0.62513711075E+01  0.77023503498E+01  0.51100000000E-03 0. -1.
        -12    1    3    3    0    0 -0.43754949575E+01  0.60250681134E+00 -0.12217245198E+02  0.12991114302E+02  0.00000000000E+00 0.  1.
</event>
<event>
 7    1  0.5038211E-009  0.4778728E+02  0.7816164E-02  0.1312668E+00
        -11   -1    0    0    0    0  0.00000000000E+00  0.00000000000E+00  0.45593999997E+02  0.45594000000E+02  0.51100000000E-03 0.  1.
         11   -1    0    0    0    0 -0.00000000000E+00 -0.00000000000E+00 -0.45593999997E+02  0.45594000000E+02  0.51100000000E-03 0. -1.
    9900012    2    1    2    0    0 -0.32820852437E+02  0.23510550589E+02  0.15926969798E+02  0.47787277533E+02  0.20000029583E+02 0.  0.
         12    1    1    2    0    0  0.32820852437E+02 -0.23510550589E+02 -0.15926969798E+02  0.43400722467E+02  0.00000000000E+00 0. -1.
         11    1    3    3    0    0 -0.69507572285E+01  0.67759359739E+01 -0.34963679314E+01  0.10317505675E+02  0.51100000000E-03 0. -1.
        -11    1    3    3    0    0 -0.19190789891E+02  0.10192542084E+02  0.17556625357E+02  0.27935809008E+02  0.51100000000E-03 0.  1.
        -12    1    3    3    0    0 -0.66793053182E+01  0.65420725318E+01  0.18667123717E+01  0.95339628500E+01  0.00000000000E+00 0.  1.
</event>
<event>
 7    1  0.5038211E-009  0.4778727E+02  0.7816164E-02  0.1312668E+00
        -11   -1    0    0    0    0  0.00000000000E+00  0.00000000000E+00  0.45593999997E+02  0.45594000000E+02  0.51100000000E-03 0.  1.
         11   -1    0    0    0    0 -0.00000000000E+00 -0.00000000000E+00 -0.45593999997E+02  0.45594000000E+02  0.51100000000E-03 0. -1.
    9900012    2    1    2    0    0  0.36801672614E+02  0.14430977671E+02  0.17916668917E+02  0.47787271333E+02  0.20000001314E+02 0.  0.
         12    1    1    2    0    0 -0.36801672614E+02 -0.14430977671E+02 -0.17916668917E+02  0.43400728667E+02  0.00000000000E+00 0. -1.
         11    1    3    3    0    0 -0.14364458437E+01  0.29433056690E+00  0.38861299283E+01  0.41535542882E+01  0.51100000000E-03 0. -1.
        -11    1    3    3    0    0  0.26339273423E+02  0.67278328101E+01  0.10783912934E+02  0.29245749045E+02  0.51100000000E-03 0.  1.
         12    1    3    3    0    0  0.11898845036E+02  0.74088142941E+01  0.32466260546E+01  0.14387968000E+02  0.00000000000E+00 0. -1.
</event>
<event>
 7    1  0.5038211E-009  0.4778727E+02  0.7816164E-02  0.1312668E+00
        -11   -1    0    0    0    0  0.00000000000E+00  0.00000000000E+00  0.45593999997E+02  0.45594000000E+02  0.51100000000E-03 0.  1.
         11   -1    0    0    0    0 -0.00000000000E+00 -0.00000000000E+00 -0.45593999997E+02  0.45594000000E+02  0.51100000000E-03 0. -1.
    9900012    2    1    2    0    0 -0.39153701897E+00 -0.14755704966E+02  0.40813464971E+02  0.47787273587E+02  0.20000011593E+02 0.  0.
         12    1    1    2    0    0  0.39153701897E+00  0.14755704966E+02 -0.40813464971E+02  0.43400726413E+02  0.00000000000E+00 0. -1.
         11    1    3    3    0    0 -0.29951133333E+01 -0.58488191883E+01  0.24643057246E+02  0.25504110658E+02  0.51100000000E-03 0. -1.
        -11    1    3    3    0    0  0.55360355246E+00 -0.55328821678E+00 -0.20174405494E+01  0.21639480991E+01  0.51100000000E-03 0.  1.
        -12    1    3    3    0    0  0.20499727619E+01 -0.83535975606E+01  0.18187848274E+02  0.20119214830E+02  0.00000000000E+00 0.  1.
</event>
<event>
 7    1  0.5038211E-009  0.4778727E+02  0.7816164E-02  0.1312668E+00
        -11   -1    0    0    0    0  0.00000000000E+00  0.00000000000E+00  0.45593999997E+02  0.45594000000E+02  0.51100000000E-03 0.  1.
         11   -1    0    0    0    0 -0.00000000000E+00 -0.00000000000E+00 -0.45593999997E+02  0.45594000000E+02  0.51100000000E-03 0. -1.
    9900012    2    1    2    0    0  0.17357542586E+02 -0.39626454341E+02  0.34761408889E+01  0.47787265861E+02  0.19999976369E+02 0.  0.
         12    1    1    2    0    0 -0.17357542586E+02  0.39626454341E+02 -0.34761408889E+01  0.43400734139E+02  0.00000000000E+00 0. -1.
         11    1    3    3    0    0  0.81375794944E+01 -0.20031948877E+02 -0.79517531971E+01  0.23037568340E+02  0.51100000000E-03 0. -1.
        -11    1    3    3    0    0  0.68560094500E+01 -0.14443336650E+02  0.65709701886E+01  0.17285615079E+02  0.51100000000E-03 0.  1.
         12    1    3    3    0    0  0.23639536415E+01 -0.51511688140E+01  0.48569238975E+01  0.74640824430E+01  0.00000000000E+00 0. -1.
</event>
<event>
 7    1  0.5038211E-009  0.4778727E+02  0.7816164E-02  0.1312668E+00
        -11   -1    0    0    0    0  0.00000000000E+00  0.00000000000E+00  0.45593999997E+02  0.45594000000E+02  0.51100000000E-03 0. -1.
         11   -1    0    0    0    0 -0.00000000000E+00 -0.00000000000E+00 -0.45593999997E+02  0.45594000000E+02  0.51100000000E-03 0.  1.
    9900012    2    1    2    0    0  0.13582868565E+02 -0.39174701171E+02 -0.12824650696E+02  0.47787271944E+02  0.20000004104E+02 0.  0.
         12    1    1    2    0    0 -0.13582868565E+02  0.39174701171E+02  0.12824650696E+02  0.43400728056E+02  0.00000000000E+00 0. -1.
         11    1    3    3    0    0  0.13006291647E+02 -0.19436159286E+02 -0.35754960487E+00  0.23389222992E+02  0.51100000000E-03 0. -1.
        -11    1    3    3    0    0  0.26349983509E+01 -0.16772573948E+02 -0.11924012997E+02  0.20747157381E+02  0.51100000000E-03 0.  1.
         12    1    3    3    0    0 -0.20584214321E+01 -0.29659679366E+01 -0.54308809429E+00  0.36508915721E+01  0.00000000000E+00 0. -1.
</event>
<event>
 7    1  0.5038211E-009  0.4778727E+02  0.7816164E-02  0.1312668E+00
        -11   -1    0    0    0    0  0.00000000000E+00  0.00000000000E+00  0.45593999997E+02  0.45594000000E+02  0.51100000000E-03 0.  1.
         11   -1    0    0    0    0 -0.00000000000E+00 -0.00000000000E+00 -0.45593999997E+02  0.45594000000E+02  0.51100000000E-03 0. -1.
    9900012    2    1    2    0    0  0.12678722648E+02  0.21420062061E+01  0.41452199503E+02  0.47787273713E+02  0.20000012169E+02 0.  0.
         12    1    1    2    0    0 -0.12678722648E+02 -0.21420062061E+01 -0.41452199503E+02  0.43400726287E+02  0.00000000000E+00 0. -1.
         11    1    3    3    0    0 -0.45723848755E+01  0.31152424691E+01  0.81411790233E+01  0.98432837631E+01  0.51100000000E-03 0. -1.
        -11    1    3    3    0    0  0.88284532511E+01 -0.23743168309E+01  0.12825803848E+02  0.15750562270E+02  0.51100000000E-03 0.  1.
         12    1    3    3    0    0  0.84226542721E+01  0.14010805679E+01  0.20485216632E+02  0.22193427680E+02  0.00000000000E+00 0. -1.
</event>
<event>
 7    1  0.5038211E-009  0.4778728E+02  0.7816164E-02  0.1312668E+00
        -11   -1    0    0    0    0  0.00000000000E+00  0.00000000000E+00  0.45593999997E+02  0.45594000000E+02  0.51100000000E-03 0. -1.
         11   -1    0    0    0    0 -0.00000000000E+00 -0.00000000000E+00 -0.45593999997E+02  0.45594000000E+02  0.51100000000E-03 0.  1.
    9900012    2    1    2    0    0 -0.12236353867E+02  0.39898403359E+02 -0.11916857800E+02  0.47787280578E+02  0.20000043465E+02 0.  0.
         12    1    1    2    0    0  0.12236353867E+02 -0.39898403359E+02  0.11916857800E+02  0.43400719422E+02  0.00000000000E+00 0. -1.
         11    1    3    3    0    0 -0.72396906792E+01  0.11370865558E+02 -0.18991699528E+01  0.13613102198E+02  0.51100000000E-03 0.  1.
        -11    1    3    3    0    0  0.13079535582E+01  0.13018712643E+02 -0.11429696412E+02  0.17373415949E+02  0.51100000000E-03 0. -1.
        -12    1    3    3    0    0 -0.63046167456E+01  0.15508825158E+02  0.14120085650E+01  0.16800762431E+02  0.00000000000E+00 0.  1.
</event>
<event>
 7    1  0.5953735E-009  0.4778727E+02  0.7816164E-02  0.1312668E+00
        -11   -1    0    0    0    0  0.00000000000E+00  0.00000000000E+00  0.45593999997E+02  0.45594000000E+02  0.51100000000E-03 0. -1.
         11   -1    0    0    0    0 -0.00000000000E+00 -0.00000000000E+00 -0.45593999997E+02  0.45594000000E+02  0.51100000000E-03 0.  1.
    9900012    2    1    2    0    0 -0.39035187581E+02  0.15026587308E+02  0.11579247334E+02  0.47787272306E+02  0.20000005751E+02 0.  0.
         12    1    1    2    0    0  0.39035187581E+02 -0.15026587308E+02 -0.11579247334E+02  0.43400727694E+02  0.00000000000E+00 0. -1.
         11    1    3    3    0    0 -0.22174300272E+01  0.52684275971E+01 -0.15317958892E+01  0.59177465457E+01  0.51100000000E-03 0. -1.
        -11    1    3    3    0    0 -0.14173012180E+02 -0.94149086245E+00  0.80201204581E+01  0.16312051119E+02  0.51100000000E-03 0.  1.
        -12    1    3    3    0    0 -0.22644745374E+02  0.10699650573E+02  0.50909227651E+01  0.25557474641E+02  0.00000000000E+00 0.  1.
</event>
<event>
 7    1  0.5162121E-009  0.4778727E+02  0.7816164E-02  0.1312668E+00
        -11   -1    0    0    0    0  0.00000000000E+00  0.00000000000E+00  0.45593999997E+02  0.45594000000E+02  0.51100000000E-03 0.  1.
         11   -1    0    0    0    0 -0.00000000000E+00 -0.00000000000E+00 -0.45593999997E+02  0.45594000000E+02  0.51100000000E-03 0. -1.
    9900012    2    1    2    0    0  0.22676330686E+02 -0.28313629153E+01  0.36897027110E+02  0.47787271908E+02  0.20000003938E+02 0.  0.
         12    1    1    2    0    0 -0.22676330686E+02  0.28313629153E+01 -0.36897027110E+02  0.43400728092E+02  0.00000000000E+00 0. -1.
         11    1    3    3    0    0  0.65245000360E+00 -0.82465249898E+00 -0.17629550470E+01  0.20527429236E+01  0.51100000000E-03 0. -1.
        -11    1    3    3    0    0  0.12572665787E+02 -0.55729381159E+01  0.27049018217E+02  0.30344339686E+02  0.51100000000E-03 0.  1.
        -12    1    3    3    0    0  0.94512148963E+01  0.35662276996E+01  0.11610963940E+02  0.15390189298E+02  0.00000000000E+00 0.  1.
</event>
<event>
 7    1  0.5038211E-009  0.4778726E+02  0.7816164E-02  0.1312668E+00
        -11   -1    0    0    0    0  0.00000000000E+00  0.00000000000E+00  0.45593999997E+02  0.45594000000E+02  0.51100000000E-03 0. -1.
         11   -1    0    0    0    0 -0.00000000000E+00 -0.00000000000E+00 -0.45593999997E+02  0.45594000000E+02  0.51100000000E-03 0.  1.
    9900012    2    1    2    0    0  0.12582941563E+02 -0.35914791211E+02  0.20866758097E+02  0.47787259919E+02  0.19999949272E+02 0.  0.
         12    1    1    2    0    0 -0.12582941563E+02  0.35914791211E+02 -0.20866758097E+02  0.43400740081E+02  0.00000000000E+00 0. -1.
         11    1    3    3    0    0  0.93013400849E+01 -0.66976062417E+01  0.12477023047E+02  0.16942519326E+02  0.51100000000E-03 0. -1.
        -11    1    3    3    0    0 -0.34986357682E+00 -0.13081682615E+02  0.27643745105E+01  0.13375148271E+02  0.51100000000E-03 0.  1.
         12    1    3    3    0    0  0.36314650548E+01 -0.16135502355E+02  0.56253605393E+01  0.17469592321E+02  0.00000000000E+00 0. -1.
</event>
<event>
 7    1  0.5038211E-009  0.4778727E+02  0.7816164E-02  0.1312668E+00
        -11   -1    0    0    0    0  0.00000000000E+00  0.00000000000E+00  0.45593999997E+02  0.45594000000E+02  0.51100000000E-03 0.  1.
         11   -1    0    0    0    0 -0.00000000000E+00 -0.00000000000E+00 -0.45593999997E+02  0.45594000000E+02  0.51100000000E-03 0. -1.
    9900012    2    1    2    0    0  0.27253307026E+02  0.34722680573E+01  0.33597973574E+02  0.47787271693E+02  0.20000002956E+02 0.  0.
         12    1    1    2    0    0 -0.27253307026E+02 -0.34722680573E+01 -0.33597973574E+02  0.43400728307E+02  0.00000000000E+00 0. -1.
         11    1    3    3    0    0  0.90837737593E+01 -0.33872915241E+01  0.39283890302E+01  0.10460445985E+02  0.51100000000E-03 0. -1.
        -11    1    3    3    0    0  0.69465516202E+01  0.84531665761E+01  0.11208688465E+02  0.15663502224E+02  0.51100000000E-03 0.  1.
        -12    1    3    3    0    0  0.11222981646E+02 -0.15936069946E+01  0.18460896079E+02  0.21663323483E+02  0.00000000000E+00 0.  1.
</event>
<event>
 7    1  0.5038211E-009  0.4778727E+02  0.7816164E-02  0.1312668E+00
        -11   -1    0    0    0    0  0.00000000000E+00  0.00000000000E+00  0.45593999997E+02  0.45594000000E+02  0.51100000000E-03 0.  1.
         11   -1    0    0    0    0 -0.00000000000E+00 -0.00000000000E+00 -0.45593999997E+02  0.45594000000E+02  0.51100000000E-03 0. -1.
    9900012    2    1    2    0    0  0.18163131822E+02 -0.11188846747E+02  0.37795948643E+02  0.47787269788E+02  0.19999994273E+02 0.  0.
         12    1    1    2    0    0 -0.18163131822E+02  0.11188846747E+02 -0.37795948643E+02  0.43400730212E+02  0.00000000000E+00 0. -1.
         11    1    3    3    0    0  0.10738426508E+02  0.29880837759E+01  0.86674212376E+01  0.14119725199E+02  0.51100000000E-03 0. -1.
        -11    1    3    3    0    0  0.62457388469E+01 -0.13929415736E+02  0.24350154373E+02  0.28739657179E+02  0.51100000000E-03 0.  1.
        -12    1    3    3    0    0  0.11789664670E+01 -0.24751478678E+00  0.47783730322E+01  0.49278874109E+01  0.00000000000E+00 0.  1.
</event>
<event>
 7    1  0.5038211E-009  0.4778727E+02  0.7816164E-02  0.1312668E+00
        -11   -1    0    0    0    0  0.00000000000E+00  0.00000000000E+00  0.45593999997E+02  0.45594000000E+02  0.51100000000E-03 0. -1.
         11   -1    0    0    0    0 -0.00000000000E+00 -0.00000000000E+00 -0.45593999997E+02  0.45594000000E+02  0.51100000000E-03 0.  1.
    9900012    2    1    2    0    0  0.72261855655E+00 -0.24456678369E+02 -0.35846506059E+02  0.47787270847E+02  0.19999999098E+02 0.  0.
         12    1    1    2    0    0 -0.72261855655E+00  0.24456678369E+02  0.35846506059E+02  0.43400729153E+02  0.00000000000E+00 0. -1.
         11    1    3    3    0    0 -0.19606676256E+01 -0.17382261770E+02 -0.14218916483E+02  0.22542511572E+02  0.51100000000E-03 0. -1.
        -11    1    3    3    0    0 -0.16350986682E+01 -0.62943514688E+01 -0.54575098820E+01  0.84898069731E+01  0.51100000000E-03 0.  1.
         12    1    3    3    0    0  0.43183848503E+01 -0.78006513091E+00 -0.16170079694E+02  0.16754952301E+02  0.00000000000E+00 0. -1.
</event>
<event>
 7    1  0.5038211E-009  0.4778727E+02  0.7816164E-02  0.1312668E+00
        -11   -1    0    0    0    0  0.00000000000E+00  0.00000000000E+00  0.45593999997E+02  0.45594000000E+02  0.51100000000E-03 0. -1.
         11   -1    0    0    0    0 -0.00000000000E+00 -0.00000000000E+00 -0.45593999997E+02  0.45594000000E+02  0.51100000000E-03 0.  1.
    9900012    2    1    2    0    0 -0.35085920166E+02  0.22515439942E+02 -0.12068820557E+02  0.47787271212E+02  0.20000000764E+02 0.  0.
         12    1    1    2    0    0  0.35085920166E+02 -0.22515439942E+02  0.12068820557E+02  0.43400728788E+02  0.00000000000E+00 0. -1.
         11    1    3    3    0    0 -0.13586081258E+01  0.70435658780E+01 -0.31512151687E+01  0.78350362870E+01  0.51100000000E-03 0. -1.
        -11    1    3    3    0    0 -0.20299642798E+02  0.36795347248E+01 -0.77686588172E+01  0.22044648639E+02  0.51100000000E-03 0.  1.
         12    1    3    3    0    0 -0.13427669242E+02  0.11792339340E+02 -0.11489465708E+01  0.17907586286E+02  0.00000000000E+00 0. -1.
</event>
<event>
 7    1  0.5038211E-009  0.4778726E+02  0.7816164E-02  0.1312668E+00
        -11   -1    0    0    0    0  0.00000000000E+00  0.00000000000E+00  0.45593999997E+02  0.45594000000E+02  0.51100000000E-03 0.  1.
         11   -1    0    0    0    0 -0.00000000000E+00 -0.00000000000E+00 -0.45593999997E+02  0.45594000000E+02  0.51100000000E-03 0. -1.
    9900012    2    1    2    0    0  0.86803364390E+01  0.22110355123E+02  0.36323663442E+02  0.47787256110E+02  0.19999931907E+02 0.  0.
         12    1    1    2    0    0 -0.86803364390E+01 -0.22110355123E+02 -0.36323663442E+02  0.43400743890E+02  0.00000000000E+00 0. -1.
         11    1    3    3    0    0  0.41868211082E+01 -0.29880259656E+01  0.35689839561E+01  0.62606243222E+01  0.51100000000E-03 0. -1.
        -11    1    3    3    0    0  0.10811513949E+01  0.92365511787E+01  0.12182330741E+02  0.15326185062E+02  0.51100000000E-03 0.  1.
         12    1    3    3    0    0  0.34123639358E+01  0.15861829910E+02  0.20572348745E+02  0.26200446725E+02  0.00000000000E+00 0. -1.
</event>
<event>
 7    1  0.5038211E-009  0.4778726E+02  0.7816164E-02  0.1312668E+00
        -11   -1    0    0    0    0  0.00000000000E+00  0.00000000000E+00  0.45593999997E+02  0.45594000000E+02  0.51100000000E-03 0. -1.
         11   -1    0    0    0    0 -0.00000000000E+00 -0.00000000000E+00 -0.45593999997E+02  0.45594000000E+02  0.51100000000E-03 0.  1.
    9900012    2    1    2    0    0  0.43399295985E+02 -0.33365722441E-01  0.35242156870E+00  0.47787260303E+02  0.19999951025E+02 0.  0.
         12    1    1    2    0    0 -0.43399295985E+02  0.33365722441E-01 -0.35242156870E+00  0.43400739697E+02  0.00000000000E+00 0. -1.
         11    1    3    3    0    0  0.30754114872E+02  0.67781243253E+01 -0.79204600298E+00  0.31502156880E+02  0.51100000000E-03 0. -1.
        -11    1    3    3    0    0  0.12339735307E+02 -0.46983832139E+01 -0.10219368202E+01  0.13243422043E+02  0.51100000000E-03 0.  1.
         12    1    3    3    0    0  0.30544580592E+00 -0.21131068338E+01  0.21664043919E+01  0.30416813805E+01  0.00000000000E+00 0. -1.
</event>
<event>
 7    1  0.5038211E-009  0.4778728E+02  0.7816164E-02  0.1312668E+00
        -11   -1    0    0    0    0  0.00000000000E+00  0.00000000000E+00  0.45593999997E+02  0.45594000000E+02  0.51100000000E-03 0.  1.
         11   -1    0    0    0    0 -0.00000000000E+00 -0.00000000000E+00 -0.45593999997E+02  0.45594000000E+02  0.51100000000E-03 0. -1.
    9900012    2    1    2    0    0 -0.59299735727E+01 -0.11858968111E+02  0.41325810277E+02  0.47787282192E+02  0.20000050825E+02 0.  0.
         12    1    1    2    0    0  0.59299735727E+01  0.11858968111E+02 -0.41325810277E+02  0.43400717808E+02  0.00000000000E+00 0. -1.
         11    1    3    3    0    0 -0.33444034595E+01 -0.12355635217E+01 -0.24651908014E-01  0.35654255978E+01  0.51100000000E-03 0. -1.
        -11    1    3    3    0    0 -0.14193282225E+01  0.22981241596E+01  0.70788515296E+01  0.75766751610E+01  0.51100000000E-03 0.  1.
         12    1    3    3    0    0 -0.11662418907E+01 -0.12921528749E+02  0.34271610655E+02  0.36645181433E+02  0.00000000000E+00 0. -1.
</event>
<event>
 7    1  0.5038211E-009  0.4778727E+02  0.7816164E-02  0.1312668E+00
        -11   -1    0    0    0    0  0.00000000000E+00  0.00000000000E+00  0.45593999997E+02  0.45594000000E+02  0.51100000000E-03 0.  1.
         11   -1    0    0    0    0 -0.00000000000E+00 -0.00000000000E+00 -0.45593999997E+02  0.45594000000E+02  0.51100000000E-03 0. -1.
    9900012    2    1    2    0    0 -0.12685192177E+02  0.14577422859E+02  0.38861391501E+02  0.47787272965E+02  0.20000008756E+02 0.  0.
         12    1    1    2    0    0  0.12685192177E+02 -0.14577422859E+02 -0.38861391501E+02  0.43400727035E+02  0.00000000000E+00 0. -1.
         11    1    3    3    0    0 -0.39306673085E+01  0.71769353573E+01  0.55531788500E+01  0.98892033154E+01  0.51100000000E-03 0. -1.
        -11    1    3    3    0    0 -0.66222417816E+01  0.68628862614E+00  0.28741947190E+02  0.29502959289E+02  0.51100000000E-03 0.  1.
        -12    1    3    3    0    0 -0.21322830868E+01  0.67141988752E+01  0.45662654614E+01  0.83951103603E+01  0.00000000000E+00 0.  1.
</event>
<event>
 7    1  0.5038211E-009  0.4778727E+02  0.7816164E-02  0.1312668E+00
        -11   -1    0    0    0    0  0.00000000000E+00  0.00000000000E+00  0.45593999997E+02  0.45594000000E+02  0.51100000000E-03 0.  1.
         11   -1    0    0    0    0 -0.00000000000E+00 -0.00000000000E+00 -0.45593999997E+02  0.45594000000E+02  0.51100000000E-03 0. -1.
    9900012    2    1    2    0    0  0.20919778408E+02 -0.30212415792E+02  0.23091046844E+02  0.47787266815E+02  0.19999980715E+02 0.  0.
         12    1    1    2    0    0 -0.20919778408E+02  0.30212415792E+02 -0.23091046844E+02  0.43400733185E+02  0.00000000000E+00 0. -1.
         11    1    3    3    0    0  0.18969980659E+02 -0.28677640733E+02  0.17872581037E+02  0.38751727670E+02  0.51100000000E-03 0. -1.
        -11    1    3    3    0    0  0.24646793283E+01 -0.39150212605E+01  0.45977692207E+01  0.65223858924E+01  0.51100000000E-03 0.  1.
         12    1    3    3    0    0 -0.51488157978E+00  0.23802462009E+01  0.62069658640E+00  0.25131532525E+01  0.00000000000E+00 0. -1.
</event>
<event>
 7    1  0.5038211E-009  0.4778727E+02  0.7816164E-02  0.1312668E+00
        -11   -1    0    0    0    0  0.00000000000E+00  0.00000000000E+00  0.45593999997E+02  0.45594000000E+02  0.51100000000E-03 0.  1.
         11   -1    0    0    0    0 -0.00000000000E+00 -0.00000000000E+00 -0.45593999997E+02  0.45594000000E+02  0.51100000000E-03 0. -1.
    9900012    2    1    2    0    0  0.88099822331E+01 -0.29572110105E+02  0.30520452469E+02  0.47787268417E+02  0.19999988022E+02 0.  0.
         12    1    1    2    0    0 -0.88099822331E+01  0.29572110105E+02 -0.30520452469E+02  0.43400731583E+02  0.00000000000E+00 0. -1.
         11    1    3    3    0    0  0.26889750361E+01  0.19563849532E+01  0.29410328651E+01  0.44393359193E+01  0.51100000000E-03 0. -1.
        -11    1    3    3    0    0  0.16854948364E+01 -0.16846286852E+02  0.20111220179E+02  0.26288770433E+02  0.51100000000E-03 0.  1.
        -12    1    3    3    0    0  0.44355123607E+01 -0.14682208206E+02  0.74681994249E+01  0.17059162065E+02  0.00000000000E+00 0.  1.
</event>
<event>
 7    1  0.5038211E-009  0.4778727E+02  0.7816164E-02  0.1312668E+00
        -11   -1    0    0    0    0  0.00000000000E+00  0.00000000000E+00  0.45593999997E+02  0.45594000000E+02  0.51100000000E-03 0.  1.
         11   -1    0    0    0    0 -0.00000000000E+00 -0.00000000000E+00 -0.45593999997E+02  0.45594000000E+02  0.51100000000E-03 0. -1.
    9900012    2    1    2    0    0 -0.25741617801E+02  0.55249518726E-01  0.34942657099E+02  0.47787271611E+02  0.20000002584E+02 0.  0.
         12    1    1    2    0    0  0.25741617801E+02 -0.55249518726E-01 -0.34942657099E+02  0.43400728389E+02  0.00000000000E+00 0. -1.
         11    1    3    3    0    0 -0.75763056642E+01 -0.74432383498E+01  0.12090973823E+02  0.16093285957E+02  0.51100000000E-03 0. -1.
        -11    1    3    3    0    0 -0.17560523696E+02  0.70574304189E+01  0.23849689459E+02  0.30446461275E+02  0.51100000000E-03 0.  1.
        -12    1    3    3    0    0 -0.60478844151E+00  0.44105744966E+00 -0.99800618384E+00  0.12475243789E+01  0.00000000000E+00 0.  1.
</event>
<event>
 7    1  0.5038211E-009  0.4778727E+02  0.7816164E-02  0.1312668E+00
        -11   -1    0    0    0    0  0.00000000000E+00  0.00000000000E+00  0.45593999997E+02  0.45594000000E+02  0.51100000000E-03 0.  1.
         11   -1    0    0    0    0 -0.00000000000E+00 -0.00000000000E+00 -0.45593999997E+02  0.45594000000E+02  0.51100000000E-03 0. -1.
    9900012    2    1    2    0    0 -0.70247923212E+01 -0.47450938911E+01  0.42564769842E+02  0.47787271263E+02  0.20000000995E+02 0.  0.
         12    1    1    2    0    0  0.70247923212E+01  0.47450938911E+01 -0.42564769842E+02  0.43400728737E+02  0.00000000000E+00 0. -1.
         11    1    3    3    0    0 -0.44559494744E+01  0.56726782114E+00  0.63562784371E+01  0.77832868590E+01  0.51100000000E-03 0. -1.
        -11    1    3    3    0    0 -0.17966845033E+01  0.30704598116E+01  0.28071184963E+02  0.28295710349E+02  0.51100000000E-03 0.  1.
        -12    1    3    3    0    0 -0.77215834348E+00 -0.83828215238E+01  0.81373064426E+01  0.11708274055E+02  0.00000000000E+00 0.  1.
</event>
<event>
 7    1  0.5038211E-009  0.4778727E+02  0.7816164E-02  0.1312668E+00
        -11   -1    0    0    0    0  0.00000000000E+00  0.00000000000E+00  0.45593999997E+02  0.45594000000E+02  0.51100000000E-03 0. -1.
         11   -1    0    0    0    0 -0.00000000000E+00 -0.00000000000E+00 -0.45593999997E+02  0.45594000000E+02  0.51100000000E-03 0.  1.
    9900012    2    1    2    0    0  0.19991951851E+02 -0.34209097870E+02 -0.17711083375E+02  0.47787274313E+02  0.20000014901E+02 0.  0.
         12    1    1    2    0    0 -0.19991951851E+02  0.34209097870E+02  0.17711083375E+02  0.43400725687E+02  0.00000000000E+00 0. -1.
         11    1    3    3    0    0  0.19728204496E+02 -0.19173570518E+02 -0.13711932461E+02  0.30738330324E+02  0.51100000000E-03 0. -1.
        -11    1    3    3    0    0  0.33013709242E+01 -0.86352092107E+01 -0.37010593124E+01  0.99580986331E+01  0.51100000000E-03 0.  1.
         12    1    3    3    0    0 -0.30376235690E+01 -0.64003181407E+01 -0.29809160179E+00  0.70908453553E+01  0.00000000000E+00 0. -1.
</event>
<event>
 7    1  0.5038211E-009  0.4778726E+02  0.7816164E-02  0.1312668E+00
        -11   -1    0    0    0    0  0.00000000000E+00  0.00000000000E+00  0.45593999997E+02  0.45594000000E+02  0.51100000000E-03 0. -1.
         11   -1    0    0    0    0 -0.00000000000E+00 -0.00000000000E+00 -0.45593999997E+02  0.45594000000E+02  0.51100000000E-03 0.  1.
    9900012    2    1    2    0    0 -0.42052384646E+02  0.92593960955E+01  0.54300088591E+01  0.47787257303E+02  0.19999937348E+02 0.  0.
         12    1    1    2    0    0  0.42052384646E+02 -0.92593960955E+01 -0.54300088591E+01  0.43400742697E+02  0.00000000000E+00 0. -1.
         11    1    3    3    0    0 -0.54995815879E+00  0.20338722606E+01  0.32600122582E+01  0.38815938136E+01  0.51100000000E-03 0. -1.
        -11    1    3    3    0    0 -0.25766687062E+02  0.52461677648E+01 -0.45408955676E+01  0.26684530560E+02  0.51100000000E-03 0.  1.
        -12    1    3    3    0    0 -0.15735739424E+02  0.19793560702E+01  0.67108921685E+01  0.17221132930E+02  0.00000000000E+00 0.  1.
</event>
<event>
 7    1  0.5038211E-009  0.4778727E+02  0.7816164E-02  0.1312668E+00
        -11   -1    0    0    0    0  0.00000000000E+00  0.00000000000E+00  0.45593999997E+02  0.45594000000E+02  0.51100000000E-03 0. -1.
         11   -1    0    0    0    0 -0.00000000000E+00 -0.00000000000E+00 -0.45593999997E+02  0.45594000000E+02  0.51100000000E-03 0.  1.
    9900012    2    1    2    0    0 -0.16671617687E+02  0.28977135599E+02 -0.27676818493E+02  0.47787268373E+02  0.19999987822E+02 0.  0.
         12    1    1    2    0    0  0.16671617687E+02 -0.28977135599E+02  0.27676818493E+02  0.43400731627E+02  0.00000000000E+00 0. -1.
         11    1    3    3    0    0  0.24590039712E+01  0.73897456556E+01 -0.19505083648E+01  0.80286689138E+01  0.51100000000E-03 0. -1.
        -11    1    3    3    0    0 -0.50085852546E+01  0.85553296722E+01 -0.14304861325E+02  0.17404271023E+02  0.51100000000E-03 0.  1.
         12    1    3    3    0    0 -0.14122036404E+02  0.13032060271E+02 -0.11421448804E+02  0.22354328437E+02  0.00000000000E+00 0. -1.
</event>
<event>
 7    1  0.5038211E-009  0.4778727E+02  0.7816164E-02  0.1312668E+00
        -11   -1    0    0    0    0  0.00000000000E+00  0.00000000000E+00  0.45593999997E+02  0.45594000000E+02  0.51100000000E-03 0. -1.
         11   -1    0    0    0    0 -0.00000000000E+00 -0.00000000000E+00 -0.45593999997E+02  0.45594000000E+02  0.51100000000E-03 0.  1.
    9900012    2    1    2    0    0  0.38637025086E+02 -0.12424593211E+02 -0.15376380658E+02  0.47787270673E+02  0.19999998306E+02 0.  0.
         12    1    1    2    0    0 -0.38637025086E+02  0.12424593211E+02  0.15376380658E+02  0.43400729327E+02  0.00000000000E+00 0. -1.
         11    1    3    3    0    0 -0.26788417263E+00 -0.15759403606E+01 -0.53862444397E+01  0.56184499086E+01  0.51100000000E-03 0. -1.
        -11    1    3    3    0    0  0.64145008082E+01  0.75876689574E+00 -0.12813144137E+01  0.65850827412E+01  0.51100000000E-03 0.  1.
         12    1    3    3    0    0  0.32490408451E+02 -0.11607419746E+02 -0.87088218048E+01  0.35583738023E+02  0.00000000000E+00 0. -1.
</event>
<event>
 7    1  0.5038211E-009  0.4778727E+02  0.7816164E-02  0.1312668E+00
        -11   -1    0    0    0    0  0.00000000000E+00  0.00000000000E+00  0.45593999997E+02  0.45594000000E+02  0.51100000000E-03 0.  1.
         11   -1    0    0    0    0 -0.00000000000E+00 -0.00000000000E+00 -0.45593999997E+02  0.45594000000E+02  0.51100000000E-03 0. -1.
    9900012    2    1    2    0    0 -0.22770653159E+02  0.31498759852E+02  0.19311881741E+02  0.47787270814E+02  0.19999998948E+02 0.  0.
         12    1    1    2    0    0  0.22770653159E+02 -0.31498759852E+02 -0.19311881741E+02  0.43400729186E+02  0.00000000000E+00 0. -1.
         11    1    3    3    0    0 -0.12090874925E+02  0.16945745791E+02  0.15049015132E+01  0.20871326879E+02  0.51100000000E-03 0. -1.
        -11    1    3    3    0    0 -0.87770810757E+01  0.15638728845E+02  0.16474086944E+02  0.24351643333E+02  0.51100000000E-03 0.  1.
        -12    1    3    3    0    0 -0.19026971585E+01 -0.10857147845E+01  0.13328932837E+01  0.25643006017E+01  0.00000000000E+00 0.  1.
</event>
<event>
 7    1  0.5038211E-009  0.4778727E+02  0.7816164E-02  0.1312668E+00
        -11   -1    0    0    0    0  0.00000000000E+00  0.00000000000E+00  0.45593999997E+02  0.45594000000E+02  0.51100000000E-03 0.  1.
         11   -1    0    0    0    0 -0.00000000000E+00 -0.00000000000E+00 -0.45593999997E+02  0.45594000000E+02  0.51100000000E-03 0. -1.
    9900012    2    1    2    0    0  0.68171266577E+01 -0.18233960530E+02  0.38790112884E+02  0.47787269706E+02  0.19999993898E+02 0.  0.
         12    1    1    2    0    0 -0.68171266577E+01  0.18233960530E+02 -0.38790112884E+02  0.43400730294E+02  0.00000000000E+00 0. -1.
         11    1    3    3    0    0  0.10612506072E+02 -0.10173555686E+02  0.11521661730E+02  0.18678201458E+02  0.51100000000E-03 0. -1.
        -11    1    3    3    0    0 -0.28841693132E+01 -0.84124727517E+01  0.21633866009E+02  0.23390431573E+02  0.51100000000E-03 0.  1.
        -12    1    3    3    0    0 -0.91121010142E+00  0.35206790735E+00  0.56345851454E+01  0.57186366750E+01  0.00000000000E+00 0.  1.
</event>
<event>
 7    1  0.5038211E-009  0.4778728E+02  0.7816164E-02  0.1312668E+00
        -11   -1    0    0    0    0  0.00000000000E+00  0.00000000000E+00  0.45593999997E+02  0.45594000000E+02  0.51100000000E-03 0. -1.
         11   -1    0    0    0    0 -0.00000000000E+00 -0.00000000000E+00 -0.45593999997E+02  0.45594000000E+02  0.51100000000E-03 0.  1.
    9900012    2    1    2    0    0  0.24223028196E+02 -0.17262469388E+02 -0.31604977928E+02  0.47787279106E+02  0.20000036754E+02 0.  0.
         12    1    1    2    0    0 -0.24223028196E+02  0.17262469388E+02  0.31604977928E+02  0.43400720894E+02  0.00000000000E+00 0. -1.
         11    1    3    3    0    0  0.41473502905E+01  0.30119030903E+01 -0.13219597238E+01  0.52933592765E+01  0.51100000000E-03 0. -1.
        -11    1    3    3    0    0  0.37422955663E+01 -0.95698988726E+01 -0.10022883169E+02  0.14354299977E+02  0.51100000000E-03 0.  1.
         12    1    3    3    0    0  0.16333382339E+02 -0.10704473605E+02 -0.20260135035E+02  0.28139619852E+02  0.00000000000E+00 0. -1.
</event>
<event>
 7    1  0.5038211E-009  0.4778726E+02  0.7816164E-02  0.1312668E+00
        -11   -1    0    0    0    0  0.00000000000E+00  0.00000000000E+00  0.45593999997E+02  0.45594000000E+02  0.51100000000E-03 0.  1.
         11   -1    0    0    0    0 -0.00000000000E+00 -0.00000000000E+00 -0.45593999997E+02  0.45594000000E+02  0.51100000000E-03 0. -1.
    9900012    2    1    2    0    0 -0.30327665503E+02  0.18875532215E+02  0.24648959088E+02  0.47787260428E+02  0.19999951596E+02 0.  0.
         12    1    1    2    0    0  0.30327665503E+02 -0.18875532215E+02 -0.24648959088E+02  0.43400739572E+02  0.00000000000E+00 0. -1.
         11    1    3    3    0    0 -0.16688908852E+02  0.18295330648E+02  0.11010974958E+02  0.27101298345E+02  0.51100000000E-03 0. -1.
        -11    1    3    3    0    0 -0.37916506722E+01 -0.28623032204E+01  0.22964452651E+01  0.52766519368E+01  0.51100000000E-03 0.  1.
         12    1    3    3    0    0 -0.98471059792E+01  0.34425047873E+01  0.11341538865E+02  0.15409310147E+02  0.00000000000E+00 0. -1.
</event>
<event>
 7    1  0.5038211E-009  0.4778727E+02  0.7816164E-02  0.1312668E+00
        -11   -1    0    0    0    0  0.00000000000E+00  0.00000000000E+00  0.45593999997E+02  0.45594000000E+02  0.51100000000E-03 0. -1.
         11   -1    0    0    0    0 -0.00000000000E+00 -0.00000000000E+00 -0.45593999997E+02  0.45594000000E+02  0.51100000000E-03 0.  1.
    9900012    2    1    2    0    0  0.28850508728E+02 -0.28079640942E+02  0.16211268462E+02  0.47787270577E+02  0.19999997868E+02 0.  0.
         12    1    1    2    0    0 -0.28850508728E+02  0.28079640942E+02 -0.16211268462E+02  0.43400729423E+02  0.00000000000E+00 0. -1.
         11    1    3    3    0    0  0.46346629765E+01 -0.35515681074E+01  0.10097998776E+02  0.11664618145E+02  0.51100000000E-03 0. -1.
        -11    1    3    3    0    0  0.20185064127E+02 -0.14694520891E+02  0.39667655583E+01  0.25280446738E+02  0.51100000000E-03 0.  1.
         12    1    3    3    0    0  0.40307816250E+01 -0.98335519434E+01  0.21465041275E+01  0.10842205694E+02  0.00000000000E+00 0. -1.
</event>
<event>
 7    1  0.5038211E-009  0.4778727E+02  0.7816164E-02  0.1312668E+00
        -11   -1    0    0    0    0  0.00000000000E+00  0.00000000000E+00  0.45593999997E+02  0.45594000000E+02  0.51100000000E-03 0.  1.
         11   -1    0    0    0    0 -0.00000000000E+00 -0.00000000000E+00 -0.45593999997E+02  0.45594000000E+02  0.51100000000E-03 0. -1.
    9900012    2    1    2    0    0 -0.11006518315E+02  0.30851384423E+02  0.28472299831E+02  0.47787271620E+02  0.20000002625E+02 0.  0.
         12    1    1    2    0    0  0.11006518315E+02 -0.30851384423E+02 -0.28472299831E+02  0.43400728380E+02  0.00000000000E+00 0. -1.
         11    1    3    3    0    0 -0.58670465693E+01  0.37298047365E+01 -0.89623024854E+00  0.70097723029E+01  0.51100000000E-03 0. -1.
        -11    1    3    3    0    0 -0.45382705364E+01  0.26288421782E+02  0.29462679078E+02  0.39745773083E+02  0.51100000000E-03 0.  1.
        -12    1    3    3    0    0 -0.60120120957E+00  0.83315790433E+00 -0.94148998896E-01  0.10317262340E+01  0.00000000000E+00 0.  1.
</event>
<event>
 7    1  0.5038211E-009  0.4778727E+02  0.7816164E-02  0.1312668E+00
        -11   -1    0    0    0    0  0.00000000000E+00  0.00000000000E+00  0.45593999997E+02  0.45594000000E+02  0.51100000000E-03 0. -1.
         11   -1    0    0    0    0 -0.00000000000E+00 -0.00000000000E+00 -0.45593999997E+02  0.45594000000E+02  0.51100000000E-03 0.  1.
    9900012    2    1    2    0    0  0.83829555358E+01  0.42541160717E+02 -0.18970114534E+01  0.47787274763E+02  0.20000016954E+02 0.  0.
         12    1    1    2    0    0 -0.83829555358E+01 -0.42541160717E+02  0.18970114534E+01  0.43400725237E+02  0.00000000000E+00 0. -1.
         11    1    3    3    0    0 -0.42896578220E+01  0.77716712720E+01  0.13788317655E+01  0.89833855472E+01  0.51100000000E-03 0. -1.
        -11    1    3    3    0    0  0.14761494307E+02  0.29808716129E+02 -0.32422775671E+01  0.33421155508E+02  0.51100000000E-03 0.  1.
        -12    1    3    3    0    0 -0.20888809489E+01  0.49607733160E+01 -0.33565651780E-01  0.53827337073E+01  0.00000000000E+00 0.  1.
</event>
<event>
 7    1  0.5038211E-009  0.4778728E+02  0.7816164E-02  0.1312668E+00
        -11   -1    0    0    0    0  0.00000000000E+00  0.00000000000E+00  0.45593999997E+02  0.45594000000E+02  0.51100000000E-03 0.  1.
         11   -1    0    0    0    0 -0.00000000000E+00 -0.00000000000E+00 -0.45593999997E+02  0.45594000000E+02  0.51100000000E-03 0. -1.
    9900012    2    1    2    0    0 -0.41166287898E+02 -0.10535226900E+02 -0.88299863183E+01  0.47787275080E+02  0.20000018401E+02 0.  0.
         12    1    1    2    0    0  0.41166287898E+02  0.10535226900E+02  0.88299863183E+01  0.43400724920E+02  0.00000000000E+00 0. -1.
         11    1    3    3    0    0 -0.16389881630E+02  0.65539810402E+00 -0.40288686065E+01  0.16890516541E+02  0.51100000000E-03 0. -1.
        -11    1    3    3    0    0 -0.12753926466E+02 -0.12877367233E+02 -0.90572812966E+00  0.18146888738E+02  0.51100000000E-03 0.  1.
        -12    1    3    3    0    0 -0.12022479803E+02  0.16867422294E+01 -0.38953895822E+01  0.12749869801E+02  0.00000000000E+00 0.  1.
</event>
<event>
 7    1  0.5038211E-009  0.4778728E+02  0.7816164E-02  0.1312668E+00
        -11   -1    0    0    0    0  0.00000000000E+00  0.00000000000E+00  0.45593999997E+02  0.45594000000E+02  0.51100000000E-03 0.  1.
         11   -1    0    0    0    0 -0.00000000000E+00 -0.00000000000E+00 -0.45593999997E+02  0.45594000000E+02  0.51100000000E-03 0. -1.
    9900012    2    1    2    0    0 -0.24820466843E+02 -0.14257413845E+02  0.32623501843E+02  0.47787282306E+02  0.20000051346E+02 0.  0.
         12    1    1    2    0    0  0.24820466843E+02  0.14257413845E+02 -0.32623501843E+02  0.43400717694E+02  0.00000000000E+00 0. -1.
         11    1    3    3    0    0  0.24016417122E+01 -0.26633386086E+00  0.63216398711E+01  0.67677136139E+01  0.51100000000E-03 0. -1.
        -11    1    3    3    0    0 -0.22626099139E+02 -0.12038130229E+02  0.25122057782E+02  0.35888364816E+02  0.51100000000E-03 0.  1.
         12    1    3    3    0    0 -0.45960094157E+01 -0.19529497554E+01  0.11798041899E+01  0.51312038765E+01  0.00000000000E+00 0. -1.
</event>
<event>
 7    1  0.5038211E-009  0.4778730E+02  0.7816164E-02  0.1312668E+00
        -11   -1    0    0    0    0  0.00000000000E+00  0.00000000000E+00  0.45593999997E+02  0.45594000000E+02  0.51100000000E-03 0. -1.
         11   -1    0    0    0    0 -0.00000000000E+00 -0.00000000000E+00 -0.45593999997E+02  0.45594000000E+02  0.51100000000E-03 0.  1.
    9900012    2    1    2    0    0  0.23623271116E+02  0.35837929691E+02  0.64190807535E+01  0.47787300231E+02  0.20000133071E+02 0.  0.
         12    1    1    2    0    0 -0.23623271116E+02 -0.35837929691E+02 -0.64190807535E+01  0.43400699769E+02  0.00000000000E+00 0. -1.
         11    1    3    3    0    0  0.20378585591E+02  0.20175465835E+02  0.55905171625E+01  0.29216263531E+02  0.51100000000E-03 0. -1.
        -11    1    3    3    0    0  0.65581807546E+01  0.10027933567E+02 -0.74197046048E-03  0.11982036023E+02  0.51100000000E-03 0.  1.
        -12    1    3    3    0    0 -0.33134952288E+01  0.56345302884E+01  0.82930556151E+00  0.65890006766E+01  0.00000000000E+00 0.  1.
</event>
<event>
 7    1  0.5038211E-009  0.4778727E+02  0.7816164E-02  0.1312668E+00
        -11   -1    0    0    0    0  0.00000000000E+00  0.00000000000E+00  0.45593999997E+02  0.45594000000E+02  0.51100000000E-03 0.  1.
         11   -1    0    0    0    0 -0.00000000000E+00 -0.00000000000E+00 -0.45593999997E+02  0.45594000000E+02  0.51100000000E-03 0. -1.
    9900012    2    1    2    0    0  0.38320647378E+02  0.10553669450E+02 -0.17429036566E+02  0.47787271089E+02  0.20000000205E+02 0.  0.
         12    1    1    2    0    0 -0.38320647378E+02 -0.10553669450E+02  0.17429036566E+02  0.43400728911E+02  0.00000000000E+00 0. -1.
         11    1    3    3    0    0  0.18512431487E+02  0.14555756925E+02 -0.68114362277E+01  0.24514808646E+02  0.51100000000E-03 0. -1.
        -11    1    3    3    0    0  0.17724236741E+02 -0.22089197635E+01 -0.99400224902E+01  0.20440937893E+02  0.51100000000E-03 0.  1.
        -12    1    3    3    0    0  0.20839791505E+01 -0.17931677112E+01 -0.67757784831E+00  0.28315245506E+01  0.00000000000E+00 0.  1.
</event>
<event>
 7    1  0.5038211E-009  0.4778727E+02  0.7816164E-02  0.1312668E+00
        -11   -1    0    0    0    0  0.00000000000E+00  0.00000000000E+00  0.45593999997E+02  0.45594000000E+02  0.51100000000E-03 0.  1.
         11   -1    0    0    0    0 -0.00000000000E+00 -0.00000000000E+00 -0.45593999997E+02  0.45594000000E+02  0.51100000000E-03 0. -1.
    9900012    2    1    2    0    0  0.11096468236E+02  0.41185604458E+02 -0.80148215631E+01  0.47787274355E+02  0.20000015092E+02 0.  0.
         12    1    1    2    0    0 -0.11096468236E+02 -0.41185604458E+02  0.80148215631E+01  0.43400725645E+02  0.00000000000E+00 0. -1.
         11    1    3    3    0    0 -0.29030456917E+01  0.47428628721E+00  0.63865093965E+00  0.30100659552E+01  0.51100000000E-03 0. -1.
        -11    1    3    3    0    0  0.77945529486E+01  0.33586305493E+02 -0.70965638326E+01  0.35201650400E+02  0.51100000000E-03 0.  1.
        -12    1    3    3    0    0  0.62049609788E+01  0.71250126772E+01 -0.15569086702E+01  0.95755579997E+01  0.00000000000E+00 0.  1.
</event>
<event>
 7    1  0.5038211E-009  0.4778727E+02  0.7816164E-02  0.1312668E+00
        -11   -1    0    0    0    0  0.00000000000E+00  0.00000000000E+00  0.45593999997E+02  0.45594000000E+02  0.51100000000E-03 0.  1.
         11   -1    0    0    0    0 -0.00000000000E+00 -0.00000000000E+00 -0.45593999997E+02  0.45594000000E+02  0.51100000000E-03 0. -1.
    9900012    2    1    2    0    0  0.39734252061E+02 -0.19795544787E+01  0.17346288331E+02  0.47787272568E+02  0.20000006946E+02 0.  0.
         12    1    1    2    0    0 -0.39734252061E+02  0.19795544787E+01 -0.17346288331E+02  0.43400727432E+02  0.00000000000E+00 0. -1.
         11    1    3    3    0    0  0.12223391117E+02 -0.20399600605E+01 -0.17487147209E+01  0.12515219970E+02  0.51100000000E-03 0. -1.
        -11    1    3    3    0    0  0.17957337376E+02  0.52518865143E+01  0.13263360703E+02  0.22933927161E+02  0.51100000000E-03 0.  1.
        -12    1    3    3    0    0  0.95535235674E+01 -0.51914809325E+01  0.58316423486E+01  0.12338125437E+02  0.00000000000E+00 0.  1.
</event>
<event>
 7    1  0.5038211E-009  0.4778727E+02  0.7816164E-02  0.1312668E+00
        -11   -1    0    0    0    0  0.00000000000E+00  0.00000000000E+00  0.45593999997E+02  0.45594000000E+02  0.51100000000E-03 0.  1.
         11   -1    0    0    0    0 -0.00000000000E+00 -0.00000000000E+00 -0.45593999997E+02  0.45594000000E+02  0.51100000000E-03 0. -1.
    9900012    2    1    2    0    0  0.20721883502E+02  0.30647003428E+02  0.22693339508E+02  0.47787274971E+02  0.20000017903E+02 0.  0.
         12    1    1    2    0    0 -0.20721883502E+02 -0.30647003428E+02 -0.22693339508E+02  0.43400725029E+02  0.00000000000E+00 0. -1.
         11    1    3    3    0    0  0.17805384674E+02  0.17124806823E+02  0.10038892335E+02  0.26665897541E+02  0.51100000000E-03 0. -1.
        -11    1    3    3    0    0  0.56611639822E+01  0.57108316520E+01  0.34761431969E+01  0.87604764470E+01  0.51100000000E-03 0.  1.
         12    1    3    3    0    0 -0.27446651533E+01  0.78113649530E+01  0.91783039761E+01  0.12360900983E+02  0.00000000000E+00 0. -1.
</event>
<event>
 7    1  0.5038211E-009  0.4778727E+02  0.7816164E-02  0.1312668E+00
        -11   -1    0    0    0    0  0.00000000000E+00  0.00000000000E+00  0.45593999997E+02  0.45594000000E+02  0.51100000000E-03 0. -1.
         11   -1    0    0    0    0 -0.00000000000E+00 -0.00000000000E+00 -0.45593999997E+02  0.45594000000E+02  0.51100000000E-03 0.  1.
    9900012    2    1    2    0    0 -0.22473021812E+02 -0.11252365071E+02 -0.35383195330E+02  0.47787274881E+02  0.20000017495E+02 0.  0.
         12    1    1    2    0    0  0.22473021812E+02  0.11252365071E+02  0.35383195330E+02  0.43400725119E+02  0.00000000000E+00 0. -1.
         11    1    3    3    0    0 -0.20224349123E+02  0.13392511454E+00 -0.20094327190E+02  0.28510072236E+02  0.51100000000E-03 0. -1.
        -11    1    3    3    0    0 -0.16342810899E+01 -0.83654060108E+01 -0.98537964317E+01  0.13028745020E+02  0.51100000000E-03 0.  1.
         12    1    3    3    0    0 -0.61439159883E+00 -0.30208841749E+01 -0.54350717080E+01  0.62484576262E+01  0.00000000000E+00 0. -1.
</event>
<event>
 7    1  0.5038211E-009  0.4778727E+02  0.7816164E-02  0.1312668E+00
        -11   -1    0    0    0    0  0.00000000000E+00  0.00000000000E+00  0.45593999997E+02  0.45594000000E+02  0.51100000000E-03 0.  1.
         11   -1    0    0    0    0 -0.00000000000E+00 -0.00000000000E+00 -0.45593999997E+02  0.45594000000E+02  0.51100000000E-03 0. -1.
    9900012    2    1    2    0    0 -0.14861690605E+02  0.39235982857E+02 -0.11103658336E+02  0.47787269282E+02  0.19999991964E+02 0.  0.
         12    1    1    2    0    0  0.14861690605E+02 -0.39235982857E+02  0.11103658336E+02  0.43400730718E+02  0.00000000000E+00 0. -1.
         11    1    3    3    0    0 -0.77096956853E+01  0.55150023044E+01  0.84937624875E+00  0.95171475900E+01  0.51100000000E-03 0. -1.
        -11    1    3    3    0    0 -0.61320104287E+01  0.19652950421E+02 -0.13635851382E+01  0.20632483536E+02  0.51100000000E-03 0.  1.
        -12    1    3    3    0    0 -0.10199844910E+01  0.14068030132E+02 -0.10589449446E+02  0.17637638156E+02  0.00000000000E+00 0.  1.
</event>
<event>
 7    1  0.5038211E-009  0.4778724E+02  0.7816164E-02  0.1312668E+00
        -11   -1    0    0    0    0  0.00000000000E+00  0.00000000000E+00  0.45593999997E+02  0.45594000000E+02  0.51100000000E-03 0.  1.
         11   -1    0    0    0    0 -0.00000000000E+00 -0.00000000000E+00 -0.45593999997E+02  0.45594000000E+02  0.51100000000E-03 0. -1.
    9900012    2    1    2    0    0  0.43341818605E+02 -0.66452084827E+00 -0.21612609247E+01  0.47787241058E+02  0.19999863280E+02 0.  0.
         12    1    1    2    0    0 -0.43341818605E+02  0.66452084827E+00  0.21612609247E+01  0.43400758942E+02  0.00000000000E+00 0. -1.
         11    1    3    3    0    0  0.17106698567E+02  0.75713124793E+01 -0.50855368821E+01  0.19386247553E+02  0.51100000000E-03 0. -1.
        -11    1    3    3    0    0  0.70995301178E+01 -0.18682873049E+01 -0.20642986537E+01  0.76259526972E+01  0.51100000000E-03 0.  1.
         12    1    3    3    0    0  0.19135589920E+02 -0.63675460227E+01  0.49885746111E+01  0.20775040808E+02  0.00000000000E+00 0. -1.
</event>
<event>
 7    1  0.5038211E-009  0.4778727E+02  0.7816164E-02  0.1312668E+00
        -11   -1    0    0    0    0  0.00000000000E+00  0.00000000000E+00  0.45593999997E+02  0.45594000000E+02  0.51100000000E-03 0.  1.
         11   -1    0    0    0    0 -0.00000000000E+00 -0.00000000000E+00 -0.45593999997E+02  0.45594000000E+02  0.51100000000E-03 0. -1.
    9900012    2    1    2    0    0 -0.15753866285E+02 -0.32105706076E+02  0.24589890032E+02  0.47787270083E+02  0.19999995616E+02 0.  0.
         12    1    1    2    0    0  0.15753866285E+02  0.32105706076E+02 -0.24589890032E+02  0.43400729917E+02  0.00000000000E+00 0. -1.
         11    1    3    3    0    0 -0.27241550543E+01  0.17428974867E+01  0.27639202718E+01  0.42541706523E+01  0.51100000000E-03 0. -1.
        -11    1    3    3    0    0 -0.10161273884E+02 -0.17739593258E+02  0.74701594169E+01  0.21765751489E+02  0.51100000000E-03 0.  1.
         12    1    3    3    0    0 -0.28684373471E+01 -0.16109010304E+02  0.14355810343E+02  0.21767347941E+02  0.00000000000E+00 0. -1.
</event>
<event>
 7    1  0.5038211E-009  0.4778728E+02  0.7816164E-02  0.1312668E+00
        -11   -1    0    0    0    0  0.00000000000E+00  0.00000000000E+00  0.45593999997E+02  0.45594000000E+02  0.51100000000E-03 0.  1.
         11   -1    0    0    0    0 -0.00000000000E+00 -0.00000000000E+00 -0.45593999997E+02  0.45594000000E+02  0.51100000000E-03 0. -1.
    9900012    2    1    2    0    0 -0.29670677764E+02 -0.19704155892E+02 -0.24799590090E+02  0.47787279418E+02  0.20000038179E+02 0.  0.
         12    1    1    2    0    0  0.29670677764E+02  0.19704155892E+02  0.24799590090E+02  0.43400720582E+02  0.00000000000E+00 0. -1.
         11    1    3    3    0    0 -0.11164236723E+02 -0.35026500837E+01 -0.30286129045E+01  0.12086407059E+02  0.51100000000E-03 0.  1.
        -11    1    3    3    0    0 -0.34853904306E+01 -0.80564972375E+01 -0.14880406030E+02  0.17276619405E+02  0.51100000000E-03 0. -1.
         12    1    3    3    0    0 -0.15021050610E+02 -0.81450085712E+01 -0.68905711554E+01  0.18424252954E+02  0.00000000000E+00 0. -1.
</event>
<event>
 7    1  0.5038211E-009  0.4778727E+02  0.7816164E-02  0.1312668E+00
        -11   -1    0    0    0    0  0.00000000000E+00  0.00000000000E+00  0.45593999997E+02  0.45594000000E+02  0.51100000000E-03 0.  1.
         11   -1    0    0    0    0 -0.00000000000E+00 -0.00000000000E+00 -0.45593999997E+02  0.45594000000E+02  0.51100000000E-03 0. -1.
    9900012    2    1    2    0    0 -0.22945158158E+02  0.28664362266E+02  0.23140812935E+02  0.47787272238E+02  0.20000005442E+02 0.  0.
         12    1    1    2    0    0  0.22945158158E+02 -0.28664362266E+02 -0.23140812935E+02  0.43400727762E+02  0.00000000000E+00 0. -1.
         11    1    3    3    0    0  0.16636303177E+01  0.25180260996E+01 -0.22307282950E+01  0.37529015787E+01  0.51100000000E-03 0. -1.
        -11    1    3    3    0    0 -0.20869436586E+02  0.22111603755E+02  0.20354746973E+02  0.36589235147E+02  0.51100000000E-03 0.  1.
        -12    1    3    3    0    0 -0.37393518892E+01  0.40347324117E+01  0.50167942562E+01  0.74451355121E+01  0.00000000000E+00 0.  1.
</event>
<event>
 7    1  0.5038211E-009  0.4778726E+02  0.7816164E-02  0.1312668E+00
        -11   -1    0    0    0    0  0.00000000000E+00  0.00000000000E+00  0.45593999997E+02  0.45594000000E+02  0.51100000000E-03 0.  1.
         11   -1    0    0    0    0 -0.00000000000E+00 -0.00000000000E+00 -0.45593999997E+02  0.45594000000E+02  0.51100000000E-03 0. -1.
    9900012    2    1    2    0    0 -0.27991776633E+02 -0.10099762116E-01  0.33167520318E+02  0.47787261929E+02  0.19999958440E+02 0.  0.
         12    1    1    2    0    0  0.27991776633E+02  0.10099762116E-01 -0.33167520318E+02  0.43400738071E+02  0.00000000000E+00 0. -1.
         11    1    3    3    0    0 -0.13711804167E+02  0.49742317126E+01  0.56314169458E+01  0.15635517635E+02  0.51100000000E-03 0. -1.
        -11    1    3    3    0    0 -0.11815770279E+02 -0.11134735209E+01  0.21636292128E+02  0.24677548255E+02  0.51100000000E-03 0.  1.
         12    1    3    3    0    0 -0.24642021868E+01 -0.38708579538E+01  0.58998112438E+01  0.74741960389E+01  0.00000000000E+00 0. -1.
</event>
<event>
 7    1  0.5038211E-009  0.4778728E+02  0.7816164E-02  0.1312668E+00
        -11   -1    0    0    0    0  0.00000000000E+00  0.00000000000E+00  0.45593999997E+02  0.45594000000E+02  0.51100000000E-03 0. -1.
         11   -1    0    0    0    0 -0.00000000000E+00 -0.00000000000E+00 -0.45593999997E+02  0.45594000000E+02  0.51100000000E-03 0.  1.
    9900012    2    1    2    0    0 -0.33696749649E+02 -0.26903111268E+02 -0.49370203897E+01  0.47787279924E+02  0.20000040487E+02 0.  0.
         12    1    1    2    0    0  0.33696749649E+02  0.26903111268E+02  0.49370203897E+01  0.43400720076E+02  0.00000000000E+00 0. -1.
         11    1    3    3    0    0 -0.10561966358E+02 -0.12836147961E+02  0.58884659282E+01  0.17635074683E+02  0.51100000000E-03 0. -1.
        -11    1    3    3    0    0 -0.61394128329E+01 -0.28301806144E+01  0.61061132741E+00  0.67878684944E+01  0.51100000000E-03 0.  1.
         12    1    3    3    0    0 -0.16995370458E+02 -0.11236782692E+02 -0.11436097645E+02  0.23364336747E+02  0.00000000000E+00 0. -1.
</event>
<event>
 7    1  0.5038211E-009  0.4778727E+02  0.7816164E-02  0.1312668E+00
        -11   -1    0    0    0    0  0.00000000000E+00  0.00000000000E+00  0.45593999997E+02  0.45594000000E+02  0.51100000000E-03 0.  1.
         11   -1    0    0    0    0 -0.00000000000E+00 -0.00000000000E+00 -0.45593999997E+02  0.45594000000E+02  0.51100000000E-03 0. -1.
    9900012    2    1    2    0    0  0.14769429650E+02 -0.20767252021E+02  0.35131304050E+02  0.47787270364E+02  0.19999996897E+02 0.  0.
         12    1    1    2    0    0 -0.14769429650E+02  0.20767252021E+02 -0.35131304050E+02  0.43400729636E+02  0.00000000000E+00 0. -1.
         11    1    3    3    0    0  0.95967677012E+00 -0.27993734422E+01 -0.13542775346E+01  0.32544644834E+01  0.51100000000E-03 0. -1.
        -11    1    3    3    0    0  0.87191594876E+01 -0.18460442547E+02  0.28881489038E+02  0.35368801090E+02  0.51100000000E-03 0.  1.
        -12    1    3    3    0    0  0.50905933923E+01  0.49256396801E+00  0.76040925461E+01  0.91640047904E+01  0.00000000000E+00 0.  1.
</event>
<event>
 7    1  0.5038211E-009  0.4778727E+02  0.7816164E-02  0.1312668E+00
        -11   -1    0    0    0    0  0.00000000000E+00  0.00000000000E+00  0.45593999997E+02  0.45594000000E+02  0.51100000000E-03 0.  1.
         11   -1    0    0    0    0 -0.00000000000E+00 -0.00000000000E+00 -0.45593999997E+02  0.45594000000E+02  0.51100000000E-03 0. -1.
    9900012    2    1    2    0    0  0.38734986364E+02 -0.62921102671E+01  0.18537361424E+02  0.47787267417E+02  0.19999983459E+02 0.  0.
         12    1    1    2    0    0 -0.38734986364E+02  0.62921102671E+01 -0.18537361424E+02  0.43400732583E+02  0.00000000000E+00 0. -1.
         11    1    3    3    0    0  0.14079295948E+02 -0.19609861741E+01  0.14242546526E+01  0.14286376123E+02  0.51100000000E-03 0. -1.
        -11    1    3    3    0    0  0.11018795493E+02  0.25170724819E+01  0.13884367227E+02  0.17903216515E+02  0.51100000000E-03 0.  1.
        -12    1    3    3    0    0  0.13636894923E+02 -0.68481965749E+01  0.32287395443E+01  0.15597674779E+02  0.00000000000E+00 0.  1.
</event>
<event>
 7    1  0.5038211E-009  0.4778727E+02  0.7816164E-02  0.1312668E+00
        -11   -1    0    0    0    0  0.00000000000E+00  0.00000000000E+00  0.45593999997E+02  0.45594000000E+02  0.51100000000E-03 0.  1.
         11   -1    0    0    0    0 -0.00000000000E+00 -0.00000000000E+00 -0.45593999997E+02  0.45594000000E+02  0.51100000000E-03 0. -1.
    9900012    2    1    2    0    0  0.29653682418E+00 -0.15370770826E+02  0.40586628409E+02  0.47787274943E+02  0.20000017775E+02 0.  0.
         12    1    1    2    0    0 -0.29653682418E+00  0.15370770826E+02 -0.40586628409E+02  0.43400725057E+02  0.00000000000E+00 0. -1.
         11    1    3    3    0    0 -0.43110759299E+01 -0.13655675295E+02  0.12582740836E+02  0.19062744048E+02  0.51100000000E-03 0. -1.
        -11    1    3    3    0    0  0.21786152742E+01 -0.44405544443E+00  0.22141001076E+02  0.22252358946E+02  0.51100000000E-03 0.  1.
         12    1    3    3    0    0  0.24289974799E+01 -0.12710400863E+01  0.58628864970E+01  0.64721719489E+01  0.00000000000E+00 0. -1.
</event>
<event>
 7    1  0.5038211E-009  0.4778727E+02  0.7816164E-02  0.1312668E+00
        -11   -1    0    0    0    0  0.00000000000E+00  0.00000000000E+00  0.45593999997E+02  0.45594000000E+02  0.51100000000E-03 0. -1.
         11   -1    0    0    0    0 -0.00000000000E+00 -0.00000000000E+00 -0.45593999997E+02  0.45594000000E+02  0.51100000000E-03 0.  1.
    9900012    2    1    2    0    0  0.28711949902E+02 -0.23984404987E+02 -0.21999903272E+02  0.47787268511E+02  0.19999988450E+02 0.  0.
         12    1    1    2    0    0 -0.28711949902E+02  0.23984404987E+02  0.21999903272E+02  0.43400731489E+02  0.00000000000E+00 0. -1.
         11    1    3    3    0    0  0.38832043623E+01 -0.50878498536E+01  0.28079058354E+01  0.69892651756E+01  0.51100000000E-03 0. -1.
        -11    1    3    3    0    0  0.74014926461E+01 -0.15666599588E+01 -0.38012974656E+01  0.84667809409E+01  0.51100000000E-03 0.  1.
         12    1    3    3    0    0  0.17427252894E+02 -0.17329895174E+02 -0.21006511642E+02  0.32331222395E+02  0.00000000000E+00 0. -1.
</event>
<event>
 7    1  0.5038211E-009  0.4778728E+02  0.7816164E-02  0.1312668E+00
        -11   -1    0    0    0    0  0.00000000000E+00  0.00000000000E+00  0.45593999997E+02  0.45594000000E+02  0.51100000000E-03 0. -1.
         11   -1    0    0    0    0 -0.00000000000E+00 -0.00000000000E+00 -0.45593999997E+02  0.45594000000E+02  0.51100000000E-03 0.  1.
    9900012    2    1    2    0    0 -0.17766635019E+02  0.37548230271E+02 -0.12573778634E+02  0.47787276210E+02  0.20000023550E+02 0.  0.
         12    1    1    2    0    0  0.17766635019E+02 -0.37548230271E+02  0.12573778634E+02  0.43400723790E+02  0.00000000000E+00 0. -1.
         11    1    3    3    0    0 -0.21413091683E+01  0.21245594307E+02 -0.12061820472E+02  0.24524436707E+02  0.51100000000E-03 0. -1.
        -11    1    3    3    0    0 -0.11417588260E+02  0.83523748647E+01 -0.14419430347E+01  0.14219799138E+02  0.51100000000E-03 0.  1.
         12    1    3    3    0    0 -0.42077375914E+01  0.79502610990E+01  0.92998487269E+00  0.90430403651E+01  0.00000000000E+00 0. -1.
</event>
<event>
 7    1  0.5038211E-009  0.4778727E+02  0.7816164E-02  0.1312668E+00
        -11   -1    0    0    0    0  0.00000000000E+00  0.00000000000E+00  0.45593999997E+02  0.45594000000E+02  0.51100000000E-03 0.  1.
         11   -1    0    0    0    0 -0.00000000000E+00 -0.00000000000E+00 -0.45593999997E+02  0.45594000000E+02  0.51100000000E-03 0. -1.
    9900012    2    1    2    0    0  0.24584181266E+02 -0.34728387709E+02  0.85545661523E+01  0.47787268630E+02  0.19999988992E+02 0.  0.
         12    1    1    2    0    0 -0.24584181266E+02  0.34728387709E+02 -0.85545661523E+01  0.43400731370E+02  0.00000000000E+00 0. -1.
         11    1    3    3    0    0  0.12865892573E+00 -0.13806983435E+01 -0.92176741151E+00  0.16650935280E+01  0.51100000000E-03 0. -1.
        -11    1    3    3    0    0  0.16280449938E+02 -0.18657984450E+02 -0.33347514365E+01  0.24985876037E+02  0.51100000000E-03 0.  1.
        -12    1    3    3    0    0  0.81750724026E+01 -0.14689704915E+02  0.12811085000E+02  0.21136299065E+02  0.00000000000E+00 0.  1.
</event>
<event>
 7    1  0.5038211E-009  0.4778727E+02  0.7816164E-02  0.1312668E+00
        -11   -1    0    0    0    0  0.00000000000E+00  0.00000000000E+00  0.45593999997E+02  0.45594000000E+02  0.51100000000E-03 0.  1.
         11   -1    0    0    0    0 -0.00000000000E+00 -0.00000000000E+00 -0.45593999997E+02  0.45594000000E+02  0.51100000000E-03 0. -1.
    9900012    2    1    2    0    0  0.18866210184E+02 -0.27017606400E+02  0.28244261513E+02  0.47787271311E+02  0.20000001214E+02 0.  0.
         12    1    1    2    0    0 -0.18866210184E+02  0.27017606400E+02 -0.28244261513E+02  0.43400728689E+02  0.00000000000E+00 0. -1.
         11    1    3    3    0    0  0.81740154857E+00 -0.79192108938E+00 -0.20393303034E+00  0.11562323492E+01  0.51100000000E-03 0. -1.
        -11    1    3    3    0    0  0.50216275024E+01  0.60276846283E+00  0.10927836174E+02  0.12041498092E+02  0.51100000000E-03 0.  1.
        -12    1    3    3    0    0  0.13027181133E+02 -0.26828453774E+02  0.17520358370E+02  0.34589540870E+02  0.00000000000E+00 0.  1.
</event>
<event>
 7    1  0.5038211E-009  0.4778727E+02  0.7816164E-02  0.1312668E+00
        -11   -1    0    0    0    0  0.00000000000E+00  0.00000000000E+00  0.45593999997E+02  0.45594000000E+02  0.51100000000E-03 0.  1.
         11   -1    0    0    0    0 -0.00000000000E+00 -0.00000000000E+00 -0.45593999997E+02  0.45594000000E+02  0.51100000000E-03 0. -1.
    9900012    2    1    2    0    0  0.90313892519E-01  0.18760528402E+02  0.39136401407E+02  0.47787268467E+02  0.19999988250E+02 0.  0.
         12    1    1    2    0    0 -0.90313892519E-01 -0.18760528402E+02 -0.39136401407E+02  0.43400731533E+02  0.00000000000E+00 0. -1.
         11    1    3    3    0    0  0.59158355614E+00  0.45883293830E+01  0.78793271169E+00  0.46929282810E+01  0.51100000000E-03 0. -1.
        -11    1    3    3    0    0 -0.37362029035E+01  0.66950605945E+01  0.31595735262E+02  0.32512667308E+02  0.51100000000E-03 0.  1.
        -12    1    3    3    0    0  0.32349332399E+01  0.74771384243E+01  0.67527334328E+01  0.10581672878E+02  0.00000000000E+00 0.  1.
</event>
<event>
 7    1  0.5038211E-009  0.4778730E+02  0.7816164E-02  0.1312668E+00
        -11   -1    0    0    0    0  0.00000000000E+00  0.00000000000E+00  0.45593999997E+02  0.45594000000E+02  0.51100000000E-03 0.  1.
         11   -1    0    0    0    0 -0.00000000000E+00 -0.00000000000E+00 -0.45593999997E+02  0.45594000000E+02  0.51100000000E-03 0. -1.
    9900012    2    1    2    0    0 -0.82365886792E+01  0.41925938993E+02  0.76154568186E+01  0.47787297977E+02  0.20000122797E+02 0.  0.
         12    1    1    2    0    0  0.82365886792E+01 -0.41925938993E+02 -0.76154568186E+01  0.43400702023E+02  0.00000000000E+00 0. -1.
         11    1    3    3    0    0 -0.39698501029E+01  0.18028099139E+01 -0.18917014658E-01  0.43600678366E+01  0.51100000000E-03 0. -1.
        -11    1    3    3    0    0 -0.39545553601E+01  0.37648178577E+02  0.10829271339E+02  0.39373810791E+02  0.51100000000E-03 0.  1.
        -12    1    3    3    0    0 -0.31218321623E+00  0.24749505024E+01 -0.31948975056E+01  0.40534193493E+01  0.00000000000E+00 0.  1.
</event>
<event>
 7    1  0.5038211E-009  0.4778728E+02  0.7816164E-02  0.1312668E+00
        -11   -1    0    0    0    0  0.00000000000E+00  0.00000000000E+00  0.45593999997E+02  0.45594000000E+02  0.51100000000E-03 0.  1.
         11   -1    0    0    0    0 -0.00000000000E+00 -0.00000000000E+00 -0.45593999997E+02  0.45594000000E+02  0.51100000000E-03 0. -1.
    9900012    2    1    2    0    0 -0.15378711477E+02 -0.39783245466E+02 -0.80256317459E+01  0.47787283975E+02  0.20000058956E+02 0.  0.
         12    1    1    2    0    0  0.15378711477E+02  0.39783245466E+02  0.80256317459E+01  0.43400716025E+02  0.00000000000E+00 0. -1.
         11    1    3    3    0    0 -0.13770506068E+00  0.15169858590E+01  0.98277247080E+00  0.18127467475E+01  0.51100000000E-03 0. -1.
        -11    1    3    3    0    0 -0.96439810840E+01 -0.31608565380E+02 -0.10520191466E+02  0.34681150577E+02  0.51100000000E-03 0.  1.
         12    1    3    3    0    0 -0.55970253326E+01 -0.96916659450E+01  0.15117872497E+01  0.11293386651E+02  0.00000000000E+00 0. -1.
</event>
<event>
 7    1  0.5038211E-009  0.4778727E+02  0.7816164E-02  0.1312668E+00
        -11   -1    0    0    0    0  0.00000000000E+00  0.00000000000E+00  0.45593999997E+02  0.45594000000E+02  0.51100000000E-03 0. -1.
         11   -1    0    0    0    0 -0.00000000000E+00 -0.00000000000E+00 -0.45593999997E+02  0.45594000000E+02  0.51100000000E-03 0.  1.
    9900012    2    1    2    0    0 -0.42664610193E+02 -0.75220005561E+01 -0.26026427221E+01  0.47787271845E+02  0.20000003648E+02 0.  0.
         12    1    1    2    0    0  0.42664610193E+02  0.75220005561E+01  0.26026427221E+01  0.43400728155E+02  0.00000000000E+00 0. -1.
         11    1    3    3    0    0 -0.20910943967E+02  0.41418730706E+01  0.40725508728E+01  0.21702727041E+02  0.51100000000E-03 0. -1.
        -11    1    3    3    0    0 -0.92991792255E+01 -0.78915843912E+01 -0.35219437151E+01  0.12694720409E+02  0.51100000000E-03 0.  1.
        -12    1    3    3    0    0 -0.12454487000E+02 -0.37722892354E+01 -0.31532498799E+01  0.13389824395E+02  0.00000000000E+00 0.  1.
</event>
<event>
 7    1  0.5038211E-009  0.4778727E+02  0.7816164E-02  0.1312668E+00
        -11   -1    0    0    0    0  0.00000000000E+00  0.00000000000E+00  0.45593999997E+02  0.45594000000E+02  0.51100000000E-03 0. -1.
         11   -1    0    0    0    0 -0.00000000000E+00 -0.00000000000E+00 -0.45593999997E+02  0.45594000000E+02  0.51100000000E-03 0.  1.
    9900012    2    1    2    0    0  0.11730490344E+02  0.40627539846E+02  0.97684099715E+01  0.47787271538E+02  0.20000002252E+02 0.  0.
         12    1    1    2    0    0 -0.11730490344E+02 -0.40627539846E+02 -0.97684099715E+01  0.43400728462E+02  0.00000000000E+00 0. -1.
         11    1    3    3    0    0  0.67267918166E+00  0.87940276837E+01 -0.45623039222E+01  0.99298558661E+01  0.51100000000E-03 0.  1.
        -11    1    3    3    0    0  0.80386976755E+01  0.20718698113E+02  0.44112747170E+01  0.22657106097E+02  0.51100000000E-03 0. -1.
         12    1    3    3    0    0  0.30191134864E+01  0.11114814049E+02  0.99194391766E+01  0.15200309575E+02  0.00000000000E+00 0. -1.
</event>
<event>
 7    1  0.5038211E-009  0.4778727E+02  0.7816164E-02  0.1312668E+00
        -11   -1    0    0    0    0  0.00000000000E+00  0.00000000000E+00  0.45593999997E+02  0.45594000000E+02  0.51100000000E-03 0. -1.
         11   -1    0    0    0    0 -0.00000000000E+00 -0.00000000000E+00 -0.45593999997E+02  0.45594000000E+02  0.51100000000E-03 0.  1.
    9900012    2    1    2    0    0 -0.20579502069E+01 -0.42472864604E+02  0.86858298431E+01  0.47787273891E+02  0.20000012978E+02 0.  0.
         12    1    1    2    0    0  0.20579502069E+01  0.42472864604E+02 -0.86858298431E+01  0.43400726109E+02  0.00000000000E+00 0. -1.
         11    1    3    3    0    0 -0.19650268690E+01 -0.44811969028E+01  0.42205936268E+01  0.64618779856E+01  0.51100000000E-03 0. -1.
        -11    1    3    3    0    0  0.66807568783E+01 -0.99283273546E+01  0.33833134841E+01  0.12435875800E+02  0.51100000000E-03 0.  1.
        -12    1    3    3    0    0 -0.67736802161E+01 -0.28063340347E+02  0.10819227323E+01  0.28889520105E+02  0.00000000000E+00 0.  1.
</event>
<event>
 7    1  0.5038211E-009  0.4778728E+02  0.7816164E-02  0.1312668E+00
        -11   -1    0    0    0    0  0.00000000000E+00  0.00000000000E+00  0.45593999997E+02  0.45594000000E+02  0.51100000000E-03 0.  1.
         11   -1    0    0    0    0 -0.00000000000E+00 -0.00000000000E+00 -0.45593999997E+02  0.45594000000E+02  0.51100000000E-03 0. -1.
    9900012    2    1    2    0    0 -0.79731894004E+01 -0.19949106232E+02  0.37710526208E+02  0.47787281393E+02  0.20000047185E+02 0.  0.
         12    1    1    2    0    0  0.79731894004E+01  0.19949106232E+02 -0.37710526208E+02  0.43400718607E+02  0.00000000000E+00 0. -1.
         11    1    3    3    0    0 -0.32748397188E+01 -0.13054518245E+02  0.15115431618E+02  0.20239103119E+02  0.51100000000E-03 0. -1.
        -11    1    3    3    0    0  0.68212771897E+00  0.30879661884E+01  0.10510559542E+02  0.10976005446E+02  0.51100000000E-03 0.  1.
        -12    1    3    3    0    0 -0.53804774006E+01 -0.99825541750E+01  0.12084535048E+02  0.16572172828E+02  0.00000000000E+00 0.  1.
</event>
<event>
 7    1  0.5038211E-009  0.4778727E+02  0.7816164E-02  0.1312668E+00
        -11   -1    0    0    0    0  0.00000000000E+00  0.00000000000E+00  0.45593999997E+02  0.45594000000E+02  0.51100000000E-03 0. -1.
         11   -1    0    0    0    0 -0.00000000000E+00 -0.00000000000E+00 -0.45593999997E+02  0.45594000000E+02  0.51100000000E-03 0.  1.
    9900012    2    1    2    0    0  0.40320894077E+02 -0.97195489849E+01  0.12781989522E+02  0.47787269732E+02  0.19999994017E+02 0.  0.
         12    1    1    2    0    0 -0.40320894077E+02  0.97195489849E+01 -0.12781989522E+02  0.43400730268E+02  0.00000000000E+00 0. -1.
         11    1    3    3    0    0  0.14803998112E+02  0.37772711465E+01  0.56785119072E+00  0.15288838826E+02  0.51100000000E-03 0. -1.
        -11    1    3    3    0    0  0.67319487529E+01 -0.75358849105E+01  0.63580656074E+01  0.11938747586E+02  0.51100000000E-03 0.  1.
        -12    1    3    3    0    0  0.18784947213E+02 -0.59609352209E+01  0.58560727235E+01  0.20559683320E+02  0.00000000000E+00 0.  1.
</event>
<event>
 7    1  0.5038211E-009  0.4778727E+02  0.7816164E-02  0.1312668E+00
        -11   -1    0    0    0    0  0.00000000000E+00  0.00000000000E+00  0.45593999997E+02  0.45594000000E+02  0.51100000000E-03 0. -1.
         11   -1    0    0    0    0 -0.00000000000E+00 -0.00000000000E+00 -0.45593999997E+02  0.45594000000E+02  0.51100000000E-03 0.  1.
    9900012    2    1    2    0    0  0.76525512487E+01 -0.37748939818E+02  0.20001983788E+02  0.47787270127E+02  0.19999995819E+02 0.  0.
         12    1    1    2    0    0 -0.76525512487E+01  0.37748939818E+02 -0.20001983788E+02  0.43400729873E+02  0.00000000000E+00 0. -1.
         11    1    3    3    0    0  0.99122417872E+01 -0.18535462535E+02  0.92214915853E+01  0.22953252840E+02  0.51100000000E-03 0. -1.
        -11    1    3    3    0    0 -0.20892903815E+01 -0.92784122717E+01 -0.83611713190E+00  0.95474164411E+01  0.51100000000E-03 0.  1.
         12    1    3    3    0    0 -0.17040015705E+00 -0.99350650120E+01  0.11616609334E+02  0.15286600846E+02  0.00000000000E+00 0. -1.
</event>
<event>
 7    1  0.5038211E-009  0.4778727E+02  0.7816164E-02  0.1312668E+00
        -11   -1    0    0    0    0  0.00000000000E+00  0.00000000000E+00  0.45593999997E+02  0.45594000000E+02  0.51100000000E-03 0. -1.
         11   -1    0    0    0    0 -0.00000000000E+00 -0.00000000000E+00 -0.45593999997E+02  0.45594000000E+02  0.51100000000E-03 0.  1.
    9900012    2    1    2    0    0  0.29372578770E+02 -0.24220040838E+02 -0.20839022403E+02  0.47787267097E+02  0.19999982004E+02 0.  0.
         12    1    1    2    0    0 -0.29372578770E+02  0.24220040838E+02  0.20839022403E+02  0.43400732903E+02  0.00000000000E+00 0. -1.
         11    1    3    3    0    0  0.35695613746E+01  0.22469633473E+00  0.23469546133E+01  0.42779028820E+01  0.51100000000E-03 0. -1.
        -11    1    3    3    0    0  0.94721616787E+01 -0.15490055687E+02 -0.12398554518E+02  0.21986082563E+02  0.51100000000E-03 0.  1.
         12    1    3    3    0    0  0.16330855717E+02 -0.89546814855E+01 -0.10787422498E+02  0.21523281652E+02  0.00000000000E+00 0. -1.
</event>
<event>
 7    1  0.5038211E-009  0.4778727E+02  0.7816164E-02  0.1312668E+00
        -11   -1    0    0    0    0  0.00000000000E+00  0.00000000000E+00  0.45593999997E+02  0.45594000000E+02  0.51100000000E-03 0. -1.
         11   -1    0    0    0    0 -0.00000000000E+00 -0.00000000000E+00 -0.45593999997E+02  0.45594000000E+02  0.51100000000E-03 0.  1.
    9900012    2    1    2    0    0 -0.33998885226E+02 -0.32041656539E+01 -0.26784931299E+02  0.47787269375E+02  0.19999992386E+02 0.  0.
         12    1    1    2    0    0  0.33998885226E+02  0.32041656539E+01  0.26784931299E+02  0.43400730625E+02  0.00000000000E+00 0. -1.
         11    1    3    3    0    0 -0.30818406548E+02 -0.74991932073E+01 -0.18891322533E+02  0.36917396282E+02  0.51100000000E-03 0. -1.
        -11    1    3    3    0    0  0.11761642235E+01  0.63914873651E+00 -0.32931649172E+01  0.35548289440E+01  0.51100000000E-03 0.  1.
         12    1    3    3    0    0 -0.43566429012E+01  0.36558788169E+01 -0.46004438487E+01  0.73150441487E+01  0.00000000000E+00 0. -1.
</event>
<event>
 7    1  0.5038211E-009  0.4778727E+02  0.7816164E-02  0.1312668E+00
        -11   -1    0    0    0    0  0.00000000000E+00  0.00000000000E+00  0.45593999997E+02  0.45594000000E+02  0.51100000000E-03 0.  1.
         11   -1    0    0    0    0 -0.00000000000E+00 -0.00000000000E+00 -0.45593999997E+02  0.45594000000E+02  0.51100000000E-03 0. -1.
    9900012    2    1    2    0    0  0.33976083126E+02  0.21761822843E+02  0.15989742731E+02  0.47787273846E+02  0.20000012774E+02 0.  0.
         12    1    1    2    0    0 -0.33976083126E+02 -0.21761822843E+02 -0.15989742731E+02  0.43400726154E+02  0.00000000000E+00 0. -1.
         11    1    3    3    0    0  0.18174037047E+02  0.60185961436E+01  0.43871254462E+01  0.19640926456E+02  0.51100000000E-03 0. -1.
        -11    1    3    3    0    0  0.93758333814E+01  0.86751664366E+01  0.13303865184E+02  0.18443361770E+02  0.51100000000E-03 0.  1.
        -12    1    3    3    0    0  0.64262126979E+01  0.70680602633E+01 -0.17012478984E+01  0.97029856197E+01  0.00000000000E+00 0.  1.
</event>
<event>
 7    1  0.5038211E-009  0.4778727E+02  0.7816164E-02  0.1312668E+00
        -11   -1    0    0    0    0  0.00000000000E+00  0.00000000000E+00  0.45593999997E+02  0.45594000000E+02  0.51100000000E-03 0.  1.
         11   -1    0    0    0    0 -0.00000000000E+00 -0.00000000000E+00 -0.45593999997E+02  0.45594000000E+02  0.51100000000E-03 0. -1.
    9900012    2    1    2    0    0  0.96947066657E+00  0.31495269126E+01  0.43275440360E+02  0.47787272685E+02  0.20000007480E+02 0.  0.
         12    1    1    2    0    0 -0.96947066657E+00 -0.31495269126E+01 -0.43275440360E+02  0.43400727315E+02  0.00000000000E+00 0. -1.
         11    1    3    3    0    0  0.20958674674E+01 -0.54567364388E+01  0.62507478118E+01  0.85580652878E+01  0.51100000000E-03 0. -1.
        -11    1    3    3    0    0 -0.23381781693E+01  0.33047157763E+01  0.30353447940E+02  0.30622214578E+02  0.51100000000E-03 0.  1.
         12    1    3    3    0    0  0.12117813685E+01  0.53015475752E+01  0.66712446075E+01  0.86069928192E+01  0.00000000000E+00 0. -1.
</event>
<event>
 7    1  0.5038211E-009  0.4778727E+02  0.7816164E-02  0.1312668E+00
        -11   -1    0    0    0    0  0.00000000000E+00  0.00000000000E+00  0.45593999997E+02  0.45594000000E+02  0.51100000000E-03 0. -1.
         11   -1    0    0    0    0 -0.00000000000E+00 -0.00000000000E+00 -0.45593999997E+02  0.45594000000E+02  0.51100000000E-03 0.  1.
    9900012    2    1    2    0    0  0.14751514017E+02  0.31157103907E+02 -0.26367607519E+02  0.47787274016E+02  0.20000013549E+02 0.  0.
         12    1    1    2    0    0 -0.14751514017E+02 -0.31157103907E+02  0.26367607519E+02  0.43400725984E+02  0.00000000000E+00 0. -1.
         11    1    3    3    0    0 -0.66734559876E+00 -0.13704023904E+01 -0.38127662268E+01  0.41061587184E+01  0.51100000000E-03 0. -1.
        -11    1    3    3    0    0  0.21191003330E+01  0.13772515496E+02 -0.11968719089E+02  0.18369077446E+02  0.51100000000E-03 0.  1.
         12    1    3    3    0    0  0.13299759283E+02  0.18754990801E+02 -0.10586122203E+02  0.25312037852E+02  0.00000000000E+00 0. -1.
</event>
<event>
 7    1  0.5038211E-009  0.4778727E+02  0.7816164E-02  0.1312668E+00
        -11   -1    0    0    0    0  0.00000000000E+00  0.00000000000E+00  0.45593999997E+02  0.45594000000E+02  0.51100000000E-03 0.  1.
         11   -1    0    0    0    0 -0.00000000000E+00 -0.00000000000E+00 -0.45593999997E+02  0.45594000000E+02  0.51100000000E-03 0. -1.
    9900012    2    1    2    0    0 -0.67478494015E+01 -0.34419346725E+02  0.25561658830E+02  0.47787270713E+02  0.19999998488E+02 0.  0.
         12    1    1    2    0    0  0.67478494015E+01  0.34419346725E+02 -0.25561658830E+02  0.43400729287E+02  0.00000000000E+00 0. -1.
         11    1    3    3    0    0 -0.61883306979E+01 -0.22177339885E+01  0.29644691620E+01  0.72112314166E+01  0.51100000000E-03 0. -1.
        -11    1    3    3    0    0  0.19633687872E+01 -0.24474447034E+02  0.12313533663E+02  0.27467735367E+02  0.51100000000E-03 0.  1.
        -12    1    3    3    0    0 -0.25228874908E+01 -0.77271657018E+01  0.10283656005E+02  0.13108303929E+02  0.00000000000E+00 0.  1.
</event>
<event>
 7    1  0.5038211E-009  0.4778727E+02  0.7816164E-02  0.1312668E+00
        -11   -1    0    0    0    0  0.00000000000E+00  0.00000000000E+00  0.45593999997E+02  0.45594000000E+02  0.51100000000E-03 0.  1.
         11   -1    0    0    0    0 -0.00000000000E+00 -0.00000000000E+00 -0.45593999997E+02  0.45594000000E+02  0.51100000000E-03 0. -1.
    9900012    2    1    2    0    0 -0.10494081170E+02 -0.87672935692E+01  0.41190193878E+02  0.47787271345E+02  0.20000001370E+02 0.  0.
         12    1    1    2    0    0  0.10494081170E+02  0.87672935692E+01 -0.41190193878E+02  0.43400728655E+02  0.00000000000E+00 0. -1.
         11    1    3    3    0    0  0.29879697099E+01 -0.16255685118E+01  0.46661023923E-01  0.34018544187E+01  0.51100000000E-03 0. -1.
        -11    1    3    3    0    0 -0.10230937548E+02 -0.49959629302E+01  0.21188952040E+02  0.24054176717E+02  0.51100000000E-03 0.  1.
         12    1    3    3    0    0 -0.32511133321E+01 -0.21457621272E+01  0.19954580814E+02  0.20331240209E+02  0.00000000000E+00 0. -1.
</event>
<event>
 7    1  0.5038211E-009  0.4778726E+02  0.7816164E-02  0.1312668E+00
        -11   -1    0    0    0    0  0.00000000000E+00  0.00000000000E+00  0.45593999997E+02  0.45594000000E+02  0.51100000000E-03 0. -1.
         11   -1    0    0    0    0 -0.00000000000E+00 -0.00000000000E+00 -0.45593999997E+02  0.45594000000E+02  0.51100000000E-03 0.  1.
    9900012    2    1    2    0    0 -0.81440322265E+01  0.23778717628E+02 -0.35381794705E+02  0.47787261879E+02  0.19999958211E+02 0.  0.
         12    1    1    2    0    0  0.81440322265E+01 -0.23778717628E+02  0.35381794705E+02  0.43400738121E+02  0.00000000000E+00 0. -1.
         11    1    3    3    0    0 -0.72665568853E+01  0.85470660713E+01 -0.71403650621E+01  0.13298120201E+02  0.51100000000E-03 0. -1.
        -11    1    3    3    0    0  0.10732153732E+01  0.17041348758E+02 -0.23442631280E+02  0.29002005454E+02  0.51100000000E-03 0.  1.
        -12    1    3    3    0    0 -0.19506907144E+01 -0.18096972014E+01 -0.47987983622E+01  0.54871362244E+01  0.00000000000E+00 0.  1.
</event>
<event>
 7    1  0.5038211E-009  0.4778727E+02  0.7816164E-02  0.1312668E+00
        -11   -1    0    0    0    0  0.00000000000E+00  0.00000000000E+00  0.45593999997E+02  0.45594000000E+02  0.51100000000E-03 0.  1.
         11   -1    0    0    0    0 -0.00000000000E+00 -0.00000000000E+00 -0.45593999997E+02  0.45594000000E+02  0.51100000000E-03 0. -1.
    9900012    2    1    2    0    0 -0.14807035458E+02  0.39937517990E+02  0.83288438165E+01  0.47787270956E+02  0.19999999595E+02 0.  0.
         12    1    1    2    0    0  0.14807035458E+02 -0.39937517990E+02 -0.83288438165E+01  0.43400729044E+02  0.00000000000E+00 0. -1.
         11    1    3    3    0    0  0.43932882070E+00  0.14742784578E+01 -0.28600590607E+01  0.32475290416E+01  0.51100000000E-03 0. -1.
        -11    1    3    3    0    0 -0.13231916049E+02  0.38432225873E+02  0.91298814561E+01  0.41659024515E+02  0.51100000000E-03 0.  1.
         12    1    3    3    0    0 -0.20144482300E+01  0.31013658979E-01  0.20590214212E+01  0.28807173987E+01  0.00000000000E+00 0. -1.
</event>
<event>
 7    1  0.5038211E-009  0.4778727E+02  0.7816164E-02  0.1312668E+00
        -11   -1    0    0    0    0  0.00000000000E+00  0.00000000000E+00  0.45593999997E+02  0.45594000000E+02  0.51100000000E-03 0.  1.
         11   -1    0    0    0    0 -0.00000000000E+00 -0.00000000000E+00 -0.45593999997E+02  0.45594000000E+02  0.51100000000E-03 0. -1.
    9900012    2    1    2    0    0 -0.10077236743E+02  0.14364544586E+02  0.39695496963E+02  0.47787270505E+02  0.19999997541E+02 0.  0.
         12    1    1    2    0    0  0.10077236743E+02 -0.14364544586E+02 -0.39695496963E+02  0.43400729495E+02  0.00000000000E+00 0. -1.
         11    1    3    3    0    0  0.56494545494E+00  0.86747428276E+01  0.26872339434E+02  0.28243458595E+02  0.51100000000E-03 0. -1.
        -11    1    3    3    0    0 -0.71330406509E+01 -0.81364556501E+00  0.48004747733E+01  0.86363676591E+01  0.51100000000E-03 0.  1.
        -12    1    3    3    0    0 -0.35091415473E+01  0.65034473231E+01  0.80226827555E+01  0.10907444251E+02  0.00000000000E+00 0.  1.
</event>
<event>
 7    1  0.5038211E-009  0.4778727E+02  0.7816164E-02  0.1312668E+00
        -11   -1    0    0    0    0  0.00000000000E+00  0.00000000000E+00  0.45593999997E+02  0.45594000000E+02  0.51100000000E-03 0. -1.
         11   -1    0    0    0    0 -0.00000000000E+00 -0.00000000000E+00 -0.45593999997E+02  0.45594000000E+02  0.51100000000E-03 0.  1.
    9900012    2    1    2    0    0 -0.27764550783E+02 -0.25337623715E+01 -0.33261591635E+02  0.47787266019E+02  0.19999977089E+02 0.  0.
         12    1    1    2    0    0  0.27764550783E+02  0.25337623715E+01  0.33261591635E+02  0.43400733981E+02  0.00000000000E+00 0. -1.
         11    1    3    3    0    0 -0.10099576569E+02  0.68352622317E+01 -0.12215786110E+02  0.17261161235E+02  0.51100000000E-03 0. -1.
        -11    1    3    3    0    0 -0.11245582967E+02 -0.10632480989E+02 -0.16033911599E+02  0.22284503802E+02  0.51100000000E-03 0.  1.
        -12    1    3    3    0    0 -0.64193912475E+01  0.12634563863E+01 -0.50118939265E+01  0.82416009828E+01  0.00000000000E+00 0.  1.
</event>
<event>
 7    1  0.5038211E-009  0.4778727E+02  0.7816164E-02  0.1312668E+00
        -11   -1    0    0    0    0  0.00000000000E+00  0.00000000000E+00  0.45593999997E+02  0.45594000000E+02  0.51100000000E-03 0.  1.
         11   -1    0    0    0    0 -0.00000000000E+00 -0.00000000000E+00 -0.45593999997E+02  0.45594000000E+02  0.51100000000E-03 0. -1.
    9900012    2    1    2    0    0 -0.41667263933E+02 -0.30772849926E+01  0.11747032446E+02  0.47787270307E+02  0.19999996640E+02 0.  0.
         12    1    1    2    0    0  0.41667263933E+02  0.30772849926E+01 -0.11747032446E+02  0.43400729693E+02  0.00000000000E+00 0. -1.
         11    1    3    3    0    0 -0.46043890550E+01  0.46253519207E+01  0.45655753135E+01  0.79648450810E+01  0.51100000000E-03 0. -1.
        -11    1    3    3    0    0 -0.24586763465E+02 -0.90256983972E+01  0.75933365568E+01  0.27269597165E+02  0.51100000000E-03 0.  1.
         12    1    3    3    0    0 -0.12476111413E+02  0.13230614840E+01 -0.41187942399E+00  0.12552828061E+02  0.00000000000E+00 0. -1.
</event>
<event>
 7    1  0.5038211E-009  0.4778727E+02  0.7816164E-02  0.1312668E+00
        -11   -1    0    0    0    0  0.00000000000E+00  0.00000000000E+00  0.45593999997E+02  0.45594000000E+02  0.51100000000E-03 0. -1.
         11   -1    0    0    0    0 -0.00000000000E+00 -0.00000000000E+00 -0.45593999997E+02  0.45594000000E+02  0.51100000000E-03 0.  1.
    9900012    2    1    2    0    0  0.17115963699E+02  0.20807923077E+02 -0.34024952979E+02  0.47787270728E+02  0.19999998556E+02 0.  0.
         12    1    1    2    0    0 -0.17115963699E+02 -0.20807923077E+02  0.34024952979E+02  0.43400729272E+02  0.00000000000E+00 0. -1.
         11    1    3    3    0    0  0.13746685331E+00  0.93100972370E+01 -0.47838780468E+01  0.10468156338E+02  0.51100000000E-03 0. -1.
        -11    1    3    3    0    0  0.17164593946E+02  0.12015005275E+02 -0.23229544928E+02  0.31282509409E+02  0.51100000000E-03 0.  1.
        -12    1    3    3    0    0 -0.18609709963E+00 -0.51717943526E+00 -0.60115300040E+01  0.60366049803E+01  0.00000000000E+00 0.  1.
</event>
<event>
 7    1  0.5038211E-009  0.4778725E+02  0.7816164E-02  0.1312668E+00
        -11   -1    0    0    0    0  0.00000000000E+00  0.00000000000E+00  0.45593999997E+02  0.45594000000E+02  0.51100000000E-03 0.  1.
         11   -1    0    0    0    0 -0.00000000000E+00 -0.00000000000E+00 -0.45593999997E+02  0.45594000000E+02  0.51100000000E-03 0. -1.
    9900012    2    1    2    0    0 -0.11537180476E+02  0.10050480331E+02  0.40614116791E+02  0.47787249189E+02  0.19999900352E+02 0.  0.
         12    1    1    2    0    0  0.11537180476E+02 -0.10050480331E+02 -0.40614116791E+02  0.43400750811E+02  0.00000000000E+00 0. -1.
         11    1    3    3    0    0 -0.15118347582E+01  0.37507518481E+00  0.29244298902E+02  0.29285753264E+02  0.51100000000E-03 0.  1.
        -11    1    3    3    0    0 -0.64525361446E+01  0.43916824893E+01  0.40528264772E+01  0.87947427761E+01  0.51100000000E-03 0. -1.
        -12    1    3    3    0    0 -0.35728095730E+01  0.52837226571E+01  0.73169914121E+01  0.97067531485E+01  0.00000000000E+00 0.  1.
</event>
<event>
 7    1  0.5038211E-009  0.4778727E+02  0.7816164E-02  0.1312668E+00
        -11   -1    0    0    0    0  0.00000000000E+00  0.00000000000E+00  0.45593999997E+02  0.45594000000E+02  0.51100000000E-03 0. -1.
         11   -1    0    0    0    0 -0.00000000000E+00 -0.00000000000E+00 -0.45593999997E+02  0.45594000000E+02  0.51100000000E-03 0.  1.
    9900012    2    1    2    0    0 -0.30883919713E+02 -0.30432567239E+02  0.19146102097E+01  0.47787269846E+02  0.19999994536E+02 0.  0.
         12    1    1    2    0    0  0.30883919713E+02  0.30432567239E+02 -0.19146102097E+01  0.43400730154E+02  0.00000000000E+00 0. -1.
         11    1    3    3    0    0 -0.24163382276E+01 -0.10881510804E+02 -0.47436025943E+01  0.12113947897E+02  0.51100000000E-03 0. -1.
        -11    1    3    3    0    0 -0.23895207253E+02 -0.17805949656E+02  0.38958000173E+01  0.30053452894E+02  0.51100000000E-03 0.  1.
         12    1    3    3    0    0 -0.45723742325E+01 -0.17451067794E+01  0.27624127867E+01  0.56198690552E+01  0.00000000000E+00 0. -1.
</event>
<event>
 7    1  0.5038211E-009  0.4778727E+02  0.7816164E-02  0.1312668E+00
        -11   -1    0    0    0    0  0.00000000000E+00  0.00000000000E+00  0.45593999997E+02  0.45594000000E+02  0.51100000000E-03 0.  1.
         11   -1    0    0    0    0 -0.00000000000E+00 -0.00000000000E+00 -0.45593999997E+02  0.45594000000E+02  0.51100000000E-03 0. -1.
    9900012    2    1    2    0    0 -0.90034542958E+01 -0.39204645520E+02  0.16295908564E+02  0.47787273560E+02  0.20000011468E+02 0.  0.
         12    1    1    2    0    0  0.90034542958E+01  0.39204645520E+02 -0.16295908564E+02  0.43400726440E+02  0.00000000000E+00 0. -1.
         11    1    3    3    0    0  0.92065810464E+00 -0.61607970911E+01 -0.31971097293E+01  0.70017528538E+01  0.51100000000E-03 0. -1.
        -11    1    3    3    0    0 -0.48802026412E+01 -0.27802208555E+02  0.13175322953E+02  0.31150735361E+02  0.51100000000E-03 0.  1.
         12    1    3    3    0    0 -0.50439097593E+01 -0.52416398744E+01  0.63176953405E+01  0.96347853452E+01  0.00000000000E+00 0. -1.
</event>
<event>
 7    1  0.5038211E-009  0.4778727E+02  0.7816164E-02  0.1312668E+00
        -11   -1    0    0    0    0  0.00000000000E+00  0.00000000000E+00  0.45593999997E+02  0.45594000000E+02  0.51100000000E-03 0.  1.
         11   -1    0    0    0    0 -0.00000000000E+00 -0.00000000000E+00 -0.45593999997E+02  0.45594000000E+02  0.51100000000E-03 0. -1.
    9900012    2    1    2    0    0 -0.41600032159E+02 -0.14101974745E+01  0.12291137020E+02  0.47787269801E+02  0.19999994331E+02 0.  0.
         12    1    1    2    0    0  0.41600032159E+02  0.14101974745E+01 -0.12291137020E+02  0.43400730199E+02  0.00000000000E+00 0. -1.
         11    1    3    3    0    0 -0.31033169098E+01  0.42942601523E+01 -0.13240919708E+01  0.54611780695E+01  0.51100000000E-03 0. -1.
        -11    1    3    3    0    0 -0.72727919903E+01  0.21122573098E+01  0.47515038143E+01  0.89404654820E+01  0.51100000000E-03 0.  1.
         12    1    3    3    0    0 -0.31223923259E+02 -0.78167149366E+01  0.88637251767E+01  0.33385626250E+02  0.00000000000E+00 0. -1.
</event>
<event>
 7    1  0.5038211E-009  0.4778727E+02  0.7816164E-02  0.1312668E+00
        -11   -1    0    0    0    0  0.00000000000E+00  0.00000000000E+00  0.45593999997E+02  0.45594000000E+02  0.51100000000E-03 0.  1.
         11   -1    0    0    0    0 -0.00000000000E+00 -0.00000000000E+00 -0.45593999997E+02  0.45594000000E+02  0.51100000000E-03 0. -1.
    9900012    2    1    2    0    0 -0.22593361604E+02  0.40468598671E+01  0.36834578271E+02  0.47787271668E+02  0.20000002844E+02 0.  0.
         12    1    1    2    0    0  0.22593361604E+02 -0.40468598671E+01 -0.36834578271E+02  0.43400728332E+02  0.00000000000E+00 0. -1.
         11    1    3    3    0    0 -0.18374005185E+02 -0.16745997255E+01  0.28383963812E+02  0.33853474751E+02  0.51100000000E-03 0. -1.
        -11    1    3    3    0    0  0.41914540187E+00 -0.20039702551E+01  0.19028720020E+01  0.27950852882E+01  0.51100000000E-03 0.  1.
         12    1    3    3    0    0 -0.46385018214E+01  0.77254298477E+01  0.65477424569E+01  0.11138711629E+02  0.00000000000E+00 0. -1.
</event>
<event>
 7    1  0.5038211E-009  0.4778727E+02  0.7816164E-02  0.1312668E+00
        -11   -1    0    0    0    0  0.00000000000E+00  0.00000000000E+00  0.45593999997E+02  0.45594000000E+02  0.51100000000E-03 0.  1.
         11   -1    0    0    0    0 -0.00000000000E+00 -0.00000000000E+00 -0.45593999997E+02  0.45594000000E+02  0.51100000000E-03 0. -1.
    9900012    2    1    2    0    0 -0.41198777908E+01  0.19400823696E+01  0.43161163609E+02  0.47787270090E+02  0.19999995648E+02 0.  0.
         12    1    1    2    0    0  0.41198777908E+01 -0.19400823696E+01 -0.43161163609E+02  0.43400729910E+02  0.00000000000E+00 0. -1.
         11    1    3    3    0    0  0.25475305740E+01 -0.27094625853E+00 -0.59357319862E+00  0.26297629748E+01  0.51100000000E-03 0. -1.
        -11    1    3    3    0    0 -0.45423376124E+01 -0.15955810102E+01  0.35474470203E+02  0.35799675224E+02  0.51100000000E-03 0.  1.
         12    1    3    3    0    0 -0.21250707524E+01  0.38066096382E+01  0.82802666053E+01  0.93578318907E+01  0.00000000000E+00 0. -1.
</event>
<event>
 7    1  0.5038211E-009  0.4778727E+02  0.7816164E-02  0.1312668E+00
        -11   -1    0    0    0    0  0.00000000000E+00  0.00000000000E+00  0.45593999997E+02  0.45594000000E+02  0.51100000000E-03 0.  1.
         11   -1    0    0    0    0 -0.00000000000E+00 -0.00000000000E+00 -0.45593999997E+02  0.45594000000E+02  0.51100000000E-03 0. -1.
    9900012    2    1    2    0    0 -0.17330228298E+02 -0.39789837615E+02  0.23520715490E+00  0.47787270597E+02  0.19999997961E+02 0.  0.
         12    1    1    2    0    0  0.17330228298E+02  0.39789837615E+02 -0.23520715490E+00  0.43400729403E+02  0.00000000000E+00 0. -1.
         11    1    3    3    0    0 -0.79195165605E+01 -0.67918267643E+01  0.63514688527E+01  0.12214287134E+02  0.51100000000E-03 0. -1.
        -11    1    3    3    0    0 -0.10565562734E+02 -0.29132181056E+02 -0.50284940147E+01  0.31394280392E+02  0.51100000000E-03 0.  1.
         12    1    3    3    0    0  0.11548509972E+01 -0.38658297946E+01 -0.10877676831E+01  0.41787030714E+01  0.00000000000E+00 0. -1.
</event>
<event>
 7    1  0.5038211E-009  0.4778727E+02  0.7816164E-02  0.1312668E+00
        -11   -1    0    0    0    0  0.00000000000E+00  0.00000000000E+00  0.45593999997E+02  0.45594000000E+02  0.51100000000E-03 0. -1.
         11   -1    0    0    0    0 -0.00000000000E+00 -0.00000000000E+00 -0.45593999997E+02  0.45594000000E+02  0.51100000000E-03 0.  1.
    9900012    2    1    2    0    0 -0.36833099468E+02 -0.14103635652E+02  0.18111701935E+02  0.47787268416E+02  0.19999988016E+02 0.  0.
         12    1    1    2    0    0  0.36833099468E+02  0.14103635652E+02 -0.18111701935E+02  0.43400731584E+02  0.00000000000E+00 0. -1.
         11    1    3    3    0    0  0.62927364378E+00  0.22482742548E+01  0.20086472459E+01  0.30798354604E+01  0.51100000000E-03 0. -1.
        -11    1    3    3    0    0 -0.87688145778E+01 -0.73313943538E+01  0.25189208164E+01  0.11704119557E+02  0.51100000000E-03 0.  1.
         12    1    3    3    0    0 -0.28693558534E+02 -0.90205155526E+01  0.13584133873E+02  0.33003313398E+02  0.00000000000E+00 0. -1.
</event>
<event>
 7    1  0.5038211E-009  0.4778727E+02  0.7816164E-02  0.1312668E+00
        -11   -1    0    0    0    0  0.00000000000E+00  0.00000000000E+00  0.45593999997E+02  0.45594000000E+02  0.51100000000E-03 0.  1.
         11   -1    0    0    0    0 -0.00000000000E+00 -0.00000000000E+00 -0.45593999997E+02  0.45594000000E+02  0.51100000000E-03 0. -1.
    9900012    2    1    2    0    0 -0.38381265894E+02  0.32118060835E+01  0.20004646783E+02  0.47787272323E+02  0.20000005829E+02 0.  0.
         12    1    1    2    0    0  0.38381265894E+02 -0.32118060835E+01 -0.20004646783E+02  0.43400727677E+02  0.00000000000E+00 0. -1.
         11    1    3    3    0    0 -0.90776588644E+01 -0.10788852811E+01  0.12241529735E+02  0.15278184919E+02  0.51100000000E-03 0. -1.
        -11    1    3    3    0    0 -0.28200859500E+02  0.13789627789E+01  0.81101381291E+01  0.29376254962E+02  0.51100000000E-03 0.  1.
         12    1    3    3    0    0 -0.11027475301E+01  0.29117285858E+01 -0.34702108111E+00  0.31328324410E+01  0.00000000000E+00 0. -1.
</event>
<event>
 7    1  0.5038211E-009  0.4778727E+02  0.7816164E-02  0.1312668E+00
        -11   -1    0    0    0    0  0.00000000000E+00  0.00000000000E+00  0.45593999997E+02  0.45594000000E+02  0.51100000000E-03 0. -1.
         11   -1    0    0    0    0 -0.00000000000E+00 -0.00000000000E+00 -0.45593999997E+02  0.45594000000E+02  0.51100000000E-03 0.  1.
    9900012    2    1    2    0    0  0.32432432446E+02 -0.19045471847E+02 -0.21657114496E+02  0.47787270967E+02  0.19999999648E+02 0.  0.
         12    1    1    2    0    0 -0.32432432446E+02  0.19045471847E+02  0.21657114496E+02  0.43400729033E+02  0.00000000000E+00 0. -1.
         11    1    3    3    0    0 -0.77530243272E+00 -0.23236746464E+01  0.23885176392E+01  0.34213410380E+01  0.51100000000E-03 0. -1.
        -11    1    3    3    0    0  0.24300665936E+02 -0.10968467983E+02 -0.17847498576E+02  0.32083685270E+02  0.51100000000E-03 0.  1.
         12    1    3    3    0    0  0.89070689431E+01 -0.57533292180E+01 -0.61981335591E+01  0.12282244659E+02  0.00000000000E+00 0. -1.
</event>
<event>
 7    1  0.5038211E-009  0.4778727E+02  0.7816164E-02  0.1312668E+00
        -11   -1    0    0    0    0  0.00000000000E+00  0.00000000000E+00  0.45593999997E+02  0.45594000000E+02  0.51100000000E-03 0.  1.
         11   -1    0    0    0    0 -0.00000000000E+00 -0.00000000000E+00 -0.45593999997E+02  0.45594000000E+02  0.51100000000E-03 0. -1.
    9900012    2    1    2    0    0  0.20919126815E+02 -0.14120327591E+02  0.35307646029E+02  0.47787269751E+02  0.19999994103E+02 0.  0.
         12    1    1    2    0    0 -0.20919126815E+02  0.14120327591E+02 -0.35307646029E+02  0.43400730249E+02  0.00000000000E+00 0. -1.
         11    1    3    3    0    0  0.15028780282E+02 -0.15372290318E+02  0.19197342609E+02  0.28822031675E+02  0.51100000000E-03 0. -1.
        -11    1    3    3    0    0  0.78003478679E+01  0.16885829766E+00  0.12897346580E+02  0.15073668732E+02  0.51100000000E-03 0.  1.
         12    1    3    3    0    0 -0.19100013343E+01  0.10831044288E+01  0.32129568403E+01  0.38915693439E+01  0.00000000000E+00 0. -1.
</event>
<event>
 7    1  0.5038211E-009  0.4778728E+02  0.7816164E-02  0.1312668E+00
        -11   -1    0    0    0    0  0.00000000000E+00  0.00000000000E+00  0.45593999997E+02  0.45594000000E+02  0.51100000000E-03 0. -1.
         11   -1    0    0    0    0 -0.00000000000E+00 -0.00000000000E+00 -0.45593999997E+02  0.45594000000E+02  0.51100000000E-03 0.  1.
    9900012    2    1    2    0    0  0.30461259209E+02 -0.24801792518E+02 -0.18455504601E+02  0.47787275642E+02  0.20000020964E+02 0.  0.
         12    1    1    2    0    0 -0.30461259209E+02  0.24801792518E+02  0.18455504601E+02  0.43400724358E+02  0.00000000000E+00 0. -1.
         11    1    3    3    0    0  0.57482312314E+01  0.20082590404E+01 -0.67873258552E+01  0.91182815918E+01  0.51100000000E-03 0. -1.
        -11    1    3    3    0    0  0.16856615267E+02 -0.17962812674E+02 -0.10505096009E+02  0.26779939504E+02  0.51100000000E-03 0.  1.
         12    1    3    3    0    0  0.78564127106E+01 -0.88472388842E+01 -0.11630827369E+01  0.11889054546E+02  0.00000000000E+00 0. -1.
</event>
<event>
 7    1  0.5038211E-009  0.4778727E+02  0.7816164E-02  0.1312668E+00
        -11   -1    0    0    0    0  0.00000000000E+00  0.00000000000E+00  0.45593999997E+02  0.45594000000E+02  0.51100000000E-03 0. -1.
         11   -1    0    0    0    0 -0.00000000000E+00 -0.00000000000E+00 -0.45593999997E+02  0.45594000000E+02  0.51100000000E-03 0.  1.
    9900012    2    1    2    0    0 -0.42704968742E+02  0.68895824052E+00  0.77093478331E+01  0.47787273477E+02  0.20000011093E+02 0.  0.
         12    1    1    2    0    0  0.42704968742E+02 -0.68895824052E+00 -0.77093478331E+01  0.43400726523E+02  0.00000000000E+00 0. -1.
         11    1    3    3    0    0 -0.26023877265E+02  0.63423739199E+01  0.92940138224E+01  0.28352188417E+02  0.51100000000E-03 0. -1.
        -11    1    3    3    0    0 -0.32090933104E+01  0.17206514850E+01  0.11849653473E+01  0.38292381152E+01  0.51100000000E-03 0.  1.
         12    1    3    3    0    0 -0.13471998167E+02 -0.73740671644E+01 -0.27696313366E+01  0.15605846945E+02  0.00000000000E+00 0. -1.
</event>
<event>
 7    1  0.5038211E-009  0.4778727E+02  0.7816164E-02  0.1312668E+00
        -11   -1    0    0    0    0  0.00000000000E+00  0.00000000000E+00  0.45593999997E+02  0.45594000000E+02  0.51100000000E-03 0.  1.
         11   -1    0    0    0    0 -0.00000000000E+00 -0.00000000000E+00 -0.45593999997E+02  0.45594000000E+02  0.51100000000E-03 0. -1.
    9900012    2    1    2    0    0 -0.38728623364E+02  0.16368774747E+02  0.10760124838E+02  0.47787270272E+02  0.19999996477E+02 0.  0.
         12    1    1    2    0    0  0.38728623364E+02 -0.16368774747E+02 -0.10760124838E+02  0.43400729728E+02  0.00000000000E+00 0. -1.
         11    1    3    3    0    0 -0.22267495265E+02  0.82107131966E+01  0.20293478466E+01  0.23819643354E+02  0.51100000000E-03 0. -1.
        -11    1    3    3    0    0 -0.56632229789E+01  0.98705496554E+01  0.47775079424E+01  0.12341978262E+02  0.51100000000E-03 0.  1.
         12    1    3    3    0    0 -0.10797905121E+02 -0.17124881047E+01  0.39532690486E+01  0.11625648656E+02  0.00000000000E+00 0. -1.
</event>
<event>
 7    1  0.5038211E-009  0.4778728E+02  0.7816164E-02  0.1312668E+00
        -11   -1    0    0    0    0  0.00000000000E+00  0.00000000000E+00  0.45593999997E+02  0.45594000000E+02  0.51100000000E-03 0.  1.
         11   -1    0    0    0    0 -0.00000000000E+00 -0.00000000000E+00 -0.45593999997E+02  0.45594000000E+02  0.51100000000E-03 0. -1.
    9900012    2    1    2    0    0 -0.43322441726E+01  0.37468051175E+02  0.21470898351E+02  0.47787277950E+02  0.20000031485E+02 0.  0.
         12    1    1    2    0    0  0.43322441726E+01 -0.37468051175E+02 -0.21470898351E+02  0.43400722050E+02  0.00000000000E+00 0. -1.
         11    1    3    3    0    0 -0.80802145380E+00  0.15312737752E+01  0.14331023091E+01  0.22475498958E+01  0.51100000000E-03 0. -1.
        -11    1    3    3    0    0 -0.77903983451E+01  0.42258670125E+01  0.35785555379E+01  0.95579453013E+01  0.51100000000E-03 0.  1.
        -12    1    3    3    0    0  0.42661756263E+01  0.31710910388E+02  0.16459240504E+02  0.35981782753E+02  0.00000000000E+00 0.  1.
</event>
<event>
 7    1  0.5038211E-009  0.4778727E+02  0.7816164E-02  0.1312668E+00
        -11   -1    0    0    0    0  0.00000000000E+00  0.00000000000E+00  0.45593999997E+02  0.45594000000E+02  0.51100000000E-03 0.  1.
         11   -1    0    0    0    0 -0.00000000000E+00 -0.00000000000E+00 -0.45593999997E+02  0.45594000000E+02  0.51100000000E-03 0. -1.
    9900012    2    1    2    0    0 -0.11713615009E+02  0.15200296799E+02  0.38927695990E+02  0.47787270577E+02  0.19999997867E+02 0.  0.
         12    1    1    2    0    0  0.11713615009E+02 -0.15200296799E+02 -0.38927695990E+02  0.43400729423E+02  0.00000000000E+00 0. -1.
         11    1    3    3    0    0 -0.34008434128E+01 -0.77344361346E+00 -0.51328231862E+00  0.35252531740E+01  0.51100000000E-03 0. -1.
        -11    1    3    3    0    0 -0.36022071054E+01  0.75988425274E+01  0.88972245128E+01  0.12242504159E+02  0.51100000000E-03 0.  1.
         12    1    3    3    0    0 -0.47105644911E+01  0.83748978855E+01  0.30543753796E+02  0.32019513244E+02  0.00000000000E+00 0. -1.
</event>
<event>
 7    1  0.5038211E-009  0.4778728E+02  0.7816164E-02  0.1312668E+00
        -11   -1    0    0    0    0  0.00000000000E+00  0.00000000000E+00  0.45593999997E+02  0.45594000000E+02  0.51100000000E-03 0. -1.
         11   -1    0    0    0    0 -0.00000000000E+00 -0.00000000000E+00 -0.45593999997E+02  0.45594000000E+02  0.51100000000E-03 0.  1.
    9900012    2    1    2    0    0 -0.33890307219E+02 -0.17593984025E+02 -0.20628174562E+02  0.47787276699E+02  0.20000025780E+02 0.  0.
         12    1    1    2    0    0  0.33890307219E+02  0.17593984025E+02  0.20628174562E+02  0.43400723301E+02  0.00000000000E+00 0. -1.
         11    1    3    3    0    0 -0.19072376150E+02 -0.52048172025E+01 -0.15507051769E+02  0.25125968816E+02  0.51100000000E-03 0.  1.
        -11    1    3    3    0    0 -0.41927167414E+01 -0.32242426793E+01  0.33594744537E+01  0.62658346128E+01  0.51100000000E-03 0. -1.
        -12    1    3    3    0    0 -0.10625214328E+02 -0.91649241435E+01 -0.84805972474E+01  0.16395473270E+02  0.00000000000E+00 0.  1.
</event>
<event>
 7    1  0.5038211E-009  0.4778727E+02  0.7816164E-02  0.1312668E+00
        -11   -1    0    0    0    0  0.00000000000E+00  0.00000000000E+00  0.45593999997E+02  0.45594000000E+02  0.51100000000E-03 0.  1.
         11   -1    0    0    0    0 -0.00000000000E+00 -0.00000000000E+00 -0.45593999997E+02  0.45594000000E+02  0.51100000000E-03 0. -1.
    9900012    2    1    2    0    0  0.35265357435E+02  0.16047341451E+02  0.19556598125E+02  0.47787272669E+02  0.20000007406E+02 0.  0.
         12    1    1    2    0    0 -0.35265357435E+02 -0.16047341451E+02 -0.19556598125E+02  0.43400727331E+02  0.00000000000E+00 0. -1.
         11    1    3    3    0    0  0.17279765576E+02  0.12183823687E+02  0.14467126360E+02  0.25619008634E+02  0.51100000000E-03 0. -1.
        -11    1    3    3    0    0  0.79663588039E+01 -0.29869162432E+01 -0.10396903817E+01  0.85712016419E+01  0.51100000000E-03 0.  1.
        -12    1    3    3    0    0  0.10019233055E+02  0.68504340066E+01  0.61291621472E+01  0.13597062393E+02  0.00000000000E+00 0.  1.
</event>
<event>
 7    1  0.5038211E-009  0.4778727E+02  0.7816164E-02  0.1312668E+00
        -11   -1    0    0    0    0  0.00000000000E+00  0.00000000000E+00  0.45593999997E+02  0.45594000000E+02  0.51100000000E-03 0. -1.
         11   -1    0    0    0    0 -0.00000000000E+00 -0.00000000000E+00 -0.45593999997E+02  0.45594000000E+02  0.51100000000E-03 0.  1.
    9900012    2    1    2    0    0  0.11707364877E+02  0.30132014300E+02 -0.28958978797E+02  0.47787272690E+02  0.20000007501E+02 0.  0.
         12    1    1    2    0    0 -0.11707364877E+02 -0.30132014300E+02  0.28958978797E+02  0.43400727310E+02  0.00000000000E+00 0. -1.
         11    1    3    3    0    0 -0.29926233981E+01  0.11889006272E+02 -0.63236379827E+01  0.13794660653E+02  0.51100000000E-03 0. -1.
        -11    1    3    3    0    0  0.45312006217E+01  0.11086961179E+02 -0.65168078740E+01  0.13635295097E+02  0.51100000000E-03 0.  1.
         12    1    3    3    0    0  0.10168787653E+02  0.71560468496E+01 -0.16118532940E+02  0.20357316940E+02  0.00000000000E+00 0. -1.
</event>
<event>
 7    1  0.5038211E-009  0.4778727E+02  0.7816164E-02  0.1312668E+00
        -11   -1    0    0    0    0  0.00000000000E+00  0.00000000000E+00  0.45593999997E+02  0.45594000000E+02  0.51100000000E-03 0. -1.
         11   -1    0    0    0    0 -0.00000000000E+00 -0.00000000000E+00 -0.45593999997E+02  0.45594000000E+02  0.51100000000E-03 0.  1.
    9900012    2    1    2    0    0  0.13735468927E+02  0.19441386853E+02 -0.36290393721E+02  0.47787270676E+02  0.19999998321E+02 0.  0.
         12    1    1    2    0    0 -0.13735468927E+02 -0.19441386853E+02  0.36290393721E+02  0.43400729324E+02  0.00000000000E+00 0. -1.
         11    1    3    3    0    0 -0.60994340672E+00  0.66177588880E+01 -0.41192955760E+00  0.66585621481E+01  0.51100000000E-03 0. -1.
        -11    1    3    3    0    0  0.10172585896E+02  0.54603477960E+01 -0.22684103419E+02  0.25453201175E+02  0.51100000000E-03 0.  1.
         12    1    3    3    0    0  0.41728264383E+01  0.73632801690E+01 -0.13194360744E+02  0.15675507353E+02  0.00000000000E+00 0. -1.
</event>
<event>
 7    1  0.5038211E-009  0.4778727E+02  0.7816164E-02  0.1312668E+00
        -11   -1    0    0    0    0  0.00000000000E+00  0.00000000000E+00  0.45593999997E+02  0.45594000000E+02  0.51100000000E-03 0.  1.
         11   -1    0    0    0    0 -0.00000000000E+00 -0.00000000000E+00 -0.45593999997E+02  0.45594000000E+02  0.51100000000E-03 0. -1.
    9900012    2    1    2    0    0  0.20651797048E+02  0.33544539422E+02  0.18217859779E+02  0.47787271190E+02  0.20000000663E+02 0.  0.
         12    1    1    2    0    0 -0.20651797048E+02 -0.33544539422E+02 -0.18217859779E+02  0.43400728810E+02  0.00000000000E+00 0. -1.
         11    1    3    3    0    0  0.16439216160E+01 -0.65639070753E-01 -0.30390737436E+01  0.34558293140E+01  0.51100000000E-03 0. -1.
        -11    1    3    3    0    0  0.16261794300E+02  0.29052185933E+02  0.20083944584E+02  0.38882390508E+02  0.51100000000E-03 0.  1.
         12    1    3    3    0    0  0.27460811317E+01  0.45579925599E+01  0.11729889389E+01  0.54490513678E+01  0.00000000000E+00 0. -1.
</event>
<event>
 7    1  0.5038211E-009  0.4778727E+02  0.7816164E-02  0.1312668E+00
        -11   -1    0    0    0    0  0.00000000000E+00  0.00000000000E+00  0.45593999997E+02  0.45594000000E+02  0.51100000000E-03 0.  1.
         11   -1    0    0    0    0 -0.00000000000E+00 -0.00000000000E+00 -0.45593999997E+02  0.45594000000E+02  0.51100000000E-03 0. -1.
    9900012    2    1    2    0    0  0.33143337279E+02 -0.13846870554E+02  0.24359937856E+02  0.47787271867E+02  0.20000003751E+02 0.  0.
         12    1    1    2    0    0 -0.33143337279E+02  0.13846870554E+02 -0.24359937856E+02  0.43400728133E+02  0.00000000000E+00 0. -1.
         11    1    3    3    0    0  0.38206702083E+01 -0.51357435666E+01  0.42348745732E+01  0.76751251283E+01  0.51100000000E-03 0. -1.
        -11    1    3    3    0    0  0.10914846473E+02 -0.56705714199E+01  0.17323084784E+02  0.21245670628E+02  0.51100000000E-03 0.  1.
        -12    1    3    3    0    0  0.18407820598E+02 -0.30405555679E+01  0.28019784989E+01  0.18866476111E+02  0.00000000000E+00 0.  1.
</event>
<event>
 7    1  0.5038211E-009  0.4778727E+02  0.7816164E-02  0.1312668E+00
        -11   -1    0    0    0    0  0.00000000000E+00  0.00000000000E+00  0.45593999997E+02  0.45594000000E+02  0.51100000000E-03 0. -1.
         11   -1    0    0    0    0 -0.00000000000E+00 -0.00000000000E+00 -0.45593999997E+02  0.45594000000E+02  0.51100000000E-03 0.  1.
    9900012    2    1    2    0    0 -0.24092500851E+02 -0.53422294013E+01 -0.35702036595E+02  0.47787269254E+02  0.19999991837E+02 0.  0.
         12    1    1    2    0    0  0.24092500851E+02  0.53422294013E+01  0.35702036595E+02  0.43400730746E+02  0.00000000000E+00 0. -1.
         11    1    3    3    0    0 -0.19320013022E+02  0.24690410588E+01 -0.27688959218E+02  0.33853176066E+02  0.51100000000E-03 0. -1.
        -11    1    3    3    0    0 -0.33288690456E+01 -0.89348494706E+01 -0.71105513556E+01  0.11894235790E+02  0.51100000000E-03 0.  1.
         12    1    3    3    0    0 -0.14436187840E+01  0.11235790105E+01 -0.90252602184E+00  0.20398573985E+01  0.00000000000E+00 0. -1.
</event>
<event>
 7    1  0.5038211E-009  0.4778728E+02  0.7816164E-02  0.1312668E+00
        -11   -1    0    0    0    0  0.00000000000E+00  0.00000000000E+00  0.45593999997E+02  0.45594000000E+02  0.51100000000E-03 0.  1.
         11   -1    0    0    0    0 -0.00000000000E+00 -0.00000000000E+00 -0.45593999997E+02  0.45594000000E+02  0.51100000000E-03 0. -1.
    9900012    2    1    2    0    0 -0.40917513256E+02  0.14430454470E+02  0.10685328922E+01  0.47787278003E+02  0.20000031728E+02 0.  0.
         12    1    1    2    0    0  0.40917513256E+02 -0.14430454470E+02 -0.10685328922E+01  0.43400721997E+02  0.00000000000E+00 0. -1.
         11    1    3    3    0    0 -0.14974183269E+01  0.27580254777E+01  0.38112017160E+00  0.31613634761E+01  0.51100000000E-03 0. -1.
        -11    1    3    3    0    0 -0.35676328896E+02  0.15778899923E+02 -0.12391810412E+00  0.39010120254E+02  0.51100000000E-03 0.  1.
        -12    1    3    3    0    0 -0.37437660338E+01 -0.41064709300E+01  0.81133082473E+00  0.56157942735E+01  0.00000000000E+00 0.  1.
</event>
<event>
 7    1  0.5038211E-009  0.4778727E+02  0.7816164E-02  0.1312668E+00
        -11   -1    0    0    0    0  0.00000000000E+00  0.00000000000E+00  0.45593999997E+02  0.45594000000E+02  0.51100000000E-03 0.  1.
         11   -1    0    0    0    0 -0.00000000000E+00 -0.00000000000E+00 -0.45593999997E+02  0.45594000000E+02  0.51100000000E-03 0. -1.
    9900012    2    1    2    0    0  0.90182672379E+01 -0.35210502417E+02  0.23717398640E+02  0.47787267026E+02  0.19999981678E+02 0.  0.
         12    1    1    2    0    0 -0.90182672379E+01  0.35210502417E+02 -0.23717398640E+02  0.43400732974E+02  0.00000000000E+00 0. -1.
         11    1    3    3    0    0  0.24004466532E+01 -0.11733717863E+02 -0.19350540521E+01  0.12132053143E+02  0.51100000000E-03 0. -1.
        -11    1    3    3    0    0  0.65869183903E+01 -0.23179852435E+02  0.24123735696E+02  0.34097619814E+02  0.51100000000E-03 0.  1.
         12    1    3    3    0    0  0.30902194409E-01 -0.29693211918E+00  0.15287169961E+01  0.15575940688E+01  0.00000000000E+00 0. -1.
</event>
<event>
 7    1  0.5038211E-009  0.4778727E+02  0.7816164E-02  0.1312668E+00
        -11   -1    0    0    0    0  0.00000000000E+00  0.00000000000E+00  0.45593999997E+02  0.45594000000E+02  0.51100000000E-03 0. -1.
         11   -1    0    0    0    0 -0.00000000000E+00 -0.00000000000E+00 -0.45593999997E+02  0.45594000000E+02  0.51100000000E-03 0.  1.
    9900012    2    1    2    0    0 -0.37608814903E+02  0.19838496137E+02 -0.86967893400E+01  0.47787273829E+02  0.20000012694E+02 0.  0.
         12    1    1    2    0    0  0.37608814903E+02 -0.19838496137E+02  0.86967893400E+01  0.43400726171E+02  0.00000000000E+00 0. -1.
         11    1    3    3    0    0 -0.26085715452E+02  0.15563802381E+02  0.13316863330E+01  0.30405096348E+02  0.51100000000E-03 0. -1.
        -11    1    3    3    0    0 -0.83853562170E+01  0.42089997146E+01 -0.32793237034E+01  0.99390060718E+01  0.51100000000E-03 0.  1.
         12    1    3    3    0    0 -0.31377432341E+01  0.65694041740E-01 -0.67491519697E+01  0.74431714088E+01  0.00000000000E+00 0. -1.
</event>
<event>
 7    1  0.5038211E-009  0.4778727E+02  0.7816164E-02  0.1312668E+00
        -11   -1    0    0    0    0  0.00000000000E+00  0.00000000000E+00  0.45593999997E+02  0.45594000000E+02  0.51100000000E-03 0.  1.
         11   -1    0    0    0    0 -0.00000000000E+00 -0.00000000000E+00 -0.45593999997E+02  0.45594000000E+02  0.51100000000E-03 0. -1.
    9900012    2    1    2    0    0  0.43540837574E+01  0.35531092989E+02  0.24539898552E+02  0.47787271489E+02  0.20000002026E+02 0.  0.
         12    1    1    2    0    0 -0.43540837574E+01 -0.35531092989E+02 -0.24539898552E+02  0.43400728511E+02  0.00000000000E+00 0. -1.
         11    1    3    3    0    0 -0.17508948719E+01  0.53293931056E+00 -0.10273634756E+01  0.20988409024E+01  0.51100000000E-03 0. -1.
        -11    1    3    3    0    0  0.43506513518E+00  0.27584536003E+02  0.23233376475E+02  0.36067792986E+02  0.51100000000E-03 0.  1.
         12    1    3    3    0    0  0.56699134941E+01  0.74136176751E+01  0.23338855526E+01  0.96206376003E+01  0.00000000000E+00 0. -1.
</event>
<event>
 7    1  0.5038211E-009  0.4778727E+02  0.7816164E-02  0.1312668E+00
        -11   -1    0    0    0    0  0.00000000000E+00  0.00000000000E+00  0.45593999997E+02  0.45594000000E+02  0.51100000000E-03 0. -1.
         11   -1    0    0    0    0 -0.00000000000E+00 -0.00000000000E+00 -0.45593999997E+02  0.45594000000E+02  0.51100000000E-03 0.  1.
    9900012    2    1    2    0    0  0.16963715430E+02  0.21909948644E+02 -0.33403740581E+02  0.47787269873E+02  0.19999994657E+02 0.  0.
         12    1    1    2    0    0 -0.16963715430E+02 -0.21909948644E+02  0.33403740581E+02  0.43400730127E+02  0.00000000000E+00 0. -1.
         11    1    3    3    0    0 -0.30404005299E+01  0.63859286860E-01 -0.63653354161E+01  0.70544743682E+01  0.51100000000E-03 0. -1.
        -11    1    3    3    0    0  0.19753975304E+02  0.18445747614E+02 -0.23440493700E+02  0.35775996010E+02  0.51100000000E-03 0.  1.
        -12    1    3    3    0    0  0.25014065611E+00  0.34003417434E+01 -0.35979114653E+01  0.49567994949E+01  0.00000000000E+00 0.  1.
</event>
<event>
 7    1  0.5038211E-009  0.4778728E+02  0.7816164E-02  0.1312668E+00
        -11   -1    0    0    0    0  0.00000000000E+00  0.00000000000E+00  0.45593999997E+02  0.45594000000E+02  0.51100000000E-03 0. -1.
         11   -1    0    0    0    0 -0.00000000000E+00 -0.00000000000E+00 -0.45593999997E+02  0.45594000000E+02  0.51100000000E-03 0.  1.
    9900012    2    1    2    0    0 -0.41429781958E+02  0.95833560929E+01 -0.86807421411E+01  0.47787276144E+02  0.20000023250E+02 0.  0.
         12    1    1    2    0    0  0.41429781958E+02 -0.95833560929E+01  0.86807421411E+01  0.43400723856E+02  0.00000000000E+00 0. -1.
         11    1    3    3    0    0 -0.14660810800E+02 -0.89874042516E+00 -0.11634677112E+02  0.18738004681E+02  0.51100000000E-03 0. -1.
        -11    1    3    3    0    0 -0.27438681885E+01  0.20588828471E+01  0.11225488489E+00  0.34322605720E+01  0.51100000000E-03 0.  1.
         12    1    3    3    0    0 -0.24025102970E+02  0.84232136709E+01  0.28416800860E+01  0.25617010891E+02  0.00000000000E+00 0. -1.
</event>
<event>
 7    1  0.5038211E-009  0.4778727E+02  0.7816164E-02  0.1312668E+00
        -11   -1    0    0    0    0  0.00000000000E+00  0.00000000000E+00  0.45593999997E+02  0.45594000000E+02  0.51100000000E-03 0.  1.
         11   -1    0    0    0    0 -0.00000000000E+00 -0.00000000000E+00 -0.45593999997E+02  0.45594000000E+02  0.51100000000E-03 0. -1.
    9900012    2    1    2    0    0 -0.11409378223E+02 -0.26511466313E+02  0.32412834105E+02  0.47787267608E+02  0.19999984330E+02 0.  0.
         12    1    1    2    0    0  0.11409378223E+02  0.26511466313E+02 -0.32412834105E+02  0.43400732392E+02  0.00000000000E+00 0. -1.
         11    1    3    3    0    0  0.21595325779E+01  0.12758080652E+01  0.66752717558E+01  0.71309550868E+01  0.51100000000E-03 0. -1.
        -11    1    3    3    0    0 -0.61460364905E+01 -0.18330505304E+02  0.14144215166E+02  0.23954957987E+02  0.51100000000E-03 0.  1.
         12    1    3    3    0    0 -0.74228743107E+01 -0.94567690741E+01  0.11593347183E+02  0.16701354534E+02  0.00000000000E+00 0. -1.
</event>
<event>
 7    1  0.5038211E-009  0.4778732E+02  0.7816164E-02  0.1312668E+00
        -11   -1    0    0    0    0  0.00000000000E+00  0.00000000000E+00  0.45593999997E+02  0.45594000000E+02  0.51100000000E-03 0.  1.
         11   -1    0    0    0    0 -0.00000000000E+00 -0.00000000000E+00 -0.45593999997E+02  0.45594000000E+02  0.51100000000E-03 0. -1.
    9900012    2    1    2    0    0  0.15285926009E+02  0.31939380844E+02  0.25096525779E+02  0.47787318107E+02  0.20000214574E+02 0.  0.
         12    1    1    2    0    0 -0.15285926009E+02 -0.31939380844E+02 -0.25096525779E+02  0.43400681893E+02  0.00000000000E+00 0. -1.
         11    1    3    3    0    0  0.16110954666E+02  0.23117237484E+02  0.13002665023E+02  0.31032866885E+02  0.51100000000E-03 0.  1.
        -11    1    3    3    0    0 -0.71133492552E+00  0.91791837456E+01  0.67958518928E+01  0.11443208240E+02  0.51100000000E-03 0. -1.
        -12    1    3    3    0    0 -0.11369373129E+00 -0.35704038542E+00  0.52980088630E+01  0.53112429820E+01  0.00000000000E+00 0.  1.
</event>
<event>
 7    1  0.5038211E-009  0.4778727E+02  0.7816164E-02  0.1312668E+00
        -11   -1    0    0    0    0  0.00000000000E+00  0.00000000000E+00  0.45593999997E+02  0.45594000000E+02  0.51100000000E-03 0. -1.
         11   -1    0    0    0    0 -0.00000000000E+00 -0.00000000000E+00 -0.45593999997E+02  0.45594000000E+02  0.51100000000E-03 0.  1.
    9900012    2    1    2    0    0 -0.42959191401E+02  0.47590801192E+01 -0.39347482871E+01  0.47787271740E+02  0.20000003171E+02 0.  0.
         12    1    1    2    0    0  0.42959191401E+02 -0.47590801192E+01  0.39347482871E+01  0.43400728260E+02  0.00000000000E+00 0. -1.
         11    1    3    3    0    0 -0.58724895247E+01 -0.50510091528E+01  0.59255392065E+00  0.77685228383E+01  0.51100000000E-03 0. -1.
        -11    1    3    3    0    0 -0.26832088654E+02  0.11734042417E+02 -0.41516309827E+01  0.29578451161E+02  0.51100000000E-03 0.  1.
        -12    1    3    3    0    0 -0.10254613222E+02 -0.19239531452E+01 -0.37567122505E+00  0.10440297740E+02  0.00000000000E+00 0.  1.
</event>
<event>
 7    1  0.5038211E-009  0.4778727E+02  0.7816164E-02  0.1312668E+00
        -11   -1    0    0    0    0  0.00000000000E+00  0.00000000000E+00  0.45593999997E+02  0.45594000000E+02  0.51100000000E-03 0.  1.
         11   -1    0    0    0    0 -0.00000000000E+00 -0.00000000000E+00 -0.45593999997E+02  0.45594000000E+02  0.51100000000E-03 0. -1.
    9900012    2    1    2    0    0 -0.30442835755E+02 -0.29810283936E+02 -0.82585713247E+01  0.47787271003E+02  0.19999999810E+02 0.  0.
         12    1    1    2    0    0  0.30442835755E+02  0.29810283936E+02  0.82585713247E+01  0.43400728997E+02  0.00000000000E+00 0. -1.
         11    1    3    3    0    0 -0.29857027941E+01  0.16786240046E+01 -0.42189176480E+01  0.54342861634E+01  0.51100000000E-03 0. -1.
        -11    1    3    3    0    0 -0.10462521626E+02 -0.14390572048E+02 -0.40430230610E+01  0.18245518857E+02  0.51100000000E-03 0.  1.
         12    1    3    3    0    0 -0.16994611335E+02 -0.17098335893E+02  0.33693843217E-02  0.24107465982E+02  0.00000000000E+00 0. -1.
</event>
<event>
 7    1  0.5038211E-009  0.4778727E+02  0.7816164E-02  0.1312668E+00
        -11   -1    0    0    0    0  0.00000000000E+00  0.00000000000E+00  0.45593999997E+02  0.45594000000E+02  0.51100000000E-03 0.  1.
         11   -1    0    0    0    0 -0.00000000000E+00 -0.00000000000E+00 -0.45593999997E+02  0.45594000000E+02  0.51100000000E-03 0. -1.
    9900012    2    1    2    0    0  0.10727118836E+02  0.40206746557E+02  0.12327618238E+02  0.47787265920E+02  0.19999976638E+02 0.  0.
         12    1    1    2    0    0 -0.10727118836E+02 -0.40206746557E+02 -0.12327618238E+02  0.43400734080E+02  0.00000000000E+00 0. -1.
         11    1    3    3    0    0 -0.21478817531E+01  0.11462429081E+02 -0.35886508273E+01  0.12201602005E+02  0.51100000000E-03 0. -1.
        -11    1    3    3    0    0  0.45211317403E+01  0.14891449255E+02  0.91299196365E+01  0.18043040928E+02  0.51100000000E-03 0.  1.
         12    1    3    3    0    0  0.83538688488E+01  0.13852868222E+02  0.67863494284E+01  0.17542622987E+02  0.00000000000E+00 0. -1.
</event>
<event>
 7    1  0.5038211E-009  0.4778728E+02  0.7816164E-02  0.1312668E+00
        -11   -1    0    0    0    0  0.00000000000E+00  0.00000000000E+00  0.45593999997E+02  0.45594000000E+02  0.51100000000E-03 0.  1.
         11   -1    0    0    0    0 -0.00000000000E+00 -0.00000000000E+00 -0.45593999997E+02  0.45594000000E+02  0.51100000000E-03 0. -1.
    9900012    2    1    2    0    0  0.54973404631E+01  0.43012864216E+02  0.18152940898E+01  0.47787279581E+02  0.20000038921E+02 0.  0.
         12    1    1    2    0    0 -0.54973404631E+01 -0.43012864216E+02 -0.18152940898E+01  0.43400720419E+02  0.00000000000E+00 0. -1.
         11    1    3    3    0    0  0.24304263474E+01  0.11344920391E+02 -0.76679636081E+01  0.13907259150E+02  0.51100000000E-03 0. -1.
        -11    1    3    3    0    0 -0.92383446171E+00  0.10570825845E+01  0.13703886807E+01  0.19618509373E+01  0.51100000000E-03 0.  1.
         12    1    3    3    0    0  0.39907485774E+01  0.30610861241E+02  0.81128690173E+01  0.31918169494E+02  0.00000000000E+00 0. -1.
</event>
<event>
 7    1  0.5038211E-009  0.4778727E+02  0.7816164E-02  0.1312668E+00
        -11   -1    0    0    0    0  0.00000000000E+00  0.00000000000E+00  0.45593999997E+02  0.45594000000E+02  0.51100000000E-03 0.  1.
         11   -1    0    0    0    0 -0.00000000000E+00 -0.00000000000E+00 -0.45593999997E+02  0.45594000000E+02  0.51100000000E-03 0. -1.
    9900012    2    1    2    0    0 -0.18781540821E+02 -0.92328910466E+01  0.38021456835E+02  0.47787265760E+02  0.19999975905E+02 0.  0.
         12    1    1    2    0    0  0.18781540821E+02  0.92328910466E+01 -0.38021456835E+02  0.43400734240E+02  0.00000000000E+00 0. -1.
         11    1    3    3    0    0 -0.80734542754E+01 -0.93190818977E+01  0.28554960545E+02  0.31103242972E+02  0.51100000000E-03 0. -1.
        -11    1    3    3    0    0  0.57733592357E+00  0.21777832301E+01  0.13496502870E+01  0.26263306578E+01  0.51100000000E-03 0.  1.
         12    1    3    3    0    0 -0.11285422469E+02 -0.20915923790E+01  0.81168460032E+01  0.14057692130E+02  0.00000000000E+00 0. -1.
</event>
<event>
 7    1  0.5038211E-009  0.4778726E+02  0.7816164E-02  0.1312668E+00
        -11   -1    0    0    0    0  0.00000000000E+00  0.00000000000E+00  0.45593999997E+02  0.45594000000E+02  0.51100000000E-03 0. -1.
         11   -1    0    0    0    0 -0.00000000000E+00 -0.00000000000E+00 -0.45593999997E+02  0.45594000000E+02  0.51100000000E-03 0.  1.
    9900012    2    1    2    0    0  0.40569620181E+02 -0.22698192981E+01  0.15250504296E+02  0.47787262189E+02  0.19999959623E+02 0.  0.
         12    1    1    2    0    0 -0.40569620181E+02  0.22698192981E+01 -0.15250504296E+02  0.43400737811E+02  0.00000000000E+00 0. -1.
         11    1    3    3    0    0  0.39951805415E+01  0.36382637789E+01  0.52253143478E+01  0.75168039204E+01  0.51100000000E-03 0. -1.
        -11    1    3    3    0    0  0.33318064013E+02 -0.68361665726E+01  0.52475318629E+01  0.34414577636E+02  0.51100000000E-03 0.  1.
        -12    1    3    3    0    0  0.32563756269E+01  0.92808349553E+00  0.47776580854E+01  0.58558806322E+01  0.00000000000E+00 0.  1.
</event>
<event>
 7    1  0.5038211E-009  0.4778723E+02  0.7816164E-02  0.1312668E+00
        -11   -1    0    0    0    0  0.00000000000E+00  0.00000000000E+00  0.45593999997E+02  0.45594000000E+02  0.51100000000E-03 0. -1.
         11   -1    0    0    0    0 -0.00000000000E+00 -0.00000000000E+00 -0.45593999997E+02  0.45594000000E+02  0.51100000000E-03 0.  1.
    9900012    2    1    2    0    0  0.42013434754E+02 -0.95583434636E+01 -0.52092203472E+01  0.47787232654E+02  0.19999824962E+02 0.  0.
         12    1    1    2    0    0 -0.42013434754E+02  0.95583434636E+01  0.52092203472E+01  0.43400767346E+02  0.00000000000E+00 0. -1.
         11    1    3    3    0    0 -0.20516135566E+01  0.35963470198E+00  0.70848123328E+00  0.22000911853E+01  0.51100000000E-03 0. -1.
        -11    1    3    3    0    0  0.18998598214E+02 -0.35019245524E+01 -0.29596919397E+01  0.19544052453E+02  0.51100000000E-03 0.  1.
         12    1    3    3    0    0  0.25066450097E+02 -0.64160536132E+01 -0.29580096408E+01  0.26043089015E+02  0.00000000000E+00 0. -1.
</event>
<event>
 7    1  0.5038211E-009  0.4778727E+02  0.7816164E-02  0.1312668E+00
        -11   -1    0    0    0    0  0.00000000000E+00  0.00000000000E+00  0.45593999997E+02  0.45594000000E+02  0.51100000000E-03 0. -1.
         11   -1    0    0    0    0 -0.00000000000E+00 -0.00000000000E+00 -0.45593999997E+02  0.45594000000E+02  0.51100000000E-03 0.  1.
    9900012    2    1    2    0    0  0.39099861353E+02  0.18831605614E+02 -0.44148014230E+00  0.47787269216E+02  0.19999991665E+02 0.  0.
         12    1    1    2    0    0 -0.39099861353E+02 -0.18831605614E+02  0.44148014230E+00  0.43400730784E+02  0.00000000000E+00 0. -1.
         11    1    3    3    0    0  0.18361267224E+02  0.87472813499E+01  0.52087209578E+01  0.20994805057E+02  0.51100000000E-03 0. -1.
        -11    1    3    3    0    0  0.34031841223E+01  0.38773656796E+01 -0.65734865690E+01  0.83562164116E+01  0.51100000000E-03 0.  1.
        -12    1    3    3    0    0  0.17335410006E+02  0.62069585850E+01  0.92328546889E+00  0.18436247748E+02  0.00000000000E+00 0.  1.
</event>
<event>
 7    1  0.5038211E-009  0.4778727E+02  0.7816164E-02  0.1312668E+00
        -11   -1    0    0    0    0  0.00000000000E+00  0.00000000000E+00  0.45593999997E+02  0.45594000000E+02  0.51100000000E-03 0.  1.
         11   -1    0    0    0    0 -0.00000000000E+00 -0.00000000000E+00 -0.45593999997E+02  0.45594000000E+02  0.51100000000E-03 0. -1.
    9900012    2    1    2    0    0  0.42189191686E+02  0.93758462363E+01 -0.39735419724E+01  0.47787269320E+02  0.19999992138E+02 0.  0.
         12    1    1    2    0    0 -0.42189191686E+02 -0.93758462363E+01  0.39735419724E+01  0.43400730680E+02  0.00000000000E+00 0. -1.
         11    1    3    3    0    0  0.17832249214E+01  0.54806656041E+01 -0.21539745297E+01  0.61528199324E+01  0.51100000000E-03 0. -1.
        -11    1    3    3    0    0  0.32784897972E+02  0.82565027650E+00 -0.42426496871E+01  0.33068584941E+02  0.51100000000E-03 0.  1.
         12    1    3    3    0    0  0.76210687926E+01  0.30695303557E+01  0.24230822444E+01  0.85658644461E+01  0.00000000000E+00 0. -1.
</event>
<event>
 7    1  0.5038211E-009  0.4778727E+02  0.7816164E-02  0.1312668E+00
        -11   -1    0    0    0    0  0.00000000000E+00  0.00000000000E+00  0.45593999997E+02  0.45594000000E+02  0.51100000000E-03 0. -1.
         11   -1    0    0    0    0 -0.00000000000E+00 -0.00000000000E+00 -0.45593999997E+02  0.45594000000E+02  0.51100000000E-03 0.  1.
    9900012    2    1    2    0    0  0.47660027616E+01  0.37364370515E+02 -0.21559505868E+02  0.47787271209E+02  0.20000000752E+02 0.  0.
         12    1    1    2    0    0 -0.47660027616E+01 -0.37364370515E+02  0.21559505868E+02  0.43400728791E+02  0.00000000000E+00 0. -1.
         11    1    3    3    0    0 -0.52211177812E+01  0.74854533478E+01 -0.11219271105E+01  0.91951510814E+01  0.51100000000E-03 0. -1.
        -11    1    3    3    0    0  0.46376365461E+01  0.14146089896E+02 -0.44627025932E+01  0.15541404273E+02  0.51100000000E-03 0.  1.
         12    1    3    3    0    0  0.53494839968E+01  0.15732827271E+02 -0.15974876164E+02  0.23050715855E+02  0.00000000000E+00 0. -1.
</event>
<event>
 7    1  0.5038211E-009  0.4778727E+02  0.7816164E-02  0.1312668E+00
        -11   -1    0    0    0    0  0.00000000000E+00  0.00000000000E+00  0.45593999997E+02  0.45594000000E+02  0.51100000000E-03 0.  1.
         11   -1    0    0    0    0 -0.00000000000E+00 -0.00000000000E+00 -0.45593999997E+02  0.45594000000E+02  0.51100000000E-03 0. -1.
    9900012    2    1    2    0    0 -0.74396063417E+01  0.32177879680E+02  0.28157763893E+02  0.47787270160E+02  0.19999995966E+02 0.  0.
         12    1    1    2    0    0  0.74396063417E+01 -0.32177879680E+02 -0.28157763893E+02  0.43400729840E+02  0.00000000000E+00 0. -1.
         11    1    3    3    0    0 -0.54965574452E+01  0.24914791639E+02  0.23571711698E+02  0.34735926341E+02  0.51100000000E-03 0.  1.
        -11    1    3    3    0    0 -0.25740140874E+01 -0.17328116467E+01  0.19141714567E+01  0.36458520749E+01  0.51100000000E-03 0. -1.
        -12    1    3    3    0    0  0.63096519084E+00  0.89958996873E+01  0.26718807388E+01  0.94054917435E+01  0.00000000000E+00 0.  1.
</event>
<event>
 7    1  0.5038211E-009  0.4778727E+02  0.7816164E-02  0.1312668E+00
        -11   -1    0    0    0    0  0.00000000000E+00  0.00000000000E+00  0.45593999997E+02  0.45594000000E+02  0.51100000000E-03 0.  1.
         11   -1    0    0    0    0 -0.00000000000E+00 -0.00000000000E+00 -0.45593999997E+02  0.45594000000E+02  0.51100000000E-03 0. -1.
    9900012    2    1    2    0    0 -0.23423211603E+02 -0.22248713762E+02  0.28982250550E+02  0.47787274743E+02  0.20000016863E+02 0.  0.
         12    1    1    2    0    0  0.23423211603E+02  0.22248713762E+02 -0.28982250550E+02  0.43400725257E+02  0.00000000000E+00 0. -1.
         11    1    3    3    0    0 -0.65220056139E+01 -0.15004602793E+02  0.10285683746E+02  0.19325370697E+02  0.51100000000E-03 0. -1.
        -11    1    3    3    0    0 -0.17737106046E+02 -0.44121359369E+01  0.14500396141E+02  0.23330952893E+02  0.51100000000E-03 0.  1.
         12    1    3    3    0    0  0.83590005685E+00 -0.28319750321E+01  0.41961706635E+01  0.51309511521E+01  0.00000000000E+00 0. -1.
</event>
<event>
 7    1  0.5038211E-009  0.4778727E+02  0.7816164E-02  0.1312668E+00
        -11   -1    0    0    0    0  0.00000000000E+00  0.00000000000E+00  0.45593999997E+02  0.45594000000E+02  0.51100000000E-03 0.  1.
         11   -1    0    0    0    0 -0.00000000000E+00 -0.00000000000E+00 -0.45593999997E+02  0.45594000000E+02  0.51100000000E-03 0. -1.
    9900012    2    1    2    0    0  0.19239557575E+02 -0.24850644450E+02  0.29931725135E+02  0.47787271034E+02  0.19999999951E+02 0.  0.
         12    1    1    2    0    0 -0.19239557575E+02  0.24850644450E+02 -0.29931725135E+02  0.43400728966E+02  0.00000000000E+00 0. -1.
         11    1    3    3    0    0  0.10960914157E+02 -0.64617691301E+01  0.10915440116E+02  0.16764335138E+02  0.51100000000E-03 0. -1.
        -11    1    3    3    0    0 -0.87306243428E+00 -0.13804614027E+02  0.79727190961E+01  0.15965395595E+02  0.51100000000E-03 0.  1.
        -12    1    3    3    0    0  0.91517058530E+01 -0.45842612930E+01  0.11043565923E+02  0.15057540301E+02  0.00000000000E+00 0.  1.
</event>
<event>
 7    1  0.5038211E-009  0.4778727E+02  0.7816164E-02  0.1312668E+00
        -11   -1    0    0    0    0  0.00000000000E+00  0.00000000000E+00  0.45593999997E+02  0.45594000000E+02  0.51100000000E-03 0.  1.
         11   -1    0    0    0    0 -0.00000000000E+00 -0.00000000000E+00 -0.45593999997E+02  0.45594000000E+02  0.51100000000E-03 0. -1.
    9900012    2    1    2    0    0  0.23602997300E+02  0.22993979526E+02  0.28245330222E+02  0.47787271258E+02  0.20000000973E+02 0.  0.
         12    1    1    2    0    0 -0.23602997300E+02 -0.22993979526E+02 -0.28245330222E+02  0.43400728742E+02  0.00000000000E+00 0. -1.
         11    1    3    3    0    0  0.34415528419E+00  0.58214377987E+01 -0.21347190663E+00  0.58355078116E+01  0.51100000000E-03 0. -1.
        -11    1    3    3    0    0  0.73065175476E+01  0.96569817559E+01  0.17181059957E+02  0.21019783938E+02  0.51100000000E-03 0.  1.
         12    1    3    3    0    0  0.15952324469E+02  0.75155599719E+01  0.11277742171E+02  0.20931979508E+02  0.00000000000E+00 0. -1.
</event>
<event>
 7    1  0.5038211E-009  0.4778727E+02  0.7816164E-02  0.1312668E+00
        -11   -1    0    0    0    0  0.00000000000E+00  0.00000000000E+00  0.45593999997E+02  0.45594000000E+02  0.51100000000E-03 0.  1.
         11   -1    0    0    0    0 -0.00000000000E+00 -0.00000000000E+00 -0.45593999997E+02  0.45594000000E+02  0.51100000000E-03 0. -1.
    9900012    2    1    2    0    0 -0.29376657338E+02  0.29241931951E+02  0.12866418194E+02  0.47787270770E+02  0.19999998749E+02 0.  0.
         12    1    1    2    0    0  0.29376657338E+02 -0.29241931951E+02 -0.12866418194E+02  0.43400729230E+02  0.00000000000E+00 0. -1.
         11    1    3    3    0    0 -0.21629566596E+02  0.23521153134E+02  0.12526822887E+02  0.34322064154E+02  0.51100000000E-03 0. -1.
        -11    1    3    3    0    0 -0.61385694363E+01 -0.16427391883E+00  0.29701346145E+01  0.68213430154E+01  0.51100000000E-03 0.  1.
         12    1    3    3    0    0 -0.16085213057E+01  0.58850527357E+01 -0.26305393080E+01  0.66438636006E+01  0.00000000000E+00 0. -1.
</event>
<event>
 7    1  0.5038211E-009  0.4778727E+02  0.7816164E-02  0.1312668E+00
        -11   -1    0    0    0    0  0.00000000000E+00  0.00000000000E+00  0.45593999997E+02  0.45594000000E+02  0.51100000000E-03 0. -1.
         11   -1    0    0    0    0 -0.00000000000E+00 -0.00000000000E+00 -0.45593999997E+02  0.45594000000E+02  0.51100000000E-03 0.  1.
    9900012    2    1    2    0    0 -0.32031320887E+02 -0.13475522373E+02  0.26000539515E+02  0.47787271020E+02  0.19999999886E+02 0.  0.
         12    1    1    2    0    0  0.32031320887E+02  0.13475522373E+02 -0.26000539515E+02  0.43400728980E+02  0.00000000000E+00 0. -1.
         11    1    3    3    0    0 -0.99914803443E+01  0.36430575758E+01  0.42353963770E+01  0.11447276126E+02  0.51100000000E-03 0. -1.
        -11    1    3    3    0    0 -0.19585304709E+02 -0.12927144766E+02  0.14449646719E+02  0.27558801188E+02  0.51100000000E-03 0.  1.
         12    1    3    3    0    0 -0.24545358339E+01 -0.41914351826E+01  0.73154964188E+01  0.87811937060E+01  0.00000000000E+00 0. -1.
</event>
<event>
 7    1  0.5038211E-009  0.4778727E+02  0.7816164E-02  0.1312668E+00
        -11   -1    0    0    0    0  0.00000000000E+00  0.00000000000E+00  0.45593999997E+02  0.45594000000E+02  0.51100000000E-03 0. -1.
         11   -1    0    0    0    0 -0.00000000000E+00 -0.00000000000E+00 -0.45593999997E+02  0.45594000000E+02  0.51100000000E-03 0.  1.
    9900012    2    1    2    0    0  0.70234120669E+01 -0.40382588469E+02 -0.14266792542E+02  0.47787272611E+02  0.20000007140E+02 0.  0.
         12    1    1    2    0    0 -0.70234120669E+01  0.40382588469E+02  0.14266792542E+02  0.43400727389E+02  0.00000000000E+00 0. -1.
         11    1    3    3    0    0 -0.13088333111E+01 -0.11590729421E+01 -0.38423221508E-01  0.17487056146E+01  0.51100000000E-03 0. -1.
        -11    1    3    3    0    0  0.69312902469E+01 -0.33631097404E+01 -0.90338825748E+00  0.77568938511E+01  0.51100000000E-03 0.  1.
        -12    1    3    3    0    0  0.14009551312E+01 -0.35860405786E+02 -0.13324981063E+02  0.38281673145E+02  0.00000000000E+00 0.  1.
</event>
<event>
 7    1  0.5038211E-009  0.4778727E+02  0.7816164E-02  0.1312668E+00
        -11   -1    0    0    0    0  0.00000000000E+00  0.00000000000E+00  0.45593999997E+02  0.45594000000E+02  0.51100000000E-03 0.  1.
         11   -1    0    0    0    0 -0.00000000000E+00 -0.00000000000E+00 -0.45593999997E+02  0.45594000000E+02  0.51100000000E-03 0. -1.
    9900012    2    1    2    0    0 -0.14777723590E+02 -0.22199680293E+02  0.34240572287E+02  0.47787266018E+02  0.19999977084E+02 0.  0.
         12    1    1    2    0    0  0.14777723590E+02  0.22199680293E+02 -0.34240572287E+02  0.43400733982E+02  0.00000000000E+00 0. -1.
         11    1    3    3    0    0 -0.69967134226E+01 -0.26096757559E+01  0.58972581727E+01  0.95153591885E+01  0.51100000000E-03 0. -1.
        -11    1    3    3    0    0 -0.18189228659E+01 -0.16651984132E+02  0.26541239945E+02  0.31385258864E+02  0.51100000000E-03 0.  1.
        -12    1    3    3    0    0 -0.59620873011E+01 -0.29380204055E+01  0.18020741695E+01  0.68866479656E+01  0.00000000000E+00 0.  1.
</event>
<event>
 7    1  0.5038211E-009  0.4778727E+02  0.7816164E-02  0.1312668E+00
        -11   -1    0    0    0    0  0.00000000000E+00  0.00000000000E+00  0.45593999997E+02  0.45594000000E+02  0.51100000000E-03 0. -1.
         11   -1    0    0    0    0 -0.00000000000E+00 -0.00000000000E+00 -0.45593999997E+02  0.45594000000E+02  0.51100000000E-03 0.  1.
    9900012    2    1    2    0    0 -0.25551850269E+00  0.37107018080E+02 -0.22508380438E+02  0.47787271084E+02  0.20000000180E+02 0.  0.
         12    1    1    2    0    0  0.25551850269E+00 -0.37107018080E+02  0.22508380438E+02  0.43400728916E+02  0.00000000000E+00 0. -1.
         11    1    3    3    0    0  0.33207231694E+01  0.25046464340E+02 -0.82643873014E+01  0.26582939567E+02  0.51100000000E-03 0. -1.
        -11    1    3    3    0    0  0.14128912439E+01  0.86260951519E+01 -0.11771866681E+02  0.14662285792E+02  0.51100000000E-03 0.  1.
         12    1    3    3    0    0 -0.49891329159E+01  0.34344585881E+01 -0.24721264560E+01  0.65420457244E+01  0.00000000000E+00 0. -1.
</event>
<event>
 7    1  0.5038211E-009  0.4778727E+02  0.7816164E-02  0.1312668E+00
        -11   -1    0    0    0    0  0.00000000000E+00  0.00000000000E+00  0.45593999997E+02  0.45594000000E+02  0.51100000000E-03 0.  1.
         11   -1    0    0    0    0 -0.00000000000E+00 -0.00000000000E+00 -0.45593999997E+02  0.45594000000E+02  0.51100000000E-03 0. -1.
    9900012    2    1    2    0    0  0.31302638272E+02 -0.39850735198E+01  0.29797439321E+02  0.47787270008E+02  0.19999995275E+02 0.  0.
         12    1    1    2    0    0 -0.31302638272E+02  0.39850735198E+01 -0.29797439321E+02  0.43400729992E+02  0.00000000000E+00 0. -1.
         11    1    3    3    0    0  0.44275215271E+01  0.33422713036E+00  0.14586316651E+02  0.15247140334E+02  0.51100000000E-03 0. -1.
        -11    1    3    3    0    0  0.23595030430E+02 -0.67642267246E+01  0.14073409706E+02  0.28293834756E+02  0.51100000000E-03 0.  1.
        -12    1    3    3    0    0  0.32800863154E+01  0.24449260744E+01  0.11377129627E+01  0.42462949181E+01  0.00000000000E+00 0.  1.
</event>
<event>
 7    1  0.5038211E-009  0.4778727E+02  0.7816164E-02  0.1312668E+00
        -11   -1    0    0    0    0  0.00000000000E+00  0.00000000000E+00  0.45593999997E+02  0.45594000000E+02  0.51100000000E-03 0.  1.
         11   -1    0    0    0    0 -0.00000000000E+00 -0.00000000000E+00 -0.45593999997E+02  0.45594000000E+02  0.51100000000E-03 0. -1.
    9900012    2    1    2    0    0 -0.28097464718E+02  0.81270889710E+01  0.32064099816E+02  0.47787267336E+02  0.19999983093E+02 0.  0.
         12    1    1    2    0    0  0.28097464718E+02 -0.81270889710E+01 -0.32064099816E+02  0.43400732664E+02  0.00000000000E+00 0. -1.
         11    1    3    3    0    0 -0.30585845495E+01 -0.42784719964E+01  0.68663272427E+01  0.86490873585E+01  0.51100000000E-03 0. -1.
        -11    1    3    3    0    0 -0.17707472508E+02  0.11059012823E+02  0.23610797422E+02  0.31517076362E+02  0.51100000000E-03 0.  1.
        -12    1    3    3    0    0 -0.73314076609E+01  0.13465481448E+01  0.15869751512E+01  0.76211036161E+01  0.00000000000E+00 0.  1.
</event>
<event>
 7    1  0.5038211E-009  0.4778727E+02  0.7816164E-02  0.1312668E+00
        -11   -1    0    0    0    0  0.00000000000E+00  0.00000000000E+00  0.45593999997E+02  0.45594000000E+02  0.51100000000E-03 0.  1.
         11   -1    0    0    0    0 -0.00000000000E+00 -0.00000000000E+00 -0.45593999997E+02  0.45594000000E+02  0.51100000000E-03 0. -1.
    9900012    2    1    2    0    0  0.19054772690E+01 -0.36835542155E+01  0.43202129998E+02  0.47787268997E+02  0.19999990664E+02 0.  0.
         12    1    1    2    0    0 -0.19054772690E+01  0.36835542155E+01 -0.43202129998E+02  0.43400731003E+02  0.00000000000E+00 0. -1.
         11    1    3    3    0    0 -0.73209531958E+01 -0.36940790331E+01  0.11806080416E+02  0.14374495144E+02  0.51100000000E-03 0. -1.
        -11    1    3    3    0    0  0.57857963746E+01 -0.63710750137E+00  0.88246370851E+01  0.10571450497E+02  0.51100000000E-03 0.  1.
         12    1    3    3    0    0  0.34406340902E+01  0.64763231902E+00  0.22571412496E+02  0.22841323356E+02  0.00000000000E+00 0. -1.
</event>
<event>
 7    1  0.5038211E-009  0.4778728E+02  0.7816164E-02  0.1312668E+00
        -11   -1    0    0    0    0  0.00000000000E+00  0.00000000000E+00  0.45593999997E+02  0.45594000000E+02  0.51100000000E-03 0.  1.
         11   -1    0    0    0    0 -0.00000000000E+00 -0.00000000000E+00 -0.45593999997E+02  0.45594000000E+02  0.51100000000E-03 0. -1.
    9900012    2    1    2    0    0  0.45498448310E+01  0.24916475626E+02  0.35243305565E+02  0.47787280734E+02  0.20000044179E+02 0.  0.
         12    1    1    2    0    0 -0.45498448310E+01 -0.24916475626E+02 -0.35243305565E+02  0.43400719266E+02  0.00000000000E+00 0. -1.
         11    1    3    3    0    0  0.15779894279E+01  0.19108818067E+02  0.31550896623E+02  0.36920130776E+02  0.51100000000E-03 0. -1.
        -11    1    3    3    0    0  0.14315087438E+01  0.45423612676E+01  0.61015519526E+01  0.77402325327E+01  0.51100000000E-03 0.  1.
         12    1    3    3    0    0  0.15403466593E+01  0.12652962922E+01 -0.24091430107E+01  0.31269174251E+01  0.00000000000E+00 0. -1.
</event>
<event>
 7    1  0.5038211E-009  0.4778727E+02  0.7816164E-02  0.1312668E+00
        -11   -1    0    0    0    0  0.00000000000E+00  0.00000000000E+00  0.45593999997E+02  0.45594000000E+02  0.51100000000E-03 0. -1.
         11   -1    0    0    0    0 -0.00000000000E+00 -0.00000000000E+00 -0.45593999997E+02  0.45594000000E+02  0.51100000000E-03 0.  1.
    9900012    2    1    2    0    0  0.45594760208E+01 -0.26495249410E+02 -0.34071042721E+02  0.47787274027E+02  0.20000013597E+02 0.  0.
         12    1    1    2    0    0 -0.45594760208E+01  0.26495249410E+02  0.34071042721E+02  0.43400725973E+02  0.00000000000E+00 0. -1.
         11    1    3    3    0    0  0.56627977573E+01 -0.13511056064E+02 -0.26017193655E+02  0.29858169407E+02  0.51100000000E-03 0. -1.
        -11    1    3    3    0    0 -0.13288663506E+01 -0.11312276846E+02 -0.10137550193E+02  0.15248062743E+02  0.51100000000E-03 0.  1.
         12    1    3    3    0    0  0.22554461401E+00 -0.16719165005E+01  0.20837011273E+01  0.26810418768E+01  0.00000000000E+00 0. -1.
</event>
<event>
 7    1  0.5038211E-009  0.4778727E+02  0.7816164E-02  0.1312668E+00
        -11   -1    0    0    0    0  0.00000000000E+00  0.00000000000E+00  0.45593999997E+02  0.45594000000E+02  0.51100000000E-03 0.  1.
         11   -1    0    0    0    0 -0.00000000000E+00 -0.00000000000E+00 -0.45593999997E+02  0.45594000000E+02  0.51100000000E-03 0. -1.
    9900012    2    1    2    0    0 -0.34194731167E+02  0.22976438342E+02  0.13653813043E+02  0.47787274556E+02  0.20000016010E+02 0.  0.
         12    1    1    2    0    0  0.34194731167E+02 -0.22976438342E+02 -0.13653813043E+02  0.43400725444E+02  0.00000000000E+00 0. -1.
         11    1    3    3    0    0 -0.13572715251E+01 -0.48630728271E+00 -0.54460668452E+00  0.15411935206E+01  0.51100000000E-03 0. -1.
        -11    1    3    3    0    0  0.21279747682E+01  0.97768053049E+00  0.81016243766E-01  0.23432242161E+01  0.51100000000E-03 0.  1.
        -12    1    3    3    0    0 -0.34965434410E+02  0.22485065094E+02  0.14117403484E+02  0.43902856819E+02  0.00000000000E+00 0.  1.
</event>
<event>
 7    1  0.5038211E-009  0.4778727E+02  0.7816164E-02  0.1312668E+00
        -11   -1    0    0    0    0  0.00000000000E+00  0.00000000000E+00  0.45593999997E+02  0.45594000000E+02  0.51100000000E-03 0. -1.
         11   -1    0    0    0    0 -0.00000000000E+00 -0.00000000000E+00 -0.45593999997E+02  0.45594000000E+02  0.51100000000E-03 0.  1.
    9900012    2    1    2    0    0  0.34943901589E+02 -0.12140269455E+02 -0.22697153990E+02  0.47787271896E+02  0.20000003882E+02 0.  0.
         12    1    1    2    0    0 -0.34943901589E+02  0.12140269455E+02  0.22697153990E+02  0.43400728104E+02  0.00000000000E+00 0. -1.
         11    1    3    3    0    0  0.19656315808E+01 -0.68733835440E+01 -0.27096557168E+01  0.76452170158E+01  0.51100000000E-03 0. -1.
        -11    1    3    3    0    0  0.28061036639E+02 -0.85907923644E+00 -0.17520177377E+02  0.33092543117E+02  0.51100000000E-03 0.  1.
        -12    1    3    3    0    0  0.49172333699E+01 -0.44078066740E+01 -0.24673208959E+01  0.70495117628E+01  0.00000000000E+00 0.  1.
</event>
<event>
 7    1  0.5038211E-009  0.4778727E+02  0.7816164E-02  0.1312668E+00
        -11   -1    0    0    0    0  0.00000000000E+00  0.00000000000E+00  0.45593999997E+02  0.45594000000E+02  0.51100000000E-03 0. -1.
         11   -1    0    0    0    0 -0.00000000000E+00 -0.00000000000E+00 -0.45593999997E+02  0.45594000000E+02  0.51100000000E-03 0.  1.
    9900012    2    1    2    0    0 -0.40320728208E+02  0.10347556277E+02 -0.12279663518E+02  0.47787272123E+02  0.20000004920E+02 0.  0.
         12    1    1    2    0    0  0.40320728208E+02 -0.10347556277E+02  0.12279663518E+02  0.43400727877E+02  0.00000000000E+00 0. -1.
         11    1    3    3    0    0 -0.37314696493E+01 -0.52030257950E+01 -0.21034169616E+01  0.67394143916E+01  0.51100000000E-03 0. -1.
        -11    1    3    3    0    0 -0.18755337492E+02  0.77015731940E+01 -0.55648749578E+01  0.21024860229E+02  0.51100000000E-03 0.  1.
         12    1    3    3    0    0 -0.17833921066E+02  0.78490088783E+01 -0.46113715984E+01  0.20022997502E+02  0.00000000000E+00 0. -1.
</event>
<event>
 7    1  0.5038211E-009  0.4778728E+02  0.7816164E-02  0.1312668E+00
        -11   -1    0    0    0    0  0.00000000000E+00  0.00000000000E+00  0.45593999997E+02  0.45594000000E+02  0.51100000000E-03 0.  1.
         11   -1    0    0    0    0 -0.00000000000E+00 -0.00000000000E+00 -0.45593999997E+02  0.45594000000E+02  0.51100000000E-03 0. -1.
    9900012    2    1    2    0    0  0.30193161402E+02  0.31150592574E+02  0.12791756663E+01  0.47787277615E+02  0.20000029956E+02 0.  0.
         12    1    1    2    0    0 -0.30193161402E+02 -0.31150592574E+02 -0.12791756663E+01  0.43400722385E+02  0.00000000000E+00 0. -1.
         11    1    3    3    0    0 -0.22462416301E-01  0.39369775253E+01  0.20610469863E+01  0.44438959862E+01  0.51100000000E-03 0. -1.
        -11    1    3    3    0    0  0.21995842006E+02  0.23340644418E+02 -0.63389613136E+01  0.32692280101E+02  0.51100000000E-03 0.  1.
        -12    1    3    3    0    0  0.82197818121E+01  0.38729706311E+01  0.55570899935E+01  0.10651101527E+02  0.00000000000E+00 0.  1.
</event>
<event>
 7    1  0.5038211E-009  0.4778727E+02  0.7816164E-02  0.1312668E+00
        -11   -1    0    0    0    0  0.00000000000E+00  0.00000000000E+00  0.45593999997E+02  0.45594000000E+02  0.51100000000E-03 0.  1.
         11   -1    0    0    0    0 -0.00000000000E+00 -0.00000000000E+00 -0.45593999997E+02  0.45594000000E+02  0.51100000000E-03 0. -1.
    9900012    2    1    2    0    0 -0.11773302846E+02 -0.37150611420E+02  0.19100912767E+02  0.47787268931E+02  0.19999990363E+02 0.  0.
         12    1    1    2    0    0  0.11773302846E+02  0.37150611420E+02 -0.19100912767E+02  0.43400731069E+02  0.00000000000E+00 0. -1.
         11    1    3    3    0    0  0.23991788271E+01  0.80912989089E+00  0.15777311315E+01  0.29832844332E+01  0.51100000000E-03 0. -1.
        -11    1    3    3    0    0 -0.99605605797E+01 -0.33621366798E+02  0.16136096559E+02  0.38600293844E+02  0.51100000000E-03 0.  1.
        -12    1    3    3    0    0 -0.42119210935E+01 -0.43383745129E+01  0.13870850769E+01  0.62036906533E+01  0.00000000000E+00 0.  1.
</event>
<event>
 7    1  0.5038211E-009  0.4778727E+02  0.7816164E-02  0.1312668E+00
        -11   -1    0    0    0    0  0.00000000000E+00  0.00000000000E+00  0.45593999997E+02  0.45594000000E+02  0.51100000000E-03 0.  1.
         11   -1    0    0    0    0 -0.00000000000E+00 -0.00000000000E+00 -0.45593999997E+02  0.45594000000E+02  0.51100000000E-03 0. -1.
    9900012    2    1    2    0    0 -0.25285841483E+02 -0.29371503868E+02  0.19533680052E+02  0.47787266419E+02  0.19999978912E+02 0.  0.
         12    1    1    2    0    0  0.25285841483E+02  0.29371503868E+02 -0.19533680052E+02  0.43400733581E+02  0.00000000000E+00 0. -1.
         11    1    3    3    0    0 -0.36491576791E+01 -0.43296446501E+01 -0.30694504816E+01  0.64407841978E+01  0.51100000000E-03 0. -1.
        -11    1    3    3    0    0 -0.15174364177E+02 -0.13759479086E+02  0.18790633856E+02  0.27796987496E+02  0.51100000000E-03 0.  1.
        -12    1    3    3    0    0 -0.64623196274E+01 -0.11282380131E+02  0.38124966776E+01  0.13549494725E+02  0.00000000000E+00 0.  1.
</event>
<event>
 7    1  0.5038211E-009  0.4778728E+02  0.7816164E-02  0.1312668E+00
        -11   -1    0    0    0    0  0.00000000000E+00  0.00000000000E+00  0.45593999997E+02  0.45594000000E+02  0.51100000000E-03 0.  1.
         11   -1    0    0    0    0 -0.00000000000E+00 -0.00000000000E+00 -0.45593999997E+02  0.45594000000E+02  0.51100000000E-03 0. -1.
    9900012    2    1    2    0    0 -0.31981020529E+00 -0.34506108540E+02  0.26322024836E+02  0.47787276543E+02  0.20000025070E+02 0.  0.
         12    1    1    2    0    0  0.31981020529E+00  0.34506108540E+02 -0.26322024836E+02  0.43400723457E+02  0.00000000000E+00 0. -1.
         11    1    3    3    0    0 -0.28217741261E+01 -0.93031699543E+01  0.14037463394E+02  0.17075179624E+02  0.51100000000E-03 0. -1.
        -11    1    3    3    0    0  0.74809411487E+01 -0.14660365465E+02  0.78903711805E+01  0.18252362961E+02  0.51100000000E-03 0.  1.
         12    1    3    3    0    0 -0.49789772279E+01 -0.10542573120E+02  0.43941902620E+01  0.12459733957E+02  0.00000000000E+00 0. -1.
</event>
<event>
 7    1  0.5038211E-009  0.4778727E+02  0.7816164E-02  0.1312668E+00
        -11   -1    0    0    0    0  0.00000000000E+00  0.00000000000E+00  0.45593999997E+02  0.45594000000E+02  0.51100000000E-03 0. -1.
         11   -1    0    0    0    0 -0.00000000000E+00 -0.00000000000E+00 -0.45593999997E+02  0.45594000000E+02  0.51100000000E-03 0.  1.
    9900012    2    1    2    0    0 -0.17397617409E+02 -0.17562179296E+02 -0.35672343530E+02  0.47787270443E+02  0.19999997257E+02 0.  0.
         12    1    1    2    0    0  0.17397617409E+02  0.17562179296E+02  0.35672343530E+02  0.43400729557E+02  0.00000000000E+00 0. -1.
         11    1    3    3    0    0  0.22027904120E+01 -0.45950253923E+01 -0.16114579749E+02  0.16901071703E+02  0.51100000000E-03 0. -1.
        -11    1    3    3    0    0 -0.10903880791E+02 -0.46090502905E+01 -0.10010572788E+02  0.15503210270E+02  0.51100000000E-03 0.  1.
         12    1    3    3    0    0 -0.86965270298E+01 -0.83581036136E+01 -0.95471909935E+01  0.15382988470E+02  0.00000000000E+00 0. -1.
</event>
<event>
 7    1  0.5038211E-009  0.4778728E+02  0.7816164E-02  0.1312668E+00
        -11   -1    0    0    0    0  0.00000000000E+00  0.00000000000E+00  0.45593999997E+02  0.45594000000E+02  0.51100000000E-03 0.  1.
         11   -1    0    0    0    0 -0.00000000000E+00 -0.00000000000E+00 -0.45593999997E+02  0.45594000000E+02  0.51100000000E-03 0. -1.
    9900012    2    1    2    0    0  0.14263512457E+02  0.10345663625E+02  0.39662858553E+02  0.47787275443E+02  0.20000020055E+02 0.  0.
         12    1    1    2    0    0 -0.14263512457E+02 -0.10345663625E+02 -0.39662858553E+02  0.43400724557E+02  0.00000000000E+00 0. -1.
         11    1    3    3    0    0  0.82570272236E+01  0.17769452240E+01  0.54367350683E+01  0.10044606581E+02  0.51100000000E-03 0. -1.
        -11    1    3    3    0    0  0.23355309225E+01  0.10158090085E+02  0.30661246160E+02  0.32384464103E+02  0.51100000000E-03 0.  1.
        -12    1    3    3    0    0  0.36709543108E+01 -0.15893716842E+01  0.35648773248E+01  0.53582047594E+01  0.00000000000E+00 0.  1.
</event>
<event>
 7    1  0.5038211E-009  0.4778727E+02  0.7816164E-02  0.1312668E+00
        -11   -1    0    0    0    0  0.00000000000E+00  0.00000000000E+00  0.45593999997E+02  0.45594000000E+02  0.51100000000E-03 0.  1.
         11   -1    0    0    0    0 -0.00000000000E+00 -0.00000000000E+00 -0.45593999997E+02  0.45594000000E+02  0.51100000000E-03 0. -1.
    9900012    2    1    2    0    0 -0.45566322457E+01 -0.16620332661E+02  0.39832463174E+02  0.47787268696E+02  0.19999989294E+02 0.  0.
         12    1    1    2    0    0  0.45566322457E+01  0.16620332661E+02 -0.39832463174E+02  0.43400731304E+02  0.00000000000E+00 0. -1.
         11    1    3    3    0    0 -0.27713099745E+01 -0.49327066290E+01  0.11928818138E+01  0.57822764501E+01  0.51100000000E-03 0. -1.
        -11    1    3    3    0    0  0.25447208152E+01 -0.11801949298E+02  0.26658431984E+02  0.29264886936E+02  0.51100000000E-03 0.  1.
        -12    1    3    3    0    0 -0.43300430864E+01  0.11432326648E+00  0.11981149376E+02  0.12740105310E+02  0.00000000000E+00 0.  1.
</event>
<event>
 7    1  0.5038211E-009  0.4778727E+02  0.7816164E-02  0.1312668E+00
        -11   -1    0    0    0    0  0.00000000000E+00  0.00000000000E+00  0.45593999997E+02  0.45594000000E+02  0.51100000000E-03 0.  1.
         11   -1    0    0    0    0 -0.00000000000E+00 -0.00000000000E+00 -0.45593999997E+02  0.45594000000E+02  0.51100000000E-03 0. -1.
    9900012    2    1    2    0    0  0.10238275376E+02  0.42144797749E+02 -0.16177706973E+01  0.47787269108E+02  0.19999991169E+02 0.  0.
         12    1    1    2    0    0 -0.10238275376E+02 -0.42144797749E+02  0.16177706973E+01  0.43400730892E+02  0.00000000000E+00 0. -1.
         11    1    3    3    0    0 -0.44807723367E+01  0.28279763384E+01 -0.74096886910E-01  0.52990811953E+01  0.51100000000E-03 0. -1.
        -11    1    3    3    0    0  0.11537111796E+02  0.33673139666E+02  0.78537000954E+00  0.35603399977E+02  0.51100000000E-03 0.  1.
        -12    1    3    3    0    0  0.31819359166E+01  0.56436817441E+01 -0.23290438199E+01  0.68847879358E+01  0.00000000000E+00 0.  1.
</event>
<event>
 7    1  0.5038211E-009  0.4778727E+02  0.7816164E-02  0.1312668E+00
        -11   -1    0    0    0    0  0.00000000000E+00  0.00000000000E+00  0.45593999997E+02  0.45594000000E+02  0.51100000000E-03 0. -1.
         11   -1    0    0    0    0 -0.00000000000E+00 -0.00000000000E+00 -0.45593999997E+02  0.45594000000E+02  0.51100000000E-03 0.  1.
    9900012    2    1    2    0    0  0.31218336810E+02  0.30060540685E+02  0.23244609448E+01  0.47787265236E+02  0.19999973515E+02 0.  0.
         12    1    1    2    0    0 -0.31218336810E+02 -0.30060540685E+02 -0.23244609448E+01  0.43400734764E+02  0.00000000000E+00 0. -1.
         11    1    3    3    0    0  0.85489240093E+01  0.10256241636E+02  0.69459955933E+01  0.15050629530E+02  0.51100000000E-03 0.  1.
        -11    1    3    3    0    0  0.23567327399E+02  0.20450777344E+02 -0.49241663457E+01  0.31589565195E+02  0.51100000000E-03 0. -1.
         12    1    3    3    0    0 -0.89791459910E+00 -0.64647829487E+00  0.30263169711E+00  0.11470705110E+01  0.00000000000E+00 0. -1.
</event>
<event>
 7    1  0.5038211E-009  0.4778727E+02  0.7816164E-02  0.1312668E+00
        -11   -1    0    0    0    0  0.00000000000E+00  0.00000000000E+00  0.45593999997E+02  0.45594000000E+02  0.51100000000E-03 0.  1.
         11   -1    0    0    0    0 -0.00000000000E+00 -0.00000000000E+00 -0.45593999997E+02  0.45594000000E+02  0.51100000000E-03 0. -1.
    9900012    2    1    2    0    0 -0.13165204971E+02  0.38661715373E+02 -0.14682375381E+02  0.47787274150E+02  0.20000014158E+02 0.  0.
         12    1    1    2    0    0  0.13165204971E+02 -0.38661715373E+02  0.14682375381E+02  0.43400725850E+02  0.00000000000E+00 0. -1.
         11    1    3    3    0    0 -0.23618024721E+01  0.18266910273E+01  0.82577284531E+00  0.30978721858E+01  0.51100000000E-03 0. -1.
        -11    1    3    3    0    0 -0.22207739540E+01  0.48115418625E+01 -0.96682627595E+01  0.11025337958E+02  0.51100000000E-03 0.  1.
        -12    1    3    3    0    0 -0.85826285448E+01  0.32023482483E+02 -0.58398854666E+01  0.33664064005E+02  0.00000000000E+00 0.  1.
</event>
<event>
 7    1  0.5038211E-009  0.4778727E+02  0.7816164E-02  0.1312668E+00
        -11   -1    0    0    0    0  0.00000000000E+00  0.00000000000E+00  0.45593999997E+02  0.45594000000E+02  0.51100000000E-03 0.  1.
         11   -1    0    0    0    0 -0.00000000000E+00 -0.00000000000E+00 -0.45593999997E+02  0.45594000000E+02  0.51100000000E-03 0. -1.
    9900012    2    1    2    0    0  0.85664873163E+01  0.12685091276E+02  0.40611904560E+02  0.47787273766E+02  0.20000012409E+02 0.  0.
         12    1    1    2    0    0 -0.85664873163E+01 -0.12685091276E+02 -0.40611904560E+02  0.43400726234E+02  0.00000000000E+00 0. -1.
         11    1    3    3    0    0 -0.63763223679E+00  0.11010021100E-01 -0.66418639729E+00  0.92078223344E+00  0.51100000000E-03 0. -1.
        -11    1    3    3    0    0  0.62522287667E+00  0.10611149125E+02  0.10859330687E+02  0.15195803784E+02  0.51100000000E-03 0.  1.
        -12    1    3    3    0    0  0.85788966764E+01  0.20629321298E+01  0.30416760270E+02  0.31670687749E+02  0.00000000000E+00 0.  1.
</event>
<event>
 7    1  0.5038211E-009  0.4778727E+02  0.7816164E-02  0.1312668E+00
        -11   -1    0    0    0    0  0.00000000000E+00  0.00000000000E+00  0.45593999997E+02  0.45594000000E+02  0.51100000000E-03 0.  1.
         11   -1    0    0    0    0 -0.00000000000E+00 -0.00000000000E+00 -0.45593999997E+02  0.45594000000E+02  0.51100000000E-03 0. -1.
    9900012    2    1    2    0    0  0.15198931918E+02  0.15654553445E+02  0.37517341994E+02  0.47787268148E+02  0.19999986792E+02 0.  0.
         12    1    1    2    0    0 -0.15198931918E+02 -0.15654553445E+02 -0.37517341994E+02  0.43400731852E+02  0.00000000000E+00 0. -1.
         11    1    3    3    0    0 -0.13069013273E+01 -0.41679881339E+00 -0.78272973664E+00  0.15793601337E+01  0.51100000000E-03 0. -1.
        -11    1    3    3    0    0  0.10140305219E+02  0.14833477710E+02  0.33911569303E+02  0.38377758973E+02  0.51100000000E-03 0.  1.
        -12    1    3    3    0    0  0.63655280260E+01  0.12378745484E+01  0.43885024281E+01  0.78301490413E+01  0.00000000000E+00 0.  1.
</event>
<event>
 7    1  0.5038211E-009  0.4778728E+02  0.7816164E-02  0.1312668E+00
        -11   -1    0    0    0    0  0.00000000000E+00  0.00000000000E+00  0.45593999997E+02  0.45594000000E+02  0.51100000000E-03 0.  1.
         11   -1    0    0    0    0 -0.00000000000E+00 -0.00000000000E+00 -0.45593999997E+02  0.45594000000E+02  0.51100000000E-03 0. -1.
    9900012    2    1    2    0    0 -0.12591205533E+02 -0.20594485871E+02  0.36068706714E+02  0.47787275247E+02  0.20000019162E+02 0.  0.
         12    1    1    2    0    0  0.12591205533E+02  0.20594485871E+02 -0.36068706714E+02  0.43400724753E+02  0.00000000000E+00 0. -1.
         11    1    3    3    0    0 -0.46768566388E+00 -0.14378637915E+02  0.20146226726E+02  0.24755492516E+02  0.51100000000E-03 0. -1.
        -11    1    3    3    0    0 -0.21135939297E+01  0.24873889142E+01  0.42800101537E+01  0.53826452685E+01  0.51100000000E-03 0.  1.
         12    1    3    3    0    0 -0.10009925939E+02 -0.87032368696E+01  0.11642469834E+02  0.17649137462E+02  0.00000000000E+00 0. -1.
</event>
<event>
 7    1  0.5038211E-009  0.4778728E+02  0.7816164E-02  0.1312668E+00
        -11   -1    0    0    0    0  0.00000000000E+00  0.00000000000E+00  0.45593999997E+02  0.45594000000E+02  0.51100000000E-03 0.  1.
         11   -1    0    0    0    0 -0.00000000000E+00 -0.00000000000E+00 -0.45593999997E+02  0.45594000000E+02  0.51100000000E-03 0. -1.
    9900012    2    1    2    0    0 -0.71009990282E+01 -0.84222858125E+01  0.41979324207E+02  0.47787277121E+02  0.20000027707E+02 0.  0.
         12    1    1    2    0    0  0.71009990282E+01  0.84222858125E+01 -0.41979324207E+02  0.43400722879E+02  0.00000000000E+00 0. -1.
         11    1    3    3    0    0 -0.29548418340E+01 -0.54496071160E+01  0.35285737829E+01  0.71330316966E+01  0.51100000000E-03 0. -1.
        -11    1    3    3    0    0 -0.20074757089E+01  0.36649360161E+01  0.26420311948E+02  0.26748730782E+02  0.51100000000E-03 0.  1.
        -12    1    3    3    0    0 -0.21386814853E+01 -0.66376147127E+01  0.12030438476E+02  0.13905514643E+02  0.00000000000E+00 0.  1.
</event>
<event>
 7    1  0.5038211E-009  0.4778728E+02  0.7816164E-02  0.1312668E+00
        -11   -1    0    0    0    0  0.00000000000E+00  0.00000000000E+00  0.45593999997E+02  0.45594000000E+02  0.51100000000E-03 0.  1.
         11   -1    0    0    0    0 -0.00000000000E+00 -0.00000000000E+00 -0.45593999997E+02  0.45594000000E+02  0.51100000000E-03 0. -1.
    9900012    2    1    2    0    0  0.23556822126E+01  0.14710832115E+02  0.40763524076E+02  0.47787277479E+02  0.20000029340E+02 0.  0.
         12    1    1    2    0    0 -0.23556822126E+01 -0.14710832115E+02 -0.40763524076E+02  0.43400722521E+02  0.00000000000E+00 0. -1.
         11    1    3    3    0    0  0.29108780509E+01 -0.30466417771E+00  0.26773617192E+02  0.26933113617E+02  0.51100000000E-03 0. -1.
        -11    1    3    3    0    0 -0.19001307651E+01  0.76844440151E+01  0.83630360183E+01  0.11515274571E+02  0.51100000000E-03 0.  1.
         12    1    3    3    0    0  0.13449349268E+01  0.73310522779E+01  0.56268708658E+01  0.93388892915E+01  0.00000000000E+00 0. -1.
</event>
<event>
 7    1  0.5038211E-009  0.4778726E+02  0.7816164E-02  0.1312668E+00
        -11   -1    0    0    0    0  0.00000000000E+00  0.00000000000E+00  0.45593999997E+02  0.45594000000E+02  0.51100000000E-03 0.  1.
         11   -1    0    0    0    0 -0.00000000000E+00 -0.00000000000E+00 -0.45593999997E+02  0.45594000000E+02  0.51100000000E-03 0. -1.
    9900012    2    1    2    0    0 -0.19556051813E+02  0.19300149158E+01  0.38697031955E+02  0.47787258045E+02  0.19999940729E+02 0.  0.
         12    1    1    2    0    0  0.19556051813E+02 -0.19300149158E+01 -0.38697031955E+02  0.43400741955E+02  0.00000000000E+00 0. -1.
         11    1    3    3    0    0  0.11197266217E+01 -0.36590671207E+01  0.10430829362E+01  0.39661797960E+01  0.51100000000E-03 0. -1.
        -11    1    3    3    0    0 -0.17198558547E+02  0.46488790893E+01  0.25234754170E+02  0.30890051977E+02  0.51100000000E-03 0.  1.
         12    1    3    3    0    0 -0.34772198887E+01  0.94020294722E+00  0.12419194849E+02  0.12931026272E+02  0.00000000000E+00 0. -1.
</event>
<event>
 7    1  0.5038211E-009  0.4778727E+02  0.7816164E-02  0.1312668E+00
        -11   -1    0    0    0    0  0.00000000000E+00  0.00000000000E+00  0.45593999997E+02  0.45594000000E+02  0.51100000000E-03 0.  1.
         11   -1    0    0    0    0 -0.00000000000E+00 -0.00000000000E+00 -0.45593999997E+02  0.45594000000E+02  0.51100000000E-03 0. -1.
    9900012    2    1    2    0    0 -0.15445619345E+01  0.15538444904E+02  0.40494372362E+02  0.47787272649E+02  0.20000007318E+02 0.  0.
         12    1    1    2    0    0  0.15445619345E+01 -0.15538444904E+02 -0.40494372362E+02  0.43400727351E+02  0.00000000000E+00 0. -1.
         11    1    3    3    0    0 -0.30007809220E+01  0.23121212324E+01  0.22924144826E+01  0.44278386552E+01  0.51100000000E-03 0. -1.
        -11    1    3    3    0    0  0.75975909153E+01  0.99536526716E+01  0.17495627035E+02  0.21515007666E+02  0.51100000000E-03 0.  1.
        -12    1    3    3    0    0 -0.61413719277E+01  0.32726710001E+01  0.20706330844E+02  0.21844426329E+02  0.00000000000E+00 0.  1.
</event>
<event>
 7    1  0.5038211E-009  0.4778727E+02  0.7816164E-02  0.1312668E+00
        -11   -1    0    0    0    0  0.00000000000E+00  0.00000000000E+00  0.45593999997E+02  0.45594000000E+02  0.51100000000E-03 0.  1.
         11   -1    0    0    0    0 -0.00000000000E+00 -0.00000000000E+00 -0.45593999997E+02  0.45594000000E+02  0.51100000000E-03 0. -1.
    9900012    2    1    2    0    0  0.38465796850E+02  0.20090578438E+02  0.61185493125E+00  0.47787271484E+02  0.20000002005E+02 0.  0.
         12    1    1    2    0    0 -0.38465796850E+02 -0.20090578438E+02 -0.61185493125E+00  0.43400728516E+02  0.00000000000E+00 0. -1.
         11    1    3    3    0    0  0.16359066416E+02  0.11831367322E+02  0.25310567021E+01  0.20347151029E+02  0.51100000000E-03 0.  1.
        -11    1    3    3    0    0  0.35435028702E+01 -0.17586156955E+01  0.39033206643E+01  0.55574323411E+01  0.51100000000E-03 0. -1.
        -12    1    3    3    0    0  0.18563227563E+02  0.10017826812E+02 -0.58225224352E+01  0.21882688114E+02  0.00000000000E+00 0.  1.
</event>
<event>
 7    1  0.5038211E-009  0.4778727E+02  0.7816164E-02  0.1312668E+00
        -11   -1    0    0    0    0  0.00000000000E+00  0.00000000000E+00  0.45593999997E+02  0.45594000000E+02  0.51100000000E-03 0.  1.
         11   -1    0    0    0    0 -0.00000000000E+00 -0.00000000000E+00 -0.45593999997E+02  0.45594000000E+02  0.51100000000E-03 0. -1.
    9900012    2    1    2    0    0  0.71110847712E+01  0.42471422326E+02  0.54068404381E+01  0.47787272304E+02  0.20000005744E+02 0.  0.
         12    1    1    2    0    0 -0.71110847712E+01 -0.42471422326E+02 -0.54068404381E+01  0.43400727696E+02  0.00000000000E+00 0. -1.
         11    1    3    3    0    0 -0.10970851902E+01 -0.14644704715E+01 -0.54812849371E+00  0.19101609312E+01  0.51100000000E-03 0. -1.
        -11    1    3    3    0    0  0.58715664402E+01  0.25824013480E+02 -0.55661200378E+00  0.26488955847E+02  0.51100000000E-03 0.  1.
         12    1    3    3    0    0  0.23366035212E+01  0.18111879318E+02  0.65115809356E+01  0.19388155526E+02  0.00000000000E+00 0. -1.
</event>
<event>
 7    1  0.5038211E-009  0.4778727E+02  0.7816164E-02  0.1312668E+00
        -11   -1    0    0    0    0  0.00000000000E+00  0.00000000000E+00  0.45593999997E+02  0.45594000000E+02  0.51100000000E-03 0. -1.
         11   -1    0    0    0    0 -0.00000000000E+00 -0.00000000000E+00 -0.45593999997E+02  0.45594000000E+02  0.51100000000E-03 0.  1.
    9900012    2    1    2    0    0  0.21046451203E+02  0.34161220746E+02 -0.16543322713E+02  0.47787266855E+02  0.19999980899E+02 0.  0.
         12    1    1    2    0    0 -0.21046451203E+02 -0.34161220746E+02  0.16543322713E+02  0.43400733145E+02  0.00000000000E+00 0. -1.
         11    1    3    3    0    0  0.93023184131E+01  0.42778374841E+01 -0.75167114257E+01  0.12701731076E+02  0.51100000000E-03 0. -1.
        -11    1    3    3    0    0  0.77739234507E+01  0.25839325499E+02 -0.10921640800E+02  0.29109910101E+02  0.51100000000E-03 0.  1.
         12    1    3    3    0    0  0.39702093394E+01  0.40440577629E+01  0.18950295134E+01  0.59756256781E+01  0.00000000000E+00 0. -1.
</event>
<event>
 7    1  0.5038211E-009  0.4778727E+02  0.7816164E-02  0.1312668E+00
        -11   -1    0    0    0    0  0.00000000000E+00  0.00000000000E+00  0.45593999997E+02  0.45594000000E+02  0.51100000000E-03 0.  1.
         11   -1    0    0    0    0 -0.00000000000E+00 -0.00000000000E+00 -0.45593999997E+02  0.45594000000E+02  0.51100000000E-03 0. -1.
    9900012    2    1    2    0    0  0.10161440183E+02  0.41428328148E+02  0.80038832140E+01  0.47787269750E+02  0.19999994097E+02 0.  0.
         12    1    1    2    0    0 -0.10161440183E+02 -0.41428328148E+02 -0.80038832140E+01  0.43400730250E+02  0.00000000000E+00 0. -1.
         11    1    3    3    0    0  0.33651693500E+01  0.22201931845E+01 -0.26762591964E+01  0.48390067244E+01  0.51100000000E-03 0. -1.
        -11    1    3    3    0    0  0.33467622258E+01  0.37006368387E+02  0.78635474226E+01  0.37980356724E+02  0.51100000000E-03 0.  1.
         12    1    3    3    0    0  0.34495086073E+01  0.22017665773E+01  0.28165949878E+01  0.49679063013E+01  0.00000000000E+00 0. -1.
</event>
<event>
 7    1  0.5038211E-009  0.4778727E+02  0.7816164E-02  0.1312668E+00
        -11   -1    0    0    0    0  0.00000000000E+00  0.00000000000E+00  0.45593999997E+02  0.45594000000E+02  0.51100000000E-03 0.  1.
         11   -1    0    0    0    0 -0.00000000000E+00 -0.00000000000E+00 -0.45593999997E+02  0.45594000000E+02  0.51100000000E-03 0. -1.
    9900012    2    1    2    0    0  0.34368920645E+02  0.93890170866E+01  0.24784005587E+02  0.47787270961E+02  0.19999999621E+02 0.  0.
         12    1    1    2    0    0 -0.34368920645E+02 -0.93890170866E+01 -0.24784005587E+02  0.43400729039E+02  0.00000000000E+00 0. -1.
         11    1    3    3    0    0  0.17441332338E+02 -0.30885298210E+01  0.86143279469E+01  0.19696338148E+02  0.51100000000E-03 0. -1.
        -11    1    3    3    0    0  0.12854720271E+02  0.49320170894E+01  0.13039022654E+02  0.18962719686E+02  0.51100000000E-03 0.  1.
         12    1    3    3    0    0  0.40728680350E+01  0.75455298182E+01  0.31306549859E+01  0.91282131280E+01  0.00000000000E+00 0. -1.
</event>
<event>
 7    1  0.5038211E-009  0.4778727E+02  0.7816164E-02  0.1312668E+00
        -11   -1    0    0    0    0  0.00000000000E+00  0.00000000000E+00  0.45593999997E+02  0.45594000000E+02  0.51100000000E-03 0.  1.
         11   -1    0    0    0    0 -0.00000000000E+00 -0.00000000000E+00 -0.45593999997E+02  0.45594000000E+02  0.51100000000E-03 0. -1.
    9900012    2    1    2    0    0  0.35401651763E+02  0.27079968524E+01  0.24960228314E+02  0.47787271987E+02  0.20000004299E+02 0.  0.
         12    1    1    2    0    0 -0.35401651763E+02 -0.27079968524E+01 -0.24960228314E+02  0.43400728013E+02  0.00000000000E+00 0. -1.
         11    1    3    3    0    0  0.16408202652E+01  0.17705998989E+01  0.98551429326E+00  0.26074036565E+01  0.51100000000E-03 0.  1.
        -11    1    3    3    0    0  0.56582609438E+00  0.34377955747E+01  0.69855566499E+01  0.78061898230E+01  0.51100000000E-03 0. -1.
        -12    1    3    3    0    0  0.33195005404E+02 -0.25003986212E+01  0.16989157371E+02  0.37373678508E+02  0.00000000000E+00 0.  1.
</event>
<event>
 7    1  0.5038211E-009  0.4778728E+02  0.7816164E-02  0.1312668E+00
        -11   -1    0    0    0    0  0.00000000000E+00  0.00000000000E+00  0.45593999997E+02  0.45594000000E+02  0.51100000000E-03 0. -1.
         11   -1    0    0    0    0 -0.00000000000E+00 -0.00000000000E+00 -0.45593999997E+02  0.45594000000E+02  0.51100000000E-03 0.  1.
    9900012    2    1    2    0    0  0.15164417728E+02  0.39458671612E+02  0.98323939681E+01  0.47787282246E+02  0.20000051073E+02 0.  0.
         12    1    1    2    0    0 -0.15164417728E+02 -0.39458671612E+02 -0.98323939681E+01  0.43400717754E+02  0.00000000000E+00 0. -1.
         11    1    3    3    0    0  0.66485075279E+01  0.41132449996E+01  0.33697314712E+01  0.85133147026E+01  0.51100000000E-03 0. -1.
        -11    1    3    3    0    0  0.41588319536E+01  0.31095344723E+02  0.90630650013E+01  0.32655099053E+02  0.51100000000E-03 0.  1.
         12    1    3    3    0    0  0.43570782464E+01  0.42500818890E+01 -0.26004025045E+01  0.66188684904E+01  0.00000000000E+00 0. -1.
</event>
<event>
 7    1  0.5038211E-009  0.4778727E+02  0.7816164E-02  0.1312668E+00
        -11   -1    0    0    0    0  0.00000000000E+00  0.00000000000E+00  0.45593999997E+02  0.45594000000E+02  0.51100000000E-03 0. -1.
         11   -1    0    0    0    0 -0.00000000000E+00 -0.00000000000E+00 -0.45593999997E+02  0.45594000000E+02  0.51100000000E-03 0.  1.
    9900012    2    1    2    0    0  0.14016086256E+02  0.92073931318E+01 -0.40029947572E+02  0.47787268844E+02  0.19999989968E+02 0.  0.
         12    1    1    2    0    0 -0.14016086256E+02 -0.92073931318E+01  0.40029947572E+02  0.43400731156E+02  0.00000000000E+00 0. -1.
         11    1    3    3    0    0  0.40814216342E+00 -0.11012161134E+00  0.15544115975E+01  0.16108700973E+01  0.51100000000E-03 0. -1.
        -11    1    3    3    0    0  0.13885976671E+02  0.10292022201E+02 -0.30589481521E+02  0.35134917804E+02  0.51100000000E-03 0.  1.
         12    1    3    3    0    0 -0.27803257808E+00 -0.97450745816E+00 -0.10994877649E+02  0.11041480943E+02  0.00000000000E+00 0. -1.
</event>
<event>
 7    1  0.5038211E-009  0.4778727E+02  0.7816164E-02  0.1312668E+00
        -11   -1    0    0    0    0  0.00000000000E+00  0.00000000000E+00  0.45593999997E+02  0.45594000000E+02  0.51100000000E-03 0.  1.
         11   -1    0    0    0    0 -0.00000000000E+00 -0.00000000000E+00 -0.45593999997E+02  0.45594000000E+02  0.51100000000E-03 0. -1.
    9900012    2    1    2    0    0 -0.33967492468E+02 -0.20834189889E+02  0.17197948269E+02  0.47787269159E+02  0.19999991403E+02 0.  0.
         12    1    1    2    0    0  0.33967492468E+02  0.20834189889E+02 -0.17197948269E+02  0.43400730841E+02  0.00000000000E+00 0. -1.
         11    1    3    3    0    0 -0.12505966719E+02 -0.45531842912E+01  0.10625496100E+02  0.17030321735E+02  0.51100000000E-03 0.  1.
        -11    1    3    3    0    0 -0.83739753140E+01 -0.13239718214E+02 -0.29270327915E+00  0.15668416525E+02  0.51100000000E-03 0. -1.
         12    1    3    3    0    0 -0.13087550435E+02 -0.30412873835E+01  0.68651554484E+01  0.15088530898E+02  0.00000000000E+00 0. -1.
</event>
<event>
 7    1  0.5038211E-009  0.4778727E+02  0.7816164E-02  0.1312668E+00
        -11   -1    0    0    0    0  0.00000000000E+00  0.00000000000E+00  0.45593999997E+02  0.45594000000E+02  0.51100000000E-03 0.  1.
         11   -1    0    0    0    0 -0.00000000000E+00 -0.00000000000E+00 -0.45593999997E+02  0.45594000000E+02  0.51100000000E-03 0. -1.
    9900012    2    1    2    0    0  0.42795515293E+02 -0.71640806157E+01 -0.91830279750E+00  0.47787268897E+02  0.19999990210E+02 0.  0.
         12    1    1    2    0    0 -0.42795515293E+02  0.71640806157E+01  0.91830279750E+00  0.43400731103E+02  0.00000000000E+00 0. -1.
         11    1    3    3    0    0  0.19238050561E+02 -0.75327556259E+00  0.23315066740E+01  0.19393450881E+02  0.51100000000E-03 0. -1.
        -11    1    3    3    0    0  0.99006466588E+00 -0.92184902947E+00  0.38716618705E+01  0.41011948961E+01  0.51100000000E-03 0.  1.
        -12    1    3    3    0    0  0.22567400066E+02 -0.54889560236E+01 -0.71214713419E+01  0.24292623120E+02  0.00000000000E+00 0.  1.
</event>
<event>
 7    1  0.5038211E-009  0.4778727E+02  0.7816164E-02  0.1312668E+00
        -11   -1    0    0    0    0  0.00000000000E+00  0.00000000000E+00  0.45593999997E+02  0.45594000000E+02  0.51100000000E-03 0.  1.
         11   -1    0    0    0    0 -0.00000000000E+00 -0.00000000000E+00 -0.45593999997E+02  0.45594000000E+02  0.51100000000E-03 0. -1.
    9900012    2    1    2    0    0 -0.10482580371E+01  0.23969527104E+02  0.36166091661E+02  0.47787271198E+02  0.20000000700E+02 0.  0.
         12    1    1    2    0    0  0.10482580371E+01 -0.23969527104E+02 -0.36166091661E+02  0.43400728802E+02  0.00000000000E+00 0. -1.
         11    1    3    3    0    0  0.33907652327E+01  0.21273016840E+01  0.53645981798E+00  0.40386248545E+01  0.51100000000E-03 0. -1.
        -11    1    3    3    0    0 -0.57750757603E+01  0.17627325541E+02  0.34522956306E+02  0.39190670039E+02  0.51100000000E-03 0.  1.
        -12    1    3    3    0    0  0.13360524904E+01  0.42148998789E+01  0.11066755377E+01  0.45579763044E+01  0.00000000000E+00 0.  1.
</event>
<event>
 7    1  0.5038211E-009  0.4778727E+02  0.7816164E-02  0.1312668E+00
        -11   -1    0    0    0    0  0.00000000000E+00  0.00000000000E+00  0.45593999997E+02  0.45594000000E+02  0.51100000000E-03 0. -1.
         11   -1    0    0    0    0 -0.00000000000E+00 -0.00000000000E+00 -0.45593999997E+02  0.45594000000E+02  0.51100000000E-03 0.  1.
    9900012    2    1    2    0    0  0.32889446858E+02  0.22044003986E+02 -0.17775520342E+02  0.47787274779E+02  0.20000017025E+02 0.  0.
         12    1    1    2    0    0 -0.32889446858E+02 -0.22044003986E+02  0.17775520342E+02  0.43400725221E+02  0.00000000000E+00 0. -1.
         11    1    3    3    0    0  0.52612419546E+00 -0.19680582484E+01  0.96716130032E+00  0.22550967119E+01  0.51100000000E-03 0. -1.
        -11    1    3    3    0    0  0.22989630139E+02  0.19775492891E+02 -0.97066732966E+01  0.31840425873E+02  0.51100000000E-03 0.  1.
         12    1    3    3    0    0  0.93736925226E+01  0.42365693435E+01 -0.90360083457E+01  0.13691752194E+02  0.00000000000E+00 0. -1.
</event>
<event>
 7    1  0.5038211E-009  0.4778727E+02  0.7816164E-02  0.1312668E+00
        -11   -1    0    0    0    0  0.00000000000E+00  0.00000000000E+00  0.45593999997E+02  0.45594000000E+02  0.51100000000E-03 0.  1.
         11   -1    0    0    0    0 -0.00000000000E+00 -0.00000000000E+00 -0.45593999997E+02  0.45594000000E+02  0.51100000000E-03 0. -1.
    9900012    2    1    2    0    0  0.36263349232E+02  0.41785188446E+01  0.23476221965E+02  0.47787268267E+02  0.19999987335E+02 0.  0.
         12    1    1    2    0    0 -0.36263349232E+02 -0.41785188446E+01 -0.23476221965E+02  0.43400731733E+02  0.00000000000E+00 0. -1.
         11    1    3    3    0    0  0.25285070284E+02  0.58270561603E+01  0.56081798368E+01  0.26546959226E+02  0.51100000000E-03 0. -1.
        -11    1    3    3    0    0  0.93667009905E+01 -0.81165398209E+00  0.16405843972E+02  0.18908875861E+02  0.51100000000E-03 0.  1.
        -12    1    3    3    0    0  0.16115779572E+01 -0.83688333353E+00  0.14621981563E+01  0.23314331803E+01  0.00000000000E+00 0.  1.
</event>
<event>
 7    1  0.5038211E-009  0.4778727E+02  0.7816164E-02  0.1312668E+00
        -11   -1    0    0    0    0  0.00000000000E+00  0.00000000000E+00  0.45593999997E+02  0.45594000000E+02  0.51100000000E-03 0. -1.
         11   -1    0    0    0    0 -0.00000000000E+00 -0.00000000000E+00 -0.45593999997E+02  0.45594000000E+02  0.51100000000E-03 0.  1.
    9900012    2    1    2    0    0 -0.81992395238E+01 -0.16219887438E+02 -0.39412073293E+02  0.47787265000E+02  0.19999972443E+02 0.  0.
         12    1    1    2    0    0  0.81992395238E+01  0.16219887438E+02  0.39412073293E+02  0.43400735000E+02  0.00000000000E+00 0. -1.
         11    1    3    3    0    0  0.38521378863E+01 -0.11459999372E+02 -0.14393352268E+02  0.18797317407E+02  0.51100000000E-03 0. -1.
        -11    1    3    3    0    0 -0.75461999336E+01 -0.63414587124E+01 -0.16262926857E+02  0.19016887818E+02  0.51100000000E-03 0.  1.
         12    1    3    3    0    0 -0.45051774765E+01  0.15815706462E+01 -0.87557941669E+01  0.99730597761E+01  0.00000000000E+00 0. -1.
</event>
<event>
 7    1  0.5038211E-009  0.4778727E+02  0.7816164E-02  0.1312668E+00
        -11   -1    0    0    0    0  0.00000000000E+00  0.00000000000E+00  0.45593999997E+02  0.45594000000E+02  0.51100000000E-03 0.  1.
         11   -1    0    0    0    0 -0.00000000000E+00 -0.00000000000E+00 -0.45593999997E+02  0.45594000000E+02  0.51100000000E-03 0. -1.
    9900012    2    1    2    0    0 -0.27261643436E+02  0.28721040954E+02  0.17763109934E+02  0.47787268775E+02  0.19999989653E+02 0.  0.
         12    1    1    2    0    0  0.27261643436E+02 -0.28721040954E+02 -0.17763109934E+02  0.43400731225E+02  0.00000000000E+00 0. -1.
         11    1    3    3    0    0 -0.21046213824E+01  0.49561772610E+01  0.87564845474E+01  0.10279549898E+02  0.51100000000E-03 0. -1.
        -11    1    3    3    0    0 -0.23357294121E+02  0.23326455137E+02  0.53944350068E+01  0.33448267925E+02  0.51100000000E-03 0.  1.
        -12    1    3    3    0    0 -0.17997279332E+01  0.43840855639E+00  0.36121903797E+01  0.40594509524E+01  0.00000000000E+00 0.  1.
</event>
<event>
 7    1 -0.2370031E-008  0.4778727E+02  0.7816164E-02  0.1312668E+00
        -11   -1    0    0    0    0  0.00000000000E+00  0.00000000000E+00  0.45593999997E+02  0.45594000000E+02  0.51100000000E-03 0.  1.
         11   -1    0    0    0    0 -0.00000000000E+00 -0.00000000000E+00 -0.45593999997E+02  0.45594000000E+02  0.51100000000E-03 0. -1.
    9900012    2    1    2    0    0 -0.11429789665E+02  0.40974116366E+02  0.86084093700E+01  0.47787274020E+02  0.20000013565E+02 0.  0.
         12    1    1    2    0    0  0.11429789665E+02 -0.40974116366E+02 -0.86084093700E+01  0.43400725980E+02  0.00000000000E+00 0. -1.
         11    1    3    3    0    0  0.14984435124E+01  0.18222962348E+00  0.80339362987E+00  0.17099655497E+01  0.51100000000E-03 0. -1.
        -11    1    3    3    0    0 -0.33549478216E+01  0.29329520446E+02  0.95836824398E+01  0.31037451794E+02  0.51100000000E-03 0.  1.
        -12    1    3    3    0    0 -0.95732853559E+01  0.11462366296E+02 -0.17786666996E+01  0.15039856676E+02  0.00000000000E+00 0.  1.
</event>
<event>
 7    1  0.5038211E-009  0.4778727E+02  0.7816164E-02  0.1312668E+00
        -11   -1    0    0    0    0  0.00000000000E+00  0.00000000000E+00  0.45593999997E+02  0.45594000000E+02  0.51100000000E-03 0.  1.
         11   -1    0    0    0    0 -0.00000000000E+00 -0.00000000000E+00 -0.45593999997E+02  0.45594000000E+02  0.51100000000E-03 0. -1.
    9900012    2    1    2    0    0 -0.21054811359E+02  0.49754913675E+01  0.37623965999E+02  0.47787269440E+02  0.19999992683E+02 0.  0.
         12    1    1    2    0    0  0.21054811359E+02 -0.49754913675E+01 -0.37623965999E+02  0.43400730560E+02  0.00000000000E+00 0. -1.
         11    1    3    3    0    0 -0.48104185805E+01  0.59669584850E+01  0.41242374501E+01  0.87036805598E+01  0.51100000000E-03 0. -1.
        -11    1    3    3    0    0 -0.12682934018E+02 -0.59641066330E+01  0.23237010132E+02  0.27136433505E+02  0.51100000000E-03 0.  1.
        -12    1    3    3    0    0 -0.35614587609E+01  0.49726395155E+01  0.10262718416E+02  0.11947155375E+02  0.00000000000E+00 0.  1.
</event>
<event>
 7    1  0.5038211E-009  0.4778727E+02  0.7816164E-02  0.1312668E+00
        -11   -1    0    0    0    0  0.00000000000E+00  0.00000000000E+00  0.45593999997E+02  0.45594000000E+02  0.51100000000E-03 0.  1.
         11   -1    0    0    0    0 -0.00000000000E+00 -0.00000000000E+00 -0.45593999997E+02  0.45594000000E+02  0.51100000000E-03 0. -1.
    9900012    2    1    2    0    0 -0.38341662755E+02  0.17196428325E+02 -0.10854654463E+02  0.47787265289E+02  0.19999973759E+02 0.  0.
         12    1    1    2    0    0  0.38341662755E+02 -0.17196428325E+02  0.10854654463E+02  0.43400734711E+02  0.00000000000E+00 0. -1.
         11    1    3    3    0    0 -0.73591497580E+01 -0.43431269070E+01 -0.29388011097E+01  0.90363924612E+01  0.51100000000E-03 0. -1.
        -11    1    3    3    0    0 -0.46412619818E+01  0.16859982211E+01 -0.72518575874E+00  0.49909715919E+01  0.51100000000E-03 0.  1.
         12    1    3    3    0    0 -0.26341251015E+02  0.19853557010E+02 -0.71906675948E+01  0.33759901236E+02  0.00000000000E+00 0. -1.
</event>
<event>
 7    1  0.5038211E-009  0.4778727E+02  0.7816164E-02  0.1312668E+00
        -11   -1    0    0    0    0  0.00000000000E+00  0.00000000000E+00  0.45593999997E+02  0.45594000000E+02  0.51100000000E-03 0. -1.
         11   -1    0    0    0    0 -0.00000000000E+00 -0.00000000000E+00 -0.45593999997E+02  0.45594000000E+02  0.51100000000E-03 0.  1.
    9900012    2    1    2    0    0 -0.15529945116E+02  0.73727065473E+01 -0.39850813768E+02  0.47787270108E+02  0.19999995732E+02 0.  0.
         12    1    1    2    0    0  0.15529945116E+02 -0.73727065473E+01  0.39850813768E+02  0.43400729892E+02  0.00000000000E+00 0. -1.
         11    1    3    3    0    0 -0.12987329554E+02  0.54500270086E+00 -0.19147209384E+02  0.23142674529E+02  0.51100000000E-03 0.  1.
        -11    1    3    3    0    0  0.13592222800E+01  0.39097781650E+00 -0.15332824846E+02  0.15397917615E+02  0.51100000000E-03 0. -1.
        -12    1    3    3    0    0 -0.39018378422E+01  0.64367260299E+01 -0.53707795384E+01  0.92466779647E+01  0.00000000000E+00 0.  1.
</event>
<event>
 7    1  0.5038211E-009  0.4778727E+02  0.7816164E-02  0.1312668E+00
        -11   -1    0    0    0    0  0.00000000000E+00  0.00000000000E+00  0.45593999997E+02  0.45594000000E+02  0.51100000000E-03 0. -1.
         11   -1    0    0    0    0 -0.00000000000E+00 -0.00000000000E+00 -0.45593999997E+02  0.45594000000E+02  0.51100000000E-03 0.  1.
    9900012    2    1    2    0    0 -0.35170861630E+02  0.11599366028E+02 -0.22629376318E+02  0.47787268755E+02  0.19999989564E+02 0.  0.
         12    1    1    2    0    0  0.35170861630E+02 -0.11599366028E+02  0.22629376318E+02  0.43400731245E+02  0.00000000000E+00 0. -1.
         11    1    3    3    0    0 -0.29326232279E+01  0.23196980249E+01 -0.11478391967E+02  0.12072065289E+02  0.51100000000E-03 0. -1.
        -11    1    3    3    0    0 -0.22444927038E+02  0.88495553467E+01 -0.78396409971E+01  0.25368274494E+02  0.51100000000E-03 0.  1.
         12    1    3    3    0    0 -0.97933113632E+01  0.43011265662E+00 -0.33113433538E+01  0.10346928972E+02  0.00000000000E+00 0. -1.
</event>
<event>
 7    1  0.5038211E-009  0.4778727E+02  0.7816164E-02  0.1312668E+00
        -11   -1    0    0    0    0  0.00000000000E+00  0.00000000000E+00  0.45593999997E+02  0.45594000000E+02  0.51100000000E-03 0.  1.
         11   -1    0    0    0    0 -0.00000000000E+00 -0.00000000000E+00 -0.45593999997E+02  0.45594000000E+02  0.51100000000E-03 0. -1.
    9900012    2    1    2    0    0 -0.25726344994E+02  0.26961720581E+02  0.22245091114E+02  0.47787270950E+02  0.19999999568E+02 0.  0.
         12    1    1    2    0    0  0.25726344994E+02 -0.26961720581E+02 -0.22245091114E+02  0.43400729050E+02  0.00000000000E+00 0. -1.
         11    1    3    3    0    0 -0.81035282596E+01  0.11400844964E+02  0.50361160040E+01  0.14866368111E+02  0.51100000000E-03 0. -1.
        -11    1    3    3    0    0  0.64427256759E+00  0.79455974335E+01  0.28344059962E+01  0.84605829190E+01  0.51100000000E-03 0.  1.
        -12    1    3    3    0    0 -0.18267089302E+02  0.76152781835E+01  0.14374569113E+02  0.24460319920E+02  0.00000000000E+00 0.  1.
</event>
<event>
 7    1  0.5038211E-009  0.4778727E+02  0.7816164E-02  0.1312668E+00
        -11   -1    0    0    0    0  0.00000000000E+00  0.00000000000E+00  0.45593999997E+02  0.45594000000E+02  0.51100000000E-03 0. -1.
         11   -1    0    0    0    0 -0.00000000000E+00 -0.00000000000E+00 -0.45593999997E+02  0.45594000000E+02  0.51100000000E-03 0.  1.
    9900012    2    1    2    0    0  0.24515136292E+02 -0.20583719294E+02 -0.29307708880E+02  0.47787271813E+02  0.20000003503E+02 0.  0.
         12    1    1    2    0    0 -0.24515136292E+02  0.20583719294E+02  0.29307708880E+02  0.43400728187E+02  0.00000000000E+00 0. -1.
         11    1    3    3    0    0  0.82962335743E+01 -0.77201077672E+01  0.64116382310E+00  0.11350711289E+02  0.51100000000E-03 0. -1.
        -11    1    3    3    0    0  0.69375561486E+01 -0.59820319818E+01 -0.12150870167E+02  0.15217031183E+02  0.51100000000E-03 0.  1.
         12    1    3    3    0    0  0.92813465689E+01 -0.68815795449E+01 -0.17798002536E+02  0.21219529341E+02  0.00000000000E+00 0. -1.
</event>
<event>
 7    1  0.5038211E-009  0.4778727E+02  0.7816164E-02  0.1312668E+00
        -11   -1    0    0    0    0  0.00000000000E+00  0.00000000000E+00  0.45593999997E+02  0.45594000000E+02  0.51100000000E-03 0.  1.
         11   -1    0    0    0    0 -0.00000000000E+00 -0.00000000000E+00 -0.45593999997E+02  0.45594000000E+02  0.51100000000E-03 0. -1.
    9900012    2    1    2    0    0  0.14052935099E+02  0.40218934503E+02  0.82810357164E+01  0.47787271550E+02  0.20000002306E+02 0.  0.
         12    1    1    2    0    0 -0.14052935099E+02 -0.40218934503E+02 -0.82810357164E+01  0.43400728450E+02  0.00000000000E+00 0. -1.
         11    1    3    3    0    0  0.58937518897E+00 -0.13474081759E+01 -0.21716868342E+01  0.26228030564E+01  0.51100000000E-03 0. -1.
        -11    1    3    3    0    0  0.74484216203E+01  0.23964791119E+02  0.36554932321E+01  0.25360457982E+02  0.51100000000E-03 0.  1.
         12    1    3    3    0    0  0.60151382895E+01  0.17601551560E+02  0.67972293184E+01  0.19804010512E+02  0.00000000000E+00 0. -1.
</event>
<event>
 7    1  0.5038211E-009  0.4778727E+02  0.7816164E-02  0.1312668E+00
        -11   -1    0    0    0    0  0.00000000000E+00  0.00000000000E+00  0.45593999997E+02  0.45594000000E+02  0.51100000000E-03 0.  1.
         11   -1    0    0    0    0 -0.00000000000E+00 -0.00000000000E+00 -0.45593999997E+02  0.45594000000E+02  0.51100000000E-03 0. -1.
    9900012    2    1    2    0    0 -0.37209146265E+02  0.74837847700E+01  0.21049838032E+02  0.47787270958E+02  0.19999999604E+02 0.  0.
         12    1    1    2    0    0  0.37209146265E+02 -0.74837847700E+01 -0.21049838032E+02  0.43400729042E+02  0.00000000000E+00 0. -1.
         11    1    3    3    0    0 -0.62834385032E+01  0.61085817540E+01  0.37104094639E+01  0.95164861750E+01  0.51100000000E-03 0. -1.
        -11    1    3    3    0    0 -0.26506627322E+01  0.37536345350E+00 -0.25415858165E+01  0.36914183407E+01  0.51100000000E-03 0.  1.
        -12    1    3    3    0    0 -0.28275045029E+02  0.99983956244E+00  0.19881014385E+02  0.34579366442E+02  0.00000000000E+00 0.  1.
</event>
<event>
 7    1  0.5038211E-009  0.4778728E+02  0.7816164E-02  0.1312668E+00
        -11   -1    0    0    0    0  0.00000000000E+00  0.00000000000E+00  0.45593999997E+02  0.45594000000E+02  0.51100000000E-03 0.  1.
         11   -1    0    0    0    0 -0.00000000000E+00 -0.00000000000E+00 -0.45593999997E+02  0.45594000000E+02  0.51100000000E-03 0. -1.
    9900012    2    1    2    0    0  0.69792367013E+01 -0.37251810561E+01  0.42673592155E+02  0.47787283574E+02  0.20000057128E+02 0.  0.
         12    1    1    2    0    0 -0.69792367013E+01  0.37251810561E+01 -0.42673592155E+02  0.43400716426E+02  0.00000000000E+00 0. -1.
         11    1    3    3    0    0 -0.22884694192E+01 -0.25466668800E+01  0.26385937057E+00  0.34339811457E+01  0.51100000000E-03 0. -1.
        -11    1    3    3    0    0  0.40005944770E+01  0.35412083288E+01  0.24948625187E+02  0.25514286421E+02  0.51100000000E-03 0.  1.
        -12    1    3    3    0    0  0.52671116436E+01 -0.47197225049E+01  0.17461107598E+02  0.18839016007E+02  0.00000000000E+00 0.  1.
</event>
<event>
 7    1  0.5038211E-009  0.4778727E+02  0.7816164E-02  0.1312668E+00
        -11   -1    0    0    0    0  0.00000000000E+00  0.00000000000E+00  0.45593999997E+02  0.45594000000E+02  0.51100000000E-03 0. -1.
         11   -1    0    0    0    0 -0.00000000000E+00 -0.00000000000E+00 -0.45593999997E+02  0.45594000000E+02  0.51100000000E-03 0.  1.
    9900012    2    1    2    0    0 -0.28263288498E+02 -0.29912922436E+02 -0.13785014350E+02  0.47787273900E+02  0.20000013019E+02 0.  0.
         12    1    1    2    0    0  0.28263288498E+02  0.29912922436E+02  0.13785014350E+02  0.43400726100E+02  0.00000000000E+00 0. -1.
         11    1    3    3    0    0 -0.48760244618E+01 -0.14432244237E+02  0.59689694007E-01  0.15233806202E+02  0.51100000000E-03 0. -1.
        -11    1    3    3    0    0 -0.79989874119E+01 -0.92040456967E+01 -0.25455520947E+01  0.12457049913E+02  0.51100000000E-03 0.  1.
         12    1    3    3    0    0 -0.15388276624E+02 -0.62766325024E+01 -0.11299151949E+02  0.20096417785E+02  0.00000000000E+00 0. -1.
</event>
<event>
 7    1  0.5038211E-009  0.4778727E+02  0.7816164E-02  0.1312668E+00
        -11   -1    0    0    0    0  0.00000000000E+00  0.00000000000E+00  0.45593999997E+02  0.45594000000E+02  0.51100000000E-03 0.  1.
         11   -1    0    0    0    0 -0.00000000000E+00 -0.00000000000E+00 -0.45593999997E+02  0.45594000000E+02  0.51100000000E-03 0. -1.
    9900012    2    1    2    0    0 -0.60718848093E+01  0.42285969728E+02  0.76584665032E+01  0.47787272701E+02  0.20000007551E+02 0.  0.
         12    1    1    2    0    0  0.60718848093E+01 -0.42285969728E+02 -0.76584665032E+01  0.43400727299E+02  0.00000000000E+00 0. -1.
         11    1    3    3    0    0 -0.10402429815E+02  0.18962587730E+02  0.29431537302E+01  0.21827790397E+02  0.51100000000E-03 0. -1.
        -11    1    3    3    0    0  0.16666700549E+01  0.11805122097E+02  0.71321693137E+01  0.13892679230E+02  0.51100000000E-03 0.  1.
         12    1    3    3    0    0  0.26638749509E+01  0.11518259900E+02 -0.24168565406E+01  0.12066803073E+02  0.00000000000E+00 0. -1.
</event>
<event>
 7    1  0.5038211E-009  0.4778727E+02  0.7816164E-02  0.1312668E+00
        -11   -1    0    0    0    0  0.00000000000E+00  0.00000000000E+00  0.45593999997E+02  0.45594000000E+02  0.51100000000E-03 0.  1.
         11   -1    0    0    0    0 -0.00000000000E+00 -0.00000000000E+00 -0.45593999997E+02  0.45594000000E+02  0.51100000000E-03 0. -1.
    9900012    2    1    2    0    0 -0.12450185551E+02 -0.24200364826E+02  0.33807668358E+02  0.47787271690E+02  0.20000002945E+02 0.  0.
         12    1    1    2    0    0  0.12450185551E+02  0.24200364826E+02 -0.33807668358E+02  0.43400728310E+02  0.00000000000E+00 0. -1.
         11    1    3    3    0    0 -0.30640245113E+01 -0.13238226987E+01  0.14739383943E+02  0.15112583896E+02  0.51100000000E-03 0. -1.
        -11    1    3    3    0    0 -0.58383227176E+01 -0.45397272564E+01  0.82959589983E+01  0.11113868439E+02  0.51100000000E-03 0.  1.
         12    1    3    3    0    0 -0.35478383225E+01 -0.18336814871E+02  0.10772325417E+02  0.21560819355E+02  0.00000000000E+00 0. -1.
</event>
<event>
 7    1  0.5038211E-009  0.4778727E+02  0.7816164E-02  0.1312668E+00
        -11   -1    0    0    0    0  0.00000000000E+00  0.00000000000E+00  0.45593999997E+02  0.45594000000E+02  0.51100000000E-03 0.  1.
         11   -1    0    0    0    0 -0.00000000000E+00 -0.00000000000E+00 -0.45593999997E+02  0.45594000000E+02  0.51100000000E-03 0. -1.
    9900012    2    1    2    0    0  0.18104850850E+01  0.12239223702E+02  0.41599843496E+02  0.47787269223E+02  0.19999991695E+02 0.  0.
         12    1    1    2    0    0 -0.18104850850E+01 -0.12239223702E+02 -0.41599843496E+02  0.43400730777E+02  0.00000000000E+00 0. -1.
         11    1    3    3    0    0 -0.20209237012E+01 -0.41932624648E+01  0.47332063876E+01  0.66385861201E+01  0.51100000000E-03 0. -1.
        -11    1    3    3    0    0  0.33712548528E+01  0.17119691450E+02  0.35319373513E+02  0.39394255168E+02  0.51100000000E-03 0.  1.
        -12    1    3    3    0    0  0.46015393346E+00 -0.68720528333E+00  0.15472635959E+01  0.17544279350E+01  0.00000000000E+00 0.  1.
</event>
<event>
 7    1  0.5038211E-009  0.4778727E+02  0.7816164E-02  0.1312668E+00
        -11   -1    0    0    0    0  0.00000000000E+00  0.00000000000E+00  0.45593999997E+02  0.45594000000E+02  0.51100000000E-03 0.  1.
         11   -1    0    0    0    0 -0.00000000000E+00 -0.00000000000E+00 -0.45593999997E+02  0.45594000000E+02  0.51100000000E-03 0. -1.
    9900012    2    1    2    0    0 -0.22945262809E+02  0.52097531253E+01  0.36469119820E+02  0.47787270589E+02  0.19999997922E+02 0.  0.
         12    1    1    2    0    0  0.22945262809E+02 -0.52097531253E+01 -0.36469119820E+02  0.43400729411E+02  0.00000000000E+00 0. -1.
         11    1    3    3    0    0 -0.90944522392E+00 -0.34395611433E+01  0.74756789925E+01  0.82790970603E+01  0.51100000000E-03 0. -1.
        -11    1    3    3    0    0 -0.21445033097E+02  0.51185091336E+01  0.28278610584E+02  0.35857612819E+02  0.51100000000E-03 0.  1.
        -12    1    3    3    0    0 -0.59078448757E+00  0.35308051351E+01  0.71483024358E+00  0.36505607089E+01  0.00000000000E+00 0.  1.
</event>
<event>
 7    1  0.5038211E-009  0.4778726E+02  0.7816164E-02  0.1312668E+00
        -11   -1    0    0    0    0  0.00000000000E+00  0.00000000000E+00  0.45593999997E+02  0.45594000000E+02  0.51100000000E-03 0. -1.
         11   -1    0    0    0    0 -0.00000000000E+00 -0.00000000000E+00 -0.45593999997E+02  0.45594000000E+02  0.51100000000E-03 0.  1.
    9900012    2    1    2    0    0 -0.22798214001E+02  0.36709852710E+02  0.40313978168E+01  0.47787262495E+02  0.19999961022E+02 0.  0.
         12    1    1    2    0    0  0.22798214001E+02 -0.36709852710E+02 -0.40313978168E+01  0.43400737505E+02  0.00000000000E+00 0. -1.
         11    1    3    3    0    0 -0.93489877193E+01  0.13079691328E+02 -0.61984401947E+01  0.17230860620E+02  0.51100000000E-03 0. -1.
        -11    1    3    3    0    0 -0.10984343483E+02  0.18453583627E+02  0.35725126457E+01  0.21770470764E+02  0.51100000000E-03 0.  1.
         12    1    3    3    0    0 -0.24648827979E+01  0.51765777555E+01  0.66573253658E+01  0.87859311113E+01  0.00000000000E+00 0. -1.
</event>
<event>
 7    1  0.5038211E-009  0.4778727E+02  0.7816164E-02  0.1312668E+00
        -11   -1    0    0    0    0  0.00000000000E+00  0.00000000000E+00  0.45593999997E+02  0.45594000000E+02  0.51100000000E-03 0. -1.
         11   -1    0    0    0    0 -0.00000000000E+00 -0.00000000000E+00 -0.45593999997E+02  0.45594000000E+02  0.51100000000E-03 0.  1.
    9900012    2    1    2    0    0 -0.41658917591E+02 -0.10702852713E+02 -0.57971468339E+01  0.47787269793E+02  0.19999994295E+02 0.  0.
         12    1    1    2    0    0  0.41658917591E+02  0.10702852713E+02  0.57971468339E+01  0.43400730207E+02  0.00000000000E+00 0. -1.
         11    1    3    3    0    0 -0.29544847506E+01 -0.11981501834E+01  0.46613144220E+01  0.56473353367E+01  0.51100000000E-03 0. -1.
        -11    1    3    3    0    0 -0.27269629836E+02 -0.10212524006E+02 -0.53976140390E+01  0.29615242621E+02  0.51100000000E-03 0.  1.
         12    1    3    3    0    0 -0.11434803005E+02  0.70782147674E+00 -0.50608472170E+01  0.12524691835E+02  0.00000000000E+00 0. -1.
</event>
<event>
 7    1  0.5038211E-009  0.4778727E+02  0.7816164E-02  0.1312668E+00
        -11   -1    0    0    0    0  0.00000000000E+00  0.00000000000E+00  0.45593999997E+02  0.45594000000E+02  0.51100000000E-03 0.  1.
         11   -1    0    0    0    0 -0.00000000000E+00 -0.00000000000E+00 -0.45593999997E+02  0.45594000000E+02  0.51100000000E-03 0. -1.
    9900012    2    1    2    0    0  0.21471358306E+02 -0.16613621482E+02  0.33861358514E+02  0.47787271357E+02  0.20000001427E+02 0.  0.
         12    1    1    2    0    0 -0.21471358306E+02  0.16613621482E+02 -0.33861358514E+02  0.43400728643E+02  0.00000000000E+00 0. -1.
         11    1    3    3    0    0  0.13287393926E+02 -0.20475590943E+00  0.13480219686E+02  0.18929159658E+02  0.51100000000E-03 0. -1.
        -11    1    3    3    0    0  0.40025327902E+00 -0.10704693621E+02  0.95428064788E+01  0.14346282584E+02  0.51100000000E-03 0.  1.
        -12    1    3    3    0    0  0.77837111011E+01 -0.57041719514E+01  0.10838332349E+02  0.14511829115E+02  0.00000000000E+00 0.  1.
</event>
<event>
 7    1  0.5038211E-009  0.4778727E+02  0.7816164E-02  0.1312668E+00
        -11   -1    0    0    0    0  0.00000000000E+00  0.00000000000E+00  0.45593999997E+02  0.45594000000E+02  0.51100000000E-03 0. -1.
         11   -1    0    0    0    0 -0.00000000000E+00 -0.00000000000E+00 -0.45593999997E+02  0.45594000000E+02  0.51100000000E-03 0.  1.
    9900012    2    1    2    0    0 -0.43863174941E+01 -0.32288267914E+02 -0.28667949448E+02  0.47787270149E+02  0.19999995917E+02 0.  0.
         12    1    1    2    0    0  0.43863174941E+01  0.32288267914E+02  0.28667949448E+02  0.43400729851E+02  0.00000000000E+00 0. -1.
         11    1    3    3    0    0 -0.14054768527E+01 -0.15187387202E+02 -0.21835835517E+01  0.15407794540E+02  0.51100000000E-03 0. -1.
        -11    1    3    3    0    0 -0.12894127963E+01 -0.52238872005E+01 -0.14306619446E+02  0.15284990778E+02  0.51100000000E-03 0.  1.
        -12    1    3    3    0    0 -0.16914278451E+01 -0.11876993512E+02 -0.12177746450E+02  0.17094484831E+02  0.00000000000E+00 0.  1.
</event>
<event>
 7    1  0.5038211E-009  0.4778726E+02  0.7816164E-02  0.1312668E+00
        -11   -1    0    0    0    0  0.00000000000E+00  0.00000000000E+00  0.45593999997E+02  0.45594000000E+02  0.51100000000E-03 0. -1.
         11   -1    0    0    0    0 -0.00000000000E+00 -0.00000000000E+00 -0.45593999997E+02  0.45594000000E+02  0.51100000000E-03 0.  1.
    9900012    2    1    2    0    0  0.32294947812E+02  0.55975924595E+01 -0.28448675393E+02  0.47787264671E+02  0.19999970940E+02 0.  0.
         12    1    1    2    0    0 -0.32294947812E+02 -0.55975924595E+01  0.28448675393E+02  0.43400735329E+02  0.00000000000E+00 0. -1.
         11    1    3    3    0    0  0.72645152340E+01  0.98288062240E+01 -0.13334030738E+02  0.18087979140E+02  0.51100000000E-03 0. -1.
        -11    1    3    3    0    0  0.12428737523E+02 -0.36264332717E+01 -0.74551852728E+01  0.14940024177E+02  0.51100000000E-03 0.  1.
         12    1    3    3    0    0  0.12601695055E+02 -0.60478049279E+00 -0.76594593817E+01  0.14759261354E+02  0.00000000000E+00 0. -1.
</event>
<event>
 7    1  0.5038211E-009  0.4778727E+02  0.7816164E-02  0.1312668E+00
        -11   -1    0    0    0    0  0.00000000000E+00  0.00000000000E+00  0.45593999997E+02  0.45594000000E+02  0.51100000000E-03 0.  1.
         11   -1    0    0    0    0 -0.00000000000E+00 -0.00000000000E+00 -0.45593999997E+02  0.45594000000E+02  0.51100000000E-03 0. -1.
    9900012    2    1    2    0    0  0.21244610212E+02  0.17289022151E+02  0.33665703228E+02  0.47787270470E+02  0.19999997379E+02 0.  0.
         12    1    1    2    0    0 -0.21244610212E+02 -0.17289022151E+02 -0.33665703228E+02  0.43400729530E+02  0.00000000000E+00 0. -1.
         11    1    3    3    0    0  0.12729499309E+01  0.53556870056E+01 -0.13265098859E+01  0.56624564958E+01  0.51100000000E-03 0. -1.
        -11    1    3    3    0    0  0.96194308167E+01  0.65608599687E+01  0.19827741273E+02  0.22993861290E+02  0.51100000000E-03 0.  1.
         12    1    3    3    0    0  0.10352229464E+02  0.53724751763E+01  0.15164471840E+02  0.19130952684E+02  0.00000000000E+00 0. -1.
</event>
<event>
 7    1  0.5038211E-009  0.4778727E+02  0.7816164E-02  0.1312668E+00
        -11   -1    0    0    0    0  0.00000000000E+00  0.00000000000E+00  0.45593999997E+02  0.45594000000E+02  0.51100000000E-03 0.  1.
         11   -1    0    0    0    0 -0.00000000000E+00 -0.00000000000E+00 -0.45593999997E+02  0.45594000000E+02  0.51100000000E-03 0. -1.
    9900012    2    1    2    0    0  0.34284120712E+01 -0.72465396750E+01  0.42653919583E+02  0.47787271868E+02  0.20000003756E+02 0.  0.
         12    1    1    2    0    0 -0.34284120712E+01  0.72465396750E+01 -0.42653919583E+02  0.43400728132E+02  0.00000000000E+00 0. -1.
         11    1    3    3    0    0 -0.96196281247E+00 -0.51978189197E+01  0.53470986808E+00  0.53130602179E+01  0.51100000000E-03 0. -1.
        -11    1    3    3    0    0  0.18552902809E+01 -0.14483195040E+01  0.29214430059E+02  0.29309088272E+02  0.51100000000E-03 0.  1.
         12    1    3    3    0    0  0.25350846027E+01 -0.60040125132E+00  0.12904779656E+02  0.13165123378E+02  0.00000000000E+00 0. -1.
</event>
<event>
 7    1  0.5038211E-009  0.4778727E+02  0.7816164E-02  0.1312668E+00
        -11   -1    0    0    0    0  0.00000000000E+00  0.00000000000E+00  0.45593999997E+02  0.45594000000E+02  0.51100000000E-03 0.  1.
         11   -1    0    0    0    0 -0.00000000000E+00 -0.00000000000E+00 -0.45593999997E+02  0.45594000000E+02  0.51100000000E-03 0. -1.
    9900012    2    1    2    0    0  0.20209233264E+02  0.31365532775E+02  0.22167848605E+02  0.47787271122E+02  0.20000000355E+02 0.  0.
         12    1    1    2    0    0 -0.20209233264E+02 -0.31365532775E+02 -0.22167848605E+02  0.43400728878E+02  0.00000000000E+00 0. -1.
         11    1    3    3    0    0  0.31218456455E+01  0.52989201279E+01 -0.27117461558E+01  0.67214613166E+01  0.51100000000E-03 0.  1.
        -11    1    3    3    0    0  0.17559742377E+02  0.20700143305E+02  0.22101141402E+02  0.35004298832E+02  0.51100000000E-03 0. -1.
        -12    1    3    3    0    0 -0.47235475924E+00  0.53664693419E+01  0.27784533589E+01  0.60615109736E+01  0.00000000000E+00 0.  1.
</event>
<event>
 7    1  0.5038211E-009  0.4778727E+02  0.7816164E-02  0.1312668E+00
        -11   -1    0    0    0    0  0.00000000000E+00  0.00000000000E+00  0.45593999997E+02  0.45594000000E+02  0.51100000000E-03 0. -1.
         11   -1    0    0    0    0 -0.00000000000E+00 -0.00000000000E+00 -0.45593999997E+02  0.45594000000E+02  0.51100000000E-03 0.  1.
    9900012    2    1    2    0    0 -0.14081153221E+02 -0.39604866519E+02 -0.10807343246E+02  0.47787274245E+02  0.20000014595E+02 0.  0.
         12    1    1    2    0    0  0.14081153221E+02  0.39604866519E+02  0.10807343246E+02  0.43400725755E+02  0.00000000000E+00 0. -1.
         11    1    3    3    0    0 -0.82563848266E+01 -0.63855414676E+01  0.17651619467E+00  0.10439070288E+02  0.51100000000E-03 0. -1.
        -11    1    3    3    0    0 -0.56650387939E+01 -0.28635604997E+02 -0.13450576700E+02  0.32140450400E+02  0.51100000000E-03 0.  1.
        -12    1    3    3    0    0 -0.15972959996E+00 -0.45837200542E+01  0.24667172598E+01  0.52077535579E+01  0.00000000000E+00 0.  1.
</event>
<event>
 7    1  0.5038211E-009  0.4778727E+02  0.7816164E-02  0.1312668E+00
        -11   -1    0    0    0    0  0.00000000000E+00  0.00000000000E+00  0.45593999997E+02  0.45594000000E+02  0.51100000000E-03 0.  1.
         11   -1    0    0    0    0 -0.00000000000E+00 -0.00000000000E+00 -0.45593999997E+02  0.45594000000E+02  0.51100000000E-03 0. -1.
    9900012    2    1    2    0    0  0.24384808441E+02 -0.12033483368E+02  0.33826017057E+02  0.47787273801E+02  0.20000012567E+02 0.  0.
         12    1    1    2    0    0 -0.24384808441E+02  0.12033483368E+02 -0.33826017057E+02  0.43400726199E+02  0.00000000000E+00 0. -1.
         11    1    3    3    0    0  0.23172052939E+02 -0.65968415096E+01  0.26560978622E+02  0.35860116299E+02  0.51100000000E-03 0. -1.
        -11    1    3    3    0    0  0.38966979487E+01 -0.26369233582E+01  0.64170387571E+01  0.79571355633E+01  0.51100000000E-03 0.  1.
         12    1    3    3    0    0 -0.26839424474E+01 -0.27997185003E+01  0.84799967814E+00  0.39700219390E+01  0.00000000000E+00 0. -1.
</event>
<event>
 7    1  0.5038211E-009  0.4778727E+02  0.7816164E-02  0.1312668E+00
        -11   -1    0    0    0    0  0.00000000000E+00  0.00000000000E+00  0.45593999997E+02  0.45594000000E+02  0.51100000000E-03 0.  1.
         11   -1    0    0    0    0 -0.00000000000E+00 -0.00000000000E+00 -0.45593999997E+02  0.45594000000E+02  0.51100000000E-03 0. -1.
    9900012    2    1    2    0    0  0.88931719083E+01  0.42420448850E+02  0.22450283033E+01  0.47787272595E+02  0.20000007069E+02 0.  0.
         12    1    1    2    0    0 -0.88931719083E+01 -0.42420448850E+02 -0.22450283033E+01  0.43400727405E+02  0.00000000000E+00 0. -1.
         11    1    3    3    0    0 -0.54165357539E+01  0.16914048520E+02  0.21979600872E+01  0.17895667792E+02  0.51100000000E-03 0. -1.
        -11    1    3    3    0    0  0.54457474643E+01  0.82970160186E+01 -0.28319122259E+01  0.10320676692E+02  0.51100000000E-03 0.  1.
         12    1    3    3    0    0  0.88639601980E+01  0.17209384311E+02  0.28789804419E+01  0.19570928112E+02  0.00000000000E+00 0. -1.
</event>
<event>
 7    1  0.5038211E-009  0.4778727E+02  0.7816164E-02  0.1312668E+00
        -11   -1    0    0    0    0  0.00000000000E+00  0.00000000000E+00  0.45593999997E+02  0.45594000000E+02  0.51100000000E-03 0.  1.
         11   -1    0    0    0    0 -0.00000000000E+00 -0.00000000000E+00 -0.45593999997E+02  0.45594000000E+02  0.51100000000E-03 0. -1.
    9900012    2    1    2    0    0  0.84261521013E+01 -0.20444275573E+02  0.37345076696E+02  0.47787271937E+02  0.20000004068E+02 0.  0.
         12    1    1    2    0    0 -0.84261521013E+01  0.20444275573E+02 -0.37345076696E+02  0.43400728063E+02  0.00000000000E+00 0. -1.
         11    1    3    3    0    0  0.12385576359E+02 -0.62501686548E+01  0.14906707111E+02  0.20363620186E+02  0.51100000000E-03 0. -1.
        -11    1    3    3    0    0  0.10290142041E+01 -0.11615745309E+01  0.10082568933E+01  0.18505966193E+01  0.51100000000E-03 0.  1.
         12    1    3    3    0    0 -0.49884384616E+01 -0.13032532388E+02  0.21430112693E+02  0.25573055131E+02  0.00000000000E+00 0. -1.
</event>
<event>
 7    1  0.5038211E-009  0.4778729E+02  0.7816164E-02  0.1312668E+00
        -11   -1    0    0    0    0  0.00000000000E+00  0.00000000000E+00  0.45593999997E+02  0.45594000000E+02  0.51100000000E-03 0.  1.
         11   -1    0    0    0    0 -0.00000000000E+00 -0.00000000000E+00 -0.45593999997E+02  0.45594000000E+02  0.51100000000E-03 0. -1.
    9900012    2    1    2    0    0 -0.23973692963E+01 -0.24302825343E+02  0.35878223896E+02  0.47787289762E+02  0.20000085342E+02 0.  0.
         12    1    1    2    0    0  0.23973692963E+01  0.24302825343E+02 -0.35878223896E+02  0.43400710238E+02  0.00000000000E+00 0. -1.
         11    1    3    3    0    0 -0.31943481189E+01 -0.97431355435E+01  0.18761487292E+01  0.10423650245E+02  0.51100000000E-03 0. -1.
        -11    1    3    3    0    0 -0.17606453605E+01 -0.25411402676E+01  0.51934944307E+01  0.60439763904E+01  0.51100000000E-03 0.  1.
         12    1    3    3    0    0  0.25576241831E+01 -0.12018549532E+02  0.28808580736E+02  0.31319663126E+02  0.00000000000E+00 0. -1.
</event>
<event>
 7    1  0.5038211E-009  0.4778725E+02  0.7816164E-02  0.1312668E+00
        -11   -1    0    0    0    0  0.00000000000E+00  0.00000000000E+00  0.45593999997E+02  0.45594000000E+02  0.51100000000E-03 0. -1.
         11   -1    0    0    0    0 -0.00000000000E+00 -0.00000000000E+00 -0.45593999997E+02  0.45594000000E+02  0.51100000000E-03 0.  1.
    9900012    2    1    2    0    0  0.38741910783E+02 -0.19559846726E+02 -0.31896359559E+00  0.47787251241E+02  0.19999909710E+02 0.  0.
         12    1    1    2    0    0 -0.38741910783E+02  0.19559846726E+02  0.31896359559E+00  0.43400748759E+02  0.00000000000E+00 0. -1.
         11    1    3    3    0    0 -0.16469338842E+00 -0.18096321440E+01 -0.12445985579E+00  0.18213684211E+01  0.51100000000E-03 0. -1.
        -11    1    3    3    0    0 -0.44639664002E+00  0.79179667812E+00 -0.22378964324E+01  0.24154487456E+01  0.51100000000E-03 0.  1.
        -12    1    3    3    0    0  0.39353000811E+02 -0.18542011260E+02  0.20433926926E+01  0.43550434075E+02  0.00000000000E+00 0.  1.
</event>
<event>
 7    1  0.5038211E-009  0.4778727E+02  0.7816164E-02  0.1312668E+00
        -11   -1    0    0    0    0  0.00000000000E+00  0.00000000000E+00  0.45593999997E+02  0.45594000000E+02  0.51100000000E-03 0.  1.
         11   -1    0    0    0    0 -0.00000000000E+00 -0.00000000000E+00 -0.45593999997E+02  0.45594000000E+02  0.51100000000E-03 0. -1.
    9900012    2    1    2    0    0 -0.23168358045E+02  0.15257707664E+02  0.33377429074E+02  0.47787271559E+02  0.20000002345E+02 0.  0.
         12    1    1    2    0    0  0.23168358045E+02 -0.15257707664E+02 -0.33377429074E+02  0.43400728441E+02  0.00000000000E+00 0. -1.
         11    1    3    3    0    0 -0.15094025138E+02  0.12289737161E+01  0.10849469188E+02  0.18629303615E+02  0.51100000000E-03 0.  1.
        -11    1    3    3    0    0  0.11313947160E+01  0.64931331415E+01  0.87497421772E+01  0.10954397310E+02  0.51100000000E-03 0. -1.
         12    1    3    3    0    0 -0.92057276225E+01  0.75356008060E+01  0.13778217709E+02  0.18203570633E+02  0.00000000000E+00 0. -1.
</event>
<event>
 7    1  0.5038211E-009  0.4778727E+02  0.7816164E-02  0.1312668E+00
        -11   -1    0    0    0    0  0.00000000000E+00  0.00000000000E+00  0.45593999997E+02  0.45594000000E+02  0.51100000000E-03 0. -1.
         11   -1    0    0    0    0 -0.00000000000E+00 -0.00000000000E+00 -0.45593999997E+02  0.45594000000E+02  0.51100000000E-03 0.  1.
    9900012    2    1    2    0    0 -0.63199743352E+01 -0.40328216388E+02 -0.14741650918E+02  0.47787269771E+02  0.19999994194E+02 0.  0.
         12    1    1    2    0    0  0.63199743352E+01  0.40328216388E+02  0.14741650918E+02  0.43400730229E+02  0.00000000000E+00 0. -1.
         11    1    3    3    0    0  0.51278278338E+01 -0.31877526237E+01  0.48857465092E-02  0.60379143100E+01  0.51100000000E-03 0. -1.
        -11    1    3    3    0    0 -0.87202692327E+01 -0.32641392906E+02 -0.13092556276E+02  0.36234219412E+02  0.51100000000E-03 0.  1.
         12    1    3    3    0    0 -0.27275329364E+01 -0.44990708587E+01 -0.16539803882E+01  0.55151360486E+01  0.00000000000E+00 0. -1.
</event>
<event>
 7    1  0.5038211E-009  0.4778727E+02  0.7816164E-02  0.1312668E+00
        -11   -1    0    0    0    0  0.00000000000E+00  0.00000000000E+00  0.45593999997E+02  0.45594000000E+02  0.51100000000E-03 0.  1.
         11   -1    0    0    0    0 -0.00000000000E+00 -0.00000000000E+00 -0.45593999997E+02  0.45594000000E+02  0.51100000000E-03 0. -1.
    9900012    2    1    2    0    0  0.27568828698E+02  0.33512988604E+02  0.68041210886E+00  0.47787266347E+02  0.19999978583E+02 0.  0.
         12    1    1    2    0    0 -0.27568828698E+02 -0.33512988604E+02 -0.68041210886E+00  0.43400733653E+02  0.00000000000E+00 0. -1.
         11    1    3    3    0    0  0.12042891013E+02  0.11445220671E+02 -0.90791236749E+01  0.18932902238E+02  0.51100000000E-03 0. -1.
        -11    1    3    3    0    0  0.55690584788E+01  0.90508918418E+01  0.52712346777E+01  0.11862502719E+02  0.51100000000E-03 0.  1.
         12    1    3    3    0    0  0.99568792057E+01  0.13016876091E+02  0.44883011060E+01  0.16991861390E+02  0.00000000000E+00 0. -1.
</event>
<event>
 7    1  0.5038211E-009  0.4778727E+02  0.7816164E-02  0.1312668E+00
        -11   -1    0    0    0    0  0.00000000000E+00  0.00000000000E+00  0.45593999997E+02  0.45594000000E+02  0.51100000000E-03 0.  1.
         11   -1    0    0    0    0 -0.00000000000E+00 -0.00000000000E+00 -0.45593999997E+02  0.45594000000E+02  0.51100000000E-03 0. -1.
    9900012    2    1    2    0    0 -0.22414385176E+02 -0.27307724760E+02  0.25209261813E+02  0.47787269873E+02  0.19999994658E+02 0.  0.
         12    1    1    2    0    0  0.22414385176E+02  0.27307724760E+02 -0.25209261813E+02  0.43400730127E+02  0.00000000000E+00 0. -1.
         11    1    3    3    0    0 -0.97279309064E+01 -0.14522048297E+02  0.63352786228E+01  0.18591887530E+02  0.51100000000E-03 0. -1.
        -11    1    3    3    0    0 -0.48055883314E+01 -0.31619316380E+01 -0.91188864064E+00  0.58243482081E+01  0.51100000000E-03 0.  1.
        -12    1    3    3    0    0 -0.78808659384E+01 -0.96237448255E+01  0.19785871831E+02  0.23371034134E+02  0.00000000000E+00 0.  1.
</event>
<event>
 7    1  0.5038211E-009  0.4778727E+02  0.7816164E-02  0.1312668E+00
        -11   -1    0    0    0    0  0.00000000000E+00  0.00000000000E+00  0.45593999997E+02  0.45594000000E+02  0.51100000000E-03 0.  1.
         11   -1    0    0    0    0 -0.00000000000E+00 -0.00000000000E+00 -0.45593999997E+02  0.45594000000E+02  0.51100000000E-03 0. -1.
    9900012    2    1    2    0    0 -0.86433242103E+01 -0.38242956242E+02  0.18611618053E+02  0.47787273253E+02  0.20000010072E+02 0.  0.
         12    1    1    2    0    0  0.86433242103E+01  0.38242956242E+02 -0.18611618053E+02  0.43400726747E+02  0.00000000000E+00 0. -1.
         11    1    3    3    0    0  0.13443974794E+00 -0.16820119920E+02  0.38549683115E+00  0.16825074034E+02  0.51100000000E-03 0. -1.
        -11    1    3    3    0    0 -0.80996023831E+01 -0.99573094148E+01  0.59394516350E+01  0.14143148714E+02  0.51100000000E-03 0.  1.
         12    1    3    3    0    0 -0.67816157509E+00 -0.11465526907E+02  0.12286669587E+02  0.16819050506E+02  0.00000000000E+00 0. -1.
</event>
<event>
 7    1  0.5038211E-009  0.4778727E+02  0.7816164E-02  0.1312668E+00
        -11   -1    0    0    0    0  0.00000000000E+00  0.00000000000E+00  0.45593999997E+02  0.45594000000E+02  0.51100000000E-03 0.  1.
         11   -1    0    0    0    0 -0.00000000000E+00 -0.00000000000E+00 -0.45593999997E+02  0.45594000000E+02  0.51100000000E-03 0. -1.
    9900012    2    1    2    0    0  0.27214865415E+02 -0.23933291032E+02  0.23878274911E+02  0.47787270376E+02  0.19999996951E+02 0.  0.
         12    1    1    2    0    0 -0.27214865415E+02  0.23933291032E+02 -0.23878274911E+02  0.43400729624E+02  0.00000000000E+00 0. -1.
         11    1    3    3    0    0  0.15228492322E+02 -0.99645750987E+01  0.48343451284E+01  0.18830045895E+02  0.51100000000E-03 0. -1.
        -11    1    3    3    0    0  0.69612761735E+01 -0.57743182764E+01  0.16809822687E+02  0.19088537308E+02  0.51100000000E-03 0.  1.
        -12    1    3    3    0    0  0.50250969193E+01 -0.81943976570E+01  0.22341070958E+01  0.98686871733E+01  0.00000000000E+00 0.  1.
</event>
<event>
 7    1  0.5038211E-009  0.4778727E+02  0.7816164E-02  0.1312668E+00
        -11   -1    0    0    0    0  0.00000000000E+00  0.00000000000E+00  0.45593999997E+02  0.45594000000E+02  0.51100000000E-03 0.  1.
         11   -1    0    0    0    0 -0.00000000000E+00 -0.00000000000E+00 -0.45593999997E+02  0.45594000000E+02  0.51100000000E-03 0. -1.
    9900012    2    1    2    0    0 -0.13236691547E+02 -0.21351093879E+02  0.35391294742E+02  0.47787274701E+02  0.20000016671E+02 0.  0.
         12    1    1    2    0    0  0.13236691547E+02  0.21351093879E+02 -0.35391294742E+02  0.43400725299E+02  0.00000000000E+00 0. -1.
         11    1    3    3    0    0 -0.93737783722E-01 -0.12288491516E+02  0.46797782251E+01  0.13149757983E+02  0.51100000000E-03 0. -1.
        -11    1    3    3    0    0 -0.84694641634E+01 -0.65816151281E+01  0.20644949532E+02  0.23265068716E+02  0.51100000000E-03 0.  1.
         12    1    3    3    0    0 -0.46734895997E+01 -0.24809872352E+01  0.10066566985E+02  0.11372448002E+02  0.00000000000E+00 0. -1.
</event>
<event>
 7    1  0.5038211E-009  0.4778727E+02  0.7816164E-02  0.1312668E+00
        -11   -1    0    0    0    0  0.00000000000E+00  0.00000000000E+00  0.45593999997E+02  0.45594000000E+02  0.51100000000E-03 0.  1.
         11   -1    0    0    0    0 -0.00000000000E+00 -0.00000000000E+00 -0.45593999997E+02  0.45594000000E+02  0.51100000000E-03 0. -1.
    9900012    2    1    2    0    0 -0.14215936023E+02  0.33274958151E+01  0.40871242498E+02  0.47787268109E+02  0.19999986615E+02 0.  0.
         12    1    1    2    0    0  0.14215936023E+02 -0.33274958151E+01 -0.40871242498E+02  0.43400731891E+02  0.00000000000E+00 0. -1.
         11    1    3    3    0    0 -0.55324518974E+00  0.38769224615E+01  0.48900686194E+01  0.62649325117E+01  0.51100000000E-03 0. -1.
        -11    1    3    3    0    0 -0.63552125012E+01  0.13887912608E+01  0.32596202207E+02  0.33238981117E+02  0.51100000000E-03 0.  1.
        -12    1    3    3    0    0 -0.73074783322E+01 -0.19382179072E+01  0.33849716711E+01  0.82833544802E+01  0.00000000000E+00 0.  1.
</event>
<event>
 7    1  0.5038211E-009  0.4778731E+02  0.7816164E-02  0.1312668E+00
        -11   -1    0    0    0    0  0.00000000000E+00  0.00000000000E+00  0.45593999997E+02  0.45594000000E+02  0.51100000000E-03 0.  1.
         11   -1    0    0    0    0 -0.00000000000E+00 -0.00000000000E+00 -0.45593999997E+02  0.45594000000E+02  0.51100000000E-03 0. -1.
    9900012    2    1    2    0    0  0.20433069259E+02 -0.25336407459E-01  0.38289802782E+02  0.47787309241E+02  0.20000174152E+02 0.  0.
         12    1    1    2    0    0 -0.20433069259E+02  0.25336407459E-01 -0.38289802782E+02  0.43400690759E+02  0.00000000000E+00 0. -1.
         11    1    3    3    0    0  0.26494016824E+01 -0.17914433291E+01  0.45092260326E+01  0.55282653834E+01  0.51100000000E-03 0. -1.
        -11    1    3    3    0    0  0.11727201115E+01 -0.58043247894E+01  0.34345897614E+01  0.68455727161E+01  0.51100000000E-03 0.  1.
        -12    1    3    3    0    0  0.16610947465E+02  0.75704317110E+01  0.30345986988E+02  0.35413471141E+02  0.00000000000E+00 0.  1.
</event>
<event>
 7    1  0.5038211E-009  0.4778727E+02  0.7816164E-02  0.1312668E+00
        -11   -1    0    0    0    0  0.00000000000E+00  0.00000000000E+00  0.45593999997E+02  0.45594000000E+02  0.51100000000E-03 0.  1.
         11   -1    0    0    0    0 -0.00000000000E+00 -0.00000000000E+00 -0.45593999997E+02  0.45594000000E+02  0.51100000000E-03 0. -1.
    9900012    2    1    2    0    0 -0.28463800298E+02  0.41765004908E+01  0.32496028184E+02  0.47787274989E+02  0.20000017985E+02 0.  0.
         12    1    1    2    0    0  0.28463800298E+02 -0.41765004908E+01 -0.32496028184E+02  0.43400725011E+02  0.00000000000E+00 0. -1.
         11    1    3    3    0    0 -0.12224403697E+02  0.55919650128E+01  0.25827091612E+02  0.29116057080E+02  0.51100000000E-03 0. -1.
        -11    1    3    3    0    0 -0.60510387917E+01 -0.66908967518E+00 -0.62348069771E+00  0.61197614245E+01  0.51100000000E-03 0.  1.
         12    1    3    3    0    0 -0.10188357810E+02 -0.74637484679E+00  0.72924172691E+01  0.12551456485E+02  0.00000000000E+00 0. -1.
</event>
<event>
 7    1  0.5038211E-009  0.4778727E+02  0.7816164E-02  0.1312668E+00
        -11   -1    0    0    0    0  0.00000000000E+00  0.00000000000E+00  0.45593999997E+02  0.45594000000E+02  0.51100000000E-03 0.  1.
         11   -1    0    0    0    0 -0.00000000000E+00 -0.00000000000E+00 -0.45593999997E+02  0.45594000000E+02  0.51100000000E-03 0. -1.
    9900012    2    1    2    0    0  0.11808337762E+02 -0.41505443061E+02 -0.46351750921E+01  0.47787268525E+02  0.19999988514E+02 0.  0.
         12    1    1    2    0    0 -0.11808337762E+02  0.41505443061E+02  0.46351750921E+01  0.43400731475E+02  0.00000000000E+00 0. -1.
         11    1    3    3    0    0 -0.13557864959E+01 -0.43772364130E+01 -0.80377385695E+00  0.46523551361E+01  0.51100000000E-03 0. -1.
        -11    1    3    3    0    0 -0.17434686549E+00 -0.24000411200E+02 -0.44478181624E+01  0.24409695231E+02  0.51100000000E-03 0.  1.
        -12    1    3    3    0    0  0.13338471124E+02 -0.13127795448E+02  0.61641692722E+00  0.18725218158E+02  0.00000000000E+00 0.  1.
</event>
<event>
 7    1  0.5038211E-009  0.4778727E+02  0.7816164E-02  0.1312668E+00
        -11   -1    0    0    0    0  0.00000000000E+00  0.00000000000E+00  0.45593999997E+02  0.45594000000E+02  0.51100000000E-03 0.  1.
         11   -1    0    0    0    0 -0.00000000000E+00 -0.00000000000E+00 -0.45593999997E+02  0.45594000000E+02  0.51100000000E-03 0. -1.
    9900012    2    1    2    0    0 -0.28254328383E+02 -0.32476600691E+02  0.55305251622E+01  0.47787269898E+02  0.19999994773E+02 0.  0.
         12    1    1    2    0    0  0.28254328383E+02  0.32476600691E+02 -0.55305251622E+01  0.43400730102E+02  0.00000000000E+00 0. -1.
         11    1    3    3    0    0 -0.69168538207E+00 -0.23083735576E+00  0.45169540680E+01  0.45754331889E+01  0.51100000000E-03 0. -1.
        -11    1    3    3    0    0 -0.18126195987E+02 -0.26386403211E+02  0.19005569535E+01  0.32068884801E+02  0.51100000000E-03 0.  1.
        -12    1    3    3    0    0 -0.94364470144E+01 -0.58593601239E+01 -0.88698585927E+00  0.11142951908E+02  0.00000000000E+00 0.  1.
</event>
<event>
 7    1  0.5038211E-009  0.4778727E+02  0.7816164E-02  0.1312668E+00
        -11   -1    0    0    0    0  0.00000000000E+00  0.00000000000E+00  0.45593999997E+02  0.45594000000E+02  0.51100000000E-03 0.  1.
         11   -1    0    0    0    0 -0.00000000000E+00 -0.00000000000E+00 -0.45593999997E+02  0.45594000000E+02  0.51100000000E-03 0. -1.
    9900012    2    1    2    0    0 -0.27254803587E+02 -0.31703336828E+01  0.33626598149E+02  0.47787269162E+02  0.19999991416E+02 0.  0.
         12    1    1    2    0    0  0.27254803587E+02  0.31703336828E+01 -0.33626598149E+02  0.43400730838E+02  0.00000000000E+00 0. -1.
         11    1    3    3    0    0  0.35363284171E+00 -0.22534221002E+01 -0.14630698074E+00  0.22856888113E+01  0.51100000000E-03 0. -1.
        -11    1    3    3    0    0 -0.18839241015E+02 -0.47282209054E+01  0.28762574229E+02  0.34706753687E+02  0.51100000000E-03 0.  1.
        -12    1    3    3    0    0 -0.87691954137E+01  0.38113093228E+01  0.50103309002E+01  0.10794826663E+02  0.00000000000E+00 0.  1.
</event>
<event>
 7    1  0.5038211E-009  0.4778727E+02  0.7816164E-02  0.1312668E+00
        -11   -1    0    0    0    0  0.00000000000E+00  0.00000000000E+00  0.45593999997E+02  0.45594000000E+02  0.51100000000E-03 0.  1.
         11   -1    0    0    0    0 -0.00000000000E+00 -0.00000000000E+00 -0.45593999997E+02  0.45594000000E+02  0.51100000000E-03 0. -1.
    9900012    2    1    2    0    0  0.87639594458E+00 -0.30953432402E+02  0.30409546055E+02  0.47787267995E+02  0.19999986097E+02 0.  0.
         12    1    1    2    0    0 -0.87639594458E+00  0.30953432402E+02 -0.30409546055E+02  0.43400732005E+02  0.00000000000E+00 0. -1.
         11    1    3    3    0    0 -0.30736024154E+01 -0.22465757097E+01  0.14251420257E+01  0.40651155312E+01  0.51100000000E-03 0. -1.
        -11    1    3    3    0    0  0.90538595071E+01 -0.23868011433E+02  0.24492274715E+02  0.35376911436E+02  0.51100000000E-03 0.  1.
        -12    1    3    3    0    0 -0.51038611471E+01 -0.48388452589E+01  0.44921293141E+01  0.83452410285E+01  0.00000000000E+00 0.  1.
</event>
<event>
 7    1  0.5038211E-009  0.4778728E+02  0.7816164E-02  0.1312668E+00
        -11   -1    0    0    0    0  0.00000000000E+00  0.00000000000E+00  0.45593999997E+02  0.45594000000E+02  0.51100000000E-03 0.  1.
         11   -1    0    0    0    0 -0.00000000000E+00 -0.00000000000E+00 -0.45593999997E+02  0.45594000000E+02  0.51100000000E-03 0. -1.
    9900012    2    1    2    0    0 -0.90676887850E+01  0.38729081827E+02  0.17362542540E+02  0.47787278318E+02  0.20000033163E+02 0.  0.
         12    1    1    2    0    0  0.90676887850E+01 -0.38729081827E+02 -0.17362542540E+02  0.43400721682E+02  0.00000000000E+00 0. -1.
         11    1    3    3    0    0 -0.76844990114E+01  0.15342871451E+02  0.72744264781E+01  0.18637932027E+02  0.51100000000E-03 0. -1.
        -11    1    3    3    0    0  0.34960887531E+01  0.46483582415E+00  0.30975366303E+01  0.46939793726E+01  0.51100000000E-03 0.  1.
        -12    1    3    3    0    0 -0.48792785266E+01  0.22921374552E+02  0.69905794320E+01  0.24455366918E+02  0.00000000000E+00 0.  1.
</event>
<event>
 7    1  0.5038211E-009  0.4778727E+02  0.7816164E-02  0.1312668E+00
        -11   -1    0    0    0    0  0.00000000000E+00  0.00000000000E+00  0.45593999997E+02  0.45594000000E+02  0.51100000000E-03 0.  1.
         11   -1    0    0    0    0 -0.00000000000E+00 -0.00000000000E+00 -0.45593999997E+02  0.45594000000E+02  0.51100000000E-03 0. -1.
    9900012    2    1    2    0    0  0.55336604499E+01  0.30943456399E+02  0.29924975314E+02  0.47787273745E+02  0.20000012314E+02 0.  0.
         12    1    1    2    0    0 -0.55336604499E+01 -0.30943456399E+02 -0.29924975314E+02  0.43400726255E+02  0.00000000000E+00 0. -1.
         11    1    3    3    0    0 -0.30205605894E+01  0.28943868849E+01 -0.52903059880E+00  0.42167683537E+01  0.51100000000E-03 0. -1.
        -11    1    3    3    0    0  0.85328971500E+01  0.17104592424E+02  0.13540536928E+02  0.23424849120E+02  0.51100000000E-03 0.  1.
         12    1    3    3    0    0  0.21323889281E-01  0.10944477091E+02  0.16913468985E+02  0.20145656271E+02  0.00000000000E+00 0. -1.
</event>
<event>
 7    1  0.5038211E-009  0.4778727E+02  0.7816164E-02  0.1312668E+00
        -11   -1    0    0    0    0  0.00000000000E+00  0.00000000000E+00  0.45593999997E+02  0.45594000000E+02  0.51100000000E-03 0.  1.
         11   -1    0    0    0    0 -0.00000000000E+00 -0.00000000000E+00 -0.45593999997E+02  0.45594000000E+02  0.51100000000E-03 0. -1.
    9900012    2    1    2    0    0  0.19175677493E+02 -0.18629986824E+02  0.34188304814E+02  0.47787271868E+02  0.20000003754E+02 0.  0.
         12    1    1    2    0    0 -0.19175677493E+02  0.18629986824E+02 -0.34188304814E+02  0.43400728132E+02  0.00000000000E+00 0. -1.
         11    1    3    3    0    0  0.18791128121E+02 -0.20902009502E+02  0.26711938103E+02  0.38775354735E+02  0.51100000000E-03 0. -1.
        -11    1    3    3    0    0  0.47008435112E+00  0.60765621681E+00  0.72951939546E+01  0.73355354591E+01  0.51100000000E-03 0.  1.
         12    1    3    3    0    0 -0.85534979423E-01  0.16643664613E+01  0.18117275561E+00  0.16763816742E+01  0.00000000000E+00 0. -1.
</event>
<event>
 7    1  0.5038211E-009  0.4778727E+02  0.7816164E-02  0.1312668E+00
        -11   -1    0    0    0    0  0.00000000000E+00  0.00000000000E+00  0.45593999997E+02  0.45594000000E+02  0.51100000000E-03 0.  1.
         11   -1    0    0    0    0 -0.00000000000E+00 -0.00000000000E+00 -0.45593999997E+02  0.45594000000E+02  0.51100000000E-03 0. -1.
    9900012    2    1    2    0    0  0.28001559327E+02  0.19881819113E+02  0.26537697623E+02  0.47787269003E+02  0.19999990691E+02 0.  0.
         12    1    1    2    0    0 -0.28001559327E+02 -0.19881819113E+02 -0.26537697623E+02  0.43400730997E+02  0.00000000000E+00 0. -1.
         11    1    3    3    0    0  0.28678422998E+01  0.47672295407E+00  0.83602688566E+01  0.88513207968E+01  0.51100000000E-03 0. -1.
        -11    1    3    3    0    0  0.15183466253E+02  0.77125858437E+01  0.28971216830E+01  0.17274690798E+02  0.51100000000E-03 0.  1.
        -12    1    3    3    0    0  0.99502507745E+01  0.11692510315E+02  0.15280307083E+02  0.21661257408E+02  0.00000000000E+00 0.  1.
</event>
<event>
 7    1  0.5038211E-009  0.4778726E+02  0.7816164E-02  0.1312668E+00
        -11   -1    0    0    0    0  0.00000000000E+00  0.00000000000E+00  0.45593999997E+02  0.45594000000E+02  0.51100000000E-03 0. -1.
         11   -1    0    0    0    0 -0.00000000000E+00 -0.00000000000E+00 -0.45593999997E+02  0.45594000000E+02  0.51100000000E-03 0.  1.
    9900012    2    1    2    0    0 -0.37536572225E+02 -0.89424803927E+01 -0.19866094483E+02  0.47787263601E+02  0.19999966063E+02 0.  0.
         12    1    1    2    0    0  0.37536572225E+02  0.89424803927E+01  0.19866094483E+02  0.43400736399E+02  0.00000000000E+00 0. -1.
         11    1    3    3    0    0 -0.10000011323E+02 -0.42520721761E+01  0.25066929880E+01  0.11151854296E+02  0.51100000000E-03 0. -1.
        -11    1    3    3    0    0 -0.16584915269E+02  0.56774504032E+00 -0.15336954513E+02  0.22596546703E+02  0.51100000000E-03 0.  1.
        -12    1    3    3    0    0 -0.10951645633E+02 -0.52581532569E+01 -0.70358329582E+01  0.14038862602E+02  0.00000000000E+00 0.  1.
</event>
<event>
 7    1  0.5038211E-009  0.4778727E+02  0.7816164E-02  0.1312668E+00
        -11   -1    0    0    0    0  0.00000000000E+00  0.00000000000E+00  0.45593999997E+02  0.45594000000E+02  0.51100000000E-03 0. -1.
         11   -1    0    0    0    0 -0.00000000000E+00 -0.00000000000E+00 -0.45593999997E+02  0.45594000000E+02  0.51100000000E-03 0.  1.
    9900012    2    1    2    0    0  0.10766407027E+01 -0.42815788533E+02 -0.70194359925E+01  0.47787269769E+02  0.19999994184E+02 0.  0.
         12    1    1    2    0    0 -0.10766407027E+01  0.42815788533E+02  0.70194359925E+01  0.43400730231E+02  0.00000000000E+00 0. -1.
         11    1    3    3    0    0  0.71010646455E+01 -0.24081791116E+02 -0.11317946986E+02  0.27540038248E+02  0.51100000000E-03 0. -1.
        -11    1    3    3    0    0 -0.52227197851E+01 -0.14069825315E+02  0.26783078642E+01  0.15245003103E+02  0.51100000000E-03 0.  1.
        -12    1    3    3    0    0 -0.80170415769E+00 -0.46641721029E+01  0.16202031298E+01  0.50022284178E+01  0.00000000000E+00 0.  1.
</event>
<event>
 7    1  0.5038211E-009  0.4778727E+02  0.7816164E-02  0.1312668E+00
        -11   -1    0    0    0    0  0.00000000000E+00  0.00000000000E+00  0.45593999997E+02  0.45594000000E+02  0.51100000000E-03 0. -1.
         11   -1    0    0    0    0 -0.00000000000E+00 -0.00000000000E+00 -0.45593999997E+02  0.45594000000E+02  0.51100000000E-03 0.  1.
    9900012    2    1    2    0    0 -0.40337556700E+02 -0.82563287723E+01 -0.13723615774E+02  0.47787273333E+02  0.20000010435E+02 0.  0.
         12    1    1    2    0    0  0.40337556700E+02  0.82563287723E+01  0.13723615774E+02  0.43400726667E+02  0.00000000000E+00 0. -1.
         11    1    3    3    0    0 -0.17907225299E+02 -0.69676742149E+01 -0.77879930073E+00  0.19230801608E+02  0.51100000000E-03 0. -1.
        -11    1    3    3    0    0 -0.20408647446E+02  0.26815476360E+01 -0.12492345050E+02  0.24078253122E+02  0.51100000000E-03 0.  1.
        -12    1    3    3    0    0 -0.20216839549E+01 -0.39702021934E+01 -0.45247142307E+00  0.44782186032E+01  0.00000000000E+00 0.  1.
</event>
<event>
 7    1  0.5038211E-009  0.4778727E+02  0.7816164E-02  0.1312668E+00
        -11   -1    0    0    0    0  0.00000000000E+00  0.00000000000E+00  0.45593999997E+02  0.45594000000E+02  0.51100000000E-03 0.  1.
         11   -1    0    0    0    0 -0.00000000000E+00 -0.00000000000E+00 -0.45593999997E+02  0.45594000000E+02  0.51100000000E-03 0. -1.
    9900012    2    1    2    0    0  0.19147076491E+02 -0.30024930707E+02  0.24809608188E+02  0.47787266590E+02  0.19999979689E+02 0.  0.
         12    1    1    2    0    0 -0.19147076491E+02  0.30024930707E+02 -0.24809608188E+02  0.43400733410E+02  0.00000000000E+00 0. -1.
         11    1    3    3    0    0  0.34790343918E+01 -0.59313880774E+01  0.11996847727E+02  0.13827848729E+02  0.51100000000E-03 0. -1.
        -11    1    3    3    0    0  0.16574762656E+02 -0.24991921308E+02  0.11471435439E+02  0.32107829560E+02  0.51100000000E-03 0.  1.
        -12    1    3    3    0    0 -0.90672055717E+00  0.89837867836E+00  0.13413250229E+01  0.18515883008E+01  0.00000000000E+00 0.  1.
</event>
<event>
 7    1  0.5038211E-009  0.4778727E+02  0.7816164E-02  0.1312668E+00
        -11   -1    0    0    0    0  0.00000000000E+00  0.00000000000E+00  0.45593999997E+02  0.45594000000E+02  0.51100000000E-03 0. -1.
         11   -1    0    0    0    0 -0.00000000000E+00 -0.00000000000E+00 -0.45593999997E+02  0.45594000000E+02  0.51100000000E-03 0.  1.
    9900012    2    1    2    0    0  0.12032769906E+02  0.33355107524E+02 -0.25025438263E+02  0.47787270631E+02  0.19999998113E+02 0.  0.
         12    1    1    2    0    0 -0.12032769906E+02 -0.33355107524E+02  0.25025438263E+02  0.43400729369E+02  0.00000000000E+00 0. -1.
         11    1    3    3    0    0  0.29320052437E+01  0.70285726342E+01  0.29130903168E+01  0.81537465915E+01  0.51100000000E-03 0. -1.
        -11    1    3    3    0    0  0.94062872730E+01  0.24227141694E+02 -0.25746561598E+02  0.36583029799E+02  0.51100000000E-03 0.  1.
         12    1    3    3    0    0 -0.30552261106E+00  0.20993931965E+01 -0.21919669820E+01  0.30504942402E+01  0.00000000000E+00 0. -1.
</event>
<event>
 7    1  0.5038211E-009  0.4778727E+02  0.7816164E-02  0.1312668E+00
        -11   -1    0    0    0    0  0.00000000000E+00  0.00000000000E+00  0.45593999997E+02  0.45594000000E+02  0.51100000000E-03 0. -1.
         11   -1    0    0    0    0 -0.00000000000E+00 -0.00000000000E+00 -0.45593999997E+02  0.45594000000E+02  0.51100000000E-03 0.  1.
    9900012    2    1    2    0    0  0.12572407580E+02  0.31538532002E+01 -0.41419935067E+02  0.47787271396E+02  0.20000001605E+02 0.  0.
         12    1    1    2    0    0 -0.12572407580E+02 -0.31538532002E+01  0.41419935067E+02  0.43400728604E+02  0.00000000000E+00 0. -1.
         11    1    3    3    0    0  0.86632390353E+01  0.52910622679E+01 -0.69516675667E+01  0.12303362659E+02  0.51100000000E-03 0. -1.
        -11    1    3    3    0    0  0.27563976948E+01  0.21013707850E+01 -0.21844299471E+02  0.22117570099E+02  0.51100000000E-03 0.  1.
         12    1    3    3    0    0  0.11527708502E+01 -0.42385798527E+01 -0.12623968029E+02  0.13366338638E+02  0.00000000000E+00 0. -1.
</event>
<event>
 7    1  0.5038211E-009  0.4778727E+02  0.7816164E-02  0.1312668E+00
        -11   -1    0    0    0    0  0.00000000000E+00  0.00000000000E+00  0.45593999997E+02  0.45594000000E+02  0.51100000000E-03 0. -1.
         11   -1    0    0    0    0 -0.00000000000E+00 -0.00000000000E+00 -0.45593999997E+02  0.45594000000E+02  0.51100000000E-03 0.  1.
    9900012    2    1    2    0    0 -0.30354309957E+02 -0.87965891416E+01 -0.29746576623E+02  0.47787274957E+02  0.20000017839E+02 0.  0.
         12    1    1    2    0    0  0.30354309957E+02  0.87965891416E+01  0.29746576623E+02  0.43400725043E+02  0.00000000000E+00 0. -1.
         11    1    3    3    0    0 -0.24595976400E+01  0.16756952268E+00  0.23151399016E+01  0.33819481251E+01  0.51100000000E-03 0. -1.
        -11    1    3    3    0    0 -0.24800734473E+02 -0.46336277792E+01 -0.28140034544E+02  0.37794291648E+02  0.51100000000E-03 0.  1.
         12    1    3    3    0    0 -0.30939778435E+01 -0.43305308851E+01 -0.39216819806E+01  0.66110351837E+01  0.00000000000E+00 0. -1.
</event>
<event>
 7    1  0.5038211E-009  0.4778726E+02  0.7816164E-02  0.1312668E+00
        -11   -1    0    0    0    0  0.00000000000E+00  0.00000000000E+00  0.45593999997E+02  0.45594000000E+02  0.51100000000E-03 0. -1.
         11   -1    0    0    0    0 -0.00000000000E+00 -0.00000000000E+00 -0.45593999997E+02  0.45594000000E+02  0.51100000000E-03 0.  1.
    9900012    2    1    2    0    0 -0.37762864623E+02 -0.66969063706E+00 -0.21380879037E+02  0.47787257858E+02  0.19999939876E+02 0.  0.
         12    1    1    2    0    0  0.37762864623E+02  0.66969063706E+00  0.21380879037E+02  0.43400742142E+02  0.00000000000E+00 0. -1.
         11    1    3    3    0    0 -0.27737081896E+02  0.60143890146E+01 -0.19203487817E+02  0.34267951965E+02  0.51100000000E-03 0. -1.
        -11    1    3    3    0    0 -0.27750241512E+01 -0.15998381031E+00 -0.25306681890E+01  0.37590737693E+01  0.51100000000E-03 0.  1.
         12    1    3    3    0    0 -0.72507585764E+01 -0.65240958413E+01  0.35327696889E+00  0.97602321231E+01  0.00000000000E+00 0. -1.
</event>
<event>
 7    1  0.5038211E-009  0.4778728E+02  0.7816164E-02  0.1312668E+00
        -11   -1    0    0    0    0  0.00000000000E+00  0.00000000000E+00  0.45593999997E+02  0.45594000000E+02  0.51100000000E-03 0.  1.
         11   -1    0    0    0    0 -0.00000000000E+00 -0.00000000000E+00 -0.45593999997E+02  0.45594000000E+02  0.51100000000E-03 0. -1.
    9900012    2    1    2    0    0 -0.94508207599E+01 -0.66180990184E+01  0.41839042100E+02  0.47787277754E+02  0.20000030592E+02 0.  0.
         12    1    1    2    0    0  0.94508207599E+01  0.66180990184E+01 -0.41839042100E+02  0.43400722246E+02  0.00000000000E+00 0. -1.
         11    1    3    3    0    0  0.78515426365E-01 -0.86487357947E+01  0.10139160661E+02  0.13327016721E+02  0.51100000000E-03 0. -1.
        -11    1    3    3    0    0 -0.22689690015E+01  0.32731437722E+01  0.21574795075E+02  0.21939313419E+02  0.51100000000E-03 0.  1.
         12    1    3    3    0    0 -0.72603671848E+01 -0.12425069958E+01  0.10125086363E+02  0.12520947614E+02  0.00000000000E+00 0. -1.
</event>
<event>
 7    1  0.5611418E-009  0.4778728E+02  0.7816164E-02  0.1312668E+00
        -11   -1    0    0    0    0  0.00000000000E+00  0.00000000000E+00  0.45593999997E+02  0.45594000000E+02  0.51100000000E-03 0. -1.
         11   -1    0    0    0    0 -0.00000000000E+00 -0.00000000000E+00 -0.45593999997E+02  0.45594000000E+02  0.51100000000E-03 0.  1.
    9900012    2    1    2    0    0 -0.86248169770E+01 -0.18234591288E+02 -0.38428304118E+02  0.47787281749E+02  0.20000048805E+02 0.  0.
         12    1    1    2    0    0  0.86248169770E+01  0.18234591288E+02  0.38428304118E+02  0.43400718251E+02  0.00000000000E+00 0. -1.
         11    1    3    3    0    0  0.50816985706E+01 -0.23393538712E+01 -0.70831483561E+01  0.90259197754E+01  0.51100000000E-03 0. -1.
        -11    1    3    3    0    0 -0.10362120463E+02 -0.58855434502E+01 -0.13310154337E+02  0.17865423895E+02  0.51100000000E-03 0.  1.
        -12    1    3    3    0    0 -0.33443950847E+01 -0.10009693967E+02 -0.18035001425E+02  0.20895938078E+02  0.00000000000E+00 0.  1.
</event>
<event>
 7    1  0.5038211E-009  0.4778727E+02  0.7816164E-02  0.1312668E+00
        -11   -1    0    0    0    0  0.00000000000E+00  0.00000000000E+00  0.45593999997E+02  0.45594000000E+02  0.51100000000E-03 0.  1.
         11   -1    0    0    0    0 -0.00000000000E+00 -0.00000000000E+00 -0.45593999997E+02  0.45594000000E+02  0.51100000000E-03 0. -1.
    9900012    2    1    2    0    0  0.27987594695E+02 -0.33132635503E+02 -0.15957642848E+01  0.47787268948E+02  0.19999990442E+02 0.  0.
         12    1    1    2    0    0 -0.27987594695E+02  0.33132635503E+02  0.15957642848E+01  0.43400731052E+02  0.00000000000E+00 0. -1.
         11    1    3    3    0    0  0.11157339090E+01  0.18367895073E+01  0.14957945549E+01  0.26184078104E+01  0.51100000000E-03 0. -1.
        -11    1    3    3    0    0  0.26841382553E+02 -0.32934984124E+02 -0.13794923644E+01  0.42509716490E+02  0.51100000000E-03 0.  1.
        -12    1    3    3    0    0  0.30478232907E-01 -0.20344408864E+01 -0.17120664753E+01  0.26591446480E+01  0.00000000000E+00 0.  1.
</event>
<event>
 7    1  0.5038211E-009  0.4778727E+02  0.7816164E-02  0.1312668E+00
        -11   -1    0    0    0    0  0.00000000000E+00  0.00000000000E+00  0.45593999997E+02  0.45594000000E+02  0.51100000000E-03 0. -1.
         11   -1    0    0    0    0 -0.00000000000E+00 -0.00000000000E+00 -0.45593999997E+02  0.45594000000E+02  0.51100000000E-03 0.  1.
    9900012    2    1    2    0    0 -0.37974147424E+02  0.16414675938E+02 -0.13120442438E+02  0.47787268803E+02  0.19999989779E+02 0.  0.
         12    1    1    2    0    0  0.37974147424E+02 -0.16414675938E+02  0.13120442438E+02  0.43400731197E+02  0.00000000000E+00 0. -1.
         11    1    3    3    0    0 -0.16730733222E+02  0.56465321598E+00 -0.21233186527E+01  0.16874381463E+02  0.51100000000E-03 0. -1.
        -11    1    3    3    0    0 -0.16912888234E+02  0.13393144446E+02 -0.13387474752E+02  0.25389891435E+02  0.51100000000E-03 0.  1.
        -12    1    3    3    0    0 -0.43305259673E+01  0.24568782758E+01  0.23903509673E+01  0.55229959046E+01  0.00000000000E+00 0.  1.
</event>
<event>
 7    1  0.5038211E-009  0.4778727E+02  0.7816164E-02  0.1312668E+00
        -11   -1    0    0    0    0  0.00000000000E+00  0.00000000000E+00  0.45593999997E+02  0.45594000000E+02  0.51100000000E-03 0.  1.
         11   -1    0    0    0    0 -0.00000000000E+00 -0.00000000000E+00 -0.45593999997E+02  0.45594000000E+02  0.51100000000E-03 0. -1.
    9900012    2    1    2    0    0 -0.58125078308E+01  0.42935507066E+02  0.25259884064E+01  0.47787266922E+02  0.19999981204E+02 0.  0.
         12    1    1    2    0    0  0.58125078308E+01 -0.42935507066E+02 -0.25259884064E+01  0.43400733078E+02  0.00000000000E+00 0. -1.
         11    1    3    3    0    0  0.52399629358E+01  0.15793192523E+02  0.44932921112E+01  0.17235771404E+02  0.51100000000E-03 0. -1.
        -11    1    3    3    0    0 -0.20360710283E-01  0.79145313350E+01 -0.27253655258E+01  0.83706533988E+01  0.51100000000E-03 0.  1.
         12    1    3    3    0    0 -0.11032110056E+02  0.19227783208E+02  0.75806182098E+00  0.22180842119E+02  0.00000000000E+00 0. -1.
</event>
<event>
 7    1  0.5038211E-009  0.4778728E+02  0.7816164E-02  0.1312668E+00
        -11   -1    0    0    0    0  0.00000000000E+00  0.00000000000E+00  0.45593999997E+02  0.45594000000E+02  0.51100000000E-03 0. -1.
         11   -1    0    0    0    0 -0.00000000000E+00 -0.00000000000E+00 -0.45593999997E+02  0.45594000000E+02  0.51100000000E-03 0.  1.
    9900012    2    1    2    0    0  0.38313347851E+01  0.41749946748E+02 -0.11219878400E+02  0.47787275916E+02  0.20000022211E+02 0.  0.
         12    1    1    2    0    0 -0.38313347851E+01 -0.41749946748E+02  0.11219878400E+02  0.43400724084E+02  0.00000000000E+00 0. -1.
         11    1    3    3    0    0  0.77822907454E+01  0.22378377694E+02 -0.12229650268E+02  0.26663086532E+02  0.51100000000E-03 0. -1.
        -11    1    3    3    0    0 -0.59694063324E+01  0.11606873259E+02  0.11276146058E+01  0.13100566162E+02  0.51100000000E-03 0.  1.
         12    1    3    3    0    0  0.20184503721E+01  0.77646957952E+01 -0.11784273832E+00  0.80236232219E+01  0.00000000000E+00 0. -1.
</event>
<event>
 7    1  0.5038211E-009  0.4778727E+02  0.7816164E-02  0.1312668E+00
        -11   -1    0    0    0    0  0.00000000000E+00  0.00000000000E+00  0.45593999997E+02  0.45594000000E+02  0.51100000000E-03 0.  1.
         11   -1    0    0    0    0 -0.00000000000E+00 -0.00000000000E+00 -0.45593999997E+02  0.45594000000E+02  0.51100000000E-03 0. -1.
    9900012    2    1    2    0    0  0.20780472884E+02  0.29141591140E+02  0.24547164358E+02  0.47787266533E+02  0.19999979431E+02 0.  0.
         12    1    1    2    0    0 -0.20780472884E+02 -0.29141591140E+02 -0.24547164358E+02  0.43400733467E+02  0.00000000000E+00 0. -1.
         11    1    3    3    0    0  0.53808603045E+01  0.16061188741E+01  0.95321931522E+01  0.11063271759E+02  0.51100000000E-03 0. -1.
        -11    1    3    3    0    0  0.12979740808E+02  0.27630040500E+02  0.15526900863E+02  0.34248758520E+02  0.51100000000E-03 0.  1.
        -12    1    3    3    0    0  0.24198717711E+01 -0.94568234210E-01 -0.51192965753E+00  0.24752362542E+01  0.00000000000E+00 0.  1.
</event>
<event>
 7    1  0.5038211E-009  0.4778727E+02  0.7816164E-02  0.1312668E+00
        -11   -1    0    0    0    0  0.00000000000E+00  0.00000000000E+00  0.45593999997E+02  0.45594000000E+02  0.51100000000E-03 0.  1.
         11   -1    0    0    0    0 -0.00000000000E+00 -0.00000000000E+00 -0.45593999997E+02  0.45594000000E+02  0.51100000000E-03 0. -1.
    9900012    2    1    2    0    0  0.23797633141E+02  0.22542532973E+02  0.28445213906E+02  0.47787270397E+02  0.19999997049E+02 0.  0.
         12    1    1    2    0    0 -0.23797633141E+02 -0.22542532973E+02 -0.28445213906E+02  0.43400729603E+02  0.00000000000E+00 0. -1.
         11    1    3    3    0    0  0.70388519869E+00  0.42505507738E+01 -0.23476934653E+01  0.49065569519E+01  0.51100000000E-03 0. -1.
        -11    1    3    3    0    0  0.17514067673E+02  0.13332184728E+02  0.19887710639E+02  0.29664975152E+02  0.51100000000E-03 0.  1.
         12    1    3    3    0    0  0.55796802688E+01  0.49597974707E+01  0.10905196732E+02  0.13215738293E+02  0.00000000000E+00 0. -1.
</event>
<event>
 7    1  0.5038211E-009  0.4778727E+02  0.7816164E-02  0.1312668E+00
        -11   -1    0    0    0    0  0.00000000000E+00  0.00000000000E+00  0.45593999997E+02  0.45594000000E+02  0.51100000000E-03 0. -1.
         11   -1    0    0    0    0 -0.00000000000E+00 -0.00000000000E+00 -0.45593999997E+02  0.45594000000E+02  0.51100000000E-03 0.  1.
    9900012    2    1    2    0    0  0.26726568376E+02 -0.97523155554E+01 -0.32775083305E+02  0.47787271878E+02  0.20000003801E+02 0.  0.
         12    1    1    2    0    0 -0.26726568376E+02  0.97523155554E+01  0.32775083305E+02  0.43400728122E+02  0.00000000000E+00 0. -1.
         11    1    3    3    0    0 -0.75540854252E+00  0.10515440264E+01 -0.97453308864E+01  0.98309644111E+01  0.51100000000E-03 0.  1.
        -11    1    3    3    0    0  0.13790667101E+02 -0.32484634813E+01 -0.80187295972E+01  0.16279896765E+02  0.51100000000E-03 0. -1.
         12    1    3    3    0    0  0.13691309817E+02 -0.75553961006E+01 -0.15011022822E+02  0.21676410702E+02  0.00000000000E+00 0. -1.
</event>
<event>
 7    1  0.5038211E-009  0.4778727E+02  0.7816164E-02  0.1312668E+00
        -11   -1    0    0    0    0  0.00000000000E+00  0.00000000000E+00  0.45593999997E+02  0.45594000000E+02  0.51100000000E-03 0.  1.
         11   -1    0    0    0    0 -0.00000000000E+00 -0.00000000000E+00 -0.45593999997E+02  0.45594000000E+02  0.51100000000E-03 0. -1.
    9900012    2    1    2    0    0  0.34189971878E+02 -0.16535024224E+02  0.21006240804E+02  0.47787270100E+02  0.19999995696E+02 0.  0.
         12    1    1    2    0    0 -0.34189971878E+02  0.16535024224E+02 -0.21006240804E+02  0.43400729900E+02  0.00000000000E+00 0. -1.
         11    1    3    3    0    0  0.11450581901E+02 -0.15533389110E+02  0.56802146117E+01  0.20116332702E+02  0.51100000000E-03 0. -1.
        -11    1    3    3    0    0  0.19636836725E+02 -0.15583916605E+00  0.11851307791E+02  0.22936502328E+02  0.51100000000E-03 0.  1.
         12    1    3    3    0    0  0.31025532524E+01 -0.84579594880E+00  0.34747184005E+01  0.47344350702E+01  0.00000000000E+00 0. -1.
</event>
<event>
 7    1  0.5038211E-009  0.4778726E+02  0.7816164E-02  0.1312668E+00
        -11   -1    0    0    0    0  0.00000000000E+00  0.00000000000E+00  0.45593999997E+02  0.45594000000E+02  0.51100000000E-03 0.  1.
         11   -1    0    0    0    0 -0.00000000000E+00 -0.00000000000E+00 -0.45593999997E+02  0.45594000000E+02  0.51100000000E-03 0. -1.
    9900012    2    1    2    0    0  0.22182193963E+00 -0.15562200469E+02  0.40514112559E+02  0.47787255711E+02  0.19999930090E+02 0.  0.
         12    1    1    2    0    0 -0.22182193963E+00  0.15562200469E+02 -0.40514112559E+02  0.43400744289E+02  0.00000000000E+00 0. -1.
         11    1    3    3    0    0  0.72868137198E+01 -0.56228443665E+01  0.10627661110E+02  0.14059203886E+02  0.51100000000E-03 0. -1.
        -11    1    3    3    0    0 -0.71739483738E+01 -0.11308506551E+02  0.22252701997E+02  0.25971726976E+02  0.51100000000E-03 0.  1.
         12    1    3    3    0    0  0.10895659356E+00  0.13691504488E+01  0.76337494516E+01  0.77563248501E+01  0.00000000000E+00 0. -1.
</event>
<event>
 7    1  0.5038211E-009  0.4778727E+02  0.7816164E-02  0.1312668E+00
        -11   -1    0    0    0    0  0.00000000000E+00  0.00000000000E+00  0.45593999997E+02  0.45594000000E+02  0.51100000000E-03 0.  1.
         11   -1    0    0    0    0 -0.00000000000E+00 -0.00000000000E+00 -0.45593999997E+02  0.45594000000E+02  0.51100000000E-03 0. -1.
    9900012    2    1    2    0    0  0.26550455707E+01 -0.10522454252E+02  0.42022039248E+02  0.47787273128E+02  0.20000009502E+02 0.  0.
         12    1    1    2    0    0 -0.26550455707E+01  0.10522454252E+02 -0.42022039248E+02  0.43400726872E+02  0.00000000000E+00 0. -1.
         11    1    3    3    0    0  0.99211890758E+00 -0.36522766988E+01 -0.14515380921E+00  0.37874126921E+01  0.51100000000E-03 0. -1.
        -11    1    3    3    0    0  0.43925816947E+01 -0.33155849032E+01  0.35758544409E+02  0.36179571248E+02  0.51100000000E-03 0.  1.
        -12    1    3    3    0    0 -0.27296550316E+01 -0.35545926496E+01  0.64086486480E+01  0.78202891884E+01  0.00000000000E+00 0.  1.
</event>
<event>
 7    1  0.5038211E-009  0.4778728E+02  0.7816164E-02  0.1312668E+00
        -11   -1    0    0    0    0  0.00000000000E+00  0.00000000000E+00  0.45593999997E+02  0.45594000000E+02  0.51100000000E-03 0.  1.
         11   -1    0    0    0    0 -0.00000000000E+00 -0.00000000000E+00 -0.45593999997E+02  0.45594000000E+02  0.51100000000E-03 0. -1.
    9900012    2    1    2    0    0  0.38564663301E+02 -0.17683315279E+02  0.91481944150E+01  0.47787281621E+02  0.20000048222E+02 0.  0.
         12    1    1    2    0    0 -0.38564663301E+02  0.17683315279E+02 -0.91481944150E+01  0.43400718379E+02  0.00000000000E+00 0. -1.
         11    1    3    3    0    0  0.14858082420E+02 -0.44570415709E+01 -0.41668515199E+01  0.16062082200E+02  0.51100000000E-03 0. -1.
        -11    1    3    3    0    0  0.14419791958E+02 -0.12970691365E+02  0.76852783780E+01  0.20862232349E+02  0.51100000000E-03 0.  1.
        -12    1    3    3    0    0  0.92867889234E+01 -0.25558234332E+00  0.56297675569E+01  0.10862967071E+02  0.00000000000E+00 0.  1.
</event>
<event>
 7    1  0.5038211E-009  0.4778727E+02  0.7816164E-02  0.1312668E+00
        -11   -1    0    0    0    0  0.00000000000E+00  0.00000000000E+00  0.45593999997E+02  0.45594000000E+02  0.51100000000E-03 0.  1.
         11   -1    0    0    0    0 -0.00000000000E+00 -0.00000000000E+00 -0.45593999997E+02  0.45594000000E+02  0.51100000000E-03 0. -1.
    9900012    2    1    2    0    0 -0.36340975858E+02  0.40158883486E+01  0.23384385937E+02  0.47787269693E+02  0.19999993838E+02 0.  0.
         12    1    1    2    0    0  0.36340975858E+02 -0.40158883486E+01 -0.23384385937E+02  0.43400730307E+02  0.00000000000E+00 0. -1.
         11    1    3    3    0    0  0.18067145872E+01  0.13186962778E+01  0.21355200060E+01  0.30925108617E+01  0.51100000000E-03 0. -1.
        -11    1    3    3    0    0 -0.68977879522E+01  0.15878235005E+01  0.81441592305E+01  0.10790180348E+02  0.51100000000E-03 0.  1.
         12    1    3    3    0    0 -0.31249902493E+02  0.11093685704E+01  0.13104706701E+02  0.33904578484E+02  0.00000000000E+00 0. -1.
</event>
<event>
 7    1  0.5038211E-009  0.4778727E+02  0.7816164E-02  0.1312668E+00
        -11   -1    0    0    0    0  0.00000000000E+00  0.00000000000E+00  0.45593999997E+02  0.45594000000E+02  0.51100000000E-03 0. -1.
         11   -1    0    0    0    0 -0.00000000000E+00 -0.00000000000E+00 -0.45593999997E+02  0.45594000000E+02  0.51100000000E-03 0.  1.
    9900012    2    1    2    0    0 -0.18280879530E+02  0.39172419026E+02 -0.38670600904E+01  0.47787272789E+02  0.20000007952E+02 0.  0.
         12    1    1    2    0    0  0.18280879530E+02 -0.39172419026E+02  0.38670600904E+01  0.43400727211E+02  0.00000000000E+00 0. -1.
         11    1    3    3    0    0  0.18283538290E+01  0.27626878487E+01 -0.11058876216E+01  0.34926078460E+01  0.51100000000E-03 0. -1.
        -11    1    3    3    0    0 -0.10481497936E+01  0.16674206981E+02 -0.22008476425E+01  0.16851454746E+02  0.51100000000E-03 0.  1.
        -12    1    3    3    0    0 -0.19061083566E+02  0.19735524196E+02 -0.56032482630E+00  0.27443210197E+02  0.00000000000E+00 0.  1.
</event>
<event>
 7    1  0.5038211E-009  0.4778727E+02  0.7816164E-02  0.1312668E+00
        -11   -1    0    0    0    0  0.00000000000E+00  0.00000000000E+00  0.45593999997E+02  0.45594000000E+02  0.51100000000E-03 0.  1.
         11   -1    0    0    0    0 -0.00000000000E+00 -0.00000000000E+00 -0.45593999997E+02  0.45594000000E+02  0.51100000000E-03 0. -1.
    9900012    2    1    2    0    0  0.14441627144E+01  0.17600289780E+02  0.39645520856E+02  0.47787272699E+02  0.20000007544E+02 0.  0.
         12    1    1    2    0    0 -0.14441627144E+01 -0.17600289780E+02 -0.39645520856E+02  0.43400727301E+02  0.00000000000E+00 0. -1.
         11    1    3    3    0    0  0.10649328730E+01 -0.35952760803E+01  0.25627269707E+01  0.45417685878E+01  0.51100000000E-03 0. -1.
        -11    1    3    3    0    0  0.23851346706E+01  0.19418124474E+02  0.32299812680E+02  0.37762816698E+02  0.51100000000E-03 0.  1.
        -12    1    3    3    0    0 -0.20059048292E+01  0.17774413863E+01  0.47829812052E+01  0.54826874136E+01  0.00000000000E+00 0.  1.
</event>
<event>
 7    1  0.5038211E-009  0.4778727E+02  0.7816164E-02  0.1312668E+00
        -11   -1    0    0    0    0  0.00000000000E+00  0.00000000000E+00  0.45593999997E+02  0.45594000000E+02  0.51100000000E-03 0. -1.
         11   -1    0    0    0    0 -0.00000000000E+00 -0.00000000000E+00 -0.45593999997E+02  0.45594000000E+02  0.51100000000E-03 0.  1.
    9900012    2    1    2    0    0  0.88504238786E+01  0.75973575033E+01 -0.41803988493E+02  0.47787270769E+02  0.19999998746E+02 0.  0.
         12    1    1    2    0    0 -0.88504238786E+01 -0.75973575033E+01  0.41803988493E+02  0.43400729231E+02  0.00000000000E+00 0. -1.
         11    1    3    3    0    0 -0.38041950113E+01  0.32837062921E+01 -0.14160100796E+02  0.15025414520E+02  0.51100000000E-03 0. -1.
        -11    1    3    3    0    0  0.85868396042E+01 -0.22821129557E+00 -0.65437509470E+01  0.10798452273E+02  0.51100000000E-03 0.  1.
        -12    1    3    3    0    0  0.40677792857E+01  0.45418625068E+01 -0.21100136750E+02  0.21963403976E+02  0.00000000000E+00 0.  1.
</event>
<event>
 7    1  0.5038211E-009  0.4778727E+02  0.7816164E-02  0.1312668E+00
        -11   -1    0    0    0    0  0.00000000000E+00  0.00000000000E+00  0.45593999997E+02  0.45594000000E+02  0.51100000000E-03 0.  1.
         11   -1    0    0    0    0 -0.00000000000E+00 -0.00000000000E+00 -0.45593999997E+02  0.45594000000E+02  0.51100000000E-03 0. -1.
    9900012    2    1    2    0    0 -0.40395795587E+02 -0.12767570084E+02  0.94229710492E+01  0.47787268090E+02  0.19999986528E+02 0.  0.
         12    1    1    2    0    0  0.40395795587E+02  0.12767570084E+02 -0.94229710492E+01  0.43400731910E+02  0.00000000000E+00 0. -1.
         11    1    3    3    0    0 -0.15077184269E+02 -0.11694357910E+02  0.43161187220E+01  0.19562933663E+02  0.51100000000E-03 0. -1.
        -11    1    3    3    0    0 -0.25921442597E+02  0.34266262749E-01  0.34617642559E+01  0.26151599808E+02  0.51100000000E-03 0.  1.
         12    1    3    3    0    0  0.60283127892E+00 -0.11074784367E+01  0.16450880713E+01  0.20727346190E+01  0.00000000000E+00 0. -1.
</event>
<event>
 7    1  0.5038211E-009  0.4778727E+02  0.7816164E-02  0.1312668E+00
        -11   -1    0    0    0    0  0.00000000000E+00  0.00000000000E+00  0.45593999997E+02  0.45594000000E+02  0.51100000000E-03 0.  1.
         11   -1    0    0    0    0 -0.00000000000E+00 -0.00000000000E+00 -0.45593999997E+02  0.45594000000E+02  0.51100000000E-03 0. -1.
    9900012    2    1    2    0    0 -0.11744567846E+02 -0.42757257497E+01  0.41562086924E+02  0.47787265282E+02  0.19999973729E+02 0.  0.
         12    1    1    2    0    0  0.11744567846E+02  0.42757257497E+01 -0.41562086924E+02  0.43400734718E+02  0.00000000000E+00 0. -1.
         11    1    3    3    0    0  0.32103314160E+01 -0.14590592411E+01  0.11279291362E+02  0.11817677249E+02  0.51100000000E-03 0. -1.
        -11    1    3    3    0    0 -0.13640414621E+02  0.11184734385E+01  0.28158808717E+02  0.31308631437E+02  0.51100000000E-03 0.  1.
        -12    1    3    3    0    0 -0.13144846410E+01 -0.39351399471E+01  0.21239868450E+01  0.46609565963E+01  0.00000000000E+00 0.  1.
</event>
<event>
 7    1  0.5038211E-009  0.4778727E+02  0.7816164E-02  0.1312668E+00
        -11   -1    0    0    0    0  0.00000000000E+00  0.00000000000E+00  0.45593999997E+02  0.45594000000E+02  0.51100000000E-03 0. -1.
         11   -1    0    0    0    0 -0.00000000000E+00 -0.00000000000E+00 -0.45593999997E+02  0.45594000000E+02  0.51100000000E-03 0.  1.
    9900012    2    1    2    0    0 -0.34607338031E+02 -0.25578010425E+02  0.56321119701E+01  0.47787272493E+02  0.20000006605E+02 0.  0.
         12    1    1    2    0    0  0.34607338031E+02  0.25578010425E+02 -0.56321119701E+01  0.43400727507E+02  0.00000000000E+00 0. -1.
         11    1    3    3    0    0 -0.77277924493E+01 -0.10754586664E+02  0.77606080593E+01  0.15349493417E+02  0.51100000000E-03 0. -1.
        -11    1    3    3    0    0 -0.24107921895E+02 -0.11863325754E+02 -0.51790334556E+01  0.27363347453E+02  0.51100000000E-03 0.  1.
        -12    1    3    3    0    0 -0.27716236864E+01 -0.29600980072E+01  0.30505373664E+01  0.50744316229E+01  0.00000000000E+00 0.  1.
</event>
<event>
 7    1  0.5038211E-009  0.4778726E+02  0.7816164E-02  0.1312668E+00
        -11   -1    0    0    0    0  0.00000000000E+00  0.00000000000E+00  0.45593999997E+02  0.45594000000E+02  0.51100000000E-03 0.  1.
         11   -1    0    0    0    0 -0.00000000000E+00 -0.00000000000E+00 -0.45593999997E+02  0.45594000000E+02  0.51100000000E-03 0. -1.
    9900012    2    1    2    0    0 -0.45932116982E+01  0.95168896759E+01  0.42094599294E+02  0.47787261844E+02  0.19999958050E+02 0.  0.
         12    1    1    2    0    0  0.45932116982E+01 -0.95168896759E+01 -0.42094599294E+02  0.43400738156E+02  0.00000000000E+00 0. -1.
         11    1    3    3    0    0  0.73507641108E+01  0.10883413427E+01  0.13771558281E+02  0.15648451605E+02  0.51100000000E-03 0. -1.
        -11    1    3    3    0    0 -0.92952502496E+01  0.46971196256E+01  0.17143537192E+02  0.20059049771E+02  0.51100000000E-03 0.  1.
         12    1    3    3    0    0 -0.26487255594E+01  0.37314287076E+01  0.11179503821E+02  0.12079760468E+02  0.00000000000E+00 0. -1.
</event>
<event>
 7    1  0.5038211E-009  0.4778727E+02  0.7816164E-02  0.1312668E+00
        -11   -1    0    0    0    0  0.00000000000E+00  0.00000000000E+00  0.45593999997E+02  0.45594000000E+02  0.51100000000E-03 0.  1.
         11   -1    0    0    0    0 -0.00000000000E+00 -0.00000000000E+00 -0.45593999997E+02  0.45594000000E+02  0.51100000000E-03 0. -1.
    9900012    2    1    2    0    0  0.41507253483E+01  0.40264175251E+02  0.15658576545E+02  0.47787270179E+02  0.19999996056E+02 0.  0.
         12    1    1    2    0    0 -0.41507253483E+01 -0.40264175251E+02 -0.15658576545E+02  0.43400729821E+02  0.00000000000E+00 0. -1.
         11    1    3    3    0    0  0.64032786677E+01  0.79066436633E+01  0.12995978166E+01  0.10256995002E+02  0.51100000000E-03 0. -1.
        -11    1    3    3    0    0 -0.69558260854E+01  0.12890790374E+02  0.61304961716E+01  0.15878884613E+02  0.51100000000E-03 0.  1.
        -12    1    3    3    0    0  0.47032727660E+01  0.19466741214E+02  0.82284825568E+01  0.21651390565E+02  0.00000000000E+00 0.  1.
</event>
<event>
 7    1  0.5038211E-009  0.4778727E+02  0.7816164E-02  0.1312668E+00
        -11   -1    0    0    0    0  0.00000000000E+00  0.00000000000E+00  0.45593999997E+02  0.45594000000E+02  0.51100000000E-03 0.  1.
         11   -1    0    0    0    0 -0.00000000000E+00 -0.00000000000E+00 -0.45593999997E+02  0.45594000000E+02  0.51100000000E-03 0. -1.
    9900012    2    1    2    0    0  0.10994556910E+02  0.18750863006E+02  0.37565257502E+02  0.47787265947E+02  0.19999976761E+02 0.  0.
         12    1    1    2    0    0 -0.10994556910E+02 -0.18750863006E+02 -0.37565257502E+02  0.43400734053E+02  0.00000000000E+00 0. -1.
         11    1    3    3    0    0  0.12705154402E+02  0.20749046130E+02  0.34011664234E+02  0.41817904872E+02  0.51100000000E-03 0. -1.
        -11    1    3    3    0    0 -0.23141018229E+01  0.18595542549E+00  0.92542849153E+00  0.24992128402E+01  0.51100000000E-03 0.  1.
         12    1    3    3    0    0  0.60350433030E+00 -0.21841385494E+01  0.26281647766E+01  0.34701482349E+01  0.00000000000E+00 0. -1.
</event>
<event>
 7    1  0.5038211E-009  0.4778727E+02  0.7816164E-02  0.1312668E+00
        -11   -1    0    0    0    0  0.00000000000E+00  0.00000000000E+00  0.45593999997E+02  0.45594000000E+02  0.51100000000E-03 0.  1.
         11   -1    0    0    0    0 -0.00000000000E+00 -0.00000000000E+00 -0.45593999997E+02  0.45594000000E+02  0.51100000000E-03 0. -1.
    9900012    2    1    2    0    0 -0.32764480803E+02  0.13728535888E+02  0.24932694932E+02  0.47787272167E+02  0.20000005116E+02 0.  0.
         12    1    1    2    0    0  0.32764480803E+02 -0.13728535888E+02 -0.24932694932E+02  0.43400727833E+02  0.00000000000E+00 0. -1.
         11    1    3    3    0    0 -0.26034830677E+01  0.22026903695E+01 -0.23000594736E+01  0.41134222723E+01  0.51100000000E-03 0. -1.
        -11    1    3    3    0    0 -0.10389677197E+02 -0.25073030649E+00  0.12888029067E+02  0.16556254148E+02  0.51100000000E-03 0.  1.
         12    1    3    3    0    0 -0.19771320539E+02  0.11776575825E+02  0.14344725339E+02  0.27117595746E+02  0.00000000000E+00 0. -1.
</event>
<event>
 7    1  0.5038211E-009  0.4778728E+02  0.7816164E-02  0.1312668E+00
        -11   -1    0    0    0    0  0.00000000000E+00  0.00000000000E+00  0.45593999997E+02  0.45594000000E+02  0.51100000000E-03 0. -1.
         11   -1    0    0    0    0 -0.00000000000E+00 -0.00000000000E+00 -0.45593999997E+02  0.45594000000E+02  0.51100000000E-03 0.  1.
    9900012    2    1    2    0    0  0.13547226299E+02 -0.17279721309E+02 -0.37436701877E+02  0.47787277006E+02  0.20000027182E+02 0.  0.
         12    1    1    2    0    0 -0.13547226299E+02  0.17279721309E+02  0.37436701877E+02  0.43400722994E+02  0.00000000000E+00 0. -1.
         11    1    3    3    0    0 -0.88275210765E+00  0.36391227139E+00 -0.19609652690E+01  0.21810704877E+01  0.51100000000E-03 0. -1.
        -11    1    3    3    0    0 -0.95721390510E+00 -0.91509425973E+01 -0.20671617313E+02  0.22626793222E+02  0.51100000000E-03 0.  1.
        -12    1    3    3    0    0  0.15387192312E+02 -0.84926909831E+01 -0.14804119295E+02  0.22979413297E+02  0.00000000000E+00 0.  1.
</event>
<event>
 7    1  0.5038211E-009  0.4778725E+02  0.7816164E-02  0.1312668E+00
        -11   -1    0    0    0    0  0.00000000000E+00  0.00000000000E+00  0.45593999997E+02  0.45594000000E+02  0.51100000000E-03 0.  1.
         11   -1    0    0    0    0 -0.00000000000E+00 -0.00000000000E+00 -0.45593999997E+02  0.45594000000E+02  0.51100000000E-03 0. -1.
    9900012    2    1    2    0    0  0.40755694111E+02  0.19592153216E+01  0.14790535622E+02  0.47787250339E+02  0.19999905594E+02 0.  0.
         12    1    1    2    0    0 -0.40755694111E+02 -0.19592153216E+01 -0.14790535622E+02  0.43400749661E+02  0.00000000000E+00 0. -1.
         11    1    3    3    0    0  0.10638814961E+02  0.82811911787E+01  0.18968409320E+01  0.13614716923E+02  0.51100000000E-03 0. -1.
        -11    1    3    3    0    0  0.96697236228E+01  0.13769666881E+01  0.32906823177E+01  0.10306705709E+02  0.51100000000E-03 0.  1.
         12    1    3    3    0    0  0.20447155527E+02 -0.76989425451E+01  0.96030123724E+01  0.23865827706E+02  0.00000000000E+00 0. -1.
</event>
<event>
 7    1  0.5038211E-009  0.4778726E+02  0.7816164E-02  0.1312668E+00
        -11   -1    0    0    0    0  0.00000000000E+00  0.00000000000E+00  0.45593999997E+02  0.45594000000E+02  0.51100000000E-03 0.  1.
         11   -1    0    0    0    0 -0.00000000000E+00 -0.00000000000E+00 -0.45593999997E+02  0.45594000000E+02  0.51100000000E-03 0. -1.
    9900012    2    1    2    0    0  0.14552600919E+01 -0.16636532412E+01  0.43344417454E+02  0.47787262121E+02  0.19999959315E+02 0.  0.
         12    1    1    2    0    0 -0.14552600919E+01  0.16636532412E+01 -0.43344417454E+02  0.43400737879E+02  0.00000000000E+00 0. -1.
         11    1    3    3    0    0 -0.15148569158E+01 -0.65275569478E+01  0.37959456649E+02  0.38546389462E+02  0.51100000000E-03 0. -1.
        -11    1    3    3    0    0  0.41148880270E+01  0.45281178372E+01  0.52078610659E+01  0.80347975559E+01  0.51100000000E-03 0.  1.
         12    1    3    3    0    0 -0.11447710193E+01  0.33578586944E+00  0.17709973838E+00  0.12060751030E+01  0.00000000000E+00 0. -1.
</event>
<event>
 7    1  0.5038211E-009  0.4778727E+02  0.7816164E-02  0.1312668E+00
        -11   -1    0    0    0    0  0.00000000000E+00  0.00000000000E+00  0.45593999997E+02  0.45594000000E+02  0.51100000000E-03 0.  1.
         11   -1    0    0    0    0 -0.00000000000E+00 -0.00000000000E+00 -0.45593999997E+02  0.45594000000E+02  0.51100000000E-03 0. -1.
    9900012    2    1    2    0    0 -0.43147080501E+00  0.19974460764E+02  0.38528665581E+02  0.47787270498E+02  0.19999997509E+02 0.  0.
         12    1    1    2    0    0  0.43147080501E+00 -0.19974460764E+02 -0.38528665581E+02  0.43400729502E+02  0.00000000000E+00 0. -1.
         11    1    3    3    0    0 -0.39100363941E+00  0.17391193361E+01 -0.23435466514E+00  0.17978715976E+01  0.51100000000E-03 0. -1.
        -11    1    3    3    0    0 -0.62662496968E+01  0.23684013876E+01  0.57176818048E+01  0.88072183961E+01  0.51100000000E-03 0.  1.
        -12    1    3    3    0    0  0.62257825312E+01  0.15866940041E+02  0.33045338441E+02  0.37182180504E+02  0.00000000000E+00 0.  1.
</event>
<event>
 7    1  0.5038211E-009  0.4778727E+02  0.7816164E-02  0.1312668E+00
        -11   -1    0    0    0    0  0.00000000000E+00  0.00000000000E+00  0.45593999997E+02  0.45594000000E+02  0.51100000000E-03 0.  1.
         11   -1    0    0    0    0 -0.00000000000E+00 -0.00000000000E+00 -0.45593999997E+02  0.45594000000E+02  0.51100000000E-03 0. -1.
    9900012    2    1    2    0    0  0.30462591028E+02 -0.27183603135E+02 -0.14720922712E+02  0.47787270778E+02  0.19999998785E+02 0.  0.
         12    1    1    2    0    0 -0.30462591028E+02  0.27183603135E+02  0.14720922712E+02  0.43400729222E+02  0.00000000000E+00 0. -1.
         11    1    3    3    0    0  0.95631334943E+01  0.73624234315E+00 -0.17090997829E+01  0.97425149395E+01  0.51100000000E-03 0. -1.
        -11    1    3    3    0    0  0.39500984118E+01 -0.11192193258E+02 -0.32317426978E+01  0.12300919824E+02  0.51100000000E-03 0.  1.
         12    1    3    3    0    0  0.16949359122E+02 -0.16727652220E+02 -0.97800802312E+01  0.25743836015E+02  0.00000000000E+00 0. -1.
</event>
<event>
 7    1  0.5038211E-009  0.4778727E+02  0.7816164E-02  0.1312668E+00
        -11   -1    0    0    0    0  0.00000000000E+00  0.00000000000E+00  0.45593999997E+02  0.45594000000E+02  0.51100000000E-03 0.  1.
         11   -1    0    0    0    0 -0.00000000000E+00 -0.00000000000E+00 -0.45593999997E+02  0.45594000000E+02  0.51100000000E-03 0. -1.
    9900012    2    1    2    0    0 -0.45495351107E+01 -0.44475762003E+01  0.42931851376E+02  0.47787273435E+02  0.20000010901E+02 0.  0.
         12    1    1    2    0    0  0.45495351107E+01  0.44475762003E+01 -0.42931851376E+02  0.43400726565E+02  0.00000000000E+00 0. -1.
         11    1    3    3    0    0 -0.64408884224E+01 -0.52917670753E+00  0.42557222553E+01  0.77379741426E+01  0.51100000000E-03 0. -1.
        -11    1    3    3    0    0  0.67806811845E+00 -0.43856843853E+01  0.38479260030E+02  0.38734318848E+02  0.51100000000E-03 0.  1.
        -12    1    3    3    0    0  0.12132851932E+01  0.46728489250E+00  0.19686909073E+00  0.13149804446E+01  0.00000000000E+00 0.  1.
</event>
<event>
 7    1  0.5038211E-009  0.4778728E+02  0.7816164E-02  0.1312668E+00
        -11   -1    0    0    0    0  0.00000000000E+00  0.00000000000E+00  0.45593999997E+02  0.45594000000E+02  0.51100000000E-03 0.  1.
         11   -1    0    0    0    0 -0.00000000000E+00 -0.00000000000E+00 -0.45593999997E+02  0.45594000000E+02  0.51100000000E-03 0. -1.
    9900012    2    1    2    0    0 -0.40700216486E+01 -0.41661411288E+02 -0.11462313129E+02  0.47787275479E+02  0.20000020218E+02 0.  0.
         12    1    1    2    0    0  0.40700216486E+01  0.41661411288E+02  0.11462313129E+02  0.43400724521E+02  0.00000000000E+00 0. -1.
         11    1    3    3    0    0 -0.67111594549E+00 -0.36162232500E+01 -0.74731830932E+01  0.83292216330E+01  0.51100000000E-03 0. -1.
        -11    1    3    3    0    0  0.49921267891E+00 -0.30724855263E+02 -0.48906883944E+01  0.31115667717E+02  0.51100000000E-03 0.  1.
         12    1    3    3    0    0 -0.38981183821E+01 -0.73203327744E+01  0.90155835893E+00  0.83423861289E+01  0.00000000000E+00 0. -1.
</event>
<event>
 7    1  0.5038211E-009  0.4778727E+02  0.7816164E-02  0.1312668E+00
        -11   -1    0    0    0    0  0.00000000000E+00  0.00000000000E+00  0.45593999997E+02  0.45594000000E+02  0.51100000000E-03 0.  1.
         11   -1    0    0    0    0 -0.00000000000E+00 -0.00000000000E+00 -0.45593999997E+02  0.45594000000E+02  0.51100000000E-03 0. -1.
    9900012    2    1    2    0    0 -0.16124262141E+02 -0.35103384388E+02  0.19783420892E+02  0.47787272273E+02  0.20000005600E+02 0.  0.
         12    1    1    2    0    0  0.16124262141E+02  0.35103384388E+02 -0.19783420892E+02  0.43400727727E+02  0.00000000000E+00 0. -1.
         11    1    3    3    0    0  0.60330691807E+00 -0.13850659420E+02  0.10735372134E+02  0.17534336620E+02  0.51100000000E-03 0. -1.
        -11    1    3    3    0    0 -0.12202364129E+02 -0.19572584236E+02  0.42617154987E+01  0.23455190540E+02  0.51100000000E-03 0.  1.
        -12    1    3    3    0    0 -0.45252049308E+01 -0.16801407318E+01  0.47863332595E+01  0.67977451125E+01  0.00000000000E+00 0.  1.
</event>
<event>
 7    1  0.5038211E-009  0.4778727E+02  0.7816164E-02  0.1312668E+00
        -11   -1    0    0    0    0  0.00000000000E+00  0.00000000000E+00  0.45593999997E+02  0.45594000000E+02  0.51100000000E-03 0.  1.
         11   -1    0    0    0    0 -0.00000000000E+00 -0.00000000000E+00 -0.45593999997E+02  0.45594000000E+02  0.51100000000E-03 0. -1.
    9900012    2    1    2    0    0 -0.24058841322E+01 -0.23238449407E+02  0.36576075549E+02  0.47787272911E+02  0.20000008511E+02 0.  0.
         12    1    1    2    0    0  0.24058841322E+01  0.23238449407E+02 -0.36576075549E+02  0.43400727089E+02  0.00000000000E+00 0. -1.
         11    1    3    3    0    0 -0.13656174209E+01 -0.92272658120E+01  0.22793680190E+01  0.96022322474E+01  0.51100000000E-03 0. -1.
        -11    1    3    3    0    0 -0.10335382212E+00 -0.41045185354E+01  0.21934405899E+02  0.22315374001E+02  0.51100000000E-03 0.  1.
         12    1    3    3    0    0 -0.93691288917E+00 -0.99066650593E+01  0.12362301631E+02  0.15869666662E+02  0.00000000000E+00 0. -1.
</event>
<event>
 7    1  0.5038211E-009  0.4778726E+02  0.7816164E-02  0.1312668E+00
        -11   -1    0    0    0    0  0.00000000000E+00  0.00000000000E+00  0.45593999997E+02  0.45594000000E+02  0.51100000000E-03 0. -1.
         11   -1    0    0    0    0 -0.00000000000E+00 -0.00000000000E+00 -0.45593999997E+02  0.45594000000E+02  0.51100000000E-03 0.  1.
    9900012    2    1    2    0    0 -0.18668469812E+02  0.63861488532E+01 -0.38656559366E+02  0.47787259865E+02  0.19999949027E+02 0.  0.
         12    1    1    2    0    0  0.18668469812E+02 -0.63861488532E+01  0.38656559366E+02  0.43400740135E+02  0.00000000000E+00 0. -1.
         11    1    3    3    0    0 -0.74388557506E+01 -0.13185140488E+01 -0.29062288709E+01  0.80945179403E+01  0.51100000000E-03 0. -1.
        -11    1    3    3    0    0 -0.75737314603E+01  0.97276324662E+01 -0.31027037843E+02  0.33386603888E+02  0.51100000000E-03 0.  1.
        -12    1    3    3    0    0 -0.36558826016E+01 -0.20229695642E+01 -0.47232926518E+01  0.63061380359E+01  0.00000000000E+00 0.  1.
</event>
<event>
 7    1  0.5038211E-009  0.4778727E+02  0.7816164E-02  0.1312668E+00
        -11   -1    0    0    0    0  0.00000000000E+00  0.00000000000E+00  0.45593999997E+02  0.45594000000E+02  0.51100000000E-03 0.  1.
         11   -1    0    0    0    0 -0.00000000000E+00 -0.00000000000E+00 -0.45593999997E+02  0.45594000000E+02  0.51100000000E-03 0. -1.
    9900012    2    1    2    0    0 -0.23211625509E+02 -0.88759947085E+01  0.35581749459E+02  0.47787265728E+02  0.19999975760E+02 0.  0.
         12    1    1    2    0    0  0.23211625509E+02  0.88759947085E+01 -0.35581749459E+02  0.43400734272E+02  0.00000000000E+00 0. -1.
         11    1    3    3    0    0 -0.52582407916E+01  0.30211859253E+01  0.33821842977E+01  0.69437620569E+01  0.51100000000E-03 0.  1.
        -11    1    3    3    0    0 -0.15947511707E+02 -0.13965388782E+02  0.31341891797E+02  0.37837407352E+02  0.51100000000E-03 0. -1.
         12    1    3    3    0    0 -0.20058730101E+01  0.20682081483E+01  0.85767336396E+00  0.30060963186E+01  0.00000000000E+00 0. -1.
</event>
<event>
 7    1  0.5038211E-009  0.4778727E+02  0.7816164E-02  0.1312668E+00
        -11   -1    0    0    0    0  0.00000000000E+00  0.00000000000E+00  0.45593999997E+02  0.45594000000E+02  0.51100000000E-03 0. -1.
         11   -1    0    0    0    0 -0.00000000000E+00 -0.00000000000E+00 -0.45593999997E+02  0.45594000000E+02  0.51100000000E-03 0.  1.
    9900012    2    1    2    0    0  0.21566900357E+02 -0.35238646206E+02 -0.13293972293E+02  0.47787273315E+02  0.20000010354E+02 0.  0.
         12    1    1    2    0    0 -0.21566900357E+02  0.35238646206E+02  0.13293972293E+02  0.43400726685E+02  0.00000000000E+00 0. -1.
         11    1    3    3    0    0  0.13780001763E+02 -0.22441602817E+02  0.48068763079E+00  0.26339040347E+02  0.51100000000E-03 0. -1.
        -11    1    3    3    0    0  0.74272401144E+01 -0.58045599013E+01 -0.83116204357E+01  0.12567412060E+02  0.51100000000E-03 0.  1.
         12    1    3    3    0    0  0.35965848010E+00 -0.69924834875E+01 -0.54630394881E+01  0.88808209077E+01  0.00000000000E+00 0. -1.
</event>
<event>
 7    1  0.5038211E-009  0.4778728E+02  0.7816164E-02  0.1312668E+00
        -11   -1    0    0    0    0  0.00000000000E+00  0.00000000000E+00  0.45593999997E+02  0.45594000000E+02  0.51100000000E-03 0. -1.
         11   -1    0    0    0    0 -0.00000000000E+00 -0.00000000000E+00 -0.45593999997E+02  0.45594000000E+02  0.51100000000E-03 0.  1.
    9900012    2    1    2    0    0  0.29254503592E+02  0.29534276539E+02 -0.12470896605E+02  0.47787277273E+02  0.20000028398E+02 0.  0.
         12    1    1    2    0    0 -0.29254503592E+02 -0.29534276539E+02  0.12470896605E+02  0.43400722727E+02  0.00000000000E+00 0. -1.
         11    1    3    3    0    0  0.96482930260E+01  0.91492555528E+01  0.39727184730E+01  0.13877353055E+02  0.51100000000E-03 0. -1.
        -11    1    3    3    0    0  0.82854025289E+01  0.14892185189E+02 -0.86862461847E+01  0.19127884039E+02  0.51100000000E-03 0.  1.
         12    1    3    3    0    0  0.11320808037E+02  0.54928357975E+01 -0.77573688934E+01  0.14782040179E+02  0.00000000000E+00 0. -1.
</event>
<event>
 7    1  0.5038211E-009  0.4778728E+02  0.7816164E-02  0.1312668E+00
        -11   -1    0    0    0    0  0.00000000000E+00  0.00000000000E+00  0.45593999997E+02  0.45594000000E+02  0.51100000000E-03 0.  1.
         11   -1    0    0    0    0 -0.00000000000E+00 -0.00000000000E+00 -0.45593999997E+02  0.45594000000E+02  0.51100000000E-03 0. -1.
    9900012    2    1    2    0    0  0.13606053543E+02  0.27481836871E+01  0.41121103526E+02  0.47787281552E+02  0.20000047910E+02 0.  0.
         12    1    1    2    0    0 -0.13606053543E+02 -0.27481836871E+01 -0.41121103526E+02  0.43400718448E+02  0.00000000000E+00 0. -1.
         11    1    3    3    0    0 -0.28522227682E+01  0.62699803441E+00  0.31778401897E+01  0.43158973328E+01  0.51100000000E-03 0. -1.
        -11    1    3    3    0    0  0.15793866909E+02  0.60336539008E+01  0.27289051564E+02  0.32102080101E+02  0.51100000000E-03 0.  1.
        -12    1    3    3    0    0  0.66440940292E+00 -0.39124682481E+01  0.10654211772E+02  0.11369304118E+02  0.00000000000E+00 0.  1.
</event>
<event>
 7    1  0.5038211E-009  0.4778727E+02  0.7816164E-02  0.1312668E+00
        -11   -1    0    0    0    0  0.00000000000E+00  0.00000000000E+00  0.45593999997E+02  0.45594000000E+02  0.51100000000E-03 0.  1.
         11   -1    0    0    0    0 -0.00000000000E+00 -0.00000000000E+00 -0.45593999997E+02  0.45594000000E+02  0.51100000000E-03 0. -1.
    9900012    2    1    2    0    0  0.19072061828E+02 -0.20730015661E+01  0.38930485694E+02  0.47787267353E+02  0.19999983171E+02 0.  0.
         12    1    1    2    0    0 -0.19072061828E+02  0.20730015661E+01 -0.38930485694E+02  0.43400732647E+02  0.00000000000E+00 0. -1.
         11    1    3    3    0    0 -0.94506177125E+00  0.66281391137E+00  0.88548504386E+00  0.14548360927E+01  0.51100000000E-03 0.  1.
        -11    1    3    3    0    0  0.30030759666E+01  0.41007650687E+01  0.12690919819E+01  0.52388294618E+01  0.51100000000E-03 0. -1.
        -12    1    3    3    0    0  0.17014047633E+02 -0.68365805462E+01  0.36775908668E+02  0.41093601799E+02  0.00000000000E+00 0.  1.
</event>
<event>
 7    1  0.5038211E-009  0.4778727E+02  0.7816164E-02  0.1312668E+00
        -11   -1    0    0    0    0  0.00000000000E+00  0.00000000000E+00  0.45593999997E+02  0.45594000000E+02  0.51100000000E-03 0.  1.
         11   -1    0    0    0    0 -0.00000000000E+00 -0.00000000000E+00 -0.45593999997E+02  0.45594000000E+02  0.51100000000E-03 0. -1.
    9900012    2    1    2    0    0  0.51092013268E+01  0.90502321956E+01  0.42138019456E+02  0.47787270459E+02  0.19999997331E+02 0.  0.
         12    1    1    2    0    0 -0.51092013268E+01 -0.90502321956E+01 -0.42138019456E+02  0.43400729541E+02  0.00000000000E+00 0. -1.
         11    1    3    3    0    0 -0.68597023081E+01  0.54578023498E+01  0.16267227278E+02  0.18478793408E+02  0.51100000000E-03 0. -1.
        -11    1    3    3    0    0  0.62938656867E+01  0.42369116349E+01  0.18412776925E+02  0.19914681013E+02  0.51100000000E-03 0.  1.
         12    1    3    3    0    0  0.56750379481E+01 -0.64448178907E+00  0.74580152534E+01  0.93937960383E+01  0.00000000000E+00 0. -1.
</event>
<event>
 7    1  0.5038211E-009  0.4778727E+02  0.7816164E-02  0.1312668E+00
        -11   -1    0    0    0    0  0.00000000000E+00  0.00000000000E+00  0.45593999997E+02  0.45594000000E+02  0.51100000000E-03 0.  1.
         11   -1    0    0    0    0 -0.00000000000E+00 -0.00000000000E+00 -0.45593999997E+02  0.45594000000E+02  0.51100000000E-03 0. -1.
    9900012    2    1    2    0    0  0.48592411766E+01  0.11513175733E+02  0.41562701048E+02  0.47787267764E+02  0.19999985041E+02 0.  0.
         12    1    1    2    0    0 -0.48592411766E+01 -0.11513175733E+02 -0.41562701048E+02  0.43400732236E+02  0.00000000000E+00 0. -1.
         11    1    3    3    0    0  0.47206850530E+01  0.60025716464E+01  0.39131572632E+01  0.85807070668E+01  0.51100000000E-03 0. -1.
        -11    1    3    3    0    0  0.27277571813E+01  0.46641354483E+01  0.34971900480E+02  0.35386842783E+02  0.51100000000E-03 0.  1.
        -12    1    3    3    0    0 -0.25892010576E+01  0.84646863818E+00  0.26776433049E+01  0.38197179137E+01  0.00000000000E+00 0.  1.
</event>
<event>
 7    1  0.5038211E-009  0.4778728E+02  0.7816164E-02  0.1312668E+00
        -11   -1    0    0    0    0  0.00000000000E+00  0.00000000000E+00  0.45593999997E+02  0.45594000000E+02  0.51100000000E-03 0.  1.
         11   -1    0    0    0    0 -0.00000000000E+00 -0.00000000000E+00 -0.45593999997E+02  0.45594000000E+02  0.51100000000E-03 0. -1.
    9900012    2    1    2    0    0 -0.11287258608E+02 -0.76467894361E+01  0.41203727614E+02  0.47787276909E+02  0.20000026737E+02 0.  0.
         12    1    1    2    0    0  0.11287258608E+02  0.76467894361E+01 -0.41203727614E+02  0.43400723091E+02  0.00000000000E+00 0. -1.
         11    1    3    3    0    0 -0.11435441101E+02 -0.75442508519E+01  0.21554359457E+02  0.25539683748E+02  0.51100000000E-03 0. -1.
        -11    1    3    3    0    0 -0.44972369639E+01 -0.15212688424E+01  0.14073978541E+02  0.14853156951E+02  0.51100000000E-03 0.  1.
         12    1    3    3    0    0  0.46454194570E+01  0.14187302583E+01  0.55753896167E+01  0.73944362094E+01  0.00000000000E+00 0. -1.
</event>
<event>
 7    1  0.5038211E-009  0.4778727E+02  0.7816164E-02  0.1312668E+00
        -11   -1    0    0    0    0  0.00000000000E+00  0.00000000000E+00  0.45593999997E+02  0.45594000000E+02  0.51100000000E-03 0.  1.
         11   -1    0    0    0    0 -0.00000000000E+00 -0.00000000000E+00 -0.45593999997E+02  0.45594000000E+02  0.51100000000E-03 0. -1.
    9900012    2    1    2    0    0  0.22636505423E+02 -0.28520005992E+02  0.23618237986E+02  0.47787270915E+02  0.19999999410E+02 0.  0.
         12    1    1    2    0    0 -0.22636505423E+02  0.28520005992E+02 -0.23618237986E+02  0.43400729085E+02  0.00000000000E+00 0. -1.
         11    1    3    3    0    0 -0.36215143046E+01 -0.31248139427E+01  0.40393638207E+01  0.62606939210E+01  0.51100000000E-03 0. -1.
        -11    1    3    3    0    0  0.28071226814E+01 -0.22699197540E+01  0.11649317215E+01  0.37933546650E+01  0.51100000000E-03 0.  1.
         12    1    3    3    0    0  0.23450897046E+02 -0.23125272295E+02  0.18413942444E+02  0.37733222329E+02  0.00000000000E+00 0. -1.
</event>
<event>
 7    1  0.5038211E-009  0.4778728E+02  0.7816164E-02  0.1312668E+00
        -11   -1    0    0    0    0  0.00000000000E+00  0.00000000000E+00  0.45593999997E+02  0.45594000000E+02  0.51100000000E-03 0. -1.
         11   -1    0    0    0    0 -0.00000000000E+00 -0.00000000000E+00 -0.45593999997E+02  0.45594000000E+02  0.51100000000E-03 0.  1.
    9900012    2    1    2    0    0  0.77304530398E+01  0.42285902373E+02 -0.59803933133E+01  0.47787279408E+02  0.20000038133E+02 0.  0.
         12    1    1    2    0    0 -0.77304530398E+01 -0.42285902373E+02  0.59803933133E+01  0.43400720592E+02  0.00000000000E+00 0. -1.
         11    1    3    3    0    0 -0.46407790860E+01  0.14317463469E+02 -0.51509897719E+01  0.15907837269E+02  0.51100000000E-03 0. -1.
        -11    1    3    3    0    0  0.10918832759E+02  0.23299457321E+02 -0.40167559756E+01  0.26042656337E+02  0.51100000000E-03 0.  1.
         12    1    3    3    0    0  0.14523993665E+01  0.46689815841E+01  0.31873524342E+01  0.58367858015E+01  0.00000000000E+00 0. -1.
</event>
<event>
 7    1  0.5038211E-009  0.4778727E+02  0.7816164E-02  0.1312668E+00
        -11   -1    0    0    0    0  0.00000000000E+00  0.00000000000E+00  0.45593999997E+02  0.45594000000E+02  0.51100000000E-03 0.  1.
         11   -1    0    0    0    0 -0.00000000000E+00 -0.00000000000E+00 -0.45593999997E+02  0.45594000000E+02  0.51100000000E-03 0. -1.
    9900012    2    1    2    0    0  0.29332261888E+02  0.21900742234E+02  0.23315212097E+02  0.47787271746E+02  0.20000003199E+02 0.  0.
         12    1    1    2    0    0 -0.29332261888E+02 -0.21900742234E+02 -0.23315212097E+02  0.43400728254E+02  0.00000000000E+00 0. -1.
         11    1    3    3    0    0 -0.23343770338E-01  0.29082317530E+01  0.96097584905E+01  0.10040209926E+02  0.51100000000E-03 0. -1.
        -11    1    3    3    0    0  0.23173126420E+02  0.14754476937E+02  0.12392290814E+02  0.30137306609E+02  0.51100000000E-03 0.  1.
         12    1    3    3    0    0  0.61824792381E+01  0.42380335445E+01  0.13131627925E+01  0.76097552111E+01  0.00000000000E+00 0. -1.
</event>
<event>
 7    1  0.5038211E-009  0.4778727E+02  0.7816164E-02  0.1312668E+00
        -11   -1    0    0    0    0  0.00000000000E+00  0.00000000000E+00  0.45593999997E+02  0.45594000000E+02  0.51100000000E-03 0. -1.
         11   -1    0    0    0    0 -0.00000000000E+00 -0.00000000000E+00 -0.45593999997E+02  0.45594000000E+02  0.51100000000E-03 0.  1.
    9900012    2    1    2    0    0 -0.81104870790E+01  0.42113306466E+02 -0.66567941862E+01  0.47787268543E+02  0.19999988593E+02 0.  0.
         12    1    1    2    0    0  0.81104870790E+01 -0.42113306466E+02  0.66567941862E+01  0.43400731457E+02  0.00000000000E+00 0. -1.
         11    1    3    3    0    0 -0.22713448370E+01  0.95752215676E+01  0.10826255783E+01  0.99003006945E+01  0.51100000000E-03 0.  1.
        -11    1    3    3    0    0 -0.19853142087E+01  0.95374400462E+01  0.53800470929E+01  0.11128752946E+02  0.51100000000E-03 0. -1.
        -12    1    3    3    0    0 -0.38538280333E+01  0.23000644853E+02 -0.13119466857E+02  0.26758214903E+02  0.00000000000E+00 0.  1.
</event>
<event>
 7    1  0.5038211E-009  0.4778727E+02  0.7816164E-02  0.1312668E+00
        -11   -1    0    0    0    0  0.00000000000E+00  0.00000000000E+00  0.45593999997E+02  0.45594000000E+02  0.51100000000E-03 0.  1.
         11   -1    0    0    0    0 -0.00000000000E+00 -0.00000000000E+00 -0.45593999997E+02  0.45594000000E+02  0.51100000000E-03 0. -1.
    9900012    2    1    2    0    0 -0.14356204597E+02  0.37750020895E+02  0.15888947437E+02  0.47787270298E+02  0.19999996598E+02 0.  0.
         12    1    1    2    0    0  0.14356204597E+02 -0.37750020895E+02 -0.15888947437E+02  0.43400729702E+02  0.00000000000E+00 0. -1.
         11    1    3    3    0    0 -0.54144699179E+01  0.53837807775E+01  0.34242198523E+01  0.83682054115E+01  0.51100000000E-03 0.  1.
        -11    1    3    3    0    0 -0.24446453796E+01 -0.14213598867E+01  0.10660486537E-01  0.28278381967E+01  0.51100000000E-03 0. -1.
        -12    1    3    3    0    0 -0.64970892995E+01  0.33787600004E+02  0.12454067098E+02  0.36591226690E+02  0.00000000000E+00 0.  1.
</event>
<event>
 7    1  0.5038211E-009  0.4778727E+02  0.7816164E-02  0.1312668E+00
        -11   -1    0    0    0    0  0.00000000000E+00  0.00000000000E+00  0.45593999997E+02  0.45594000000E+02  0.51100000000E-03 0.  1.
         11   -1    0    0    0    0 -0.00000000000E+00 -0.00000000000E+00 -0.45593999997E+02  0.45594000000E+02  0.51100000000E-03 0. -1.
    9900012    2    1    2    0    0  0.20988802678E+02 -0.31373754624E+02  0.21419167727E+02  0.47787273472E+02  0.20000011067E+02 0.  0.
         12    1    1    2    0    0 -0.20988802678E+02  0.31373754624E+02 -0.21419167727E+02  0.43400726528E+02  0.00000000000E+00 0. -1.
         11    1    3    3    0    0  0.22122983694E+02 -0.27252827763E+02  0.17420851644E+02  0.39187103757E+02  0.51100000000E-03 0. -1.
        -11    1    3    3    0    0 -0.36760084501E+01 -0.27852862929E+01  0.16757002536E+01  0.49070183880E+01  0.51100000000E-03 0.  1.
        -12    1    3    3    0    0  0.25418274339E+01 -0.13356405685E+01  0.23226158292E+01  0.36931513267E+01  0.00000000000E+00 0.  1.
</event>
<event>
 7    1  0.5038211E-009  0.4778727E+02  0.7816164E-02  0.1312668E+00
        -11   -1    0    0    0    0  0.00000000000E+00  0.00000000000E+00  0.45593999997E+02  0.45594000000E+02  0.51100000000E-03 0. -1.
         11   -1    0    0    0    0 -0.00000000000E+00 -0.00000000000E+00 -0.45593999997E+02  0.45594000000E+02  0.51100000000E-03 0.  1.
    9900012    2    1    2    0    0  0.30899874874E+02 -0.25591068072E+02 -0.16550473714E+02  0.47787271752E+02  0.20000003225E+02 0.  0.
         12    1    1    2    0    0 -0.30899874874E+02  0.25591068072E+02  0.16550473714E+02  0.43400728248E+02  0.00000000000E+00 0. -1.
         11    1    3    3    0    0  0.16860369609E+02 -0.19132286503E+02 -0.45332677773E+01  0.25901099730E+02  0.51100000000E-03 0. -1.
        -11    1    3    3    0    0  0.55971062407E+01  0.15437820500E+01 -0.10528423131E+01  0.59007913440E+01  0.51100000000E-03 0.  1.
        -12    1    3    3    0    0  0.84423990241E+01 -0.80025636192E+01 -0.10964363624E+02  0.15985380678E+02  0.00000000000E+00 0.  1.
</event>
<event>
 7    1  0.5038211E-009  0.4778727E+02  0.7816164E-02  0.1312668E+00
        -11   -1    0    0    0    0  0.00000000000E+00  0.00000000000E+00  0.45593999997E+02  0.45594000000E+02  0.51100000000E-03 0. -1.
         11   -1    0    0    0    0 -0.00000000000E+00 -0.00000000000E+00 -0.45593999997E+02  0.45594000000E+02  0.51100000000E-03 0.  1.
    9900012    2    1    2    0    0 -0.40457723938E+02 -0.38471180216E+01 -0.15231399720E+02  0.47787270965E+02  0.19999999637E+02 0.  0.
         12    1    1    2    0    0  0.40457723938E+02  0.38471180216E+01  0.15231399720E+02  0.43400729035E+02  0.00000000000E+00 0. -1.
         11    1    3    3    0    0 -0.18279795733E+00  0.13491396824E+01 -0.34012646264E+01  0.36636312991E+01  0.51100000000E-03 0. -1.
        -11    1    3    3    0    0 -0.16426974372E+02 -0.74765341489E+01 -0.17514176976E+01  0.18133160621E+02  0.51100000000E-03 0.  1.
        -12    1    3    3    0    0 -0.23847951609E+02  0.22802764450E+01 -0.10078717396E+02  0.25990479044E+02  0.00000000000E+00 0.  1.
</event>
<event>
 7    1  0.5038211E-009  0.4778727E+02  0.7816164E-02  0.1312668E+00
        -11   -1    0    0    0    0  0.00000000000E+00  0.00000000000E+00  0.45593999997E+02  0.45594000000E+02  0.51100000000E-03 0.  1.
         11   -1    0    0    0    0 -0.00000000000E+00 -0.00000000000E+00 -0.45593999997E+02  0.45594000000E+02  0.51100000000E-03 0. -1.
    9900012    2    1    2    0    0 -0.25221414900E+02  0.36113327431E+01  0.35134910484E+02  0.47787269263E+02  0.19999991878E+02 0.  0.
         12    1    1    2    0    0  0.25221414900E+02 -0.36113327431E+01 -0.35134910484E+02  0.43400730737E+02  0.00000000000E+00 0. -1.
         11    1    3    3    0    0 -0.49536712568E+01 -0.32682865039E+01  0.17762198377E+02  0.18727419658E+02  0.51100000000E-03 0. -1.
        -11    1    3    3    0    0 -0.10975811653E+02 -0.13358219051E+00  0.11921669172E+02  0.16205322636E+02  0.51100000000E-03 0.  1.
         12    1    3    3    0    0 -0.92919319905E+01  0.70132014375E+01  0.54510429359E+01  0.12854526969E+02  0.00000000000E+00 0. -1.
</event>
<event>
 7    1  0.5038211E-009  0.4778727E+02  0.7816164E-02  0.1312668E+00
        -11   -1    0    0    0    0  0.00000000000E+00  0.00000000000E+00  0.45593999997E+02  0.45594000000E+02  0.51100000000E-03 0. -1.
         11   -1    0    0    0    0 -0.00000000000E+00 -0.00000000000E+00 -0.45593999997E+02  0.45594000000E+02  0.51100000000E-03 0.  1.
    9900012    2    1    2    0    0 -0.54018134357E+01 -0.42072596151E+02 -0.91837135535E+01  0.47787268094E+02  0.19999986550E+02 0.  0.
         12    1    1    2    0    0  0.54018134357E+01  0.42072596151E+02  0.91837135535E+01  0.43400731906E+02  0.00000000000E+00 0. -1.
         11    1    3    3    0    0  0.82518921655E+00 -0.24775215223E+02  0.78106442211E+00  0.24801255784E+02  0.51100000000E-03 0. -1.
        -11    1    3    3    0    0 -0.64813798803E+01 -0.18419413608E+02 -0.90786428155E+01  0.21533806873E+02  0.51100000000E-03 0.  1.
         12    1    3    3    0    0  0.25437722805E+00  0.11220326798E+01 -0.88613516014E+00  0.14522054368E+01  0.00000000000E+00 0. -1.
</event>
<event>
 7    1  0.5038211E-009  0.4778727E+02  0.7816164E-02  0.1312668E+00
        -11   -1    0    0    0    0  0.00000000000E+00  0.00000000000E+00  0.45593999997E+02  0.45594000000E+02  0.51100000000E-03 0.  1.
         11   -1    0    0    0    0 -0.00000000000E+00 -0.00000000000E+00 -0.45593999997E+02  0.45594000000E+02  0.51100000000E-03 0. -1.
    9900012    2    1    2    0    0  0.10803636565E+01  0.36694790514E+02  0.23150558612E+02  0.47787271889E+02  0.20000003852E+02 0.  0.
         12    1    1    2    0    0 -0.10803636565E+01 -0.36694790514E+02 -0.23150558612E+02  0.43400728111E+02  0.00000000000E+00 0. -1.
         11    1    3    3    0    0  0.84023588058E+01  0.11104760204E+02  0.80722466743E+01  0.16095853482E+02  0.51100000000E-03 0. -1.
        -11    1    3    3    0    0 -0.55220607273E+01  0.25395972583E+02  0.13484068800E+02  0.29279151111E+02  0.51100000000E-03 0.  1.
        -12    1    3    3    0    0 -0.17999344221E+01  0.19405772686E+00  0.15942431377E+01  0.24122672960E+01  0.00000000000E+00 0.  1.
</event>
<event>
 7    1  0.5038211E-009  0.4778727E+02  0.7816164E-02  0.1312668E+00
        -11   -1    0    0    0    0  0.00000000000E+00  0.00000000000E+00  0.45593999997E+02  0.45594000000E+02  0.51100000000E-03 0. -1.
         11   -1    0    0    0    0 -0.00000000000E+00 -0.00000000000E+00 -0.45593999997E+02  0.45594000000E+02  0.51100000000E-03 0.  1.
    9900012    2    1    2    0    0 -0.11730232602E+01  0.35276762049E+02 -0.25254651486E+02  0.47787270214E+02  0.19999996214E+02 0.  0.
         12    1    1    2    0    0  0.11730232602E+01 -0.35276762049E+02  0.25254651486E+02  0.43400729786E+02  0.00000000000E+00 0. -1.
         11    1    3    3    0    0 -0.71071134479E+01  0.62990266059E+01 -0.98579834596E+01  0.13688266358E+02  0.51100000000E-03 0. -1.
        -11    1    3    3    0    0  0.32715447077E+01  0.24910053087E+02 -0.14905138959E+02  0.29212615720E+02  0.51100000000E-03 0.  1.
         12    1    3    3    0    0  0.26625454800E+01  0.40676823563E+01 -0.49152906768E+00  0.48863881354E+01  0.00000000000E+00 0. -1.
</event>
<event>
 7    1  0.5038211E-009  0.4778727E+02  0.7816164E-02  0.1312668E+00
        -11   -1    0    0    0    0  0.00000000000E+00  0.00000000000E+00  0.45593999997E+02  0.45594000000E+02  0.51100000000E-03 0. -1.
         11   -1    0    0    0    0 -0.00000000000E+00 -0.00000000000E+00 -0.45593999997E+02  0.45594000000E+02  0.51100000000E-03 0.  1.
    9900012    2    1    2    0    0 -0.28748834271E+02  0.32334295713E+02 -0.34089632537E+01  0.47787272106E+02  0.20000004842E+02 0.  0.
         12    1    1    2    0    0  0.28748834271E+02 -0.32334295713E+02  0.34089632537E+01  0.43400727894E+02  0.00000000000E+00 0. -1.
         11    1    3    3    0    0 -0.22295389956E+00 -0.53691628600E+00  0.14043411804E+01  0.15199216926E+01  0.51100000000E-03 0. -1.
        -11    1    3    3    0    0 -0.20206566857E+02  0.23925447787E+02 -0.10172301712E+02  0.32927315686E+02  0.51100000000E-03 0.  1.
        -12    1    3    3    0    0 -0.83193135149E+01  0.89457642126E+01  0.53589972776E+01  0.13340034727E+02  0.00000000000E+00 0.  1.
</event>
<event>
 7    1  0.5038211E-009  0.4778727E+02  0.7816164E-02  0.1312668E+00
        -11   -1    0    0    0    0  0.00000000000E+00  0.00000000000E+00  0.45593999997E+02  0.45594000000E+02  0.51100000000E-03 0.  1.
         11   -1    0    0    0    0 -0.00000000000E+00 -0.00000000000E+00 -0.45593999997E+02  0.45594000000E+02  0.51100000000E-03 0. -1.
    9900012    2    1    2    0    0 -0.58665508334E+01  0.26941005268E+02  0.33517001111E+02  0.47787267898E+02  0.19999985655E+02 0.  0.
         12    1    1    2    0    0  0.58665508334E+01 -0.26941005268E+02 -0.33517001111E+02  0.43400732102E+02  0.00000000000E+00 0. -1.
         11    1    3    3    0    0 -0.19463787673E+01 -0.21752154782E+01  0.34588566783E+00  0.29393179206E+01  0.51100000000E-03 0. -1.
        -11    1    3    3    0    0 -0.59074551021E+01  0.21925857540E+02  0.24342490484E+02  0.33289609459E+02  0.51100000000E-03 0.  1.
         12    1    3    3    0    0  0.19872830359E+01  0.71903632057E+01  0.88286249585E+01  0.11558340519E+02  0.00000000000E+00 0. -1.
</event>
<event>
 7    1  0.5038211E-009  0.4778726E+02  0.7816164E-02  0.1312668E+00
        -11   -1    0    0    0    0  0.00000000000E+00  0.00000000000E+00  0.45593999997E+02  0.45594000000E+02  0.51100000000E-03 0.  1.
         11   -1    0    0    0    0 -0.00000000000E+00 -0.00000000000E+00 -0.45593999997E+02  0.45594000000E+02  0.51100000000E-03 0. -1.
    9900012    2    1    2    0    0 -0.23034970506E+01  0.35492924143E+01  0.43193983915E+02  0.47787264733E+02  0.19999971222E+02 0.  0.
         12    1    1    2    0    0  0.23034970506E+01 -0.35492924143E+01 -0.43193983915E+02  0.43400735267E+02  0.00000000000E+00 0. -1.
         11    1    3    3    0    0  0.22380453166E+01  0.65103051731E+00  0.64991180911E+00  0.24197258510E+01  0.51100000000E-03 0. -1.
        -11    1    3    3    0    0  0.30509834739E+01 -0.38191149820E+00  0.13616517396E+01  0.33628042273E+01  0.51100000000E-03 0.  1.
        -12    1    3    3    0    0 -0.75925258410E+01  0.32801733952E+01  0.41182420366E+02  0.42004734654E+02  0.00000000000E+00 0.  1.
</event>
<event>
 7    1  0.5038211E-009  0.4778727E+02  0.7816164E-02  0.1312668E+00
        -11   -1    0    0    0    0  0.00000000000E+00  0.00000000000E+00  0.45593999997E+02  0.45594000000E+02  0.51100000000E-03 0.  1.
         11   -1    0    0    0    0 -0.00000000000E+00 -0.00000000000E+00 -0.45593999997E+02  0.45594000000E+02  0.51100000000E-03 0. -1.
    9900012    2    1    2    0    0 -0.31330019381E+00 -0.21663149342E+02  0.37606294823E+02  0.47787267210E+02  0.19999982515E+02 0.  0.
         12    1    1    2    0    0  0.31330019381E+00  0.21663149342E+02 -0.37606294823E+02  0.43400732790E+02  0.00000000000E+00 0. -1.
         11    1    3    3    0    0 -0.18150185698E+00 -0.48514223533E+01  0.34868862381E+01  0.59772583742E+01  0.51100000000E-03 0. -1.
        -11    1    3    3    0    0  0.63508222402E+01 -0.14928306305E+02  0.29380987806E+02  0.33562325858E+02  0.51100000000E-03 0.  1.
        -12    1    3    3    0    0 -0.64826205771E+01 -0.18834206834E+01  0.47384207793E+01  0.82476829776E+01  0.00000000000E+00 0.  1.
</event>
<event>
 7    1  0.5038211E-009  0.4778727E+02  0.7816164E-02  0.1312668E+00
        -11   -1    0    0    0    0  0.00000000000E+00  0.00000000000E+00  0.45593999997E+02  0.45594000000E+02  0.51100000000E-03 0.  1.
         11   -1    0    0    0    0 -0.00000000000E+00 -0.00000000000E+00 -0.45593999997E+02  0.45594000000E+02  0.51100000000E-03 0. -1.
    9900012    2    1    2    0    0  0.60226667636E+01 -0.28044983289E+01  0.42889222348E+02  0.47787272824E+02  0.20000008113E+02 0.  0.
         12    1    1    2    0    0 -0.60226667636E+01  0.28044983289E+01 -0.42889222348E+02  0.43400727176E+02  0.00000000000E+00 0. -1.
         11    1    3    3    0    0  0.74009612396E-01 -0.21680103220E+01 -0.81151927324E+00  0.23160980055E+01  0.51100000000E-03 0. -1.
        -11    1    3    3    0    0  0.42943996234E+01 -0.95673527753E-01  0.43508667777E+02  0.43720192057E+02  0.51100000000E-03 0.  1.
         12    1    3    3    0    0  0.16542575277E+01 -0.54081447909E+00  0.19207384446E+00  0.17509827614E+01  0.00000000000E+00 0. -1.
</event>
<event>
 7    1  0.5038211E-009  0.4778727E+02  0.7816164E-02  0.1312668E+00
        -11   -1    0    0    0    0  0.00000000000E+00  0.00000000000E+00  0.45593999997E+02  0.45594000000E+02  0.51100000000E-03 0. -1.
         11   -1    0    0    0    0 -0.00000000000E+00 -0.00000000000E+00 -0.45593999997E+02  0.45594000000E+02  0.51100000000E-03 0.  1.
    9900012    2    1    2    0    0  0.11479329288E+02 -0.21012540863E+02 -0.36198357429E+02  0.47787274718E+02  0.20000016750E+02 0.  0.
         12    1    1    2    0    0 -0.11479329288E+02  0.21012540863E+02  0.36198357429E+02  0.43400725282E+02  0.00000000000E+00 0. -1.
         11    1    3    3    0    0  0.21133355274E+01 -0.22801203533E+01 -0.18681673993E+02  0.18938587046E+02  0.51100000000E-03 0. -1.
        -11    1    3    3    0    0  0.65466120942E+01 -0.16708625664E+02 -0.17912858504E+02  0.25355606905E+02  0.51100000000E-03 0.  1.
         12    1    3    3    0    0  0.28193816663E+01 -0.20237948453E+01  0.39617506751E+00  0.34930807664E+01  0.00000000000E+00 0. -1.
</event>
<event>
 7    1  0.5038211E-009  0.4778727E+02  0.7816164E-02  0.1312668E+00
        -11   -1    0    0    0    0  0.00000000000E+00  0.00000000000E+00  0.45593999997E+02  0.45594000000E+02  0.51100000000E-03 0.  1.
         11   -1    0    0    0    0 -0.00000000000E+00 -0.00000000000E+00 -0.45593999997E+02  0.45594000000E+02  0.51100000000E-03 0. -1.
    9900012    2    1    2    0    0 -0.14840494760E+02 -0.27680788805E+02  0.29952581651E+02  0.47787268426E+02  0.19999988062E+02 0.  0.
         12    1    1    2    0    0  0.14840494760E+02  0.27680788805E+02 -0.29952581651E+02  0.43400731574E+02  0.00000000000E+00 0. -1.
         11    1    3    3    0    0 -0.16424994718E+02 -0.13959070321E+02  0.20861544625E+02  0.29997335550E+02  0.51100000000E-03 0. -1.
        -11    1    3    3    0    0 -0.78141561242E+00 -0.12229322723E+02  0.85463385050E+01  0.14940108658E+02  0.51100000000E-03 0.  1.
         12    1    3    3    0    0  0.23659155701E+01 -0.14923957614E+01  0.54469852124E+00  0.28498242178E+01  0.00000000000E+00 0. -1.
</event>
<event>
 7    1  0.5038211E-009  0.4778726E+02  0.7816164E-02  0.1312668E+00
        -11   -1    0    0    0    0  0.00000000000E+00  0.00000000000E+00  0.45593999997E+02  0.45594000000E+02  0.51100000000E-03 0.  1.
         11   -1    0    0    0    0 -0.00000000000E+00 -0.00000000000E+00 -0.45593999997E+02  0.45594000000E+02  0.51100000000E-03 0. -1.
    9900012    2    1    2    0    0  0.18740810471E+02 -0.32440474474E+02  0.21909398518E+02  0.47787261474E+02  0.19999956363E+02 0.  0.
         12    1    1    2    0    0 -0.18740810471E+02  0.32440474474E+02 -0.21909398518E+02  0.43400738526E+02  0.00000000000E+00 0. -1.
         11    1    3    3    0    0  0.61814352517E+01 -0.26870921434E+02  0.18212171980E+02  0.33044511935E+02  0.51100000000E-03 0. -1.
        -11    1    3    3    0    0  0.99371043305E+01 -0.48154293014E+01  0.13146679087E+01  0.11120375614E+02  0.51100000000E-03 0.  1.
         12    1    3    3    0    0  0.26222708892E+01 -0.75412373802E+00  0.23825586290E+01  0.36223739245E+01  0.00000000000E+00 0. -1.
</event>
<event>
 7    1  0.5038211E-009  0.4778727E+02  0.7816164E-02  0.1312668E+00
        -11   -1    0    0    0    0  0.00000000000E+00  0.00000000000E+00  0.45593999997E+02  0.45594000000E+02  0.51100000000E-03 0. -1.
         11   -1    0    0    0    0 -0.00000000000E+00 -0.00000000000E+00 -0.45593999997E+02  0.45594000000E+02  0.51100000000E-03 0.  1.
    9900012    2    1    2    0    0 -0.34249178260E+02  0.23283545122E+02 -0.12980518866E+02  0.47787267807E+02  0.19999985237E+02 0.  0.
         12    1    1    2    0    0  0.34249178260E+02 -0.23283545122E+02  0.12980518866E+02  0.43400732193E+02  0.00000000000E+00 0. -1.
         11    1    3    3    0    0 -0.79618221730E+01 -0.75528648334E-01 -0.49754419001E+00  0.79777106599E+01  0.51100000000E-03 0. -1.
        -11    1    3    3    0    0 -0.92853193219E+01  0.61634405368E+01  0.24198140370E+01  0.11404413812E+02  0.51100000000E-03 0.  1.
         12    1    3    3    0    0 -0.17002036765E+02  0.17195633233E+02 -0.14902788713E+02  0.28405143335E+02  0.00000000000E+00 0. -1.
</event>
<event>
 7    1  0.5038211E-009  0.4778727E+02  0.7816164E-02  0.1312668E+00
        -11   -1    0    0    0    0  0.00000000000E+00  0.00000000000E+00  0.45593999997E+02  0.45594000000E+02  0.51100000000E-03 0. -1.
         11   -1    0    0    0    0 -0.00000000000E+00 -0.00000000000E+00 -0.45593999997E+02  0.45594000000E+02  0.51100000000E-03 0.  1.
    9900012    2    1    2    0    0  0.62829716105E+00 -0.38404329533E+02 -0.20207324016E+02  0.47787271572E+02  0.20000002404E+02 0.  0.
         12    1    1    2    0    0 -0.62829716105E+00  0.38404329533E+02  0.20207324016E+02  0.43400728428E+02  0.00000000000E+00 0. -1.
         11    1    3    3    0    0 -0.18714379358E+00  0.11502967768E+01 -0.21469848749E+01  0.24428978260E+01  0.51100000000E-03 0. -1.
        -11    1    3    3    0    0 -0.20060611689E+01 -0.21439572546E+02 -0.32520266550E+01  0.21777401819E+02  0.51100000000E-03 0.  1.
        -12    1    3    3    0    0  0.28215021235E+01 -0.18115053764E+02 -0.14808312486E+02  0.23566971927E+02  0.00000000000E+00 0.  1.
</event>
<event>
 7    1  0.5038211E-009  0.4778723E+02  0.7816164E-02  0.1312668E+00
        -11   -1    0    0    0    0  0.00000000000E+00  0.00000000000E+00  0.45593999997E+02  0.45594000000E+02  0.51100000000E-03 0. -1.
         11   -1    0    0    0    0 -0.00000000000E+00 -0.00000000000E+00 -0.45593999997E+02  0.45594000000E+02  0.51100000000E-03 0.  1.
    9900012    2    1    2    0    0 -0.20918676501E+02 -0.37480110978E+02  0.64247088536E+01  0.47787232388E+02  0.19999823747E+02 0.  0.
         12    1    1    2    0    0  0.20918676501E+02  0.37480110978E+02 -0.64247088536E+01  0.43400767612E+02  0.00000000000E+00 0. -1.
         11    1    3    3    0    0 -0.40098295324E+01 -0.21438203046E+02  0.75587619098E+01  0.23082681053E+02  0.51100000000E-03 0. -1.
        -11    1    3    3    0    0 -0.12255165608E+02 -0.14612799201E+02 -0.33367822379E+01  0.19361226731E+02  0.51100000000E-03 0.  1.
        -12    1    3    3    0    0 -0.46536813609E+01 -0.14291087314E+01  0.22027291816E+01  0.53433246039E+01  0.00000000000E+00 0.  1.
</event>
<event>
 7    1  0.5038211E-009  0.4778727E+02  0.7816164E-02  0.1312668E+00
        -11   -1    0    0    0    0  0.00000000000E+00  0.00000000000E+00  0.45593999997E+02  0.45594000000E+02  0.51100000000E-03 0.  1.
         11   -1    0    0    0    0 -0.00000000000E+00 -0.00000000000E+00 -0.45593999997E+02  0.45594000000E+02  0.51100000000E-03 0. -1.
    9900012    2    1    2    0    0  0.15978445322E+02 -0.14928865569E+02  0.37489216723E+02  0.47787272902E+02  0.20000008471E+02 0.  0.
         12    1    1    2    0    0 -0.15978445322E+02  0.14928865569E+02 -0.37489216723E+02  0.43400727098E+02  0.00000000000E+00 0. -1.
         11    1    3    3    0    0  0.99100753861E+01 -0.86001876345E+00  0.21922090888E+02  0.24073373167E+02  0.51100000000E-03 0. -1.
        -11    1    3    3    0    0  0.54856230046E+01 -0.24530367088E+01  0.72448244925E+01  0.94125942775E+01  0.51100000000E-03 0.  1.
         12    1    3    3    0    0  0.58274693086E+00 -0.11615810096E+02  0.83223013425E+01  0.14301305458E+02  0.00000000000E+00 0. -1.
</event>
<event>
 7    1  0.5038211E-009  0.4778727E+02  0.7816164E-02  0.1312668E+00
        -11   -1    0    0    0    0  0.00000000000E+00  0.00000000000E+00  0.45593999997E+02  0.45594000000E+02  0.51100000000E-03 0.  1.
         11   -1    0    0    0    0 -0.00000000000E+00 -0.00000000000E+00 -0.45593999997E+02  0.45594000000E+02  0.51100000000E-03 0. -1.
    9900012    2    1    2    0    0 -0.25580573377E+01  0.30293412040E+02  0.30974002871E+02  0.47787270464E+02  0.19999997355E+02 0.  0.
         12    1    1    2    0    0  0.25580573377E+01 -0.30293412040E+02 -0.30974002871E+02  0.43400729536E+02  0.00000000000E+00 0. -1.
         11    1    3    3    0    0 -0.74676557167E+00 -0.10678643887E+01  0.19734076096E+01  0.23648109917E+01  0.51100000000E-03 0. -1.
        -11    1    3    3    0    0  0.53603694460E+00  0.30796283500E+02  0.21552103606E+02  0.37592440505E+02  0.51100000000E-03 0.  1.
        -12    1    3    3    0    0 -0.23473287106E+01  0.56499292876E+00  0.74484916558E+01  0.78300189675E+01  0.00000000000E+00 0.  1.
</event>
<event>
 7    1  0.5038211E-009  0.4778727E+02  0.7816164E-02  0.1312668E+00
        -11   -1    0    0    0    0  0.00000000000E+00  0.00000000000E+00  0.45593999997E+02  0.45594000000E+02  0.51100000000E-03 0.  1.
         11   -1    0    0    0    0 -0.00000000000E+00 -0.00000000000E+00 -0.45593999997E+02  0.45594000000E+02  0.51100000000E-03 0. -1.
    9900012    2    1    2    0    0  0.18961793329E+02 -0.13227091919E+01  0.39016972987E+02  0.47787270203E+02  0.19999996163E+02 0.  0.
         12    1    1    2    0    0 -0.18961793329E+02  0.13227091919E+01 -0.39016972987E+02  0.43400729797E+02  0.00000000000E+00 0. -1.
         11    1    3    3    0    0  0.46072200523E+01  0.58699240447E+00  0.23235034853E+02  0.23694680449E+02  0.51100000000E-03 0. -1.
        -11    1    3    3    0    0  0.94508346059E+01  0.19783838956E+01  0.14925054850E+02  0.17776094625E+02  0.51100000000E-03 0.  1.
         12    1    3    3    0    0  0.49037386713E+01 -0.38880854920E+01  0.85688328389E+00  0.63164951288E+01  0.00000000000E+00 0. -1.
</event>
<event>
 7    1  0.5038211E-009  0.4778726E+02  0.7816164E-02  0.1312668E+00
        -11   -1    0    0    0    0  0.00000000000E+00  0.00000000000E+00  0.45593999997E+02  0.45594000000E+02  0.51100000000E-03 0. -1.
         11   -1    0    0    0    0 -0.00000000000E+00 -0.00000000000E+00 -0.45593999997E+02  0.45594000000E+02  0.51100000000E-03 0.  1.
    9900012    2    1    2    0    0  0.12232556078E+02 -0.37464259038E+02 -0.18177395358E+02  0.47787264575E+02  0.19999970501E+02 0.  0.
         12    1    1    2    0    0 -0.12232556078E+02  0.37464259038E+02  0.18177395358E+02  0.43400735425E+02  0.00000000000E+00 0. -1.
         11    1    3    3    0    0 -0.34430154999E+01 -0.10022098825E+02  0.11876735968E+01  0.10663366702E+02  0.51100000000E-03 0. -1.
        -11    1    3    3    0    0  0.63929624110E+01 -0.11059487106E+02 -0.66336624463E+01  0.14394016158E+02  0.51100000000E-03 0.  1.
         12    1    3    3    0    0  0.92826091668E+01 -0.16382673106E+02 -0.12731406509E+02  0.22729881714E+02  0.00000000000E+00 0. -1.
</event>
<event>
 7    1  0.5038211E-009  0.4778728E+02  0.7816164E-02  0.1312668E+00
        -11   -1    0    0    0    0  0.00000000000E+00  0.00000000000E+00  0.45593999997E+02  0.45594000000E+02  0.51100000000E-03 0. -1.
         11   -1    0    0    0    0 -0.00000000000E+00 -0.00000000000E+00 -0.45593999997E+02  0.45594000000E+02  0.51100000000E-03 0.  1.
    9900012    2    1    2    0    0 -0.29501632660E+02  0.20367397959E+02 -0.24463147856E+02  0.47787276132E+02  0.20000023198E+02 0.  0.
         12    1    1    2    0    0  0.29501632660E+02 -0.20367397959E+02  0.24463147856E+02  0.43400723868E+02  0.00000000000E+00 0. -1.
         11    1    3    3    0    0  0.94451306125E+00  0.61769031081E+01 -0.71756190626E+01  0.95150273843E+01  0.51100000000E-03 0.  1.
        -11    1    3    3    0    0 -0.24008891014E+02  0.13505904766E+02 -0.12672588149E+02  0.30322117372E+02  0.51100000000E-03 0. -1.
        -12    1    3    3    0    0 -0.64372547070E+01  0.68459008496E+00 -0.46149406438E+01  0.79501313758E+01  0.00000000000E+00 0.  1.
</event>
<event>
 7    1  0.5038211E-009  0.4778727E+02  0.7816164E-02  0.1312668E+00
        -11   -1    0    0    0    0  0.00000000000E+00  0.00000000000E+00  0.45593999997E+02  0.45594000000E+02  0.51100000000E-03 0.  1.
         11   -1    0    0    0    0 -0.00000000000E+00 -0.00000000000E+00 -0.45593999997E+02  0.45594000000E+02  0.51100000000E-03 0. -1.
    9900012    2    1    2    0    0  0.39584841962E+01 -0.36937659050E+02  0.22440215570E+02  0.47787268116E+02  0.19999986648E+02 0.  0.
         12    1    1    2    0    0 -0.39584841962E+01  0.36937659050E+02 -0.22440215570E+02  0.43400731884E+02  0.00000000000E+00 0. -1.
         11    1    3    3    0    0 -0.54635775239E+01 -0.79841187756E+01  0.11602208954E+02  0.15106557677E+02  0.51100000000E-03 0. -1.
        -11    1    3    3    0    0  0.42318048581E+01 -0.20281963320E+02  0.75947913291E+01  0.22066877080E+02  0.51100000000E-03 0.  1.
         12    1    3    3    0    0  0.51902568621E+01 -0.86715769549E+01  0.32432152876E+01  0.10613833359E+02  0.00000000000E+00 0. -1.
</event>
<event>
 7    1  0.5038211E-009  0.4778727E+02  0.7816164E-02  0.1312668E+00
        -11   -1    0    0    0    0  0.00000000000E+00  0.00000000000E+00  0.45593999997E+02  0.45594000000E+02  0.51100000000E-03 0. -1.
         11   -1    0    0    0    0 -0.00000000000E+00 -0.00000000000E+00 -0.45593999997E+02  0.45594000000E+02  0.51100000000E-03 0.  1.
    9900012    2    1    2    0    0 -0.22069289032E+02 -0.37240748865E+02  0.31139268923E+01  0.47787269187E+02  0.19999991532E+02 0.  0.
         12    1    1    2    0    0  0.22069289032E+02  0.37240748865E+02 -0.31139268923E+01  0.43400730813E+02  0.00000000000E+00 0. -1.
         11    1    3    3    0    0 -0.15821257656E+02 -0.13006935136E+02  0.68318869661E+01  0.21590906309E+02  0.51100000000E-03 0. -1.
        -11    1    3    3    0    0 -0.72128207449E+01 -0.21598143826E+02 -0.46467326459E+01  0.23239981162E+02  0.51100000000E-03 0.  1.
         12    1    3    3    0    0  0.96478936959E+00 -0.26356699030E+01  0.92877257209E+00  0.29563817169E+01  0.00000000000E+00 0. -1.
</event>
<event>
 7    1  0.5038211E-009  0.4778727E+02  0.7816164E-02  0.1312668E+00
        -11   -1    0    0    0    0  0.00000000000E+00  0.00000000000E+00  0.45593999997E+02  0.45594000000E+02  0.51100000000E-03 0.  1.
         11   -1    0    0    0    0 -0.00000000000E+00 -0.00000000000E+00 -0.45593999997E+02  0.45594000000E+02  0.51100000000E-03 0. -1.
    9900012    2    1    2    0    0 -0.30586481270E+02  0.27411740050E+02  0.14024514251E+02  0.47787270409E+02  0.19999997102E+02 0.  0.
         12    1    1    2    0    0  0.30586481270E+02 -0.27411740050E+02 -0.14024514251E+02  0.43400729591E+02  0.00000000000E+00 0. -1.
         11    1    3    3    0    0  0.17660226559E+01  0.39442530507E+00  0.32602134470E+01  0.37287262334E+01  0.51100000000E-03 0. -1.
        -11    1    3    3    0    0 -0.26739871029E+02  0.20083799921E+02  0.61061734996E+01  0.33995074305E+02  0.51100000000E-03 0.  1.
         12    1    3    3    0    0 -0.56126328965E+01  0.69335148240E+01  0.46581273049E+01  0.10063469870E+02  0.00000000000E+00 0. -1.
</event>
<event>
 7    1  0.5038211E-009  0.4778728E+02  0.7816164E-02  0.1312668E+00
        -11   -1    0    0    0    0  0.00000000000E+00  0.00000000000E+00  0.45593999997E+02  0.45594000000E+02  0.51100000000E-03 0.  1.
         11   -1    0    0    0    0 -0.00000000000E+00 -0.00000000000E+00 -0.45593999997E+02  0.45594000000E+02  0.51100000000E-03 0. -1.
    9900012    2    1    2    0    0  0.13724887672E+02  0.31605539478E+02  0.26388249378E+02  0.47787281428E+02  0.20000047345E+02 0.  0.
         12    1    1    2    0    0 -0.13724887672E+02 -0.31605539478E+02 -0.26388249378E+02  0.43400718572E+02  0.00000000000E+00 0. -1.
         11    1    3    3    0    0  0.13729469027E+02  0.11819149294E+02  0.13474035202E+02  0.22577427548E+02  0.51100000000E-03 0.  1.
        -11    1    3    3    0    0  0.34003497713E+01  0.64412949215E+01  0.73737318466E+01  0.10364582984E+02  0.51100000000E-03 0. -1.
         12    1    3    3    0    0 -0.34049311263E+01  0.13345095263E+02  0.55404823291E+01  0.14845270896E+02  0.00000000000E+00 0. -1.
</event>
<event>
 7    1  0.5038211E-009  0.4778727E+02  0.7816164E-02  0.1312668E+00
        -11   -1    0    0    0    0  0.00000000000E+00  0.00000000000E+00  0.45593999997E+02  0.45594000000E+02  0.51100000000E-03 0.  1.
         11   -1    0    0    0    0 -0.00000000000E+00 -0.00000000000E+00 -0.45593999997E+02  0.45594000000E+02  0.51100000000E-03 0. -1.
    9900012    2    1    2    0    0  0.30249750306E+02 -0.30507591065E+02  0.61532714380E+01  0.47787271256E+02  0.20000000963E+02 0.  0.
         12    1    1    2    0    0 -0.30249750306E+02  0.30507591065E+02 -0.61532714380E+01  0.43400728744E+02  0.00000000000E+00 0. -1.
         11    1    3    3    0    0 -0.48892871676E+00 -0.16311629558E+01 -0.15209696534E+01  0.22832198374E+01  0.51100000000E-03 0. -1.
        -11    1    3    3    0    0  0.10492602154E+02 -0.16593730864E+02 -0.23818813606E+01  0.19776753096E+02  0.51100000000E-03 0.  1.
        -12    1    3    3    0    0  0.20246076868E+02 -0.12282697245E+02  0.10056122452E+02  0.25727298322E+02  0.00000000000E+00 0.  1.
</event>
<event>
 7    1  0.5038211E-009  0.4778728E+02  0.7816164E-02  0.1312668E+00
        -11   -1    0    0    0    0  0.00000000000E+00  0.00000000000E+00  0.45593999997E+02  0.45594000000E+02  0.51100000000E-03 0. -1.
         11   -1    0    0    0    0 -0.00000000000E+00 -0.00000000000E+00 -0.45593999997E+02  0.45594000000E+02  0.51100000000E-03 0.  1.
    9900012    2    1    2    0    0 -0.41442584414E+01  0.34700853715E+02  0.25735164616E+02  0.47787276223E+02  0.20000023610E+02 0.  0.
         12    1    1    2    0    0  0.41442584414E+01 -0.34700853715E+02 -0.25735164616E+02  0.43400723777E+02  0.00000000000E+00 0. -1.
         11    1    3    3    0    0 -0.47725848740E+01  0.31817787032E+02  0.23535310796E+02  0.39863015347E+02  0.51100000000E-03 0. -1.
        -11    1    3    3    0    0 -0.16357756484E+01  0.41405908324E+01  0.28084769770E+01  0.52638196782E+01  0.51100000000E-03 0.  1.
         12    1    3    3    0    0  0.22641020811E+01 -0.12575241498E+01 -0.60862315692E+00  0.26604411980E+01  0.00000000000E+00 0. -1.
</event>
<event>
 7    1  0.5038211E-009  0.4778727E+02  0.7816164E-02  0.1312668E+00
        -11   -1    0    0    0    0  0.00000000000E+00  0.00000000000E+00  0.45593999997E+02  0.45594000000E+02  0.51100000000E-03 0.  1.
         11   -1    0    0    0    0 -0.00000000000E+00 -0.00000000000E+00 -0.45593999997E+02  0.45594000000E+02  0.51100000000E-03 0. -1.
    9900012    2    1    2    0    0  0.22727539861E+02 -0.18535490536E+02  0.31992469894E+02  0.47787267202E+02  0.19999982479E+02 0.  0.
         12    1    1    2    0    0 -0.22727539861E+02  0.18535490536E+02 -0.31992469894E+02  0.43400732798E+02  0.00000000000E+00 0. -1.
         11    1    3    3    0    0  0.51754690056E+01 -0.16324985462E+02  0.18588852734E+02  0.25275206744E+02  0.51100000000E-03 0. -1.
        -11    1    3    3    0    0  0.16172444865E+02 -0.19179942706E+01  0.13418441240E+02  0.21101688096E+02  0.51100000000E-03 0.  1.
        -12    1    3    3    0    0  0.13796259902E+01 -0.29251080318E+00 -0.14824079678E-01  0.14103723608E+01  0.00000000000E+00 0.  1.
</event>
<event>
 7    1  0.5038211E-009  0.4778727E+02  0.7816164E-02  0.1312668E+00
        -11   -1    0    0    0    0  0.00000000000E+00  0.00000000000E+00  0.45593999997E+02  0.45594000000E+02  0.51100000000E-03 0.  1.
         11   -1    0    0    0    0 -0.00000000000E+00 -0.00000000000E+00 -0.45593999997E+02  0.45594000000E+02  0.51100000000E-03 0. -1.
    9900012    2    1    2    0    0  0.76574811479E+01  0.20083780653E+02  0.37704479900E+02  0.47787273424E+02  0.20000010848E+02 0.  0.
         12    1    1    2    0    0 -0.76574811479E+01 -0.20083780653E+02 -0.37704479900E+02  0.43400726576E+02  0.00000000000E+00 0. -1.
         11    1    3    3    0    0 -0.64086465238E+00  0.73721726039E+01  0.15032713917E+01  0.75511231974E+01  0.51100000000E-03 0. -1.
        -11    1    3    3    0    0  0.86975747432E+01  0.58225505359E+01  0.24660202347E+02  0.26789465862E+02  0.51100000000E-03 0.  1.
        -12    1    3    3    0    0 -0.39922894293E+00  0.68890575132E+01  0.11541006161E+02  0.13446684364E+02  0.00000000000E+00 0.  1.
</event>
<event>
 7    1  0.5038211E-009  0.4778727E+02  0.7816164E-02  0.1312668E+00
        -11   -1    0    0    0    0  0.00000000000E+00  0.00000000000E+00  0.45593999997E+02  0.45594000000E+02  0.51100000000E-03 0.  1.
         11   -1    0    0    0    0 -0.00000000000E+00 -0.00000000000E+00 -0.45593999997E+02  0.45594000000E+02  0.51100000000E-03 0. -1.
    9900012    2    1    2    0    0  0.57145218881E+01 -0.37031140583E+02  0.21901188245E+02  0.47787272127E+02  0.20000004937E+02 0.  0.
         12    1    1    2    0    0 -0.57145218881E+01  0.37031140583E+02 -0.21901188245E+02  0.43400727873E+02  0.00000000000E+00 0. -1.
         11    1    3    3    0    0 -0.29319967392E+01 -0.12973707882E+02  0.13726315157E+02  0.19113488147E+02  0.51100000000E-03 0. -1.
        -11    1    3    3    0    0  0.10448348426E+02 -0.15200976287E+02  0.54190380472E+01  0.19225078375E+02  0.51100000000E-03 0.  1.
        -12    1    3    3    0    0 -0.18018297989E+01 -0.88564564147E+01  0.27558350415E+01  0.94487056058E+01  0.00000000000E+00 0.  1.
</event>
<event>
 7    1  0.5038211E-009  0.4778727E+02  0.7816164E-02  0.1312668E+00
        -11   -1    0    0    0    0  0.00000000000E+00  0.00000000000E+00  0.45593999997E+02  0.45594000000E+02  0.51100000000E-03 0.  1.
         11   -1    0    0    0    0 -0.00000000000E+00 -0.00000000000E+00 -0.45593999997E+02  0.45594000000E+02  0.51100000000E-03 0. -1.
    9900012    2    1    2    0    0 -0.38745278899E+02 -0.17412263387E+01  0.19478057736E+02  0.47787271443E+02  0.20000001815E+02 0.  0.
         12    1    1    2    0    0  0.38745278899E+02  0.17412263387E+01 -0.19478057736E+02  0.43400728557E+02  0.00000000000E+00 0. -1.
         11    1    3    3    0    0 -0.69325297752E+01 -0.90706256501E+00  0.15931896674E+01  0.71708427091E+01  0.51100000000E-03 0. -1.
        -11    1    3    3    0    0 -0.68399213165E+01 -0.21207315170E+01 -0.32605655308E+01  0.78685013582E+01  0.51100000000E-03 0.  1.
        -12    1    3    3    0    0 -0.24972827807E+02  0.12865677433E+01  0.21145433600E+02  0.32747927375E+02  0.00000000000E+00 0.  1.
</event>
<event>
 7    1  0.5038211E-009  0.4778731E+02  0.7816164E-02  0.1312668E+00
        -11   -1    0    0    0    0  0.00000000000E+00  0.00000000000E+00  0.45593999997E+02  0.45594000000E+02  0.51100000000E-03 0.  1.
         11   -1    0    0    0    0 -0.00000000000E+00 -0.00000000000E+00 -0.45593999997E+02  0.45594000000E+02  0.51100000000E-03 0. -1.
    9900012    2    1    2    0    0 -0.62642883188E+01 -0.83373221867E-01  0.42946145397E+02  0.47787312635E+02  0.20000189629E+02 0.  0.
         12    1    1    2    0    0  0.62642883188E+01  0.83373221867E-01 -0.42946145397E+02  0.43400687365E+02  0.00000000000E+00 0. -1.
         11    1    3    3    0    0 -0.10358207900E+01 -0.29332451647E+01 -0.38019296217E+00  0.31339111115E+01  0.51100000000E-03 0. -1.
        -11    1    3    3    0    0 -0.77527169480E+01  0.17121446857E+01  0.34557421027E+02  0.35457741155E+02  0.51100000000E-03 0.  1.
         12    1    3    3    0    0  0.25242494192E+01  0.11377272572E+01  0.87689173324E+01  0.91956603691E+01  0.00000000000E+00 0. -1.
</event>
<event>
 7    1  0.5038211E-009  0.4778727E+02  0.7816164E-02  0.1312668E+00
        -11   -1    0    0    0    0  0.00000000000E+00  0.00000000000E+00  0.45593999997E+02  0.45594000000E+02  0.51100000000E-03 0.  1.
         11   -1    0    0    0    0 -0.00000000000E+00 -0.00000000000E+00 -0.45593999997E+02  0.45594000000E+02  0.51100000000E-03 0. -1.
    9900012    2    1    2    0    0  0.20440357653E+02 -0.29122125334E+02  0.24853910632E+02  0.47787270990E+02  0.19999999751E+02 0.  0.
         12    1    1    2    0    0 -0.20440357653E+02  0.29122125334E+02 -0.24853910632E+02  0.43400729010E+02  0.00000000000E+00 0. -1.
         11    1    3    3    0    0  0.63365960601E+01 -0.10488943040E+02  0.17795719865E+02  0.21606897545E+02  0.51100000000E-03 0. -1.
        -11    1    3    3    0    0  0.14354402248E+02 -0.14670736073E+02  0.81160987042E+01  0.22071484301E+02  0.51100000000E-03 0.  1.
         12    1    3    3    0    0 -0.25064065554E+00 -0.39624462212E+01 -0.10579079377E+01  0.41088891442E+01  0.00000000000E+00 0. -1.
</event>
<event>
 7    1  0.5038211E-009  0.4778729E+02  0.7816164E-02  0.1312668E+00
        -11   -1    0    0    0    0  0.00000000000E+00  0.00000000000E+00  0.45593999997E+02  0.45594000000E+02  0.51100000000E-03 0. -1.
         11   -1    0    0    0    0 -0.00000000000E+00 -0.00000000000E+00 -0.45593999997E+02  0.45594000000E+02  0.51100000000E-03 0.  1.
    9900012    2    1    2    0    0 -0.15553341333E+02 -0.36371444195E+02  0.17855892663E+02  0.47787293989E+02  0.20000104615E+02 0.  0.
         12    1    1    2    0    0  0.15553341333E+02  0.36371444195E+02 -0.17855892663E+02  0.43400706011E+02  0.00000000000E+00 0. -1.
         11    1    3    3    0    0 -0.13429729213E+02 -0.10852861701E+02  0.53861576322E+01  0.18087369298E+02  0.51100000000E-03 0. -1.
        -11    1    3    3    0    0 -0.19125421688E+01 -0.21945851817E+02  0.13669125782E+02  0.25925339524E+02  0.51100000000E-03 0.  1.
        -12    1    3    3    0    0 -0.21106995160E+00 -0.35727306770E+01 -0.11993907513E+01  0.37745851679E+01  0.00000000000E+00 0.  1.
</event>
<event>
 7    1  0.5038211E-009  0.4778727E+02  0.7816164E-02  0.1312668E+00
        -11   -1    0    0    0    0  0.00000000000E+00  0.00000000000E+00  0.45593999997E+02  0.45594000000E+02  0.51100000000E-03 0.  1.
         11   -1    0    0    0    0 -0.00000000000E+00 -0.00000000000E+00 -0.45593999997E+02  0.45594000000E+02  0.51100000000E-03 0. -1.
    9900012    2    1    2    0    0  0.10917783820E+02  0.16172336397E+02  0.38767009286E+02  0.47787268704E+02  0.19999989328E+02 0.  0.
         12    1    1    2    0    0 -0.10917783820E+02 -0.16172336397E+02 -0.38767009286E+02  0.43400731296E+02  0.00000000000E+00 0. -1.
         11    1    3    3    0    0 -0.28216706017E+01 -0.10667080015E+01  0.20715209879E+01  0.36593565568E+01  0.51100000000E-03 0. -1.
        -11    1    3    3    0    0  0.99725489440E+01  0.17715069022E+02  0.33400107398E+02  0.39100416588E+02  0.51100000000E-03 0.  1.
         12    1    3    3    0    0  0.37669054775E+01 -0.47602462397E+00  0.32953809005E+01  0.50274955592E+01  0.00000000000E+00 0. -1.
</event>
<event>
 7    1  0.5038211E-009  0.4778728E+02  0.7816164E-02  0.1312668E+00
        -11   -1    0    0    0    0  0.00000000000E+00  0.00000000000E+00  0.45593999997E+02  0.45594000000E+02  0.51100000000E-03 0.  1.
         11   -1    0    0    0    0 -0.00000000000E+00 -0.00000000000E+00 -0.45593999997E+02  0.45594000000E+02  0.51100000000E-03 0. -1.
    9900012    2    1    2    0    0 -0.19248887037E+02  0.16025028685E+02  0.35444342542E+02  0.47787278638E+02  0.20000034622E+02 0.  0.
         12    1    1    2    0    0  0.19248887037E+02 -0.16025028685E+02 -0.35444342542E+02  0.43400721362E+02  0.00000000000E+00 0. -1.
         11    1    3    3    0    0  0.16390211404E+01  0.25297402457E+01  0.27271096034E+01  0.40648619976E+01  0.51100000000E-03 0. -1.
        -11    1    3    3    0    0 -0.14306951810E+02  0.15055297166E+02  0.17836626982E+02  0.27376926512E+02  0.51100000000E-03 0.  1.
        -12    1    3    3    0    0 -0.65809563675E+01 -0.15600087262E+01  0.14880605956E+02  0.16345490129E+02  0.00000000000E+00 0.  1.
</event>
<event>
 7    1  0.5038211E-009  0.4778727E+02  0.7816164E-02  0.1312668E+00
        -11   -1    0    0    0    0  0.00000000000E+00  0.00000000000E+00  0.45593999997E+02  0.45594000000E+02  0.51100000000E-03 0.  1.
         11   -1    0    0    0    0 -0.00000000000E+00 -0.00000000000E+00 -0.45593999997E+02  0.45594000000E+02  0.51100000000E-03 0. -1.
    9900012    2    1    2    0    0  0.19983290977E+02 -0.38525360331E+02  0.29738744535E+00  0.47787265603E+02  0.19999975192E+02 0.  0.
         12    1    1    2    0    0 -0.19983290977E+02  0.38525360331E+02 -0.29738744535E+00  0.43400734397E+02  0.00000000000E+00 0. -1.
         11    1    3    3    0    0  0.11734001009E+00 -0.61036916719E+00  0.29191594331E+01  0.29845956602E+01  0.51100000000E-03 0.  1.
        -11    1    3    3    0    0  0.13417138196E+02 -0.20761555912E+02 -0.75118949607E+01  0.25835834947E+02  0.51100000000E-03 0. -1.
        -12    1    3    3    0    0  0.64488127708E+01 -0.17153435251E+02  0.48901229730E+01  0.18966834996E+02  0.00000000000E+00 0.  1.
</event>
<event>
 7    1  0.5038211E-009  0.4778728E+02  0.7816164E-02  0.1312668E+00
        -11   -1    0    0    0    0  0.00000000000E+00  0.00000000000E+00  0.45593999997E+02  0.45594000000E+02  0.51100000000E-03 0.  1.
         11   -1    0    0    0    0 -0.00000000000E+00 -0.00000000000E+00 -0.45593999997E+02  0.45594000000E+02  0.51100000000E-03 0. -1.
    9900012    2    1    2    0    0 -0.25060187375E+02  0.17805639562E+01  0.35389814395E+02  0.47787281548E+02  0.20000047888E+02 0.  0.
         12    1    1    2    0    0  0.25060187375E+02 -0.17805639562E+01 -0.35389814395E+02  0.43400718452E+02  0.00000000000E+00 0. -1.
         11    1    3    3    0    0 -0.13573745986E+02  0.17824007876E+01  0.75795558301E+01  0.15648424825E+02  0.51100000000E-03 0. -1.
        -11    1    3    3    0    0  0.69806457988E+00  0.21059310491E+01  0.11275771247E+02  0.11491964898E+02  0.51100000000E-03 0.  1.
        -12    1    3    3    0    0 -0.12184505969E+02 -0.21077678805E+01  0.16534487317E+02  0.20646891824E+02  0.00000000000E+00 0.  1.
</event>
<event>
 7    1  0.5038211E-009  0.4778726E+02  0.7816164E-02  0.1312668E+00
        -11   -1    0    0    0    0  0.00000000000E+00  0.00000000000E+00  0.45593999997E+02  0.45594000000E+02  0.51100000000E-03 0. -1.
         11   -1    0    0    0    0 -0.00000000000E+00 -0.00000000000E+00 -0.45593999997E+02  0.45594000000E+02  0.51100000000E-03 0.  1.
    9900012    2    1    2    0    0  0.30969837580E+02  0.23735637036E+02 -0.19002974044E+02  0.47787258903E+02  0.19999944643E+02 0.  0.
         12    1    1    2    0    0 -0.30969837580E+02 -0.23735637036E+02  0.19002974044E+02  0.43400741097E+02  0.00000000000E+00 0. -1.
         11    1    3    3    0    0  0.87440387372E+01  0.93875084052E+01  0.15320749447E+01  0.12920169557E+02  0.51100000000E-03 0.  1.
        -11    1    3    3    0    0  0.12908626550E+02  0.35417620133E+01 -0.13297809912E+02  0.18868186619E+02  0.51100000000E-03 0. -1.
        -12    1    3    3    0    0  0.93171722922E+01  0.10806366618E+02 -0.72372390763E+01  0.15998902726E+02  0.00000000000E+00 0.  1.
</event>
<event>
 7    1  0.5038211E-009  0.4778727E+02  0.7816164E-02  0.1312668E+00
        -11   -1    0    0    0    0  0.00000000000E+00  0.00000000000E+00  0.45593999997E+02  0.45594000000E+02  0.51100000000E-03 0. -1.
         11   -1    0    0    0    0 -0.00000000000E+00 -0.00000000000E+00 -0.45593999997E+02  0.45594000000E+02  0.51100000000E-03 0.  1.
    9900012    2    1    2    0    0  0.32145080611E+02  0.14919971116E+02 -0.25054166497E+02  0.47787274149E+02  0.20000014153E+02 0.  0.
         12    1    1    2    0    0 -0.32145080611E+02 -0.14919971116E+02  0.25054166497E+02  0.43400725851E+02  0.00000000000E+00 0. -1.
         11    1    3    3    0    0  0.16289004550E+02  0.48587747041E+01 -0.33734777987E+01  0.17329734954E+02  0.51100000000E-03 0. -1.
        -11    1    3    3    0    0 -0.65103222588E+00  0.28179258238E+01 -0.55921995133E+01  0.62958116685E+01  0.51100000000E-03 0.  1.
         12    1    3    3    0    0  0.16507108287E+02  0.72432705877E+01 -0.16088489185E+02  0.24161727526E+02  0.00000000000E+00 0. -1.
</event>
<event>
 7    1  0.5038211E-009  0.4778727E+02  0.7816164E-02  0.1312668E+00
        -11   -1    0    0    0    0  0.00000000000E+00  0.00000000000E+00  0.45593999997E+02  0.45594000000E+02  0.51100000000E-03 0. -1.
         11   -1    0    0    0    0 -0.00000000000E+00 -0.00000000000E+00 -0.45593999997E+02  0.45594000000E+02  0.51100000000E-03 0.  1.
    9900012    2    1    2    0    0 -0.15971658450E+02 -0.11952367536E+02 -0.38544392542E+02  0.47787272359E+02  0.20000005994E+02 0.  0.
         12    1    1    2    0    0  0.15971658450E+02  0.11952367536E+02  0.38544392542E+02  0.43400727641E+02  0.00000000000E+00 0. -1.
         11    1    3    3    0    0 -0.15853505331E+02 -0.49740745421E+01 -0.14794374224E+02  0.22247439353E+02  0.51100000000E-03 0. -1.
        -11    1    3    3    0    0 -0.29909215020E+01 -0.29562497993E+01 -0.80810960161E+01  0.91098373964E+01  0.51100000000E-03 0.  1.
         12    1    3    3    0    0  0.28727683828E+01 -0.40220431942E+01 -0.15668922301E+02  0.16429995609E+02  0.00000000000E+00 0. -1.
</event>
<event>
 7    1  0.5038211E-009  0.4778727E+02  0.7816164E-02  0.1312668E+00
        -11   -1    0    0    0    0  0.00000000000E+00  0.00000000000E+00  0.45593999997E+02  0.45594000000E+02  0.51100000000E-03 0.  1.
         11   -1    0    0    0    0 -0.00000000000E+00 -0.00000000000E+00 -0.45593999997E+02  0.45594000000E+02  0.51100000000E-03 0. -1.
    9900012    2    1    2    0    0  0.12704165011E+02  0.37515364506E+02  0.17743304996E+02  0.47787271264E+02  0.20000001003E+02 0.  0.
         12    1    1    2    0    0 -0.12704165011E+02 -0.37515364506E+02 -0.17743304996E+02  0.43400728736E+02  0.00000000000E+00 0. -1.
         11    1    3    3    0    0  0.28276489020E+01  0.22698549019E+00 -0.26404112695E+01  0.38754216105E+01  0.51100000000E-03 0. -1.
        -11    1    3    3    0    0 -0.37474564760E+00  0.14598784570E+01  0.15305711103E+01  0.21480985998E+01  0.51100000000E-03 0.  1.
         12    1    3    3    0    0  0.10251261757E+02  0.35828500559E+02  0.18853145155E+02  0.41763751054E+02  0.00000000000E+00 0. -1.
</event>
<event>
 7    1  0.5038211E-009  0.4778727E+02  0.7816164E-02  0.1312668E+00
        -11   -1    0    0    0    0  0.00000000000E+00  0.00000000000E+00  0.45593999997E+02  0.45594000000E+02  0.51100000000E-03 0.  1.
         11   -1    0    0    0    0 -0.00000000000E+00 -0.00000000000E+00 -0.45593999997E+02  0.45594000000E+02  0.51100000000E-03 0. -1.
    9900012    2    1    2    0    0 -0.10687476268E+02 -0.11916510870E+02  0.40341021785E+02  0.47787269373E+02  0.19999992378E+02 0.  0.
         12    1    1    2    0    0  0.10687476268E+02  0.11916510870E+02 -0.40341021785E+02  0.43400730627E+02  0.00000000000E+00 0. -1.
         11    1    3    3    0    0  0.22481260000E+01 -0.99252008502E+01  0.13282569075E+02  0.16732911400E+02  0.51100000000E-03 0. -1.
        -11    1    3    3    0    0 -0.74655297772E+01  0.14274308519E+01  0.20462367534E+02  0.21828425940E+02  0.51100000000E-03 0.  1.
         12    1    3    3    0    0 -0.54700724910E+01 -0.34187408716E+01  0.65960851773E+01  0.92259320326E+01  0.00000000000E+00 0. -1.
</event>
<event>
 7    1  0.5038211E-009  0.4778727E+02  0.7816164E-02  0.1312668E+00
        -11   -1    0    0    0    0  0.00000000000E+00  0.00000000000E+00  0.45593999997E+02  0.45594000000E+02  0.51100000000E-03 0.  1.
         11   -1    0    0    0    0 -0.00000000000E+00 -0.00000000000E+00 -0.45593999997E+02  0.45594000000E+02  0.51100000000E-03 0. -1.
    9900012    2    1    2    0    0  0.63379149825E+00  0.22126938150E+02  0.37331227270E+02  0.47787267138E+02  0.19999982187E+02 0.  0.
         12    1    1    2    0    0 -0.63379149825E+00 -0.22126938150E+02 -0.37331227270E+02  0.43400732862E+02  0.00000000000E+00 0. -1.
         11    1    3    3    0    0 -0.57007549285E+01  0.21032847499E+00  0.90547246295E+01  0.10701910259E+02  0.51100000000E-03 0. -1.
        -11    1    3    3    0    0  0.78332466951E+01  0.15323168024E+02  0.19539052660E+02  0.26037162118E+02  0.51100000000E-03 0.  1.
         12    1    3    3    0    0 -0.14987002683E+01  0.65934416508E+01  0.87374499802E+01  0.11048194760E+02  0.00000000000E+00 0. -1.
</event>
<event>
 7    1  0.5038211E-009  0.4778727E+02  0.7816164E-02  0.1312668E+00
        -11   -1    0    0    0    0  0.00000000000E+00  0.00000000000E+00  0.45593999997E+02  0.45594000000E+02  0.51100000000E-03 0.  1.
         11   -1    0    0    0    0 -0.00000000000E+00 -0.00000000000E+00 -0.45593999997E+02  0.45594000000E+02  0.51100000000E-03 0. -1.
    9900012    2    1    2    0    0 -0.26215842684E+02 -0.92354726146E+01  0.33332545791E+02  0.47787274534E+02  0.20000015911E+02 0.  0.
         12    1    1    2    0    0  0.26215842684E+02  0.92354726146E+01 -0.33332545791E+02  0.43400725466E+02  0.00000000000E+00 0. -1.
         11    1    3    3    0    0 -0.81009674080E+01  0.52076200733E+01  0.53255014851E+01  0.11004814678E+02  0.51100000000E-03 0. -1.
        -11    1    3    3    0    0 -0.62231425270E+01 -0.78159063185E+01  0.14469263816E+02  0.17583386765E+02  0.51100000000E-03 0.  1.
        -12    1    3    3    0    0 -0.11891732749E+02 -0.66271863694E+01  0.13537780490E+02  0.19199073091E+02  0.00000000000E+00 0.  1.
</event>
<event>
 7    1  0.5038211E-009  0.4778727E+02  0.7816164E-02  0.1312668E+00
        -11   -1    0    0    0    0  0.00000000000E+00  0.00000000000E+00  0.45593999997E+02  0.45594000000E+02  0.51100000000E-03 0.  1.
         11   -1    0    0    0    0 -0.00000000000E+00 -0.00000000000E+00 -0.45593999997E+02  0.45594000000E+02  0.51100000000E-03 0. -1.
    9900012    2    1    2    0    0 -0.25073053948E+01 -0.12727957184E+02  0.41416613205E+02  0.47787270469E+02  0.19999997378E+02 0.  0.
         12    1    1    2    0    0  0.25073053948E+01  0.12727957184E+02 -0.41416613205E+02  0.43400729531E+02  0.00000000000E+00 0. -1.
         11    1    3    3    0    0  0.87266197159E+00  0.50777912392E+01  0.12627855475E+02  0.13638483675E+02  0.51100000000E-03 0. -1.
        -11    1    3    3    0    0 -0.37724097767E+01 -0.13042979206E+02  0.21793473104E+02  0.25676951772E+02  0.51100000000E-03 0.  1.
         12    1    3    3    0    0  0.39244241033E+00 -0.47627692169E+01  0.69952846255E+01  0.84718350226E+01  0.00000000000E+00 0. -1.
</event>
<event>
 7    1  0.5038211E-009  0.4778727E+02  0.7816164E-02  0.1312668E+00
        -11   -1    0    0    0    0  0.00000000000E+00  0.00000000000E+00  0.45593999997E+02  0.45594000000E+02  0.51100000000E-03 0.  1.
         11   -1    0    0    0    0 -0.00000000000E+00 -0.00000000000E+00 -0.45593999997E+02  0.45594000000E+02  0.51100000000E-03 0. -1.
    9900012    2    1    2    0    0 -0.15568209037E+02  0.30088282940E+02  0.27128392145E+02  0.47787267711E+02  0.19999984800E+02 0.  0.
         12    1    1    2    0    0  0.15568209037E+02 -0.30088282940E+02 -0.27128392145E+02  0.43400732289E+02  0.00000000000E+00 0. -1.
         11    1    3    3    0    0 -0.68708687546E+01  0.64413774418E+01  0.15674085800E+02  0.18285982247E+02  0.51100000000E-03 0. -1.
        -11    1    3    3    0    0 -0.80075955077E+01  0.21647883457E+02  0.13347594984E+02  0.26662909371E+02  0.51100000000E-03 0.  1.
         12    1    3    3    0    0 -0.68974477446E+00  0.19990220404E+01 -0.18932886397E+01  0.28383760929E+01  0.00000000000E+00 0. -1.
</event>
<event>
 7    1  0.5038211E-009  0.4778727E+02  0.7816164E-02  0.1312668E+00
        -11   -1    0    0    0    0  0.00000000000E+00  0.00000000000E+00  0.45593999997E+02  0.45594000000E+02  0.51100000000E-03 0.  1.
         11   -1    0    0    0    0 -0.00000000000E+00 -0.00000000000E+00 -0.45593999997E+02  0.45594000000E+02  0.51100000000E-03 0. -1.
    9900012    2    1    2    0    0 -0.32718856499E+02  0.11358582666E+02  0.26154967239E+02  0.47787270950E+02  0.19999999569E+02 0.  0.
         12    1    1    2    0    0  0.32718856499E+02 -0.11358582666E+02 -0.26154967239E+02  0.43400729050E+02  0.00000000000E+00 0. -1.
         11    1    3    3    0    0 -0.14552113215E+02  0.92569479974E+01  0.19409257491E+01  0.17355756344E+02  0.51100000000E-03 0. -1.
        -11    1    3    3    0    0 -0.80757649779E+01 -0.19615436606E+00  0.10969996244E+02  0.13623409058E+02  0.51100000000E-03 0.  1.
         12    1    3    3    0    0 -0.10090978306E+02  0.22977890351E+01  0.13244045246E+02  0.16808105547E+02  0.00000000000E+00 0. -1.
</event>
<event>
 7    1  0.5038211E-009  0.4778727E+02  0.7816164E-02  0.1312668E+00
        -11   -1    0    0    0    0  0.00000000000E+00  0.00000000000E+00  0.45593999997E+02  0.45594000000E+02  0.51100000000E-03 0.  1.
         11   -1    0    0    0    0 -0.00000000000E+00 -0.00000000000E+00 -0.45593999997E+02  0.45594000000E+02  0.51100000000E-03 0. -1.
    9900012    2    1    2    0    0 -0.47112414265E+01  0.24410162354E+02  0.35574871808E+02  0.47787270443E+02  0.19999997257E+02 0.  0.
         12    1    1    2    0    0  0.47112414265E+01 -0.24410162354E+02 -0.35574871808E+02  0.43400729557E+02  0.00000000000E+00 0. -1.
         11    1    3    3    0    0  0.26376273474E+01  0.14871327370E+02  0.11687382134E+02  0.19097339008E+02  0.51100000000E-03 0. -1.
        -11    1    3    3    0    0 -0.96984947922E+01  0.90320481264E+01  0.18187510905E+02  0.22503871840E+02  0.51100000000E-03 0.  1.
         12    1    3    3    0    0  0.23496260183E+01  0.50678685695E+00  0.56999787693E+01  0.61860595951E+01  0.00000000000E+00 0. -1.
</event>
<event>
 7    1  0.5038211E-009  0.4778727E+02  0.7816164E-02  0.1312668E+00
        -11   -1    0    0    0    0  0.00000000000E+00  0.00000000000E+00  0.45593999997E+02  0.45594000000E+02  0.51100000000E-03 0. -1.
         11   -1    0    0    0    0 -0.00000000000E+00 -0.00000000000E+00 -0.45593999997E+02  0.45594000000E+02  0.51100000000E-03 0.  1.
    9900012    2    1    2    0    0 -0.33366566518E+02 -0.38101290672E+01 -0.27491420094E+02  0.47787273929E+02  0.20000013153E+02 0.  0.
         12    1    1    2    0    0  0.33366566518E+02  0.38101290672E+01  0.27491420094E+02  0.43400726071E+02  0.00000000000E+00 0. -1.
         11    1    3    3    0    0 -0.30615416015E+02  0.22903412419E+01 -0.17950814131E+02  0.35563760895E+02  0.51100000000E-03 0. -1.
        -11    1    3    3    0    0 -0.36999409349E+00 -0.45677936383E+01 -0.43920553529E+01  0.63475810224E+01  0.51100000000E-03 0.  1.
         12    1    3    3    0    0 -0.23811564089E+01 -0.15326766708E+01 -0.51485506102E+01  0.58759320117E+01  0.00000000000E+00 0. -1.
</event>
<event>
 7    1  0.5038211E-009  0.4778727E+02  0.7816164E-02  0.1312668E+00
        -11   -1    0    0    0    0  0.00000000000E+00  0.00000000000E+00  0.45593999997E+02  0.45594000000E+02  0.51100000000E-03 0.  1.
         11   -1    0    0    0    0 -0.00000000000E+00 -0.00000000000E+00 -0.45593999997E+02  0.45594000000E+02  0.51100000000E-03 0. -1.
    9900012    2    1    2    0    0 -0.28668338787E+02 -0.27757070721E+02  0.17067357560E+02  0.47787270538E+02  0.19999997689E+02 0.  0.
         12    1    1    2    0    0  0.28668338787E+02  0.27757070721E+02 -0.17067357560E+02  0.43400729462E+02  0.00000000000E+00 0. -1.
         11    1    3    3    0    0 -0.24940705416E+02 -0.27744204104E+02  0.19470641247E+02  0.42081890628E+02  0.51100000000E-03 0. -1.
        -11    1    3    3    0    0 -0.14798659686E+01 -0.11368339801E+01  0.43319659910E+00  0.19157385881E+01  0.51100000000E-03 0.  1.
         12    1    3    3    0    0 -0.22477674022E+01  0.11239673633E+01 -0.28364802864E+01  0.37896413212E+01  0.00000000000E+00 0. -1.
</event>
<event>
 7    1  0.5038211E-009  0.4778727E+02  0.7816164E-02  0.1312668E+00
        -11   -1    0    0    0    0  0.00000000000E+00  0.00000000000E+00  0.45593999997E+02  0.45594000000E+02  0.51100000000E-03 0. -1.
         11   -1    0    0    0    0 -0.00000000000E+00 -0.00000000000E+00 -0.45593999997E+02  0.45594000000E+02  0.51100000000E-03 0.  1.
    9900012    2    1    2    0    0  0.25812125322E+02 -0.21435344897E+02 -0.27529681279E+02  0.47787272174E+02  0.20000005151E+02 0.  0.
         12    1    1    2    0    0 -0.25812125322E+02  0.21435344897E+02  0.27529681279E+02  0.43400727826E+02  0.00000000000E+00 0. -1.
         11    1    3    3    0    0  0.14236417973E+02 -0.11745404630E+02 -0.47667879244E+01  0.19061804584E+02  0.51100000000E-03 0. -1.
        -11    1    3    3    0    0 -0.12390087740E+01 -0.17999939297E+01 -0.14035237790E+01  0.25971138112E+01  0.51100000000E-03 0.  1.
         12    1    3    3    0    0  0.12814716123E+02 -0.78899463371E+01 -0.21359369575E+02  0.26128353778E+02  0.00000000000E+00 0. -1.
</event>
<event>
 7    1  0.5038211E-009  0.4778727E+02  0.7816164E-02  0.1312668E+00
        -11   -1    0    0    0    0  0.00000000000E+00  0.00000000000E+00  0.45593999997E+02  0.45594000000E+02  0.51100000000E-03 0. -1.
         11   -1    0    0    0    0 -0.00000000000E+00 -0.00000000000E+00 -0.45593999997E+02  0.45594000000E+02  0.51100000000E-03 0.  1.
    9900012    2    1    2    0    0  0.40007536704E+02  0.16222162534E+02 -0.44566462109E+01  0.47787271367E+02  0.20000001472E+02 0.  0.
         12    1    1    2    0    0 -0.40007536704E+02 -0.16222162534E+02  0.44566462109E+01  0.43400728633E+02  0.00000000000E+00 0. -1.
         11    1    3    3    0    0  0.25995203849E+02  0.66115214174E+01 -0.72841022020E+01  0.27794261705E+02  0.51100000000E-03 0.  1.
        -11    1    3    3    0    0  0.48894615380E+01  0.32080593364E+01  0.60266417560E+01  0.83975526169E+01  0.51100000000E-03 0. -1.
         12    1    3    3    0    0  0.91228713173E+01  0.64025817805E+01 -0.31991857649E+01  0.11595457045E+02  0.00000000000E+00 0. -1.
</event>
<event>
 7    1  0.5038211E-009  0.4778727E+02  0.7816164E-02  0.1312668E+00
        -11   -1    0    0    0    0  0.00000000000E+00  0.00000000000E+00  0.45593999997E+02  0.45594000000E+02  0.51100000000E-03 0. -1.
         11   -1    0    0    0    0 -0.00000000000E+00 -0.00000000000E+00 -0.45593999997E+02  0.45594000000E+02  0.51100000000E-03 0.  1.
    9900012    2    1    2    0    0  0.15543903658E+02  0.70510053174E+00 -0.40515590597E+02  0.47787272021E+02  0.20000004454E+02 0.  0.
         12    1    1    2    0    0 -0.15543903658E+02 -0.70510053174E+00  0.40515590597E+02  0.43400727979E+02  0.00000000000E+00 0. -1.
         11    1    3    3    0    0 -0.33513811654E+01  0.10810426466E+01 -0.14226724813E+02  0.14656060456E+02  0.51100000000E-03 0. -1.
        -11    1    3    3    0    0  0.14453987168E+02 -0.33219603521E+01 -0.19600557198E+02  0.24579158008E+02  0.51100000000E-03 0.  1.
         12    1    3    3    0    0  0.44412976553E+01  0.29460182372E+01 -0.66883085855E+01  0.85520535576E+01  0.00000000000E+00 0. -1.
</event>
<event>
 7    1  0.5038211E-009  0.4778727E+02  0.7816164E-02  0.1312668E+00
        -11   -1    0    0    0    0  0.00000000000E+00  0.00000000000E+00  0.45593999997E+02  0.45594000000E+02  0.51100000000E-03 0. -1.
         11   -1    0    0    0    0 -0.00000000000E+00 -0.00000000000E+00 -0.45593999997E+02  0.45594000000E+02  0.51100000000E-03 0.  1.
    9900012    2    1    2    0    0  0.38915824604E+02 -0.45200634164E+01 -0.18674874140E+02  0.47787270720E+02  0.19999998523E+02 0.  0.
         12    1    1    2    0    0 -0.38915824604E+02  0.45200634164E+01  0.18674874140E+02  0.43400729280E+02  0.00000000000E+00 0. -1.
         11    1    3    3    0    0  0.11266492830E+02  0.70368617997E+01 -0.23252168751E+01  0.13485470642E+02  0.51100000000E-03 0. -1.
        -11    1    3    3    0    0  0.12942764897E+02 -0.36122942946E+01 -0.70917214658E+01  0.15193957577E+02  0.51100000000E-03 0.  1.
         12    1    3    3    0    0  0.14706566877E+02 -0.79446309216E+01 -0.92579357987E+01  0.19107842501E+02  0.00000000000E+00 0. -1.
</event>
<event>
 7    1  0.5038211E-009  0.4778729E+02  0.7816164E-02  0.1312668E+00
        -11   -1    0    0    0    0  0.00000000000E+00  0.00000000000E+00  0.45593999997E+02  0.45594000000E+02  0.51100000000E-03 0.  1.
         11   -1    0    0    0    0 -0.00000000000E+00 -0.00000000000E+00 -0.45593999997E+02  0.45594000000E+02  0.51100000000E-03 0. -1.
    9900012    2    1    2    0    0  0.39992257721E+02  0.72589927647E+01 -0.15216710730E+02  0.47787286422E+02  0.20000070114E+02 0.  0.
         12    1    1    2    0    0 -0.39992257721E+02 -0.72589927647E+01  0.15216710730E+02  0.43400713578E+02  0.00000000000E+00 0. -1.
         11    1    3    3    0    0  0.30861134012E+02  0.41638061615E+01 -0.69270758568E+01  0.31901900483E+02  0.51100000000E-03 0. -1.
        -11    1    3    3    0    0  0.85423724403E+01  0.40590497276E+01 -0.22242317205E+01  0.97157201796E+01  0.51100000000E-03 0.  1.
         12    1    3    3    0    0  0.58875126907E+00 -0.96386312444E+00 -0.60654031530E+01  0.61696657599E+01  0.00000000000E+00 0. -1.
</event>
<event>
 7    1  0.5038211E-009  0.4778727E+02  0.7816164E-02  0.1312668E+00
        -11   -1    0    0    0    0  0.00000000000E+00  0.00000000000E+00  0.45593999997E+02  0.45594000000E+02  0.51100000000E-03 0. -1.
         11   -1    0    0    0    0 -0.00000000000E+00 -0.00000000000E+00 -0.45593999997E+02  0.45594000000E+02  0.51100000000E-03 0.  1.
    9900012    2    1    2    0    0  0.78704631739E+01 -0.12277004550E+02 -0.40877307887E+02  0.47787270382E+02  0.19999996980E+02 0.  0.
         12    1    1    2    0    0 -0.78704631739E+01  0.12277004550E+02  0.40877307887E+02  0.43400729618E+02  0.00000000000E+00 0. -1.
         11    1    3    3    0    0 -0.12046652272E-01  0.38975754192E+01 -0.16252263522E+02  0.16713087959E+02  0.51100000000E-03 0. -1.
        -11    1    3    3    0    0  0.29161249926E+01 -0.12296955540E+02 -0.15863084759E+02  0.20281921972E+02  0.51100000000E-03 0.  1.
         12    1    3    3    0    0  0.49663848336E+01 -0.38776244293E+01 -0.87619596057E+01  0.10792260452E+02  0.00000000000E+00 0. -1.
</event>
<event>
 7    1  0.5038211E-009  0.4778727E+02  0.7816164E-02  0.1312668E+00
        -11   -1    0    0    0    0  0.00000000000E+00  0.00000000000E+00  0.45593999997E+02  0.45594000000E+02  0.51100000000E-03 0. -1.
         11   -1    0    0    0    0 -0.00000000000E+00 -0.00000000000E+00 -0.45593999997E+02  0.45594000000E+02  0.51100000000E-03 0.  1.
    9900012    2    1    2    0    0  0.12120967153E+02  0.13432320488E+02 -0.39449697036E+02  0.47787266427E+02  0.19999978947E+02 0.  0.
         12    1    1    2    0    0 -0.12120967153E+02 -0.13432320488E+02  0.39449697036E+02  0.43400733573E+02  0.00000000000E+00 0. -1.
         11    1    3    3    0    0 -0.57667474374E+00 -0.23379807592E+01 -0.23571715705E+01  0.33697130240E+01  0.51100000000E-03 0. -1.
        -11    1    3    3    0    0  0.89790322298E+01  0.13902709817E+02 -0.16359460982E+02  0.23271018970E+02  0.51100000000E-03 0.  1.
        -12    1    3    3    0    0  0.37186096666E+01  0.18675914305E+01 -0.20733064484E+02  0.21146534433E+02  0.00000000000E+00 0.  1.
</event>
<event>
 7    1  0.5038211E-009  0.4778724E+02  0.7816164E-02  0.1312668E+00
        -11   -1    0    0    0    0  0.00000000000E+00  0.00000000000E+00  0.45593999997E+02  0.45594000000E+02  0.51100000000E-03 0.  1.
         11   -1    0    0    0    0 -0.00000000000E+00 -0.00000000000E+00 -0.45593999997E+02  0.45594000000E+02  0.51100000000E-03 0. -1.
    9900012    2    1    2    0    0 -0.70309591031E+01 -0.34793072967E+02  0.24972659366E+02  0.47787239313E+02  0.19999855322E+02 0.  0.
         12    1    1    2    0    0  0.70309591031E+01  0.34793072967E+02 -0.24972659366E+02  0.43400760687E+02  0.00000000000E+00 0. -1.
         11    1    3    3    0    0  0.26637585230E+01 -0.13704375217E+01  0.33419025141E+01  0.44879863129E+01  0.51100000000E-03 0. -1.
        -11    1    3    3    0    0 -0.87182952063E+01 -0.33568360907E+02  0.17111825209E+02  0.38673738991E+02  0.51100000000E-03 0.  1.
        -12    1    3    3    0    0 -0.97642241979E+00  0.14572546170E+00  0.45189316429E+01  0.46255140088E+01  0.00000000000E+00 0.  1.
</event>
<event>
 7    1  0.5038211E-009  0.4778727E+02  0.7816164E-02  0.1312668E+00
        -11   -1    0    0    0    0  0.00000000000E+00  0.00000000000E+00  0.45593999997E+02  0.45594000000E+02  0.51100000000E-03 0. -1.
         11   -1    0    0    0    0 -0.00000000000E+00 -0.00000000000E+00 -0.45593999997E+02  0.45594000000E+02  0.51100000000E-03 0.  1.
    9900012    2    1    2    0    0  0.62199183462E+01  0.42385431230E+02  0.69578162657E+01  0.47787269915E+02  0.19999994848E+02 0.  0.
         12    1    1    2    0    0 -0.62199183462E+01 -0.42385431230E+02 -0.69578162657E+01  0.43400730085E+02  0.00000000000E+00 0. -1.
         11    1    3    3    0    0  0.11185308068E+01  0.22854241780E+02  0.84886805679E+01  0.24405433341E+02  0.51100000000E-03 0.  1.
        -11    1    3    3    0    0  0.62399597002E+01  0.20103734944E+02 -0.31894890847E+01  0.21290140832E+02  0.51100000000E-03 0. -1.
         12    1    3    3    0    0 -0.11385721608E+01 -0.57254549413E+00  0.16586247825E+01  0.20916957420E+01  0.00000000000E+00 0. -1.
</event>
<event>
 7    1  0.5038211E-009  0.4778727E+02  0.7816164E-02  0.1312668E+00
        -11   -1    0    0    0    0  0.00000000000E+00  0.00000000000E+00  0.45593999997E+02  0.45594000000E+02  0.51100000000E-03 0.  1.
         11   -1    0    0    0    0 -0.00000000000E+00 -0.00000000000E+00 -0.45593999997E+02  0.45594000000E+02  0.51100000000E-03 0. -1.
    9900012    2    1    2    0    0 -0.18342858812E+02  0.33298871393E+02  0.20936762251E+02  0.47787270525E+02  0.19999997630E+02 0.  0.
         12    1    1    2    0    0  0.18342858812E+02 -0.33298871393E+02 -0.20936762251E+02  0.43400729475E+02  0.00000000000E+00 0. -1.
         11    1    3    3    0    0 -0.65518463808E+01  0.11644255934E+01  0.11180306046E+01  0.67477826472E+01  0.51100000000E-03 0. -1.
        -11    1    3    3    0    0 -0.51220962581E+01  0.26907207072E+02  0.14003058887E+02  0.30762303570E+02  0.51100000000E-03 0.  1.
         12    1    3    3    0    0 -0.66689161729E+01  0.52272387275E+01  0.58156727602E+01  0.10277184307E+02  0.00000000000E+00 0. -1.
</event>
<event>
 7    1  0.5038211E-009  0.4778727E+02  0.7816164E-02  0.1312668E+00
        -11   -1    0    0    0    0  0.00000000000E+00  0.00000000000E+00  0.45593999997E+02  0.45594000000E+02  0.51100000000E-03 0.  1.
         11   -1    0    0    0    0 -0.00000000000E+00 -0.00000000000E+00 -0.45593999997E+02  0.45594000000E+02  0.51100000000E-03 0. -1.
    9900012    2    1    2    0    0  0.14530970023E+02  0.33811216777E+02  0.23005992069E+02  0.47787272577E+02  0.20000006987E+02 0.  0.
         12    1    1    2    0    0 -0.14530970023E+02 -0.33811216777E+02 -0.23005992069E+02  0.43400727423E+02  0.00000000000E+00 0. -1.
         11    1    3    3    0    0  0.28390979284E+00  0.14685452571E+02  0.57607944645E+01  0.15777511690E+02  0.51100000000E-03 0. -1.
        -11    1    3    3    0    0  0.14646409499E+02  0.19722010863E+02  0.18370635913E+02  0.30674994503E+02  0.51100000000E-03 0.  1.
        -12    1    3    3    0    0 -0.39934926851E+00 -0.59624665675E+00 -0.11254383081E+01  0.13347663838E+01  0.00000000000E+00 0.  1.
</event>
<event>
 7    1  0.5038211E-009  0.4778728E+02  0.7816164E-02  0.1312668E+00
        -11   -1    0    0    0    0  0.00000000000E+00  0.00000000000E+00  0.45593999997E+02  0.45594000000E+02  0.51100000000E-03 0. -1.
         11   -1    0    0    0    0 -0.00000000000E+00 -0.00000000000E+00 -0.45593999997E+02  0.45594000000E+02  0.51100000000E-03 0.  1.
    9900012    2    1    2    0    0 -0.93786540662E+01 -0.33368450274E+02 -0.26119143626E+02  0.47787282384E+02  0.20000051703E+02 0.  0.
         12    1    1    2    0    0  0.93786540662E+01  0.33368450274E+02  0.26119143626E+02  0.43400717616E+02  0.00000000000E+00 0. -1.
         11    1    3    3    0    0  0.19259412924E+01 -0.14107699695E+02 -0.10004961420E+02  0.17402174973E+02  0.51100000000E-03 0. -1.
        -11    1    3    3    0    0 -0.55287240595E+01 -0.16655317408E+02 -0.16431547126E+02  0.24040842933E+02  0.51100000000E-03 0.  1.
         12    1    3    3    0    0 -0.57758712991E+01 -0.26054331717E+01  0.31736492050E+00  0.63442644781E+01  0.00000000000E+00 0. -1.
</event>
<event>
 7    1  0.5038211E-009  0.4778727E+02  0.7816164E-02  0.1312668E+00
        -11   -1    0    0    0    0  0.00000000000E+00  0.00000000000E+00  0.45593999997E+02  0.45594000000E+02  0.51100000000E-03 0. -1.
         11   -1    0    0    0    0 -0.00000000000E+00 -0.00000000000E+00 -0.45593999997E+02  0.45594000000E+02  0.51100000000E-03 0.  1.
    9900012    2    1    2    0    0 -0.74335601571E+01  0.31453815145E+02 -0.28965897164E+02  0.47787268412E+02  0.19999987999E+02 0.  0.
         12    1    1    2    0    0  0.74335601571E+01 -0.31453815145E+02  0.28965897164E+02  0.43400731588E+02  0.00000000000E+00 0. -1.
         11    1    3    3    0    0 -0.61989506712E+00  0.21857547231E+02 -0.13033844202E+02  0.25456192484E+02  0.51100000000E-03 0. -1.
        -11    1    3    3    0    0 -0.73762954149E+01  0.11347090363E+02 -0.12431409808E+02  0.18376782738E+02  0.51100000000E-03 0.  1.
         12    1    3    3    0    0  0.56263032497E+00 -0.17508224486E+01 -0.35006431551E+01  0.39542931895E+01  0.00000000000E+00 0. -1.
</event>
<event>
 7    1  0.5038211E-009  0.4778727E+02  0.7816164E-02  0.1312668E+00
        -11   -1    0    0    0    0  0.00000000000E+00  0.00000000000E+00  0.45593999997E+02  0.45594000000E+02  0.51100000000E-03 0. -1.
         11   -1    0    0    0    0 -0.00000000000E+00 -0.00000000000E+00 -0.45593999997E+02  0.45594000000E+02  0.51100000000E-03 0.  1.
    9900012    2    1    2    0    0 -0.36179969338E+02 -0.88526704084E+01 -0.22276971569E+02  0.47787269396E+02  0.19999992486E+02 0.  0.
         12    1    1    2    0    0  0.36179969338E+02  0.88526704084E+01  0.22276971569E+02  0.43400730604E+02  0.00000000000E+00 0. -1.
         11    1    3    3    0    0 -0.30875382192E+02 -0.13268657905E+02 -0.14268219433E+02  0.36509294627E+02  0.51100000000E-03 0. -1.
        -11    1    3    3    0    0 -0.58375596770E+01  0.34923416647E+01 -0.63480424980E+01  0.93043644116E+01  0.51100000000E-03 0.  1.
         12    1    3    3    0    0  0.53297253127E+00  0.92364583223E+00 -0.16607096379E+01  0.19736103577E+01  0.00000000000E+00 0. -1.
</event>
<event>
 7    1  0.5038211E-009  0.4778727E+02  0.7816164E-02  0.1312668E+00
        -11   -1    0    0    0    0  0.00000000000E+00  0.00000000000E+00  0.45593999997E+02  0.45594000000E+02  0.51100000000E-03 0. -1.
         11   -1    0    0    0    0 -0.00000000000E+00 -0.00000000000E+00 -0.45593999997E+02  0.45594000000E+02  0.51100000000E-03 0.  1.
    9900012    2    1    2    0    0  0.40228175574E+02 -0.16277452566E+02  0.60123405328E+00  0.47787273573E+02  0.20000011528E+02 0.  0.
         12    1    1    2    0    0 -0.40228175574E+02  0.16277452566E+02 -0.60123405328E+00  0.43400726427E+02  0.00000000000E+00 0. -1.
         11    1    3    3    0    0  0.16544978181E+02 -0.87833916499E+01  0.91360412062E+01  0.20841101724E+02  0.51100000000E-03 0. -1.
        -11    1    3    3    0    0  0.19850420415E+02 -0.82406046466E+01 -0.60897342198E+01  0.22339015616E+02  0.51100000000E-03 0.  1.
        -12    1    3    3    0    0  0.38327769778E+01  0.74654373047E+00 -0.24450729331E+01  0.46071562325E+01  0.00000000000E+00 0.  1.
</event>
<event>
 7    1  0.5038211E-009  0.4778727E+02  0.7816164E-02  0.1312668E+00
        -11   -1    0    0    0    0  0.00000000000E+00  0.00000000000E+00  0.45593999997E+02  0.45594000000E+02  0.51100000000E-03 0.  1.
         11   -1    0    0    0    0 -0.00000000000E+00 -0.00000000000E+00 -0.45593999997E+02  0.45594000000E+02  0.51100000000E-03 0. -1.
    9900012    2    1    2    0    0 -0.98174185852E+01  0.76649311232E+01  0.41575118704E+02  0.47787269913E+02  0.19999994843E+02 0.  0.
         12    1    1    2    0    0  0.98174185852E+01 -0.76649311232E+01 -0.41575118704E+02  0.43400730087E+02  0.00000000000E+00 0. -1.
         11    1    3    3    0    0  0.19622228938E+01 -0.34871859272E+01  0.18477636595E+01  0.44073818961E+01  0.51100000000E-03 0. -1.
        -11    1    3    3    0    0 -0.67041587869E+01  0.66893185784E+01  0.30537859198E+02  0.31972700429E+02  0.51100000000E-03 0.  1.
         12    1    3    3    0    0 -0.50754826921E+01  0.44627984720E+01  0.91894958465E+01  0.11407187588E+02  0.00000000000E+00 0. -1.
</event>
<event>
 7    1  0.5038211E-009  0.4778727E+02  0.7816164E-02  0.1312668E+00
        -11   -1    0    0    0    0  0.00000000000E+00  0.00000000000E+00  0.45593999997E+02  0.45594000000E+02  0.51100000000E-03 0. -1.
         11   -1    0    0    0    0 -0.00000000000E+00 -0.00000000000E+00 -0.45593999997E+02  0.45594000000E+02  0.51100000000E-03 0.  1.
    9900012    2    1    2    0    0 -0.34076437198E+00 -0.24061903876E+02 -0.36118303508E+02  0.47787272048E+02  0.20000004574E+02 0.  0.
         12    1    1    2    0    0  0.34076437198E+00  0.24061903876E+02  0.36118303508E+02  0.43400727952E+02  0.00000000000E+00 0. -1.
         11    1    3    3    0    0  0.32139297929E+01 -0.15407863420E+01 -0.40653603050E+01  0.54065258657E+01  0.51100000000E-03 0. -1.
        -11    1    3    3    0    0  0.38462094288E+01 -0.17045404468E+02 -0.26127848369E+02  0.31432524574E+02  0.51100000000E-03 0.  1.
        -12    1    3    3    0    0 -0.74009035937E+01 -0.54757130661E+01 -0.59250948342E+01  0.10948221608E+02  0.00000000000E+00 0.  1.
</event>
<event>
 7    1  0.5038211E-009  0.4778727E+02  0.7816164E-02  0.1312668E+00
        -11   -1    0    0    0    0  0.00000000000E+00  0.00000000000E+00  0.45593999997E+02  0.45594000000E+02  0.51100000000E-03 0. -1.
         11   -1    0    0    0    0 -0.00000000000E+00 -0.00000000000E+00 -0.45593999997E+02  0.45594000000E+02  0.51100000000E-03 0.  1.
    9900012    2    1    2    0    0  0.20551958492E+02  0.37990857827E+02  0.42349627887E+01  0.47787272056E+02  0.20000004611E+02 0.  0.
         12    1    1    2    0    0 -0.20551958492E+02 -0.37990857827E+02 -0.42349627887E+01  0.43400727944E+02  0.00000000000E+00 0. -1.
         11    1    3    3    0    0  0.34812327985E+01  0.83058776522E+01  0.45266252004E+01  0.10079529817E+02  0.51100000000E-03 0. -1.
        -11    1    3    3    0    0  0.19560733525E+02  0.27358651155E+02  0.18500745870E+01  0.33682946209E+02  0.51100000000E-03 0.  1.
        -12    1    3    3    0    0 -0.24900078316E+01  0.23263290194E+01 -0.21417369987E+01  0.40247960296E+01  0.00000000000E+00 0.  1.
</event>
<event>
 7    1  0.5038211E-009  0.4778725E+02  0.7816164E-02  0.1312668E+00
        -11   -1    0    0    0    0  0.00000000000E+00  0.00000000000E+00  0.45593999997E+02  0.45594000000E+02  0.51100000000E-03 0.  1.
         11   -1    0    0    0    0 -0.00000000000E+00 -0.00000000000E+00 -0.45593999997E+02  0.45594000000E+02  0.51100000000E-03 0. -1.
    9900012    2    1    2    0    0  0.31326267189E+02 -0.29786523810E+02  0.38798226530E+01  0.47787250692E+02  0.19999907205E+02 0.  0.
         12    1    1    2    0    0 -0.31326267189E+02  0.29786523810E+02 -0.38798226530E+01  0.43400749308E+02  0.00000000000E+00 0. -1.
         11    1    3    3    0    0 -0.49437663769E+00 -0.22190973997E+01 -0.34664664394E+01  0.41455025468E+01  0.51100000000E-03 0. -1.
        -11    1    3    3    0    0  0.21353005418E+02 -0.23560790826E+02  0.59116639548E+01  0.32342069750E+02  0.51100000000E-03 0.  1.
        -12    1    3    3    0    0  0.10467638408E+02 -0.40066355846E+01  0.14346251376E+01  0.11299678395E+02  0.00000000000E+00 0.  1.
</event>
<event>
 7    1  0.5038211E-009  0.4778727E+02  0.7816164E-02  0.1312668E+00
        -11   -1    0    0    0    0  0.00000000000E+00  0.00000000000E+00  0.45593999997E+02  0.45594000000E+02  0.51100000000E-03 0. -1.
         11   -1    0    0    0    0 -0.00000000000E+00 -0.00000000000E+00 -0.45593999997E+02  0.45594000000E+02  0.51100000000E-03 0.  1.
    9900012    2    1    2    0    0  0.90847486992E+01  0.16909883532E+02 -0.38924882213E+02  0.47787271028E+02  0.19999999923E+02 0.  0.
         12    1    1    2    0    0 -0.90847486992E+01 -0.16909883532E+02  0.38924882213E+02  0.43400728972E+02  0.00000000000E+00 0. -1.
         11    1    3    3    0    0 -0.71884513264E+00 -0.39421327767E+00 -0.11226854843E+00  0.82749436319E+00  0.51100000000E-03 0. -1.
        -11    1    3    3    0    0  0.82676210126E+01  0.16063053296E+02 -0.16213428631E+02  0.24274482623E+02  0.51100000000E-03 0.  1.
        -12    1    3    3    0    0  0.15359728193E+01  0.12410435137E+01 -0.22599185034E+02  0.22685294041E+02  0.00000000000E+00 0.  1.
</event>
<event>
 7    1  0.5038211E-009  0.4778727E+02  0.7816164E-02  0.1312668E+00
        -11   -1    0    0    0    0  0.00000000000E+00  0.00000000000E+00  0.45593999997E+02  0.45594000000E+02  0.51100000000E-03 0.  1.
         11   -1    0    0    0    0 -0.00000000000E+00 -0.00000000000E+00 -0.45593999997E+02  0.45594000000E+02  0.51100000000E-03 0. -1.
    9900012    2    1    2    0    0 -0.20959809054E+02  0.90917514961E+00  0.37993196717E+02  0.47787271990E+02  0.20000004310E+02 0.  0.
         12    1    1    2    0    0  0.20959809054E+02 -0.90917514961E+00 -0.37993196717E+02  0.43400728010E+02  0.00000000000E+00 0. -1.
         11    1    3    3    0    0  0.13389657332E+01 -0.11127219572E+01  0.12211877337E+02  0.12335352762E+02  0.51100000000E-03 0. -1.
        -11    1    3    3    0    0 -0.64969640913E+01  0.17410592208E+01  0.14652239259E+02  0.16122343042E+02  0.51100000000E-03 0.  1.
         12    1    3    3    0    0 -0.15801810696E+02  0.28083788598E+00  0.11129080121E+02  0.19329576186E+02  0.00000000000E+00 0. -1.
</event>
<event>
 7    1  0.5038211E-009  0.4778727E+02  0.7816164E-02  0.1312668E+00
        -11   -1    0    0    0    0  0.00000000000E+00  0.00000000000E+00  0.45593999997E+02  0.45594000000E+02  0.51100000000E-03 0. -1.
         11   -1    0    0    0    0 -0.00000000000E+00 -0.00000000000E+00 -0.45593999997E+02  0.45594000000E+02  0.51100000000E-03 0.  1.
    9900012    2    1    2    0    0 -0.40249480216E+02 -0.14946729080E+02 -0.63401644386E+01  0.47787273590E+02  0.20000011605E+02 0.  0.
         12    1    1    2    0    0  0.40249480216E+02  0.14946729080E+02  0.63401644386E+01  0.43400726410E+02  0.00000000000E+00 0. -1.
         11    1    3    3    0    0 -0.60275638779E+01 -0.41771665932E+01 -0.72542726052E+01  0.10315266276E+02  0.51100000000E-03 0. -1.
        -11    1    3    3    0    0 -0.32237563801E+02 -0.68082823557E+01  0.16061885849E+01  0.32987771529E+02  0.51100000000E-03 0.  1.
        -12    1    3    3    0    0 -0.19843525373E+01 -0.39612801308E+01 -0.69208041825E+00  0.44842357847E+01  0.00000000000E+00 0.  1.
</event>
<event>
 7    1  0.5038211E-009  0.4778729E+02  0.7816164E-02  0.1312668E+00
        -11   -1    0    0    0    0  0.00000000000E+00  0.00000000000E+00  0.45593999997E+02  0.45594000000E+02  0.51100000000E-03 0.  1.
         11   -1    0    0    0    0 -0.00000000000E+00 -0.00000000000E+00 -0.45593999997E+02  0.45594000000E+02  0.51100000000E-03 0. -1.
    9900012    2    1    2    0    0  0.30101436501E+02  0.24702868097E+02  0.19164897131E+02  0.47787292014E+02  0.20000095609E+02 0.  0.
         12    1    1    2    0    0 -0.30101436501E+02 -0.24702868097E+02 -0.19164897131E+02  0.43400707986E+02  0.00000000000E+00 0. -1.
         11    1    3    3    0    0  0.11885564772E+02  0.13696129364E+02  0.36498372730E+00  0.18137911205E+02  0.51100000000E-03 0. -1.
        -11    1    3    3    0    0  0.11599891123E+02  0.10626729716E+02  0.10029265002E+02  0.18656661418E+02  0.51100000000E-03 0.  1.
         12    1    3    3    0    0  0.66159806063E+01  0.38000901743E+00  0.87706484017E+01  0.10992719392E+02  0.00000000000E+00 0. -1.
</event>
<event>
 7    1  0.5038211E-009  0.4778727E+02  0.7816164E-02  0.1312668E+00
        -11   -1    0    0    0    0  0.00000000000E+00  0.00000000000E+00  0.45593999997E+02  0.45594000000E+02  0.51100000000E-03 0.  1.
         11   -1    0    0    0    0 -0.00000000000E+00 -0.00000000000E+00 -0.45593999997E+02  0.45594000000E+02  0.51100000000E-03 0. -1.
    9900012    2    1    2    0    0  0.11613788255E+02 -0.18737003788E+00  0.41817557441E+02  0.47787270795E+02  0.19999998865E+02 0.  0.
         12    1    1    2    0    0 -0.11613788255E+02  0.18737003788E+00 -0.41817557441E+02  0.43400729205E+02  0.00000000000E+00 0. -1.
         11    1    3    3    0    0  0.80993181702E+01 -0.63647487687E+01  0.89300017588E+01  0.13632824850E+02  0.51100000000E-03 0. -1.
        -11    1    3    3    0    0  0.12998116848E+01  0.46212659685E+01  0.98407749058E+01  0.10949267582E+02  0.51100000000E-03 0.  1.
         12    1    3    3    0    0  0.22146584004E+01  0.15561127623E+01  0.23046780776E+02  0.23205178364E+02  0.00000000000E+00 0. -1.
</event>
<event>
 7    1  0.5038211E-009  0.4778727E+02  0.7816164E-02  0.1312668E+00
        -11   -1    0    0    0    0  0.00000000000E+00  0.00000000000E+00  0.45593999997E+02  0.45594000000E+02  0.51100000000E-03 0. -1.
         11   -1    0    0    0    0 -0.00000000000E+00 -0.00000000000E+00 -0.45593999997E+02  0.45594000000E+02  0.51100000000E-03 0.  1.
    9900012    2    1    2    0    0 -0.11698323602E+02  0.85927168418E+01 -0.40901559901E+02  0.47787272355E+02  0.20000005975E+02 0.  0.
         12    1    1    2    0    0  0.11698323602E+02 -0.85927168418E+01  0.40901559901E+02  0.43400727645E+02  0.00000000000E+00 0. -1.
         11    1    3    3    0    0 -0.44175660148E+01  0.22934894917E+01 -0.27944992647E+02  0.28384812803E+02  0.51100000000E-03 0.  1.
        -11    1    3    3    0    0 -0.78938501809E+01  0.77342768831E+01 -0.66327893950E+01  0.12888979983E+02  0.51100000000E-03 0. -1.
         12    1    3    3    0    0  0.61309259390E+00 -0.14350495330E+01 -0.63237778584E+01  0.65134795688E+01  0.00000000000E+00 0. -1.
</event>
<event>
 7    1  0.5038211E-009  0.4778727E+02  0.7816164E-02  0.1312668E+00
        -11   -1    0    0    0    0  0.00000000000E+00  0.00000000000E+00  0.45593999997E+02  0.45594000000E+02  0.51100000000E-03 0. -1.
         11   -1    0    0    0    0 -0.00000000000E+00 -0.00000000000E+00 -0.45593999997E+02  0.45594000000E+02  0.51100000000E-03 0.  1.
    9900012    2    1    2    0    0 -0.34075611868E+02 -0.22253131190E+02 -0.15075625461E+02  0.47787266654E+02  0.19999979980E+02 0.  0.
         12    1    1    2    0    0  0.34075611868E+02  0.22253131190E+02  0.15075625461E+02  0.43400733346E+02  0.00000000000E+00 0. -1.
         11    1    3    3    0    0 -0.27217515482E+02 -0.15323658071E+02 -0.90979709296E+01  0.32532763808E+02  0.51100000000E-03 0.  1.
        -11    1    3    3    0    0 -0.26094125133E+01  0.10909322167E+01 -0.54773772240E+01  0.61644811851E+01  0.51100000000E-03 0. -1.
         12    1    3    3    0    0 -0.42486838730E+01 -0.80204053358E+01 -0.50027730764E+00  0.90900216605E+01  0.00000000000E+00 0. -1.
</event>
<event>
 7    1  0.5038211E-009  0.4778727E+02  0.7816164E-02  0.1312668E+00
        -11   -1    0    0    0    0  0.00000000000E+00  0.00000000000E+00  0.45593999997E+02  0.45594000000E+02  0.51100000000E-03 0. -1.
         11   -1    0    0    0    0 -0.00000000000E+00 -0.00000000000E+00 -0.45593999997E+02  0.45594000000E+02  0.51100000000E-03 0.  1.
    9900012    2    1    2    0    0  0.81858214240E+01  0.24791871041E+02 -0.34669568170E+02  0.47787268448E+02  0.19999988164E+02 0.  0.
         12    1    1    2    0    0 -0.81858214240E+01 -0.24791871041E+02  0.34669568170E+02  0.43400731552E+02  0.00000000000E+00 0. -1.
         11    1    3    3    0    0  0.34112634809E+01  0.35087350771E+01 -0.31150085085E+01  0.58009670441E+01  0.51100000000E-03 0. -1.
        -11    1    3    3    0    0 -0.54073405040E+01  0.26218517548E+01 -0.10301747253E+02  0.11926417512E+02  0.51100000000E-03 0.  1.
        -12    1    3    3    0    0  0.10181898447E+02  0.18661284209E+02 -0.21252812409E+02  0.30059883892E+02  0.00000000000E+00 0.  1.
</event>
<event>
 7    1  0.5038211E-009  0.4778727E+02  0.7816164E-02  0.1312668E+00
        -11   -1    0    0    0    0  0.00000000000E+00  0.00000000000E+00  0.45593999997E+02  0.45594000000E+02  0.51100000000E-03 0.  1.
         11   -1    0    0    0    0 -0.00000000000E+00 -0.00000000000E+00 -0.45593999997E+02  0.45594000000E+02  0.51100000000E-03 0. -1.
    9900012    2    1    2    0    0 -0.73985704679E+01 -0.31369676124E+02  0.29065920941E+02  0.47787272066E+02  0.20000004658E+02 0.  0.
         12    1    1    2    0    0  0.73985704679E+01  0.31369676124E+02 -0.29065920941E+02  0.43400727934E+02  0.00000000000E+00 0. -1.
         11    1    3    3    0    0 -0.13521383136E+02 -0.21709789915E+02  0.22137358893E+02  0.33826105881E+02  0.51100000000E-03 0.  1.
        -11    1    3    3    0    0  0.54179687037E+01 -0.99706400740E+01  0.64148099748E+01  0.13035253570E+02  0.51100000000E-03 0. -1.
        -12    1    3    3    0    0  0.70484396444E+00  0.31075386482E+00  0.51375207300E+00  0.92591261533E+00  0.00000000000E+00 0.  1.
</event>
<event>
 7    1  0.5038211E-009  0.4778727E+02  0.7816164E-02  0.1312668E+00
        -11   -1    0    0    0    0  0.00000000000E+00  0.00000000000E+00  0.45593999997E+02  0.45594000000E+02  0.51100000000E-03 0. -1.
         11   -1    0    0    0    0 -0.00000000000E+00 -0.00000000000E+00 -0.45593999997E+02  0.45594000000E+02  0.51100000000E-03 0.  1.
    9900012    2    1    2    0    0  0.27983112585E+02  0.27163374977E+02 -0.19045196089E+02  0.47787273921E+02  0.20000013116E+02 0.  0.
         12    1    1    2    0    0 -0.27983112585E+02 -0.27163374977E+02  0.19045196089E+02  0.43400726079E+02  0.00000000000E+00 0. -1.
         11    1    3    3    0    0 -0.19629178044E+00  0.34486450830E+01 -0.17187133034E+01  0.38581937551E+01  0.51100000000E-03 0.  1.
        -11    1    3    3    0    0  0.11320462016E+00  0.38042010010E+01 -0.70573055069E+01  0.80181245826E+01  0.51100000000E-03 0. -1.
        -12    1    3    3    0    0  0.28066199745E+02  0.19910528893E+02 -0.10269177279E+02  0.35910955584E+02  0.00000000000E+00 0.  1.
</event>
<event>
 7    1  0.5038211E-009  0.4778727E+02  0.7816164E-02  0.1312668E+00
        -11   -1    0    0    0    0  0.00000000000E+00  0.00000000000E+00  0.45593999997E+02  0.45594000000E+02  0.51100000000E-03 0.  1.
         11   -1    0    0    0    0 -0.00000000000E+00 -0.00000000000E+00 -0.45593999997E+02  0.45594000000E+02  0.51100000000E-03 0. -1.
    9900012    2    1    2    0    0  0.44250050180E+01  0.42617164106E+02 -0.69151871119E+01  0.47787272372E+02  0.20000006051E+02 0.  0.
         12    1    1    2    0    0 -0.44250050180E+01 -0.42617164106E+02  0.69151871119E+01  0.43400727628E+02  0.00000000000E+00 0. -1.
         11    1    3    3    0    0  0.24680710355E+01  0.26411187375E+00 -0.16636716870E+01  0.29881321024E+01  0.51100000000E-03 0. -1.
        -11    1    3    3    0    0  0.72077173104E+00  0.36386220430E+02  0.53298059661E+00  0.36397261129E+02  0.51100000000E-03 0.  1.
        -12    1    3    3    0    0  0.12361622515E+01  0.59668318025E+01 -0.57844960215E+01  0.84018791406E+01  0.00000000000E+00 0.  1.
</event>
<event>
 7    1  0.5038211E-009  0.4778727E+02  0.7816164E-02  0.1312668E+00
        -11   -1    0    0    0    0  0.00000000000E+00  0.00000000000E+00  0.45593999997E+02  0.45594000000E+02  0.51100000000E-03 0.  1.
         11   -1    0    0    0    0 -0.00000000000E+00 -0.00000000000E+00 -0.45593999997E+02  0.45594000000E+02  0.51100000000E-03 0. -1.
    9900012    2    1    2    0    0 -0.10418759282E+02  0.24419299672E+02  0.34333227160E+02  0.47787271565E+02  0.20000002374E+02 0.  0.
         12    1    1    2    0    0  0.10418759282E+02 -0.24419299672E+02 -0.34333227160E+02  0.43400728435E+02  0.00000000000E+00 0. -1.
         11    1    3    3    0    0 -0.78976036558E+01  0.87040824710E+01  0.25163088951E+02  0.27772544733E+02  0.51100000000E-03 0. -1.
        -11    1    3    3    0    0 -0.46759668513E+00  0.13811990166E+02  0.10041047439E+02  0.17082516001E+02  0.51100000000E-03 0.  1.
         12    1    3    3    0    0 -0.20535589413E+01  0.19032270344E+01 -0.87090922895E+00  0.29322108305E+01  0.00000000000E+00 0. -1.
</event>
<event>
 7    1  0.5038211E-009  0.4778726E+02  0.7816164E-02  0.1312668E+00
        -11   -1    0    0    0    0  0.00000000000E+00  0.00000000000E+00  0.45593999997E+02  0.45594000000E+02  0.51100000000E-03 0.  1.
         11   -1    0    0    0    0 -0.00000000000E+00 -0.00000000000E+00 -0.45593999997E+02  0.45594000000E+02  0.51100000000E-03 0. -1.
    9900012    2    1    2    0    0 -0.87880397495E+00 -0.36306599168E+02  0.23763060906E+02  0.47787256882E+02  0.19999935426E+02 0.  0.
         12    1    1    2    0    0  0.87880397495E+00  0.36306599168E+02 -0.23763060906E+02  0.43400743118E+02  0.00000000000E+00 0. -1.
         11    1    3    3    0    0  0.30904547177E+01 -0.12164097911E+02 -0.64244275138E+00  0.12566977414E+02  0.51100000000E-03 0. -1.
        -11    1    3    3    0    0  0.98724598687E+00 -0.12872950256E+02  0.14531906690E+02  0.19438719486E+02  0.51100000000E-03 0.  1.
         12    1    3    3    0    0 -0.49565046795E+01 -0.11269551001E+02  0.98735969674E+01  0.15781559982E+02  0.00000000000E+00 0. -1.
</event>
<event>
 7    1  0.5038211E-009  0.4778727E+02  0.7816164E-02  0.1312668E+00
        -11   -1    0    0    0    0  0.00000000000E+00  0.00000000000E+00  0.45593999997E+02  0.45594000000E+02  0.51100000000E-03 0. -1.
         11   -1    0    0    0    0 -0.00000000000E+00 -0.00000000000E+00 -0.45593999997E+02  0.45594000000E+02  0.51100000000E-03 0.  1.
    9900012    2    1    2    0    0 -0.29287773938E+02 -0.19978280862E+00  0.32028271364E+02  0.47787265191E+02  0.19999973312E+02 0.  0.
         12    1    1    2    0    0  0.29287773938E+02  0.19978280862E+00 -0.32028271364E+02  0.43400734809E+02  0.00000000000E+00 0. -1.
         11    1    3    3    0    0 -0.21913758002E+02 -0.71119927305E+01  0.23756395838E+02  0.33093195279E+02  0.51100000000E-03 0. -1.
        -11    1    3    3    0    0 -0.84727556911E+01  0.52535123482E+01  0.58470435012E+01  0.11557460749E+02  0.51100000000E-03 0.  1.
         12    1    3    3    0    0  0.10987397550E+01  0.16586975737E+01  0.24248320252E+01  0.31366091629E+01  0.00000000000E+00 0. -1.
</event>
<event>
 7    1  0.5038211E-009  0.4778727E+02  0.7816164E-02  0.1312668E+00
        -11   -1    0    0    0    0  0.00000000000E+00  0.00000000000E+00  0.45593999997E+02  0.45594000000E+02  0.51100000000E-03 0. -1.
         11   -1    0    0    0    0 -0.00000000000E+00 -0.00000000000E+00 -0.45593999997E+02  0.45594000000E+02  0.51100000000E-03 0.  1.
    9900012    2    1    2    0    0  0.24462786374E+02 -0.23891549398E+02 -0.26728055475E+02  0.47787274207E+02  0.20000014421E+02 0.  0.
         12    1    1    2    0    0 -0.24462786374E+02  0.23891549398E+02  0.26728055475E+02  0.43400725793E+02  0.00000000000E+00 0. -1.
         11    1    3    3    0    0  0.10804186026E+02  0.25825404915E+00 -0.96501943894E+01  0.14488732962E+02  0.51100000000E-03 0. -1.
        -11    1    3    3    0    0  0.79892226169E+01 -0.16046002665E+02 -0.71891687841E+01  0.19312846181E+02  0.51100000000E-03 0.  1.
         12    1    3    3    0    0  0.56693777312E+01 -0.81038007815E+01 -0.98886923019E+01  0.13985695063E+02  0.00000000000E+00 0. -1.
</event>
<event>
 7    1  0.5038211E-009  0.4778727E+02  0.7816164E-02  0.1312668E+00
        -11   -1    0    0    0    0  0.00000000000E+00  0.00000000000E+00  0.45593999997E+02  0.45594000000E+02  0.51100000000E-03 0. -1.
         11   -1    0    0    0    0 -0.00000000000E+00 -0.00000000000E+00 -0.45593999997E+02  0.45594000000E+02  0.51100000000E-03 0.  1.
    9900012    2    1    2    0    0  0.72008255267E+01  0.38848124660E+02 -0.17960917208E+02  0.47787271609E+02  0.20000002576E+02 0.  0.
         12    1    1    2    0    0 -0.72008255267E+01 -0.38848124660E+02  0.17960917208E+02  0.43400728391E+02  0.00000000000E+00 0. -1.
         11    1    3    3    0    0  0.48112129089E+01  0.15412301129E+02  0.21899372065E+01  0.16293637438E+02  0.51100000000E-03 0. -1.
        -11    1    3    3    0    0  0.30734307509E+01  0.18252080906E+02 -0.12928176728E+02  0.22577027877E+02  0.51100000000E-03 0.  1.
         12    1    3    3    0    0 -0.68381813315E+00  0.51837426252E+01 -0.72226776864E+01  0.89166062941E+01  0.00000000000E+00 0. -1.
</event>
<event>
 7    1  0.5038211E-009  0.4778727E+02  0.7816164E-02  0.1312668E+00
        -11   -1    0    0    0    0  0.00000000000E+00  0.00000000000E+00  0.45593999997E+02  0.45594000000E+02  0.51100000000E-03 0. -1.
         11   -1    0    0    0    0 -0.00000000000E+00 -0.00000000000E+00 -0.45593999997E+02  0.45594000000E+02  0.51100000000E-03 0.  1.
    9900012    2    1    2    0    0 -0.27706772914E+02  0.33370402282E+02 -0.15409026843E+01  0.47787269651E+02  0.19999993646E+02 0.  0.
         12    1    1    2    0    0  0.27706772914E+02 -0.33370402282E+02  0.15409026843E+01  0.43400730349E+02  0.00000000000E+00 0. -1.
         11    1    3    3    0    0 -0.54102661545E+01  0.36144349115E+00  0.35172379155E+01  0.64631713636E+01  0.51100000000E-03 0. -1.
        -11    1    3    3    0    0 -0.99555749754E+01  0.20445926675E+02 -0.65086399794E+01  0.23654001466E+02  0.51100000000E-03 0.  1.
         12    1    3    3    0    0 -0.12340931784E+02  0.12563032116E+02  0.14504993797E+01  0.17670096821E+02  0.00000000000E+00 0. -1.
</event>
<event>
 7    1  0.5038211E-009  0.4778727E+02  0.7816164E-02  0.1312668E+00
        -11   -1    0    0    0    0  0.00000000000E+00  0.00000000000E+00  0.45593999997E+02  0.45594000000E+02  0.51100000000E-03 0.  1.
         11   -1    0    0    0    0 -0.00000000000E+00 -0.00000000000E+00 -0.45593999997E+02  0.45594000000E+02  0.51100000000E-03 0. -1.
    9900012    2    1    2    0    0  0.39173577584E+01  0.85786801376E+01  0.42363709693E+02  0.47787270241E+02  0.19999996335E+02 0.  0.
         12    1    1    2    0    0 -0.39173577584E+01 -0.85786801376E+01 -0.42363709693E+02  0.43400729759E+02  0.00000000000E+00 0. -1.
         11    1    3    3    0    0  0.13311090704E+01  0.44629658534E+01  0.24177907550E+01  0.52474401342E+01  0.51100000000E-03 0. -1.
        -11    1    3    3    0    0  0.88212127536E+00 -0.49193908395E+01  0.19346128930E+02  0.19981272458E+02  0.51100000000E-03 0.  1.
        -12    1    3    3    0    0  0.17041274126E+01  0.90351051237E+01  0.20599790007E+02  0.22558557649E+02  0.00000000000E+00 0.  1.
</event>
<event>
 7    1  0.5038211E-009  0.4778727E+02  0.7816164E-02  0.1312668E+00
        -11   -1    0    0    0    0  0.00000000000E+00  0.00000000000E+00  0.45593999997E+02  0.45594000000E+02  0.51100000000E-03 0.  1.
         11   -1    0    0    0    0 -0.00000000000E+00 -0.00000000000E+00 -0.45593999997E+02  0.45594000000E+02  0.51100000000E-03 0. -1.
    9900012    2    1    2    0    0 -0.83248400632E+01  0.25511756484E+02  0.34109683460E+02  0.47787272048E+02  0.20000004576E+02 0.  0.
         12    1    1    2    0    0  0.83248400632E+01 -0.25511756484E+02 -0.34109683460E+02  0.43400727952E+02  0.00000000000E+00 0. -1.
         11    1    3    3    0    0  0.14701181294E+01  0.10434855978E+02  0.60242502829E+01  0.12138330130E+02  0.51100000000E-03 0. -1.
        -11    1    3    3    0    0 -0.85779755613E+01  0.31570266273E+01  0.17117934250E+02  0.19405467145E+02  0.51100000000E-03 0.  1.
         12    1    3    3    0    0 -0.12169826313E+01  0.11919873879E+02  0.10967498928E+02  0.16243474774E+02  0.00000000000E+00 0. -1.
</event>
<event>
 7    1  0.5038211E-009  0.4778727E+02  0.7816164E-02  0.1312668E+00
        -11   -1    0    0    0    0  0.00000000000E+00  0.00000000000E+00  0.45593999997E+02  0.45594000000E+02  0.51100000000E-03 0.  1.
         11   -1    0    0    0    0 -0.00000000000E+00 -0.00000000000E+00 -0.45593999997E+02  0.45594000000E+02  0.51100000000E-03 0. -1.
    9900012    2    1    2    0    0  0.27179032490E+02 -0.27524111974E+01  0.33724585796E+02  0.47787271186E+02  0.20000000645E+02 0.  0.
         12    1    1    2    0    0 -0.27179032490E+02  0.27524111974E+01 -0.33724585796E+02  0.43400728814E+02  0.00000000000E+00 0. -1.
         11    1    3    3    0    0  0.24508771217E+02 -0.17142655965E+01  0.14895822737E+02  0.28731587294E+02  0.51100000000E-03 0. -1.
        -11    1    3    3    0    0  0.12975323007E+01 -0.19379897078E+00  0.91753703791E+01  0.92686876076E+01  0.51100000000E-03 0.  1.
         12    1    3    3    0    0  0.13727289720E+01 -0.84434663013E+00  0.96533926791E+01  0.97869962848E+01  0.00000000000E+00 0. -1.
</event>
<event>
 7    1  0.5038211E-009  0.4778728E+02  0.7816164E-02  0.1312668E+00
        -11   -1    0    0    0    0  0.00000000000E+00  0.00000000000E+00  0.45593999997E+02  0.45594000000E+02  0.51100000000E-03 0. -1.
         11   -1    0    0    0    0 -0.00000000000E+00 -0.00000000000E+00 -0.45593999997E+02  0.45594000000E+02  0.51100000000E-03 0.  1.
    9900012    2    1    2    0    0  0.73308703249E-01 -0.42415613866E+02  0.91941934165E+01  0.47787275739E+02  0.20000021407E+02 0.  0.
         12    1    1    2    0    0 -0.73308703249E-01  0.42415613866E+02 -0.91941934165E+01  0.43400724261E+02  0.00000000000E+00 0. -1.
         11    1    3    3    0    0 -0.48431696849E+01 -0.21116210887E+01  0.26826243701E+01  0.59255134791E+01  0.51100000000E-03 0. -1.
        -11    1    3    3    0    0  0.28685121300E+01 -0.20132140956E+02 -0.68476794189E+00  0.20346999010E+02  0.51100000000E-03 0.  1.
        -12    1    3    3    0    0  0.20479662581E+01 -0.20171851821E+02  0.71963369883E+01  0.21514763251E+02  0.00000000000E+00 0.  1.
</event>
<event>
 7    1  0.5038211E-009  0.4778727E+02  0.7816164E-02  0.1312668E+00
        -11   -1    0    0    0    0  0.00000000000E+00  0.00000000000E+00  0.45593999997E+02  0.45594000000E+02  0.51100000000E-03 0.  1.
         11   -1    0    0    0    0 -0.00000000000E+00 -0.00000000000E+00 -0.45593999997E+02  0.45594000000E+02  0.51100000000E-03 0. -1.
    9900012    2    1    2    0    0  0.19233620758E+02  0.37027385172E+02  0.11944207011E+02  0.47787268425E+02  0.19999988057E+02 0.  0.
         12    1    1    2    0    0 -0.19233620758E+02 -0.37027385172E+02 -0.11944207011E+02  0.43400731575E+02  0.00000000000E+00 0. -1.
         11    1    3    3    0    0  0.80272035304E+01  0.61150102556E+01 -0.32192938442E+00  0.10096186693E+02  0.51100000000E-03 0. -1.
        -11    1    3    3    0    0  0.12016489156E+02  0.31642880942E+02  0.13124369428E+02  0.36303126574E+02  0.51100000000E-03 0.  1.
        -12    1    3    3    0    0 -0.81007192822E+00 -0.73050602567E+00 -0.85823303243E+00  0.13879551579E+01  0.00000000000E+00 0.  1.
</event>
<event>
 7    1  0.5038211E-009  0.4778727E+02  0.7816164E-02  0.1312668E+00
        -11   -1    0    0    0    0  0.00000000000E+00  0.00000000000E+00  0.45593999997E+02  0.45594000000E+02  0.51100000000E-03 0.  1.
         11   -1    0    0    0    0 -0.00000000000E+00 -0.00000000000E+00 -0.45593999997E+02  0.45594000000E+02  0.51100000000E-03 0. -1.
    9900012    2    1    2    0    0  0.17410888329E+02 -0.24892727047E+02  0.30997357088E+02  0.47787273754E+02  0.20000012354E+02 0.  0.
         12    1    1    2    0    0 -0.17410888329E+02  0.24892727047E+02 -0.30997357088E+02  0.43400726246E+02  0.00000000000E+00 0. -1.
         11    1    3    3    0    0  0.40586167788E+01  0.80432599679E+00  0.58272549516E+01  0.71467622738E+01  0.51100000000E-03 0. -1.
        -11    1    3    3    0    0  0.37099954122E+01 -0.17032974003E+02  0.81429442154E+01  0.19240421256E+02  0.51100000000E-03 0.  1.
        -12    1    3    3    0    0  0.96422761383E+01 -0.86640790413E+01  0.17027157921E+02  0.21400090224E+02  0.00000000000E+00 0.  1.
</event>
<event>
 7    1  0.5038211E-009  0.4778727E+02  0.7816164E-02  0.1312668E+00
        -11   -1    0    0    0    0  0.00000000000E+00  0.00000000000E+00  0.45593999997E+02  0.45594000000E+02  0.51100000000E-03 0. -1.
         11   -1    0    0    0    0 -0.00000000000E+00 -0.00000000000E+00 -0.45593999997E+02  0.45594000000E+02  0.51100000000E-03 0.  1.
    9900012    2    1    2    0    0  0.25504682461E+02 -0.13460867962E+02 -0.32433616828E+02  0.47787270810E+02  0.19999998929E+02 0.  0.
         12    1    1    2    0    0 -0.25504682461E+02  0.13460867962E+02  0.32433616828E+02  0.43400729190E+02  0.00000000000E+00 0. -1.
         11    1    3    3    0    0  0.15082164290E+01 -0.90044083640E+01 -0.13492029420E+02  0.16290762564E+02  0.51100000000E-03 0. -1.
        -11    1    3    3    0    0  0.16447701471E+02 -0.43749879478E+00 -0.10748146521E+02  0.19653013580E+02  0.51100000000E-03 0.  1.
        -12    1    3    3    0    0  0.75487645613E+01 -0.40189608035E+01 -0.81934408867E+01  0.11843494666E+02  0.00000000000E+00 0.  1.
</event>
<event>
 7    1  0.5038211E-009  0.4778725E+02  0.7816164E-02  0.1312668E+00
        -11   -1    0    0    0    0  0.00000000000E+00  0.00000000000E+00  0.45593999997E+02  0.45594000000E+02  0.51100000000E-03 0. -1.
         11   -1    0    0    0    0 -0.00000000000E+00 -0.00000000000E+00 -0.45593999997E+02  0.45594000000E+02  0.51100000000E-03 0.  1.
    9900012    2    1    2    0    0 -0.20119467667E+02 -0.33127587946E+02 -0.19529344858E+02  0.47787246863E+02  0.19999889745E+02 0.  0.
         12    1    1    2    0    0  0.20119467667E+02  0.33127587946E+02  0.19529344858E+02  0.43400753137E+02  0.00000000000E+00 0. -1.
         11    1    3    3    0    0 -0.62377605971E+01 -0.11066465597E+01 -0.59944144626E+01  0.87216586086E+01  0.51100000000E-03 0. -1.
        -11    1    3    3    0    0 -0.52136045391E+01 -0.24850386971E+02 -0.96756884193E+01  0.27172455751E+02  0.51100000000E-03 0.  1.
        -12    1    3    3    0    0 -0.86681025307E+01 -0.71705544154E+01 -0.38592419758E+01  0.11893132503E+02  0.00000000000E+00 0.  1.
</event>
<event>
 7    1  0.5038211E-009  0.4778727E+02  0.7816164E-02  0.1312668E+00
        -11   -1    0    0    0    0  0.00000000000E+00  0.00000000000E+00  0.45593999997E+02  0.45594000000E+02  0.51100000000E-03 0. -1.
         11   -1    0    0    0    0 -0.00000000000E+00 -0.00000000000E+00 -0.45593999997E+02  0.45594000000E+02  0.51100000000E-03 0.  1.
    9900012    2    1    2    0    0 -0.27416394766E+02 -0.29735466061E+02 -0.15740605377E+02  0.47787270726E+02  0.19999998550E+02 0.  0.
         12    1    1    2    0    0  0.27416394766E+02  0.29735466061E+02  0.15740605377E+02  0.43400729274E+02  0.00000000000E+00 0. -1.
         11    1    3    3    0    0 -0.69938112250E+01 -0.33542474639E+01 -0.11304316310E+02  0.13709556484E+02  0.51100000000E-03 0. -1.
        -11    1    3    3    0    0 -0.12353407482E+02 -0.12022692137E+02 -0.11036284534E+01  0.17273384111E+02  0.51100000000E-03 0.  1.
         12    1    3    3    0    0 -0.80691760593E+01 -0.14358526460E+02 -0.33326606138E+01  0.16804330131E+02  0.00000000000E+00 0. -1.
</event>
<event>
 7    1  0.5038211E-009  0.4778727E+02  0.7816164E-02  0.1312668E+00
        -11   -1    0    0    0    0  0.00000000000E+00  0.00000000000E+00  0.45593999997E+02  0.45594000000E+02  0.51100000000E-03 0. -1.
         11   -1    0    0    0    0 -0.00000000000E+00 -0.00000000000E+00 -0.45593999997E+02  0.45594000000E+02  0.51100000000E-03 0.  1.
    9900012    2    1    2    0    0 -0.43049860739E+02 -0.15718228362E+01  0.52784380360E+01  0.47787273684E+02  0.20000012035E+02 0.  0.
         12    1    1    2    0    0  0.43049860739E+02  0.15718228362E+01 -0.52784380360E+01  0.43400726316E+02  0.00000000000E+00 0. -1.
         11    1    3    3    0    0 -0.21479454234E+02 -0.95218670415E+01  0.33257993429E+01  0.23729598557E+02  0.51100000000E-03 0. -1.
        -11    1    3    3    0    0 -0.13801432201E+02  0.44145146497E+01 -0.20422214743E+01  0.14633459577E+02  0.51100000000E-03 0.  1.
        -12    1    3    3    0    0 -0.77689743039E+01  0.35355295556E+01  0.39948601674E+01  0.94242155498E+01  0.00000000000E+00 0.  1.
</event>
<event>
 7    1  0.5038211E-009  0.4778727E+02  0.7816164E-02  0.1312668E+00
        -11   -1    0    0    0    0  0.00000000000E+00  0.00000000000E+00  0.45593999997E+02  0.45594000000E+02  0.51100000000E-03 0.  1.
         11   -1    0    0    0    0 -0.00000000000E+00 -0.00000000000E+00 -0.45593999997E+02  0.45594000000E+02  0.51100000000E-03 0. -1.
    9900012    2    1    2    0    0  0.12586456306E+02  0.34791102737E+02  0.22688843349E+02  0.47787270461E+02  0.19999997339E+02 0.  0.
         12    1    1    2    0    0 -0.12586456306E+02 -0.34791102737E+02 -0.22688843349E+02  0.43400729539E+02  0.00000000000E+00 0. -1.
         11    1    3    3    0    0  0.13786269531E+02  0.13407456857E+02  0.13290060694E+02  0.23376202439E+02  0.51100000000E-03 0. -1.
        -11    1    3    3    0    0 -0.50157917525E+00  0.18988820515E+02  0.54878187666E+01  0.19772279618E+02  0.51100000000E-03 0.  1.
        -12    1    3    3    0    0 -0.69823404979E+00  0.23948253647E+01  0.39109638884E+01  0.46387884034E+01  0.00000000000E+00 0.  1.
</event>
<event>
 7    1  0.5038211E-009  0.4778728E+02  0.7816164E-02  0.1312668E+00
        -11   -1    0    0    0    0  0.00000000000E+00  0.00000000000E+00  0.45593999997E+02  0.45594000000E+02  0.51100000000E-03 0. -1.
         11   -1    0    0    0    0 -0.00000000000E+00 -0.00000000000E+00 -0.45593999997E+02  0.45594000000E+02  0.51100000000E-03 0.  1.
    9900012    2    1    2    0    0  0.79667696373E+01  0.38058737002E+02 -0.19279160217E+02  0.47787275359E+02  0.20000019672E+02 0.  0.
         12    1    1    2    0    0 -0.79667696373E+01 -0.38058737002E+02  0.19279160217E+02  0.43400724641E+02  0.00000000000E+00 0. -1.
         11    1    3    3    0    0  0.89223102329E+01  0.11549186207E+02 -0.15438859248E+01  0.14675656917E+02  0.51100000000E-03 0. -1.
        -11    1    3    3    0    0  0.29787521716E+01  0.11270556875E+02 -0.43231210158E+01  0.12433333919E+02  0.51100000000E-03 0.  1.
         12    1    3    3    0    0 -0.39342927671E+01  0.15238993921E+02 -0.13412153277E+02  0.20678284523E+02  0.00000000000E+00 0. -1.
</event>
<event>
 7    1  0.5038211E-009  0.4778731E+02  0.7816164E-02  0.1312668E+00
        -11   -1    0    0    0    0  0.00000000000E+00  0.00000000000E+00  0.45593999997E+02  0.45594000000E+02  0.51100000000E-03 0.  1.
         11   -1    0    0    0    0 -0.00000000000E+00 -0.00000000000E+00 -0.45593999997E+02  0.45594000000E+02  0.51100000000E-03 0. -1.
    9900012    2    1    2    0    0 -0.18253777421E+02 -0.95559900118E+01  0.38198198219E+02  0.47787312420E+02  0.20000188646E+02 0.  0.
         12    1    1    2    0    0  0.18253777421E+02  0.95559900118E+01 -0.38198198219E+02  0.43400687580E+02  0.00000000000E+00 0. -1.
         11    1    3    3    0    0  0.25841504684E+01 -0.94154464682E+00  0.86454106477E+01  0.90723461957E+01  0.51100000000E-03 0. -1.
        -11    1    3    3    0    0 -0.45309153292E+01  0.51178129837E+00  0.12908639245E+02  0.13690291496E+02  0.51100000000E-03 0.  1.
         12    1    3    3    0    0 -0.16307012560E+02 -0.91262266634E+01  0.16644148326E+02  0.25024674728E+02  0.00000000000E+00 0. -1.
</event>
<event>
 7    1  0.5038211E-009  0.4778729E+02  0.7816164E-02  0.1312668E+00
        -11   -1    0    0    0    0  0.00000000000E+00  0.00000000000E+00  0.45593999997E+02  0.45594000000E+02  0.51100000000E-03 0. -1.
         11   -1    0    0    0    0 -0.00000000000E+00 -0.00000000000E+00 -0.45593999997E+02  0.45594000000E+02  0.51100000000E-03 0.  1.
    9900012    2    1    2    0    0  0.52723124648E+01  0.15552106239E+02 -0.40174077907E+02  0.47787287761E+02  0.20000076218E+02 0.  0.
         12    1    1    2    0    0 -0.52723124648E+01 -0.15552106239E+02  0.40174077907E+02  0.43400712239E+02  0.00000000000E+00 0. -1.
         11    1    3    3    0    0  0.23909789106E+01  0.55843473187E+00  0.89228494323E+00  0.26124322348E+01  0.51100000000E-03 0. -1.
        -11    1    3    3    0    0  0.13377635755E+01  0.16519644752E+02 -0.37510947450E+02  0.41009260576E+02  0.51100000000E-03 0.  1.
        -12    1    3    3    0    0  0.15435699787E+01 -0.15259732455E+01 -0.35554154001E+01  0.41655949506E+01  0.00000000000E+00 0.  1.
</event>
<event>
 7    1  0.5038211E-009  0.4778727E+02  0.7816164E-02  0.1312668E+00
        -11   -1    0    0    0    0  0.00000000000E+00  0.00000000000E+00  0.45593999997E+02  0.45594000000E+02  0.51100000000E-03 0.  1.
         11   -1    0    0    0    0 -0.00000000000E+00 -0.00000000000E+00 -0.45593999997E+02  0.45594000000E+02  0.51100000000E-03 0. -1.
    9900012    2    1    2    0    0 -0.40279652036E+02 -0.68785611673E+01  0.14623890873E+02  0.47787272401E+02  0.20000006184E+02 0.  0.
         12    1    1    2    0    0  0.40279652036E+02  0.68785611673E+01 -0.14623890873E+02  0.43400727599E+02  0.00000000000E+00 0. -1.
         11    1    3    3    0    0 -0.21234877933E+01 -0.20574978097E+01 -0.81485818347E+00  0.30670004509E+01  0.51100000000E-03 0. -1.
        -11    1    3    3    0    0 -0.15406046109E+02 -0.29384729459E+01 -0.22457556907E+01  0.15843746364E+02  0.51100000000E-03 0.  1.
        -12    1    3    3    0    0 -0.22750118134E+02 -0.18825904117E+01  0.17684504747E+02  0.28876525586E+02  0.00000000000E+00 0.  1.
</event>
<event>
 7    1  0.5038211E-009  0.4778728E+02  0.7816164E-02  0.1312668E+00
        -11   -1    0    0    0    0  0.00000000000E+00  0.00000000000E+00  0.45593999997E+02  0.45594000000E+02  0.51100000000E-03 0.  1.
         11   -1    0    0    0    0 -0.00000000000E+00 -0.00000000000E+00 -0.45593999997E+02  0.45594000000E+02  0.51100000000E-03 0. -1.
    9900012    2    1    2    0    0  0.48528505377E+01  0.35225850503E+02  0.24883974301E+02  0.47787275594E+02  0.20000020742E+02 0.  0.
         12    1    1    2    0    0 -0.48528505377E+01 -0.35225850503E+02 -0.24883974301E+02  0.43400724406E+02  0.00000000000E+00 0. -1.
         11    1    3    3    0    0  0.30229359741E+01  0.34059950843E+01 -0.13587772096E+01  0.47523909966E+01  0.51100000000E-03 0. -1.
        -11    1    3    3    0    0 -0.15692966058E+01  0.30340208258E+02  0.22924630238E+02  0.38059553344E+02  0.51100000000E-03 0.  1.
        -12    1    3    3    0    0  0.33992111694E+01  0.14796471607E+01  0.33181212724E+01  0.49753312525E+01  0.00000000000E+00 0.  1.
</event>
<event>
 7    1  0.5038211E-009  0.4778727E+02  0.7816164E-02  0.1312668E+00
        -11   -1    0    0    0    0  0.00000000000E+00  0.00000000000E+00  0.45593999997E+02  0.45594000000E+02  0.51100000000E-03 0.  1.
         11   -1    0    0    0    0 -0.00000000000E+00 -0.00000000000E+00 -0.45593999997E+02  0.45594000000E+02  0.51100000000E-03 0. -1.
    9900012    2    1    2    0    0 -0.55915002055E+01  0.76336471438E+00  0.43032262192E+02  0.47787272015E+02  0.20000004425E+02 0.  0.
         12    1    1    2    0    0  0.55915002055E+01 -0.76336471438E+00 -0.43032262192E+02  0.43400727985E+02  0.00000000000E+00 0. -1.
         11    1    3    3    0    0  0.72204885144E+01 -0.11442740810E+00  0.17399384207E+02  0.18838447894E+02  0.51100000000E-03 0. -1.
        -11    1    3    3    0    0 -0.81473605615E+01  0.15480484588E+01  0.19683046640E+02  0.21358798267E+02  0.51100000000E-03 0.  1.
         12    1    3    3    0    0 -0.46646281584E+01 -0.67025633629E+00  0.59498313456E+01  0.75900258533E+01  0.00000000000E+00 0. -1.
</event>
<event>
 7    1  0.5038211E-009  0.4778727E+02  0.7816164E-02  0.1312668E+00
        -11   -1    0    0    0    0  0.00000000000E+00  0.00000000000E+00  0.45593999997E+02  0.45594000000E+02  0.51100000000E-03 0.  1.
         11   -1    0    0    0    0 -0.00000000000E+00 -0.00000000000E+00 -0.45593999997E+02  0.45594000000E+02  0.51100000000E-03 0. -1.
    9900012    2    1    2    0    0 -0.76018153640E+00  0.12402101803E+02  0.41584051643E+02  0.47787270097E+02  0.19999995678E+02 0.  0.
         12    1    1    2    0    0  0.76018153640E+00 -0.12402101803E+02 -0.41584051643E+02  0.43400729903E+02  0.00000000000E+00 0. -1.
         11    1    3    3    0    0 -0.43236737425E+01  0.19469263954E+01  0.52354448875E+01  0.70636081751E+01  0.51100000000E-03 0. -1.
        -11    1    3    3    0    0  0.91589239034E+01  0.57918332525E+01  0.24879180046E+02  0.27136779830E+02  0.51100000000E-03 0.  1.
        -12    1    3    3    0    0 -0.55954316972E+01  0.46633421549E+01  0.11469426710E+02  0.13586882092E+02  0.00000000000E+00 0.  1.
</event>
<event>
 7    1  0.5038211E-009  0.4778727E+02  0.7816164E-02  0.1312668E+00
        -11   -1    0    0    0    0  0.00000000000E+00  0.00000000000E+00  0.45593999997E+02  0.45594000000E+02  0.51100000000E-03 0. -1.
         11   -1    0    0    0    0 -0.00000000000E+00 -0.00000000000E+00 -0.45593999997E+02  0.45594000000E+02  0.51100000000E-03 0.  1.
    9900012    2    1    2    0    0 -0.20106580477E+02  0.38369761754E+02  0.26664889258E+01  0.47787270067E+02  0.19999995541E+02 0.  0.
         12    1    1    2    0    0  0.20106580477E+02 -0.38369761754E+02 -0.26664889258E+01  0.43400729933E+02  0.00000000000E+00 0. -1.
         11    1    3    3    0    0 -0.21381132946E+01  0.24854694693E+01  0.28438832798E+01  0.43401335594E+01  0.51100000000E-03 0.  1.
        -11    1    3    3    0    0  0.11674734315E+01 -0.24792901349E+00  0.21877106987E+01  0.24920957789E+01  0.51100000000E-03 0. -1.
        -12    1    3    3    0    0 -0.19135940614E+02  0.36132221299E+02 -0.23651050526E+01  0.40955040728E+02  0.00000000000E+00 0.  1.
</event>
<event>
 7    1  0.5038211E-009  0.4778727E+02  0.7816164E-02  0.1312668E+00
        -11   -1    0    0    0    0  0.00000000000E+00  0.00000000000E+00  0.45593999997E+02  0.45594000000E+02  0.51100000000E-03 0.  1.
         11   -1    0    0    0    0 -0.00000000000E+00 -0.00000000000E+00 -0.45593999997E+02  0.45594000000E+02  0.51100000000E-03 0. -1.
    9900012    2    1    2    0    0  0.10596433618E+01 -0.28574749881E+02  0.32649411407E+02  0.47787271435E+02  0.20000001779E+02 0.  0.
         12    1    1    2    0    0 -0.10596433618E+01  0.28574749881E+02 -0.32649411407E+02  0.43400728565E+02  0.00000000000E+00 0. -1.
         11    1    3    3    0    0  0.20757367906E+01 -0.83106926081E+01  0.37164052159E+01  0.93374494826E+01  0.51100000000E-03 0. -1.
        -11    1    3    3    0    0 -0.69952053152E+01 -0.12050684141E+02  0.10664790703E+02  0.17546784511E+02  0.51100000000E-03 0.  1.
        -12    1    3    3    0    0  0.59791118863E+01 -0.82133731316E+01  0.18268215488E+02  0.20903037441E+02  0.00000000000E+00 0.  1.
</event>
<event>
 7    1  0.5038211E-009  0.4778727E+02  0.7816164E-02  0.1312668E+00
        -11   -1    0    0    0    0  0.00000000000E+00  0.00000000000E+00  0.45593999997E+02  0.45594000000E+02  0.51100000000E-03 0. -1.
         11   -1    0    0    0    0 -0.00000000000E+00 -0.00000000000E+00 -0.45593999997E+02  0.45594000000E+02  0.51100000000E-03 0.  1.
    9900012    2    1    2    0    0  0.27606293627E+02  0.20050653112E+02 -0.26823253581E+02  0.47787273385E+02  0.20000010672E+02 0.  0.
         12    1    1    2    0    0 -0.27606293627E+02 -0.20050653112E+02  0.26823253581E+02  0.43400726615E+02  0.00000000000E+00 0. -1.
         11    1    3    3    0    0  0.53757984647E+01  0.34166628150E+01  0.22686839586E+01  0.67616359773E+01  0.51100000000E-03 0. -1.
        -11    1    3    3    0    0  0.21103795487E+02  0.15154710944E+02 -0.23147528144E+02  0.34797176713E+02  0.51100000000E-03 0.  1.
         12    1    3    3    0    0  0.11266996747E+01  0.14792793535E+01 -0.59444093961E+01  0.62284606952E+01  0.00000000000E+00 0. -1.
</event>
<event>
 7    1  0.5038211E-009  0.4778727E+02  0.7816164E-02  0.1312668E+00
        -11   -1    0    0    0    0  0.00000000000E+00  0.00000000000E+00  0.45593999997E+02  0.45594000000E+02  0.51100000000E-03 0.  1.
         11   -1    0    0    0    0 -0.00000000000E+00 -0.00000000000E+00 -0.45593999997E+02  0.45594000000E+02  0.51100000000E-03 0. -1.
    9900012    2    1    2    0    0 -0.14598113100E+02  0.38448878415E+02  0.13863700811E+02  0.47787270080E+02  0.19999995601E+02 0.  0.
         12    1    1    2    0    0  0.14598113100E+02 -0.38448878415E+02 -0.13863700811E+02  0.43400729920E+02  0.00000000000E+00 0. -1.
         11    1    3    3    0    0  0.17051342378E+01  0.13677292101E+02  0.10543129613E+02  0.17353195218E+02  0.51100000000E-03 0. -1.
        -11    1    3    3    0    0 -0.66150464696E+00  0.39219413425E+01  0.16804295267E+01  0.43177605245E+01  0.51100000000E-03 0.  1.
         12    1    3    3    0    0 -0.15641742691E+02  0.20849644972E+02  0.16401416711E+01  0.26116314337E+02  0.00000000000E+00 0. -1.
</event>
<event>
 7    1  0.5038211E-009  0.4778726E+02  0.7816164E-02  0.1312668E+00
        -11   -1    0    0    0    0  0.00000000000E+00  0.00000000000E+00  0.45593999997E+02  0.45594000000E+02  0.51100000000E-03 0.  1.
         11   -1    0    0    0    0 -0.00000000000E+00 -0.00000000000E+00 -0.45593999997E+02  0.45594000000E+02  0.51100000000E-03 0. -1.
    9900012    2    1    2    0    0 -0.11676292652E+02  0.70345535880E+01  0.41204406425E+02  0.47787264256E+02  0.19999969047E+02 0.  0.
         12    1    1    2    0    0  0.11676292652E+02 -0.70345535880E+01 -0.41204406425E+02  0.43400735744E+02  0.00000000000E+00 0. -1.
         11    1    3    3    0    0  0.76990531545E+00  0.56152391856E+01  0.17020853572E+02  0.17939707965E+02  0.51100000000E-03 0. -1.
        -11    1    3    3    0    0 -0.52159062456E+01  0.41177639045E+01  0.19987244124E+02  0.21063038372E+02  0.51100000000E-03 0.  1.
         12    1    3    3    0    0 -0.72302917221E+01 -0.26984495021E+01  0.41963087297E+01  0.87845179184E+01  0.00000000000E+00 0. -1.
</event>
<event>
 7    1  0.5038211E-009  0.4778726E+02  0.7816164E-02  0.1312668E+00
        -11   -1    0    0    0    0  0.00000000000E+00  0.00000000000E+00  0.45593999997E+02  0.45594000000E+02  0.51100000000E-03 0.  1.
         11   -1    0    0    0    0 -0.00000000000E+00 -0.00000000000E+00 -0.45593999997E+02  0.45594000000E+02  0.51100000000E-03 0. -1.
    9900012    2    1    2    0    0 -0.11288839188E+02 -0.25739216100E+02  0.33070819105E+02  0.47787260238E+02  0.19999950727E+02 0.  0.
         12    1    1    2    0    0  0.11288839188E+02  0.25739216100E+02 -0.33070819105E+02  0.43400739762E+02  0.00000000000E+00 0. -1.
         11    1    3    3    0    0 -0.29131058252E+01 -0.75893036793E+01 -0.88041345569E+00  0.81767257506E+01  0.51100000000E-03 0. -1.
        -11    1    3    3    0    0 -0.56231313092E+01 -0.11114608604E+02  0.24729859375E+02  0.27689710636E+02  0.51100000000E-03 0.  1.
        -12    1    3    3    0    0 -0.27526020536E+01 -0.70353038160E+01  0.92213731861E+01  0.11920823851E+02  0.00000000000E+00 0.  1.
</event>
<event>
 7    1  0.5038211E-009  0.4778727E+02  0.7816164E-02  0.1312668E+00
        -11   -1    0    0    0    0  0.00000000000E+00  0.00000000000E+00  0.45593999997E+02  0.45594000000E+02  0.51100000000E-03 0.  1.
         11   -1    0    0    0    0 -0.00000000000E+00 -0.00000000000E+00 -0.45593999997E+02  0.45594000000E+02  0.51100000000E-03 0. -1.
    9900012    2    1    2    0    0 -0.25044456113E+02 -0.19917984922E+01  0.35389704225E+02  0.47787271799E+02  0.20000003439E+02 0.  0.
         12    1    1    2    0    0  0.25044456113E+02  0.19917984922E+01 -0.35389704225E+02  0.43400728201E+02  0.00000000000E+00 0. -1.
         11    1    3    3    0    0 -0.10946128305E+01 -0.32220786158E+01  0.14403699442E+02  0.14800220462E+02  0.51100000000E-03 0. -1.
        -11    1    3    3    0    0 -0.16727146019E+02  0.22635147658E+01  0.94710796795E+01  0.19355161162E+02  0.51100000000E-03 0.  1.
        -12    1    3    3    0    0 -0.72226972633E+01 -0.10332346423E+01  0.11514925104E+02  0.13631890175E+02  0.00000000000E+00 0.  1.
</event>
<event>
 7    1  0.5038211E-009  0.4778727E+02  0.7816164E-02  0.1312668E+00
        -11   -1    0    0    0    0  0.00000000000E+00  0.00000000000E+00  0.45593999997E+02  0.45594000000E+02  0.51100000000E-03 0.  1.
         11   -1    0    0    0    0 -0.00000000000E+00 -0.00000000000E+00 -0.45593999997E+02  0.45594000000E+02  0.51100000000E-03 0. -1.
    9900012    2    1    2    0    0  0.94357763240E+01  0.25630425888E+02  0.33729381011E+02  0.47787265566E+02  0.19999975020E+02 0.  0.
         12    1    1    2    0    0 -0.94357763240E+01 -0.25630425888E+02 -0.33729381011E+02  0.43400734434E+02  0.00000000000E+00 0. -1.
         11    1    3    3    0    0  0.44230389841E+01  0.11815313775E+02  0.37343872547E+01  0.13157148699E+02  0.51100000000E-03 0. -1.
        -11    1    3    3    0    0  0.53361743110E+01  0.45872924190E+01  0.19063828107E+02  0.20321110953E+02  0.51100000000E-03 0.  1.
         12    1    3    3    0    0 -0.32343697115E+00  0.92278196944E+01  0.10931165650E+02  0.14309005914E+02  0.00000000000E+00 0. -1.
</event>
<event>
 7    1  0.5038211E-009  0.4778727E+02  0.7816164E-02  0.1312668E+00
        -11   -1    0    0    0    0  0.00000000000E+00  0.00000000000E+00  0.45593999997E+02  0.45594000000E+02  0.51100000000E-03 0.  1.
         11   -1    0    0    0    0 -0.00000000000E+00 -0.00000000000E+00 -0.45593999997E+02  0.45594000000E+02  0.51100000000E-03 0. -1.
    9900012    2    1    2    0    0  0.30803389239E+02  0.12565317890E+02  0.27872701323E+02  0.47787268654E+02  0.19999989103E+02 0.  0.
         12    1    1    2    0    0 -0.30803389239E+02 -0.12565317890E+02 -0.27872701323E+02  0.43400731346E+02  0.00000000000E+00 0. -1.
         11    1    3    3    0    0  0.20958115538E+02  0.10182727930E+02  0.79425141614E+01  0.24617353360E+02  0.51100000000E-03 0. -1.
        -11    1    3    3    0    0  0.11445817379E+01  0.11892320534E+01  0.89930176041E+01  0.91432328047E+01  0.51100000000E-03 0.  1.
         12    1    3    3    0    0  0.87006919638E+01  0.11933579066E+01  0.10937169557E+02  0.14026682490E+02  0.00000000000E+00 0. -1.
</event>
<event>
 7    1  0.5038211E-009  0.4778727E+02  0.7816164E-02  0.1312668E+00
        -11   -1    0    0    0    0  0.00000000000E+00  0.00000000000E+00  0.45593999997E+02  0.45594000000E+02  0.51100000000E-03 0.  1.
         11   -1    0    0    0    0 -0.00000000000E+00 -0.00000000000E+00 -0.45593999997E+02  0.45594000000E+02  0.51100000000E-03 0. -1.
    9900012    2    1    2    0    0 -0.29740902421E+02  0.19974768041E+01  0.31545395983E+02  0.47787271917E+02  0.20000003980E+02 0.  0.
         12    1    1    2    0    0  0.29740902421E+02 -0.19974768041E+01 -0.31545395983E+02  0.43400728083E+02  0.00000000000E+00 0. -1.
         11    1    3    3    0    0 -0.45174699072E+01 -0.55119598532E+01  0.54213800361E+01  0.89543619283E+01  0.51100000000E-03 0. -1.
        -11    1    3    3    0    0 -0.24057718891E+02  0.40917980019E+01  0.19301552848E+02  0.31113768524E+02  0.51100000000E-03 0.  1.
         12    1    3    3    0    0 -0.11657136225E+01  0.34176386554E+01  0.68224630989E+01  0.77191414655E+01  0.00000000000E+00 0. -1.
</event>
<event>
 7    1  0.5038211E-009  0.4778727E+02  0.7816164E-02  0.1312668E+00
        -11   -1    0    0    0    0  0.00000000000E+00  0.00000000000E+00  0.45593999997E+02  0.45594000000E+02  0.51100000000E-03 0.  1.
         11   -1    0    0    0    0 -0.00000000000E+00 -0.00000000000E+00 -0.45593999997E+02  0.45594000000E+02  0.51100000000E-03 0. -1.
    9900012    2    1    2    0    0  0.38775254048E+02 -0.15452873425E+02  0.11887443625E+02  0.47787274896E+02  0.20000017563E+02 0.  0.
         12    1    1    2    0    0 -0.38775254048E+02  0.15452873425E+02 -0.11887443625E+02  0.43400725104E+02  0.00000000000E+00 0. -1.
         11    1    3    3    0    0  0.12911043306E+02  0.36073176598E+01  0.30424968386E+01  0.13746438346E+02  0.51100000000E-03 0.  1.
        -11    1    3    3    0    0  0.23960141196E+02 -0.15492531474E+02  0.61694812404E+01  0.29191940611E+02  0.51100000000E-03 0. -1.
        -12    1    3    3    0    0  0.19040695461E+01 -0.35676596108E+01  0.26754655462E+01  0.48488959387E+01  0.00000000000E+00 0.  1.
</event>
<event>
 7    1  0.5038211E-009  0.4778727E+02  0.7816164E-02  0.1312668E+00
        -11   -1    0    0    0    0  0.00000000000E+00  0.00000000000E+00  0.45593999997E+02  0.45594000000E+02  0.51100000000E-03 0. -1.
         11   -1    0    0    0    0 -0.00000000000E+00 -0.00000000000E+00 -0.45593999997E+02  0.45594000000E+02  0.51100000000E-03 0.  1.
    9900012    2    1    2    0    0 -0.14740135270E+02  0.13832413778E+02 -0.38405941572E+02  0.47787267210E+02  0.19999982516E+02 0.  0.
         12    1    1    2    0    0  0.14740135270E+02 -0.13832413778E+02  0.38405941572E+02  0.43400732790E+02  0.00000000000E+00 0. -1.
         11    1    3    3    0    0 -0.35725769775E+01  0.88691825871E+01 -0.23300629080E+02  0.25186206976E+02  0.51100000000E-03 0. -1.
        -11    1    3    3    0    0 -0.79885712242E+01  0.76800774797E+01 -0.60469819211E+01  0.12624058417E+02  0.51100000000E-03 0.  1.
         12    1    3    3    0    0 -0.31789870685E+01 -0.27168462886E+01 -0.90583305702E+01  0.99770018170E+01  0.00000000000E+00 0. -1.
</event>
<event>
 7    1  0.5038211E-009  0.4778727E+02  0.7816164E-02  0.1312668E+00
        -11   -1    0    0    0    0  0.00000000000E+00  0.00000000000E+00  0.45593999997E+02  0.45594000000E+02  0.51100000000E-03 0.  1.
         11   -1    0    0    0    0 -0.00000000000E+00 -0.00000000000E+00 -0.45593999997E+02  0.45594000000E+02  0.51100000000E-03 0. -1.
    9900012    2    1    2    0    0  0.68842225264E+01 -0.40163488350E+02 -0.14937365478E+02  0.47787271853E+02  0.20000003688E+02 0.  0.
         12    1    1    2    0    0 -0.68842225264E+01  0.40163488350E+02  0.14937365478E+02  0.43400728147E+02  0.00000000000E+00 0. -1.
         11    1    3    3    0    0  0.33811531928E+00 -0.12826137879E+02 -0.10768919725E+02  0.16750933323E+02  0.51100000000E-03 0. -1.
        -11    1    3    3    0    0 -0.17710854578E+01 -0.62223260252E+01  0.31444058819E+01  0.71931476749E+01  0.51100000000E-03 0.  1.
        -12    1    3    3    0    0  0.83171926649E+01 -0.21115024445E+02 -0.73128516350E+01  0.23843190856E+02  0.00000000000E+00 0.  1.
</event>
<event>
 7    1  0.5038211E-009  0.4778727E+02  0.7816164E-02  0.1312668E+00
        -11   -1    0    0    0    0  0.00000000000E+00  0.00000000000E+00  0.45593999997E+02  0.45594000000E+02  0.51100000000E-03 0.  1.
         11   -1    0    0    0    0 -0.00000000000E+00 -0.00000000000E+00 -0.45593999997E+02  0.45594000000E+02  0.51100000000E-03 0. -1.
    9900012    2    1    2    0    0 -0.48886215355E+01 -0.36665194965E+02  0.22702171118E+02  0.47787265953E+02  0.19999976786E+02 0.  0.
         12    1    1    2    0    0  0.48886215355E+01  0.36665194965E+02 -0.22702171118E+02  0.43400734047E+02  0.00000000000E+00 0. -1.
         11    1    3    3    0    0 -0.70187372078E-01 -0.20363446850E+02  0.22029642989E+02  0.29999667737E+02  0.51100000000E-03 0. -1.
        -11    1    3    3    0    0 -0.24644398904E+01 -0.55508182729E+01  0.26141373070E+01  0.66120164544E+01  0.51100000000E-03 0.  1.
         12    1    3    3    0    0 -0.23539942730E+01 -0.10750929842E+02 -0.19416091773E+01  0.11175581761E+02  0.00000000000E+00 0. -1.
</event>
<event>
 7    1  0.5038211E-009  0.4778727E+02  0.7816164E-02  0.1312668E+00
        -11   -1    0    0    0    0  0.00000000000E+00  0.00000000000E+00  0.45593999997E+02  0.45594000000E+02  0.51100000000E-03 0. -1.
         11   -1    0    0    0    0 -0.00000000000E+00 -0.00000000000E+00 -0.45593999997E+02  0.45594000000E+02  0.51100000000E-03 0.  1.
    9900012    2    1    2    0    0 -0.20879682956E+02  0.34131843097E+02 -0.16813083395E+02  0.47787266748E+02  0.19999980411E+02 0.  0.
         12    1    1    2    0    0  0.20879682956E+02 -0.34131843097E+02  0.16813083395E+02  0.43400733252E+02  0.00000000000E+00 0. -1.
         11    1    3    3    0    0 -0.11038569622E+01  0.10498339038E+02 -0.10599848768E+02  0.14959626229E+02  0.51100000000E-03 0. -1.
        -11    1    3    3    0    0 -0.92745158548E+01  0.11339222386E+02 -0.77735845313E+01  0.16583824208E+02  0.51100000000E-03 0.  1.
         12    1    3    3    0    0 -0.10501310139E+02  0.12294281673E+02  0.15603499041E+01  0.16243816310E+02  0.00000000000E+00 0. -1.
</event>
<event>
 7    1  0.5038211E-009  0.4778727E+02  0.7816164E-02  0.1312668E+00
        -11   -1    0    0    0    0  0.00000000000E+00  0.00000000000E+00  0.45593999997E+02  0.45594000000E+02  0.51100000000E-03 0. -1.
         11   -1    0    0    0    0 -0.00000000000E+00 -0.00000000000E+00 -0.45593999997E+02  0.45594000000E+02  0.51100000000E-03 0.  1.
    9900012    2    1    2    0    0 -0.35700963837E+02  0.69245693926E+01 -0.23687858505E+02  0.47787272809E+02  0.20000008044E+02 0.  0.
         12    1    1    2    0    0  0.35700963837E+02 -0.69245693926E+01  0.23687858505E+02  0.43400727191E+02  0.00000000000E+00 0. -1.
         11    1    3    3    0    0 -0.55931720783E+01 -0.40970211431E+01 -0.10204235393E+01  0.70078827477E+01  0.51100000000E-03 0. -1.
        -11    1    3    3    0    0 -0.27169705533E+02  0.11160639890E+02 -0.15899243955E+02  0.33399681737E+02  0.51100000000E-03 0.  1.
        -12    1    3    3    0    0 -0.29380862253E+01 -0.13904935442E+00 -0.67681910108E+01  0.73797083241E+01  0.00000000000E+00 0.  1.
</event>
<event>
 7    1  0.5038211E-009  0.4778727E+02  0.7816164E-02  0.1312668E+00
        -11   -1    0    0    0    0  0.00000000000E+00  0.00000000000E+00  0.45593999997E+02  0.45594000000E+02  0.51100000000E-03 0.  1.
         11   -1    0    0    0    0 -0.00000000000E+00 -0.00000000000E+00 -0.45593999997E+02  0.45594000000E+02  0.51100000000E-03 0. -1.
    9900012    2    1    2    0    0  0.60728351050E+01 -0.17893940492E+02  0.39071102947E+02  0.47787268232E+02  0.19999987177E+02 0.  0.
         12    1    1    2    0    0 -0.60728351050E+01  0.17893940492E+02 -0.39071102947E+02  0.43400731768E+02  0.00000000000E+00 0. -1.
         11    1    3    3    0    0 -0.61398144966E+01 -0.71016976664E+01  0.12618922329E+02  0.15727957045E+02  0.51100000000E-03 0. -1.
        -11    1    3    3    0    0  0.90235079159E+01 -0.11691756431E+02  0.20855959927E+02  0.25555663331E+02  0.51100000000E-03 0.  1.
         12    1    3    3    0    0  0.31891416857E+01  0.89951360597E+00  0.55962206900E+01  0.65036478556E+01  0.00000000000E+00 0. -1.
</event>
<event>
 7    1  0.5038211E-009  0.4778727E+02  0.7816164E-02  0.1312668E+00
        -11   -1    0    0    0    0  0.00000000000E+00  0.00000000000E+00  0.45593999997E+02  0.45594000000E+02  0.51100000000E-03 0. -1.
         11   -1    0    0    0    0 -0.00000000000E+00 -0.00000000000E+00 -0.45593999997E+02  0.45594000000E+02  0.51100000000E-03 0.  1.
    9900012    2    1    2    0    0 -0.41744132378E+02 -0.63846043987E+01  0.10014376785E+02  0.47787268396E+02  0.19999987927E+02 0.  0.
         12    1    1    2    0    0  0.41744132378E+02  0.63846043987E+01 -0.10014376785E+02  0.43400731604E+02  0.00000000000E+00 0. -1.
         11    1    3    3    0    0 -0.83393945909E+00  0.38940096596E+00 -0.21261941496E+01  0.23168491441E+01  0.51100000000E-03 0. -1.
        -11    1    3    3    0    0 -0.35603503095E+02 -0.10718432602E+02  0.10860579154E+02  0.38735596160E+02  0.51100000000E-03 0.  1.
        -12    1    3    3    0    0 -0.53066898244E+01  0.39444272377E+01  0.12799917809E+01  0.67348230924E+01  0.00000000000E+00 0.  1.
</event>
<event>
 7    1  0.5038211E-009  0.4778727E+02  0.7816164E-02  0.1312668E+00
        -11   -1    0    0    0    0  0.00000000000E+00  0.00000000000E+00  0.45593999997E+02  0.45594000000E+02  0.51100000000E-03 0.  1.
         11   -1    0    0    0    0 -0.00000000000E+00 -0.00000000000E+00 -0.45593999997E+02  0.45594000000E+02  0.51100000000E-03 0. -1.
    9900012    2    1    2    0    0 -0.19797145202E+02 -0.99055858100E+01  0.37330630451E+02  0.47787267768E+02  0.19999985063E+02 0.  0.
         12    1    1    2    0    0  0.19797145202E+02  0.99055858100E+01 -0.37330630451E+02  0.43400732232E+02  0.00000000000E+00 0. -1.
         11    1    3    3    0    0  0.91618437003E+00 -0.54163835055E+01  0.26625844277E+01  0.61045851763E+01  0.51100000000E-03 0. -1.
        -11    1    3    3    0    0 -0.10310627399E+02 -0.52694354333E+01  0.24580177571E+02  0.27170960911E+02  0.51100000000E-03 0.  1.
         12    1    3    3    0    0 -0.10402702174E+02  0.78023312879E+00  0.10087868452E+02  0.14511721681E+02  0.00000000000E+00 0. -1.
</event>
<event>
 7    1  0.5038211E-009  0.4778727E+02  0.7816164E-02  0.1312668E+00
        -11   -1    0    0    0    0  0.00000000000E+00  0.00000000000E+00  0.45593999997E+02  0.45594000000E+02  0.51100000000E-03 0.  1.
         11   -1    0    0    0    0 -0.00000000000E+00 -0.00000000000E+00 -0.45593999997E+02  0.45594000000E+02  0.51100000000E-03 0. -1.
    9900012    2    1    2    0    0 -0.81772619178E+01  0.17489848724E+02  0.38869790564E+02  0.47787273746E+02  0.20000012317E+02 0.  0.
         12    1    1    2    0    0  0.81772619178E+01 -0.17489848724E+02 -0.38869790564E+02  0.43400726254E+02  0.00000000000E+00 0. -1.
         11    1    3    3    0    0 -0.26055721191E+01  0.11048341093E+01  0.19259932282E+02  0.19466757723E+02  0.51100000000E-03 0.  1.
        -11    1    3    3    0    0 -0.27079400182E+00  0.14900931388E+02  0.14929076544E+02  0.21094748454E+02  0.51100000000E-03 0. -1.
         12    1    3    3    0    0 -0.53008957969E+01  0.14840832269E+01  0.46807817384E+01  0.72257675686E+01  0.00000000000E+00 0. -1.
</event>
<event>
 7    1  0.5038211E-009  0.4778729E+02  0.7816164E-02  0.1312668E+00
        -11   -1    0    0    0    0  0.00000000000E+00  0.00000000000E+00  0.45593999997E+02  0.45594000000E+02  0.51100000000E-03 0.  1.
         11   -1    0    0    0    0 -0.00000000000E+00 -0.00000000000E+00 -0.45593999997E+02  0.45594000000E+02  0.51100000000E-03 0. -1.
    9900012    2    1    2    0    0  0.18700829937E+00 -0.24647396528E+02  0.35722436870E+02  0.47787290056E+02  0.20000086680E+02 0.  0.
         12    1    1    2    0    0 -0.18700829937E+00  0.24647396528E+02 -0.35722436870E+02  0.43400709944E+02  0.00000000000E+00 0. -1.
         11    1    3    3    0    0 -0.97920077279E+00 -0.16775622453E+02  0.90817714934E+01  0.19101280495E+02  0.51100000000E-03 0. -1.
        -11    1    3    3    0    0  0.27696511622E+00  0.60291525092E+00  0.97028242598E+01  0.97254827825E+01  0.51100000000E-03 0.  1.
        -12    1    3    3    0    0  0.88924395594E+00 -0.84746893262E+01  0.16937841117E+02  0.18960526778E+02  0.00000000000E+00 0.  1.
</event>
<event>
 7    1  0.5038211E-009  0.4778727E+02  0.7816164E-02  0.1312668E+00
        -11   -1    0    0    0    0  0.00000000000E+00  0.00000000000E+00  0.45593999997E+02  0.45594000000E+02  0.51100000000E-03 0.  1.
         11   -1    0    0    0    0 -0.00000000000E+00 -0.00000000000E+00 -0.45593999997E+02  0.45594000000E+02  0.51100000000E-03 0. -1.
    9900012    2    1    2    0    0  0.21530966935E+01  0.35183172939E+02  0.25320576238E+02  0.47787273457E+02  0.20000011000E+02 0.  0.
         12    1    1    2    0    0 -0.21530966935E+01 -0.35183172939E+02 -0.25320576238E+02  0.43400726543E+02  0.00000000000E+00 0. -1.
         11    1    3    3    0    0  0.80688588314E+01  0.94254386183E+01  0.62940926673E+01  0.13912619407E+02  0.51100000000E-03 0. -1.
        -11    1    3    3    0    0 -0.45324496157E+01  0.20514482740E+02  0.98224293553E+01  0.23191964564E+02  0.51100000000E-03 0.  1.
        -12    1    3    3    0    0 -0.13833125222E+01  0.52432515804E+01  0.92040542153E+01  0.10682689487E+02  0.00000000000E+00 0.  1.
</event>
<event>
 7    1  0.5038211E-009  0.4778727E+02  0.7816164E-02  0.1312668E+00
        -11   -1    0    0    0    0  0.00000000000E+00  0.00000000000E+00  0.45593999997E+02  0.45594000000E+02  0.51100000000E-03 0.  1.
         11   -1    0    0    0    0 -0.00000000000E+00 -0.00000000000E+00 -0.45593999997E+02  0.45594000000E+02  0.51100000000E-03 0. -1.
    9900012    2    1    2    0    0 -0.29344153503E+02 -0.81511606845E+00  0.31966849811E+02  0.47787271367E+02  0.20000001471E+02 0.  0.
         12    1    1    2    0    0  0.29344153503E+02  0.81511606845E+00 -0.31966849811E+02  0.43400728633E+02  0.00000000000E+00 0. -1.
         11    1    3    3    0    0 -0.11577070310E+02 -0.54269852853E+01  0.18538957667E+02  0.22520516821E+02  0.51100000000E-03 0. -1.
        -11    1    3    3    0    0 -0.69171967988E+01  0.26464824594E+00 -0.66892311738E+00  0.69545027604E+01  0.51100000000E-03 0.  1.
        -12    1    3    3    0    0 -0.10849886394E+02  0.43472209710E+01  0.14096815262E+02  0.18312251786E+02  0.00000000000E+00 0.  1.
</event>
<event>
 7    1  0.5038211E-009  0.4778728E+02  0.7816164E-02  0.1312668E+00
        -11   -1    0    0    0    0  0.00000000000E+00  0.00000000000E+00  0.45593999997E+02  0.45594000000E+02  0.51100000000E-03 0. -1.
         11   -1    0    0    0    0 -0.00000000000E+00 -0.00000000000E+00 -0.45593999997E+02  0.45594000000E+02  0.51100000000E-03 0.  1.
    9900012    2    1    2    0    0 -0.35209764760E+02  0.57890065296E+00 -0.25368488145E+02  0.47787275914E+02  0.20000022201E+02 0.  0.
         12    1    1    2    0    0  0.35209764760E+02 -0.57890065296E+00  0.25368488145E+02  0.43400724086E+02  0.00000000000E+00 0. -1.
         11    1    3    3    0    0 -0.12815591201E+00  0.11387512742E+01 -0.60496674196E+01  0.61572440711E+01  0.51100000000E-03 0. -1.
        -11    1    3    3    0    0 -0.21842949576E+02 -0.50826280753E+01 -0.86524479706E+01  0.24037728896E+02  0.51100000000E-03 0.  1.
        -12    1    3    3    0    0 -0.13238659272E+02  0.45227774540E+01 -0.10666372755E+02  0.17592302947E+02  0.00000000000E+00 0.  1.
</event>
<event>
 7    1  0.5038211E-009  0.4778727E+02  0.7816164E-02  0.1312668E+00
        -11   -1    0    0    0    0  0.00000000000E+00  0.00000000000E+00  0.45593999997E+02  0.45594000000E+02  0.51100000000E-03 0.  1.
         11   -1    0    0    0    0 -0.00000000000E+00 -0.00000000000E+00 -0.45593999997E+02  0.45594000000E+02  0.51100000000E-03 0. -1.
    9900012    2    1    2    0    0  0.26861840572E+02 -0.14324618069E+02  0.30933319094E+02  0.47787269684E+02  0.19999993799E+02 0.  0.
         12    1    1    2    0    0 -0.26861840572E+02  0.14324618069E+02 -0.30933319094E+02  0.43400730316E+02  0.00000000000E+00 0. -1.
         11    1    3    3    0    0  0.52623091028E+01 -0.11820163370E+02  0.11031573198E+02  0.17003051687E+02  0.51100000000E-03 0. -1.
        -11    1    3    3    0    0  0.17304943861E+02 -0.25972086351E+01  0.19885655320E+02  0.26488598727E+02  0.51100000000E-03 0.  1.
         12    1    3    3    0    0  0.42945876083E+01  0.92753936008E-01  0.16090576715E-01  0.42956192714E+01  0.00000000000E+00 0. -1.
</event>
<event>
 7    1  0.5038211E-009  0.4778727E+02  0.7816164E-02  0.1312668E+00
        -11   -1    0    0    0    0  0.00000000000E+00  0.00000000000E+00  0.45593999997E+02  0.45594000000E+02  0.51100000000E-03 0. -1.
         11   -1    0    0    0    0 -0.00000000000E+00 -0.00000000000E+00 -0.45593999997E+02  0.45594000000E+02  0.51100000000E-03 0.  1.
    9900012    2    1    2    0    0  0.39525530873E+02 -0.17375848472E+02 -0.44085719605E+01  0.47787271807E+02  0.20000003476E+02 0.  0.
         12    1    1    2    0    0 -0.39525530873E+02  0.17375848472E+02  0.44085719605E+01  0.43400728193E+02  0.00000000000E+00 0. -1.
         11    1    3    3    0    0 -0.18580257592E+01  0.29316317333E-01  0.79565774088E+00  0.20214328260E+01  0.51100000000E-03 0. -1.
        -11    1    3    3    0    0  0.36367046619E+02 -0.13097050767E+02 -0.28952701199E+01  0.38761803466E+02  0.51100000000E-03 0.  1.
         12    1    3    3    0    0  0.50165100132E+01 -0.43081140223E+01 -0.23089595815E+01  0.70040355147E+01  0.00000000000E+00 0. -1.
</event>
<event>
 7    1  0.5038211E-009  0.4778728E+02  0.7816164E-02  0.1312668E+00
        -11   -1    0    0    0    0  0.00000000000E+00  0.00000000000E+00  0.45593999997E+02  0.45594000000E+02  0.51100000000E-03 0.  1.
         11   -1    0    0    0    0 -0.00000000000E+00 -0.00000000000E+00 -0.45593999997E+02  0.45594000000E+02  0.51100000000E-03 0. -1.
    9900012    2    1    2    0    0 -0.40041725747E+02 -0.16366882811E+01  0.16661453381E+02  0.47787279060E+02  0.20000036546E+02 0.  0.
         12    1    1    2    0    0  0.40041725747E+02  0.16366882811E+01 -0.16661453381E+02  0.43400720940E+02  0.00000000000E+00 0. -1.
         11    1    3    3    0    0 -0.83034907629E+01 -0.78909736187E+01  0.49790060222E+01  0.12490233174E+02  0.51100000000E-03 0.  1.
        -11    1    3    3    0    0 -0.10012430320E+02 -0.14926450921E+01  0.22066023113E+01  0.10360783962E+02  0.51100000000E-03 0. -1.
         12    1    3    3    0    0 -0.21725804665E+02  0.77469304297E+01  0.94758450480E+01  0.24936261925E+02  0.00000000000E+00 0. -1.
</event>
<event>
 7    1  0.5038211E-009  0.4778727E+02  0.7816164E-02  0.1312668E+00
        -11   -1    0    0    0    0  0.00000000000E+00  0.00000000000E+00  0.45593999997E+02  0.45594000000E+02  0.51100000000E-03 0.  1.
         11   -1    0    0    0    0 -0.00000000000E+00 -0.00000000000E+00 -0.45593999997E+02  0.45594000000E+02  0.51100000000E-03 0. -1.
    9900012    2    1    2    0    0 -0.27269279768E+02 -0.19415960359E+02  0.27622998676E+02  0.47787271993E+02  0.20000004324E+02 0.  0.
         12    1    1    2    0    0  0.27269279768E+02  0.19415960359E+02 -0.27622998676E+02  0.43400728007E+02  0.00000000000E+00 0. -1.
         11    1    3    3    0    0 -0.13549177223E+00  0.12944974057E+00 -0.98517635748E+00  0.10028399534E+01  0.51100000000E-03 0. -1.
        -11    1    3    3    0    0 -0.22006220279E+02 -0.75493261494E+01  0.13803674031E+02  0.27051940287E+02  0.51100000000E-03 0.  1.
        -12    1    3    3    0    0 -0.51275677159E+01 -0.11996083950E+02  0.14804501002E+02  0.19732491752E+02  0.00000000000E+00 0.  1.
</event>
<event>
 7    1  0.5038211E-009  0.4778727E+02  0.7816164E-02  0.1312668E+00
        -11   -1    0    0    0    0  0.00000000000E+00  0.00000000000E+00  0.45593999997E+02  0.45594000000E+02  0.51100000000E-03 0.  1.
         11   -1    0    0    0    0 -0.00000000000E+00 -0.00000000000E+00 -0.45593999997E+02  0.45594000000E+02  0.51100000000E-03 0. -1.
    9900012    2    1    2    0    0 -0.28083108064E+02 -0.16589050584E+02  0.28631547207E+02  0.47787273586E+02  0.20000011588E+02 0.  0.
         12    1    1    2    0    0  0.28083108064E+02  0.16589050584E+02 -0.28631547207E+02  0.43400726414E+02  0.00000000000E+00 0. -1.
         11    1    3    3    0    0  0.69114757283E+00  0.20729692227E+01  0.53307358770E+01  0.57612178936E+01  0.51100000000E-03 0. -1.
        -11    1    3    3    0    0 -0.75929256216E+01 -0.42012951891E+01  0.25756683353E+01  0.90519317494E+01  0.51100000000E-03 0.  1.
         12    1    3    3    0    0 -0.21181330015E+02 -0.14460724617E+02  0.20725142994E+02  0.32974123943E+02  0.00000000000E+00 0. -1.
</event>
<event>
 7    1  0.5038211E-009  0.4778728E+02  0.7816164E-02  0.1312668E+00
        -11   -1    0    0    0    0  0.00000000000E+00  0.00000000000E+00  0.45593999997E+02  0.45594000000E+02  0.51100000000E-03 0.  1.
         11   -1    0    0    0    0 -0.00000000000E+00 -0.00000000000E+00 -0.45593999997E+02  0.45594000000E+02  0.51100000000E-03 0. -1.
    9900012    2    1    2    0    0  0.42997800079E+02 -0.58033850029E+01  0.10640946780E+01  0.47787281267E+02  0.20000046607E+02 0.  0.
         12    1    1    2    0    0 -0.42997800079E+02  0.58033850029E+01 -0.10640946780E+01  0.43400718733E+02  0.00000000000E+00 0. -1.
         11    1    3    3    0    0  0.91554566346E+01  0.59412834591E+01  0.36377671280E-01  0.10914328148E+02  0.51100000000E-03 0. -1.
        -11    1    3    3    0    0  0.27948701495E+02 -0.74181605261E+01  0.35620004319E+01  0.29134976715E+02  0.51100000000E-03 0.  1.
        -12    1    3    3    0    0  0.58936419484E+01 -0.43265079359E+01 -0.25342834251E+01  0.77379764030E+01  0.00000000000E+00 0.  1.
</event>
<event>
 7    1  0.5038211E-009  0.4778728E+02  0.7816164E-02  0.1312668E+00
        -11   -1    0    0    0    0  0.00000000000E+00  0.00000000000E+00  0.45593999997E+02  0.45594000000E+02  0.51100000000E-03 0. -1.
         11   -1    0    0    0    0 -0.00000000000E+00 -0.00000000000E+00 -0.45593999997E+02  0.45594000000E+02  0.51100000000E-03 0.  1.
    9900012    2    1    2    0    0  0.27010326792E+02  0.27582475329E+02 -0.19831091652E+02  0.47787275411E+02  0.20000019910E+02 0.  0.
         12    1    1    2    0    0 -0.27010326792E+02 -0.27582475329E+02  0.19831091652E+02  0.43400724589E+02  0.00000000000E+00 0. -1.
         11    1    3    3    0    0  0.11630485616E+02  0.41214630643E+01 -0.13458453973E+02  0.18258823539E+02  0.51100000000E-03 0.  1.
        -11    1    3    3    0    0  0.62338423557E+01  0.15392346633E+02 -0.43319744780E+01  0.17162491909E+02  0.51100000000E-03 0. -1.
         12    1    3    3    0    0  0.91459988203E+01  0.80686656325E+01 -0.20406632018E+01  0.12365959963E+02  0.00000000000E+00 0. -1.
</event>
<event>
 7    1  0.5038211E-009  0.4778726E+02  0.7816164E-02  0.1312668E+00
        -11   -1    0    0    0    0  0.00000000000E+00  0.00000000000E+00  0.45593999997E+02  0.45594000000E+02  0.51100000000E-03 0.  1.
         11   -1    0    0    0    0 -0.00000000000E+00 -0.00000000000E+00 -0.45593999997E+02  0.45594000000E+02  0.51100000000E-03 0. -1.
    9900012    2    1    2    0    0 -0.88175057764E+01 -0.22343253195E+02  0.36147680009E+02  0.47787261049E+02  0.19999954427E+02 0.  0.
         12    1    1    2    0    0  0.88175057764E+01  0.22343253195E+02 -0.36147680009E+02  0.43400738951E+02  0.00000000000E+00 0. -1.
         11    1    3    3    0    0 -0.74836246856E+01 -0.15803282413E+02  0.10638855825E+02  0.20467868159E+02  0.51100000000E-03 0. -1.
        -11    1    3    3    0    0 -0.27475039859E+01 -0.28109168669E+01  0.20710288618E+02  0.21079992568E+02  0.51100000000E-03 0.  1.
        -12    1    3    3    0    0  0.14136228951E+01 -0.37290539151E+01  0.47985355661E+01  0.62394003214E+01  0.00000000000E+00 0.  1.
</event>
<event>
 7    1  0.5038211E-009  0.4778727E+02  0.7816164E-02  0.1312668E+00
        -11   -1    0    0    0    0  0.00000000000E+00  0.00000000000E+00  0.45593999997E+02  0.45594000000E+02  0.51100000000E-03 0. -1.
         11   -1    0    0    0    0 -0.00000000000E+00 -0.00000000000E+00 -0.45593999997E+02  0.45594000000E+02  0.51100000000E-03 0.  1.
    9900012    2    1    2    0    0  0.64203742333E+00 -0.84005528088E+01 -0.42575131598E+02  0.47787270397E+02  0.19999997046E+02 0.  0.
         12    1    1    2    0    0 -0.64203742333E+00  0.84005528088E+01  0.42575131598E+02  0.43400729603E+02  0.00000000000E+00 0. -1.
         11    1    3    3    0    0 -0.20936500676E+01  0.42719194342E+00  0.17703836342E+00  0.21441096999E+01  0.51100000000E-03 0. -1.
        -11    1    3    3    0    0  0.37319500442E+01 -0.85669595019E+01 -0.43421049653E+02  0.44415175329E+02  0.51100000000E-03 0.  1.
        -12    1    3    3    0    0 -0.99626255328E+00 -0.26078525031E+00  0.66887969202E+00  0.12279853681E+01  0.00000000000E+00 0.  1.
</event>
<event>
 7    1  0.5038211E-009  0.4778727E+02  0.7816164E-02  0.1312668E+00
        -11   -1    0    0    0    0  0.00000000000E+00  0.00000000000E+00  0.45593999997E+02  0.45594000000E+02  0.51100000000E-03 0.  1.
         11   -1    0    0    0    0 -0.00000000000E+00 -0.00000000000E+00 -0.45593999997E+02  0.45594000000E+02  0.51100000000E-03 0. -1.
    9900012    2    1    2    0    0  0.15903227286E+01 -0.19102635746E+02  0.38938200230E+02  0.47787271250E+02  0.20000000939E+02 0.  0.
         12    1    1    2    0    0 -0.15903227286E+01  0.19102635746E+02 -0.38938200230E+02  0.43400728750E+02  0.00000000000E+00 0. -1.
         11    1    3    3    0    0  0.55681737752E+01 -0.48803372423E+01  0.32018456147E+01  0.80668498430E+01  0.51100000000E-03 0. -1.
        -11    1    3    3    0    0  0.68895495719E+00 -0.18711242829E+01  0.15036577337E+02  0.15168204353E+02  0.51100000000E-03 0.  1.
         12    1    3    3    0    0 -0.46668060038E+01 -0.12351174221E+02  0.20699777279E+02  0.24552217054E+02  0.00000000000E+00 0. -1.
</event>
<event>
 7    1  0.5038211E-009  0.4778727E+02  0.7816164E-02  0.1312668E+00
        -11   -1    0    0    0    0  0.00000000000E+00  0.00000000000E+00  0.45593999997E+02  0.45594000000E+02  0.51100000000E-03 0.  1.
         11   -1    0    0    0    0 -0.00000000000E+00 -0.00000000000E+00 -0.45593999997E+02  0.45594000000E+02  0.51100000000E-03 0. -1.
    9900012    2    1    2    0    0 -0.10077662323E+02  0.36914186818E+02  0.20479416224E+02  0.47787274716E+02  0.20000016738E+02 0.  0.
         12    1    1    2    0    0  0.10077662323E+02 -0.36914186818E+02 -0.20479416224E+02  0.43400725284E+02  0.00000000000E+00 0. -1.
         11    1    3    3    0    0  0.38223065010E+01  0.11903463766E+02  0.80930498880E+01  0.14892949116E+02  0.51100000000E-03 0. -1.
        -11    1    3    3    0    0 -0.34955439992E+01  0.15585122242E+02  0.94270112663E+01  0.18546789610E+02  0.51100000000E-03 0.  1.
         12    1    3    3    0    0 -0.10404424825E+02  0.94256008097E+01  0.29593550700E+01  0.14347535990E+02  0.00000000000E+00 0. -1.
</event>
<event>
 7    1  0.5038211E-009  0.4778727E+02  0.7816164E-02  0.1312668E+00
        -11   -1    0    0    0    0  0.00000000000E+00  0.00000000000E+00  0.45593999997E+02  0.45594000000E+02  0.51100000000E-03 0.  1.
         11   -1    0    0    0    0 -0.00000000000E+00 -0.00000000000E+00 -0.45593999997E+02  0.45594000000E+02  0.51100000000E-03 0. -1.
    9900012    2    1    2    0    0 -0.47238533944E+01 -0.25820967286E+02  0.34562785515E+02  0.47787270915E+02  0.19999999412E+02 0.  0.
         12    1    1    2    0    0  0.47238533944E+01  0.25820967286E+02 -0.34562785515E+02  0.43400729085E+02  0.00000000000E+00 0. -1.
         11    1    3    3    0    0 -0.50163860279E+01 -0.41679213412E+01 -0.51232395414E+00  0.65420312735E+01  0.51100000000E-03 0. -1.
        -11    1    3    3    0    0  0.56951894181E+00 -0.35687992552E+01  0.58065878956E+01  0.68393817849E+01  0.51100000000E-03 0.  1.
         12    1    3    3    0    0 -0.27698630832E+00 -0.18084246690E+02  0.29268521574E+02  0.34405857857E+02  0.00000000000E+00 0. -1.
</event>
<event>
 7    1  0.5038211E-009  0.4778727E+02  0.7816164E-02  0.1312668E+00
        -11   -1    0    0    0    0  0.00000000000E+00  0.00000000000E+00  0.45593999997E+02  0.45594000000E+02  0.51100000000E-03 0.  1.
         11   -1    0    0    0    0 -0.00000000000E+00 -0.00000000000E+00 -0.45593999997E+02  0.45594000000E+02  0.51100000000E-03 0. -1.
    9900012    2    1    2    0    0  0.39205362503E+02  0.16802235194E+02  0.80154668070E+01  0.47787271151E+02  0.20000000484E+02 0.  0.
         12    1    1    2    0    0 -0.39205362503E+02 -0.16802235194E+02 -0.80154668070E+01  0.43400728849E+02  0.00000000000E+00 0. -1.
         11    1    3    3    0    0 -0.17728415854E+01 -0.73283298218E+00  0.79579272853E+00  0.20768480433E+01  0.51100000000E-03 0. -1.
        -11    1    3    3    0    0  0.37241799264E+02  0.17671789672E+02  0.54729103323E+01  0.41583608674E+02  0.51100000000E-03 0.  1.
        -12    1    3    3    0    0  0.37364048247E+01 -0.13672149527E+00  0.17467637461E+01  0.41268144332E+01  0.00000000000E+00 0.  1.
</event>
<event>
 7    1  0.5038211E-009  0.4778728E+02  0.7816164E-02  0.1312668E+00
        -11   -1    0    0    0    0  0.00000000000E+00  0.00000000000E+00  0.45593999997E+02  0.45594000000E+02  0.51100000000E-03 0.  1.
         11   -1    0    0    0    0 -0.00000000000E+00 -0.00000000000E+00 -0.45593999997E+02  0.45594000000E+02  0.51100000000E-03 0. -1.
    9900012    2    1    2    0    0 -0.31735760590E+02  0.29500845372E+02  0.24828145895E+01  0.47787277124E+02  0.20000027717E+02 0.  0.
         12    1    1    2    0    0  0.31735760590E+02 -0.29500845372E+02 -0.24828145895E+01  0.43400722876E+02  0.00000000000E+00 0. -1.
         11    1    3    3    0    0 -0.18555749436E+01  0.42016389124E+01  0.81671579348E+00  0.46651851913E+01  0.51100000000E-03 0. -1.
        -11    1    3    3    0    0 -0.10210324344E+02  0.31705267766E+01 -0.63682862558E+01  0.12444196774E+02  0.51100000000E-03 0.  1.
        -12    1    3    3    0    0 -0.19669861302E+02  0.22128679683E+02  0.80343850519E+01  0.30677895158E+02  0.00000000000E+00 0.  1.
</event>
<event>
 7    1  0.5038211E-009  0.4778727E+02  0.7816164E-02  0.1312668E+00
        -11   -1    0    0    0    0  0.00000000000E+00  0.00000000000E+00  0.45593999997E+02  0.45594000000E+02  0.51100000000E-03 0.  1.
         11   -1    0    0    0    0 -0.00000000000E+00 -0.00000000000E+00 -0.45593999997E+02  0.45594000000E+02  0.51100000000E-03 0. -1.
    9900012    2    1    2    0    0  0.29765757825E+02 -0.29453011992E+02  0.11408028790E+02  0.47787269878E+02  0.19999994680E+02 0.  0.
         12    1    1    2    0    0 -0.29765757825E+02  0.29453011992E+02 -0.11408028790E+02  0.43400730122E+02  0.00000000000E+00 0. -1.
         11    1    3    3    0    0  0.43797659145E+01 -0.13942448867E+02 -0.24156183288E+01  0.14812475892E+02  0.51100000000E-03 0. -1.
        -11    1    3    3    0    0  0.16263374484E+02 -0.11541613952E+02  0.83529603932E+01  0.21621243022E+02  0.51100000000E-03 0.  1.
         12    1    3    3    0    0  0.91226174259E+01 -0.39689491735E+01  0.54706867256E+01  0.11353550964E+02  0.00000000000E+00 0. -1.
</event>
<event>
 7    1  0.5038211E-009  0.4778727E+02  0.7816164E-02  0.1312668E+00
        -11   -1    0    0    0    0  0.00000000000E+00  0.00000000000E+00  0.45593999997E+02  0.45594000000E+02  0.51100000000E-03 0.  1.
         11   -1    0    0    0    0 -0.00000000000E+00 -0.00000000000E+00 -0.45593999997E+02  0.45594000000E+02  0.51100000000E-03 0. -1.
    9900012    2    1    2    0    0  0.10800977016E+02  0.10734390871E+02  0.40641541412E+02  0.47787272585E+02  0.20000007022E+02 0.  0.
         12    1    1    2    0    0 -0.10800977016E+02 -0.10734390871E+02 -0.40641541412E+02  0.43400727415E+02  0.00000000000E+00 0. -1.
         11    1    3    3    0    0  0.75609101757E+01 -0.23566120935E+01  0.70623912097E+01  0.10611237115E+02  0.51100000000E-03 0. -1.
        -11    1    3    3    0    0  0.50949388012E+01  0.11116521009E+02  0.31407090034E+02  0.33703720053E+02  0.51100000000E-03 0.  1.
         12    1    3    3    0    0 -0.18548719606E+01  0.19744819550E+01  0.21720601676E+01  0.34723154166E+01  0.00000000000E+00 0. -1.
</event>
<event>
 7    1  0.5038211E-009  0.4778727E+02  0.7816164E-02  0.1312668E+00
        -11   -1    0    0    0    0  0.00000000000E+00  0.00000000000E+00  0.45593999997E+02  0.45594000000E+02  0.51100000000E-03 0.  1.
         11   -1    0    0    0    0 -0.00000000000E+00 -0.00000000000E+00 -0.45593999997E+02  0.45594000000E+02  0.51100000000E-03 0. -1.
    9900012    2    1    2    0    0  0.43188154785E+02  0.41834186079E+01 -0.95171134042E+00  0.47787268907E+02  0.19999990253E+02 0.  0.
         12    1    1    2    0    0 -0.43188154785E+02 -0.41834186079E+01  0.95171134042E+00  0.43400731093E+02  0.00000000000E+00 0. -1.
         11    1    3    3    0    0  0.14321936421E+02 -0.59940936259E+01  0.27248166262E+01  0.15762983447E+02  0.51100000000E-03 0. -1.
        -11    1    3    3    0    0  0.21003527640E+02  0.66578954713E+01 -0.64773904182E+01  0.22965894982E+02  0.51100000000E-03 0.  1.
         12    1    3    3    0    0  0.78626907237E+01  0.35196167624E+01  0.28008624516E+01  0.90583904775E+01  0.00000000000E+00 0. -1.
</event>
<event>
 7    1  0.5038211E-009  0.4778727E+02  0.7816164E-02  0.1312668E+00
        -11   -1    0    0    0    0  0.00000000000E+00  0.00000000000E+00  0.45593999997E+02  0.45594000000E+02  0.51100000000E-03 0.  1.
         11   -1    0    0    0    0 -0.00000000000E+00 -0.00000000000E+00 -0.45593999997E+02  0.45594000000E+02  0.51100000000E-03 0. -1.
    9900012    2    1    2    0    0 -0.42177163910E+02  0.50416960223E+01  0.89045844260E+01  0.47787268692E+02  0.19999989273E+02 0.  0.
         12    1    1    2    0    0  0.42177163910E+02 -0.50416960223E+01 -0.89045844260E+01  0.43400731308E+02  0.00000000000E+00 0. -1.
         11    1    3    3    0    0 -0.11670904566E+02  0.58608972367E+01 -0.50383460518E+01  0.13998037756E+02  0.51100000000E-03 0. -1.
        -11    1    3    3    0    0 -0.22978091658E+02 -0.11414462842E+01  0.12257294874E+02  0.26067928068E+02  0.51100000000E-03 0.  1.
        -12    1    3    3    0    0 -0.75281676858E+01  0.32224506983E+00  0.16856356041E+01  0.77213028681E+01  0.00000000000E+00 0.  1.
</event>
<event>
 7    1  0.5038211E-009  0.4778729E+02  0.7816164E-02  0.1312668E+00
        -11   -1    0    0    0    0  0.00000000000E+00  0.00000000000E+00  0.45593999997E+02  0.45594000000E+02  0.51100000000E-03 0. -1.
         11   -1    0    0    0    0 -0.00000000000E+00 -0.00000000000E+00 -0.45593999997E+02  0.45594000000E+02  0.51100000000E-03 0.  1.
    9900012    2    1    2    0    0  0.13074170735E+02  0.28774570276E+02 -0.29744105643E+02  0.47787289689E+02  0.20000085009E+02 0.  0.
         12    1    1    2    0    0 -0.13074170735E+02 -0.28774570276E+02  0.29744105643E+02  0.43400710311E+02  0.00000000000E+00 0. -1.
         11    1    3    3    0    0  0.24417794631E+01 -0.18057040886E+00 -0.11757727709E+01  0.27161249030E+01  0.51100000000E-03 0. -1.
        -11    1    3    3    0    0  0.71362587962E+01  0.16720352565E+01 -0.53286549291E+01  0.90618130151E+01  0.51100000000E-03 0.  1.
        -12    1    3    3    0    0  0.34961324759E+01  0.27283105428E+02 -0.23239677943E+02  0.36009351771E+02  0.00000000000E+00 0.  1.
</event>
<event>
 7    1  0.5038211E-009  0.4778728E+02  0.7816164E-02  0.1312668E+00
        -11   -1    0    0    0    0  0.00000000000E+00  0.00000000000E+00  0.45593999997E+02  0.45594000000E+02  0.51100000000E-03 0.  1.
         11   -1    0    0    0    0 -0.00000000000E+00 -0.00000000000E+00 -0.45593999997E+02  0.45594000000E+02  0.51100000000E-03 0. -1.
    9900012    2    1    2    0    0 -0.22488224367E+02 -0.33378094870E+02  0.16242088214E+02  0.47787275561E+02  0.20000020592E+02 0.  0.
         12    1    1    2    0    0  0.22488224367E+02  0.33378094870E+02 -0.16242088214E+02  0.43400724439E+02  0.00000000000E+00 0. -1.
         11    1    3    3    0    0  0.16022088821E+01 -0.80683538086E+01  0.57182128974E+01  0.10018151800E+02  0.51100000000E-03 0. -1.
        -11    1    3    3    0    0 -0.12515246453E+02 -0.62928472882E+01  0.42756365879E+01  0.14646241472E+02  0.51100000000E-03 0.  1.
        -12    1    3    3    0    0 -0.11575186796E+02 -0.19016893773E+02  0.62482387289E+01  0.23122882289E+02  0.00000000000E+00 0.  1.
</event>
<event>
 7    1  0.5038211E-009  0.4778730E+02  0.7816164E-02  0.1312668E+00
        -11   -1    0    0    0    0  0.00000000000E+00  0.00000000000E+00  0.45593999997E+02  0.45594000000E+02  0.51100000000E-03 0. -1.
         11   -1    0    0    0    0 -0.00000000000E+00 -0.00000000000E+00 -0.45593999997E+02  0.45594000000E+02  0.51100000000E-03 0.  1.
    9900012    2    1    2    0    0  0.35933563373E+02 -0.19627678566E+02 -0.14392840066E+02  0.47787301990E+02  0.20000141094E+02 0.  0.
         12    1    1    2    0    0 -0.35933563373E+02  0.19627678566E+02  0.14392840066E+02  0.43400698010E+02  0.00000000000E+00 0. -1.
         11    1    3    3    0    0  0.94361019323E+01 -0.13235994833E+02 -0.16935357975E+00  0.16256083778E+02  0.51100000000E-03 0. -1.
        -11    1    3    3    0    0  0.18768101619E+02 -0.72031993028E+01 -0.12142921050E+02  0.23485703108E+02  0.51100000000E-03 0.  1.
         12    1    3    3    0    0  0.77293598213E+01  0.81151556976E+00 -0.20805654369E+01  0.80455151050E+01  0.00000000000E+00 0. -1.
</event>
<event>
 7    1  0.5038211E-009  0.4778729E+02  0.7816164E-02  0.1312668E+00
        -11   -1    0    0    0    0  0.00000000000E+00  0.00000000000E+00  0.45593999997E+02  0.45594000000E+02  0.51100000000E-03 0.  1.
         11   -1    0    0    0    0 -0.00000000000E+00 -0.00000000000E+00 -0.45593999997E+02  0.45594000000E+02  0.51100000000E-03 0. -1.
    9900012    2    1    2    0    0  0.30133529189E+02  0.19091330191E+02  0.24720707597E+02  0.47787287402E+02  0.20000074583E+02 0.  0.
         12    1    1    2    0    0 -0.30133529189E+02 -0.19091330191E+02 -0.24720707597E+02  0.43400712598E+02  0.00000000000E+00 0. -1.
         11    1    3    3    0    0  0.16140915205E+01  0.87894319150E+01  0.83298755221E+01  0.12216637479E+02  0.51100000000E-03 0. -1.
        -11    1    3    3    0    0  0.26886632553E+02  0.70163478208E+01  0.13463124819E+02  0.30876785404E+02  0.51100000000E-03 0.  1.
        -12    1    3    3    0    0  0.16328051160E+01  0.32855504553E+01  0.29277072566E+01  0.46938645188E+01  0.00000000000E+00 0.  1.
</event>
<event>
 7    1  0.5038211E-009  0.4778728E+02  0.7816164E-02  0.1312668E+00
        -11   -1    0    0    0    0  0.00000000000E+00  0.00000000000E+00  0.45593999997E+02  0.45594000000E+02  0.51100000000E-03 0.  1.
         11   -1    0    0    0    0 -0.00000000000E+00 -0.00000000000E+00 -0.45593999997E+02  0.45594000000E+02  0.51100000000E-03 0. -1.
    9900012    2    1    2    0    0 -0.26692539391E+02  0.42080661983E+01  0.33962084913E+02  0.47787277749E+02  0.20000030569E+02 0.  0.
         12    1    1    2    0    0  0.26692539391E+02 -0.42080661983E+01 -0.33962084913E+02  0.43400722251E+02  0.00000000000E+00 0. -1.
         11    1    3    3    0    0 -0.47285413343E+01 -0.19727347121E+01  0.21050543329E+01  0.55391370628E+01  0.51100000000E-03 0. -1.
        -11    1    3    3    0    0 -0.32070451138E+01  0.24245203756E+01 -0.10765388980E+01  0.41620155782E+01  0.51100000000E-03 0.  1.
        -12    1    3    3    0    0 -0.18756952942E+02  0.37562805348E+01  0.32933569479E+02  0.38086125108E+02  0.00000000000E+00 0.  1.
</event>
<event>
 7    1  0.5038211E-009  0.4778727E+02  0.7816164E-02  0.1312668E+00
        -11   -1    0    0    0    0  0.00000000000E+00  0.00000000000E+00  0.45593999997E+02  0.45594000000E+02  0.51100000000E-03 0. -1.
         11   -1    0    0    0    0 -0.00000000000E+00 -0.00000000000E+00 -0.45593999997E+02  0.45594000000E+02  0.51100000000E-03 0.  1.
    9900012    2    1    2    0    0 -0.41377742172E+02  0.43781569305E+01  0.12342505736E+02  0.47787271283E+02  0.20000001088E+02 0.  0.
         12    1    1    2    0    0  0.41377742172E+02 -0.43781569305E+01 -0.12342505736E+02  0.43400728717E+02  0.00000000000E+00 0. -1.
         11    1    3    3    0    0 -0.11732487943E+02 -0.62705493239E+01  0.67233640024E+01  0.14905525348E+02  0.51100000000E-03 0. -1.
        -11    1    3    3    0    0 -0.18219574451E+02  0.33679745191E+01  0.95399636464E+00  0.18552796416E+02  0.51100000000E-03 0.  1.
         12    1    3    3    0    0 -0.11425679778E+02  0.72807317352E+01  0.46651453687E+01  0.14328949519E+02  0.00000000000E+00 0. -1.
</event>
<event>
 7    1  0.5038211E-009  0.4778728E+02  0.7816164E-02  0.1312668E+00
        -11   -1    0    0    0    0  0.00000000000E+00  0.00000000000E+00  0.45593999997E+02  0.45594000000E+02  0.51100000000E-03 0. -1.
         11   -1    0    0    0    0 -0.00000000000E+00 -0.00000000000E+00 -0.45593999997E+02  0.45594000000E+02  0.51100000000E-03 0.  1.
    9900012    2    1    2    0    0  0.10796632172E+02 -0.32616886799E+02 -0.26517809391E+02  0.47787276670E+02  0.20000025647E+02 0.  0.
         12    1    1    2    0    0 -0.10796632172E+02  0.32616886799E+02  0.26517809391E+02  0.43400723330E+02  0.00000000000E+00 0. -1.
         11    1    3    3    0    0  0.44025527940E+01 -0.17047741040E+02 -0.81039014360E+01  0.19382496341E+02  0.51100000000E-03 0. -1.
        -11    1    3    3    0    0  0.87348366351E+01 -0.52665588497E+01 -0.13028692086E+02  0.16546323788E+02  0.51100000000E-03 0.  1.
        -12    1    3    3    0    0 -0.23407572576E+01 -0.10302586910E+02 -0.53852158685E+01  0.11858456541E+02  0.00000000000E+00 0.  1.
</event>
<event>
 7    1  0.5038211E-009  0.4778727E+02  0.7816164E-02  0.1312668E+00
        -11   -1    0    0    0    0  0.00000000000E+00  0.00000000000E+00  0.45593999997E+02  0.45594000000E+02  0.51100000000E-03 0.  1.
         11   -1    0    0    0    0 -0.00000000000E+00 -0.00000000000E+00 -0.45593999997E+02  0.45594000000E+02  0.51100000000E-03 0. -1.
    9900012    2    1    2    0    0  0.34587817617E+02 -0.12847246393E+02  0.22852883021E+02  0.47787272704E+02  0.20000007568E+02 0.  0.
         12    1    1    2    0    0 -0.34587817617E+02  0.12847246393E+02 -0.22852883021E+02  0.43400727296E+02  0.00000000000E+00 0. -1.
         11    1    3    3    0    0  0.12595929289E+01  0.28561321314E+01 -0.11189478794E+01  0.33160382562E+01  0.51100000000E-03 0. -1.
        -11    1    3    3    0    0  0.24894699510E+02 -0.14808521447E+02  0.18973104067E+02  0.34626825574E+02  0.51100000000E-03 0.  1.
        -12    1    3    3    0    0  0.84335251781E+01 -0.89485707731E+00  0.49987268339E+01  0.98444088740E+01  0.00000000000E+00 0.  1.
</event>
<event>
 7    1  0.5038211E-009  0.4778727E+02  0.7816164E-02  0.1312668E+00
        -11   -1    0    0    0    0  0.00000000000E+00  0.00000000000E+00  0.45593999997E+02  0.45594000000E+02  0.51100000000E-03 0.  1.
         11   -1    0    0    0    0 -0.00000000000E+00 -0.00000000000E+00 -0.45593999997E+02  0.45594000000E+02  0.51100000000E-03 0. -1.
    9900012    2    1    2    0    0 -0.30190189963E+02 -0.92231952746E+01  0.29784362056E+02  0.47787272770E+02  0.20000007865E+02 0.  0.
         12    1    1    2    0    0  0.30190189963E+02  0.92231952746E+01 -0.29784362056E+02  0.43400727230E+02  0.00000000000E+00 0. -1.
         11    1    3    3    0    0 -0.44938601859E+00 -0.97929644745E+00 -0.90810658892E+00  0.14091228348E+01  0.51100000000E-03 0. -1.
        -11    1    3    3    0    0 -0.18482979077E+02 -0.12893366733E+02  0.18683228845E+02  0.29273237976E+02  0.51100000000E-03 0.  1.
        -12    1    3    3    0    0 -0.11257824867E+02  0.46494679056E+01  0.12009239800E+02  0.17104911959E+02  0.00000000000E+00 0.  1.
</event>
<event>
 7    1  0.5038211E-009  0.4778723E+02  0.7816164E-02  0.1312668E+00
        -11   -1    0    0    0    0  0.00000000000E+00  0.00000000000E+00  0.45593999997E+02  0.45594000000E+02  0.51100000000E-03 0.  1.
         11   -1    0    0    0    0 -0.00000000000E+00 -0.00000000000E+00 -0.45593999997E+02  0.45594000000E+02  0.51100000000E-03 0. -1.
    9900012    2    1    2    0    0 -0.35732708349E+02  0.15557252996E+02  0.19099017328E+02  0.47787227776E+02  0.19999802723E+02 0.  0.
         12    1    1    2    0    0  0.35732708349E+02 -0.15557252996E+02 -0.19099017328E+02  0.43400772224E+02  0.00000000000E+00 0. -1.
         11    1    3    3    0    0 -0.78248739634E+01 -0.19510479537E+01 -0.46027221291E+00  0.80775671729E+01  0.51100000000E-03 0. -1.
        -11    1    3    3    0    0 -0.30524668244E+01  0.66533609023E+01  0.28622212794E+01  0.78598394337E+01  0.51100000000E-03 0.  1.
         12    1    3    3    0    0 -0.24855367561E+02  0.10854940048E+02  0.16697068261E+02  0.31849821170E+02  0.00000000000E+00 0. -1.
</event>
<event>
 7    1  0.5038211E-009  0.4778727E+02  0.7816164E-02  0.1312668E+00
        -11   -1    0    0    0    0  0.00000000000E+00  0.00000000000E+00  0.45593999997E+02  0.45594000000E+02  0.51100000000E-03 0.  1.
         11   -1    0    0    0    0 -0.00000000000E+00 -0.00000000000E+00 -0.45593999997E+02  0.45594000000E+02  0.51100000000E-03 0. -1.
    9900012    2    1    2    0    0 -0.11736596973E+02  0.28675372250E+02  0.30390763326E+02  0.47787272152E+02  0.20000005050E+02 0.  0.
         12    1    1    2    0    0  0.11736596973E+02 -0.28675372250E+02 -0.30390763326E+02  0.43400727848E+02  0.00000000000E+00 0. -1.
         11    1    3    3    0    0  0.43604390079E+01  0.12135731978E+01  0.20119109352E+01  0.49531781837E+01  0.51100000000E-03 0. -1.
        -11    1    3    3    0    0 -0.13561123096E+02  0.22057587120E+02  0.24910080312E+02  0.35929838722E+02  0.51100000000E-03 0.  1.
         12    1    3    3    0    0 -0.25359128848E+01  0.54042119322E+01  0.34687720787E+01  0.69042552459E+01  0.00000000000E+00 0. -1.
</event>
<event>
 7    1  0.5038211E-009  0.4778727E+02  0.7816164E-02  0.1312668E+00
        -11   -1    0    0    0    0  0.00000000000E+00  0.00000000000E+00  0.45593999997E+02  0.45594000000E+02  0.51100000000E-03 0.  1.
         11   -1    0    0    0    0 -0.00000000000E+00 -0.00000000000E+00 -0.45593999997E+02  0.45594000000E+02  0.51100000000E-03 0. -1.
    9900012    2    1    2    0    0 -0.11009045588E+02  0.38890096836E+02  0.15810904723E+02  0.47787269305E+02  0.19999992071E+02 0.  0.
         12    1    1    2    0    0  0.11009045588E+02 -0.38890096836E+02 -0.15810904723E+02  0.43400730695E+02  0.00000000000E+00 0. -1.
         11    1    3    3    0    0 -0.31707643224E+01  0.15282932404E+02  0.13602646240E+02  0.20703955039E+02  0.51100000000E-03 0. -1.
        -11    1    3    3    0    0 -0.39421984813E+01  0.22565524847E+02  0.12687163352E+01  0.22942394859E+02  0.51100000000E-03 0.  1.
         12    1    3    3    0    0 -0.38960827847E+01  0.10416395853E+01  0.93954214714E+00  0.41409194072E+01  0.00000000000E+00 0. -1.
</event>
<event>
 7    1  0.5038211E-009  0.4778727E+02  0.7816164E-02  0.1312668E+00
        -11   -1    0    0    0    0  0.00000000000E+00  0.00000000000E+00  0.45593999997E+02  0.45594000000E+02  0.51100000000E-03 0.  1.
         11   -1    0    0    0    0 -0.00000000000E+00 -0.00000000000E+00 -0.45593999997E+02  0.45594000000E+02  0.51100000000E-03 0. -1.
    9900012    2    1    2    0    0 -0.22394340168E+02  0.12058322569E+02  0.35166944454E+02  0.47787267322E+02  0.19999983028E+02 0.  0.
         12    1    1    2    0    0  0.22394340168E+02 -0.12058322569E+02 -0.35166944454E+02  0.43400732678E+02  0.00000000000E+00 0. -1.
         11    1    3    3    0    0 -0.57074229485E+01  0.47302182701E+00 -0.20462855002E+00  0.57306456413E+01  0.51100000000E-03 0. -1.
        -11    1    3    3    0    0 -0.12062578882E+02  0.29448055573E+01  0.24171771484E+02  0.27174477474E+02  0.51100000000E-03 0.  1.
         12    1    3    3    0    0 -0.46243383381E+01  0.86404951848E+01  0.11199801520E+02  0.14882144207E+02  0.00000000000E+00 0. -1.
</event>
<event>
 7    1  0.5038211E-009  0.4778728E+02  0.7816164E-02  0.1312668E+00
        -11   -1    0    0    0    0  0.00000000000E+00  0.00000000000E+00  0.45593999997E+02  0.45594000000E+02  0.51100000000E-03 0.  1.
         11   -1    0    0    0    0 -0.00000000000E+00 -0.00000000000E+00 -0.45593999997E+02  0.45594000000E+02  0.51100000000E-03 0. -1.
    9900012    2    1    2    0    0 -0.26533827990E+02 -0.22219286616E+02  0.26189347359E+02  0.47787278340E+02  0.20000033263E+02 0.  0.
         12    1    1    2    0    0  0.26533827990E+02  0.22219286616E+02 -0.26189347359E+02  0.43400721660E+02  0.00000000000E+00 0. -1.
         11    1    3    3    0    0 -0.11609182550E+02 -0.10994096081E+01  0.32980904220E+01  0.12118548661E+02  0.51100000000E-03 0. -1.
        -11    1    3    3    0    0 -0.14142316786E+02 -0.21433862564E+02  0.23350963383E+02  0.34708544764E+02  0.51100000000E-03 0.  1.
        -12    1    3    3    0    0 -0.78232865477E+00  0.31398555619E+00 -0.45970644599E+00  0.96018491451E+00  0.00000000000E+00 0.  1.
</event>
<event>
 7    1  0.5038211E-009  0.4778726E+02  0.7816164E-02  0.1312668E+00
        -11   -1    0    0    0    0  0.00000000000E+00  0.00000000000E+00  0.45593999997E+02  0.45594000000E+02  0.51100000000E-03 0.  1.
         11   -1    0    0    0    0 -0.00000000000E+00 -0.00000000000E+00 -0.45593999997E+02  0.45594000000E+02  0.51100000000E-03 0. -1.
    9900012    2    1    2    0    0  0.32422840202E+02  0.28739173798E+02 -0.25383667612E+01  0.47787262873E+02  0.19999962745E+02 0.  0.
         12    1    1    2    0    0 -0.32422840202E+02 -0.28739173798E+02  0.25383667612E+01  0.43400737127E+02  0.00000000000E+00 0. -1.
         11    1    3    3    0    0  0.55081864902E+01 -0.14330573001E+01  0.33228363752E+01  0.65905245219E+01  0.51100000000E-03 0. -1.
        -11    1    3    3    0    0  0.12252910091E+02  0.17261429040E+02 -0.42828857953E+01  0.21597079645E+02  0.51100000000E-03 0.  1.
         12    1    3    3    0    0  0.14661743621E+02  0.12910802058E+02 -0.15783173411E+01  0.19599658706E+02  0.00000000000E+00 0. -1.
</event>
<event>
 7    1  0.5038211E-009  0.4778725E+02  0.7816164E-02  0.1312668E+00
        -11   -1    0    0    0    0  0.00000000000E+00  0.00000000000E+00  0.45593999997E+02  0.45594000000E+02  0.51100000000E-03 0.  1.
         11   -1    0    0    0    0 -0.00000000000E+00 -0.00000000000E+00 -0.45593999997E+02  0.45594000000E+02  0.51100000000E-03 0. -1.
    9900012    2    1    2    0    0 -0.63377893244E+01  0.20981744215E+02  0.37459628390E+02  0.47787252046E+02  0.19999913378E+02 0.  0.
         12    1    1    2    0    0  0.63377893244E+01 -0.20981744215E+02 -0.37459628390E+02  0.43400747954E+02  0.00000000000E+00 0. -1.
         11    1    3    3    0    0 -0.37905477684E+01 -0.90111354194E+00  0.10033915013E+02  0.10763814786E+02  0.51100000000E-03 0.  1.
        -11    1    3    3    0    0 -0.38065337658E+01  0.21669592735E+02  0.20804498725E+02  0.30280160437E+02  0.51100000000E-03 0. -1.
        -12    1    3    3    0    0  0.12592922098E+01  0.21326502220E+00  0.66212146524E+01  0.67432768231E+01  0.00000000000E+00 0.  1.
</event>
<event>
 7    1  0.5038211E-009  0.4778726E+02  0.7816164E-02  0.1312668E+00
        -11   -1    0    0    0    0  0.00000000000E+00  0.00000000000E+00  0.45593999997E+02  0.45594000000E+02  0.51100000000E-03 0. -1.
         11   -1    0    0    0    0 -0.00000000000E+00 -0.00000000000E+00 -0.45593999997E+02  0.45594000000E+02  0.51100000000E-03 0.  1.
    9900012    2    1    2    0    0  0.98034622860E+01 -0.42086797811E+02 -0.40271039355E+01  0.47787262807E+02  0.19999962444E+02 0.  0.
         12    1    1    2    0    0 -0.98034622860E+01  0.42086797811E+02  0.40271039355E+01  0.43400737193E+02  0.00000000000E+00 0. -1.
         11    1    3    3    0    0  0.27697446379E+01 -0.37174259940E+02 -0.42106096012E+01  0.37514348200E+02  0.51100000000E-03 0. -1.
        -11    1    3    3    0    0  0.64253698489E+01 -0.61358589326E+01 -0.62490873552E-01  0.88847086562E+01  0.51100000000E-03 0.  1.
         12    1    3    3    0    0  0.60834779924E+00  0.12233210616E+01  0.24599653929E+00  0.13882059508E+01  0.00000000000E+00 0. -1.
</event>
<event>
 7    1  0.5038211E-009  0.4778727E+02  0.7816164E-02  0.1312668E+00
        -11   -1    0    0    0    0  0.00000000000E+00  0.00000000000E+00  0.45593999997E+02  0.45594000000E+02  0.51100000000E-03 0. -1.
         11   -1    0    0    0    0 -0.00000000000E+00 -0.00000000000E+00 -0.45593999997E+02  0.45594000000E+02  0.51100000000E-03 0.  1.
    9900012    2    1    2    0    0  0.27262491849E+02 -0.30337641940E+02  0.14832642889E+02  0.47787271027E+02  0.19999999921E+02 0.  0.
         12    1    1    2    0    0 -0.27262491849E+02  0.30337641940E+02 -0.14832642889E+02  0.43400728973E+02  0.00000000000E+00 0. -1.
         11    1    3    3    0    0  0.14924042532E+01 -0.78035613912E-02  0.50248402766E+01  0.52417889520E+01  0.51100000000E-03 0. -1.
        -11    1    3    3    0    0  0.13560621954E+02 -0.21502716658E+02  0.18045639336E+01  0.25485559493E+02  0.51100000000E-03 0.  1.
        -12    1    3    3    0    0  0.12209465642E+02 -0.88271217210E+01  0.80032386788E+01  0.17059922582E+02  0.00000000000E+00 0.  1.
</event>
<event>
 7    1  0.5038211E-009  0.4778725E+02  0.7816164E-02  0.1312668E+00
        -11   -1    0    0    0    0  0.00000000000E+00  0.00000000000E+00  0.45593999997E+02  0.45594000000E+02  0.51100000000E-03 0.  1.
         11   -1    0    0    0    0 -0.00000000000E+00 -0.00000000000E+00 -0.45593999997E+02  0.45594000000E+02  0.51100000000E-03 0. -1.
    9900012    2    1    2    0    0  0.88886826511E+01  0.39594915122E+02  0.15390236455E+02  0.47787247001E+02  0.19999890374E+02 0.  0.
         12    1    1    2    0    0 -0.88886826511E+01 -0.39594915122E+02 -0.15390236455E+02  0.43400752999E+02  0.00000000000E+00 0. -1.
         11    1    3    3    0    0 -0.20262698376E+01  0.20239943115E+01  0.65532600108E+00  0.29379882329E+01  0.51100000000E-03 0. -1.
        -11    1    3    3    0    0  0.34920218104E+01  0.33585591918E+01  0.77669093248E+01  0.91541802959E+01  0.51100000000E-03 0.  1.
        -12    1    3    3    0    0  0.74229306783E+01  0.34212361619E+02  0.69680011292E+01  0.35695078472E+02  0.00000000000E+00 0.  1.
</event>
<event>
 7    1  0.5038211E-009  0.4778728E+02  0.7816164E-02  0.1312668E+00
        -11   -1    0    0    0    0  0.00000000000E+00  0.00000000000E+00  0.45593999997E+02  0.45594000000E+02  0.51100000000E-03 0.  1.
         11   -1    0    0    0    0 -0.00000000000E+00 -0.00000000000E+00 -0.45593999997E+02  0.45594000000E+02  0.51100000000E-03 0. -1.
    9900012    2    1    2    0    0  0.31402704887E+02  0.27373669706E+02  0.12172695764E+02  0.47787283536E+02  0.20000056955E+02 0.  0.
         12    1    1    2    0    0 -0.31402704887E+02 -0.27373669706E+02 -0.12172695764E+02  0.43400716464E+02  0.00000000000E+00 0. -1.
         11    1    3    3    0    0  0.27655523081E+02  0.24031358266E+02  0.12519183022E+02  0.38717748912E+02  0.51100000000E-03 0. -1.
        -11    1    3    3    0    0 -0.19093396259E+01  0.22533892053E+01 -0.13066933897E+01  0.32296731403E+01  0.51100000000E-03 0.  1.
         12    1    3    3    0    0  0.56565214315E+01  0.10889222351E+01  0.96020613151E+00  0.58398614842E+01  0.00000000000E+00 0. -1.
</event>
<event>
 7    1  0.5038211E-009  0.4778725E+02  0.7816164E-02  0.1312668E+00
        -11   -1    0    0    0    0  0.00000000000E+00  0.00000000000E+00  0.45593999997E+02  0.45594000000E+02  0.51100000000E-03 0.  1.
         11   -1    0    0    0    0 -0.00000000000E+00 -0.00000000000E+00 -0.45593999997E+02  0.45594000000E+02  0.51100000000E-03 0. -1.
    9900012    2    1    2    0    0  0.14548541971E+02  0.16659406170E+02  0.37342054786E+02  0.47787251815E+02  0.19999912325E+02 0.  0.
         12    1    1    2    0    0 -0.14548541971E+02 -0.16659406170E+02 -0.37342054786E+02  0.43400748185E+02  0.00000000000E+00 0. -1.
         11    1    3    3    0    0  0.14461795471E+01 -0.24563951136E+01  0.12033313635E+01  0.30940780320E+01  0.51100000000E-03 0. -1.
        -11    1    3    3    0    0  0.62204500456E+01  0.18131767508E+02  0.28686786721E+02  0.34501981456E+02  0.51100000000E-03 0.  1.
        -12    1    3    3    0    0  0.68819123780E+01  0.98403377556E+00  0.74519367009E+01  0.10191192327E+02  0.00000000000E+00 0.  1.
</event>
<event>
 7    1  0.5573345E-009  0.4778729E+02  0.7816164E-02  0.1312668E+00
        -11   -1    0    0    0    0  0.00000000000E+00  0.00000000000E+00  0.45593999997E+02  0.45594000000E+02  0.51100000000E-03 0.  1.
         11   -1    0    0    0    0 -0.00000000000E+00 -0.00000000000E+00 -0.45593999997E+02  0.45594000000E+02  0.51100000000E-03 0. -1.
    9900012    2    1    2    0    0  0.30733751872E+02 -0.11200663741E+02 -0.28523734134E+02  0.47787288240E+02  0.20000078400E+02 0.  0.
         12    1    1    2    0    0 -0.30733751872E+02  0.11200663741E+02  0.28523734134E+02  0.43400711760E+02  0.00000000000E+00 0. -1.
         11    1    3    3    0    0  0.41986047266E+01  0.14216227847E+01  0.17284008369E+01  0.47578001961E+01  0.51100000000E-03 0.  1.
        -11    1    3    3    0    0  0.18424114189E+02 -0.11526347869E+02 -0.17622188916E+02  0.27979389223E+02  0.51100000000E-03 0. -1.
        -12    1    3    3    0    0  0.81110329564E+01 -0.10959386568E+01 -0.12629946054E+02  0.15050098820E+02  0.00000000000E+00 0.  1.
</event>
<event>
 7    1  0.5038211E-009  0.4778727E+02  0.7816164E-02  0.1312668E+00
        -11   -1    0    0    0    0  0.00000000000E+00  0.00000000000E+00  0.45593999997E+02  0.45594000000E+02  0.51100000000E-03 0.  1.
         11   -1    0    0    0    0 -0.00000000000E+00 -0.00000000000E+00 -0.45593999997E+02  0.45594000000E+02  0.51100000000E-03 0. -1.
    9900012    2    1    2    0    0  0.19126307686E+02  0.23741263677E+02  0.30889480344E+02  0.47787271404E+02  0.20000001641E+02 0.  0.
         12    1    1    2    0    0 -0.19126307686E+02 -0.23741263677E+02 -0.30889480344E+02  0.43400728596E+02  0.00000000000E+00 0. -1.
         11    1    3    3    0    0  0.22251824060E+01  0.11881210028E+01 -0.29012578497E+00  0.25391418805E+01  0.51100000000E-03 0. -1.
        -11    1    3    3    0    0  0.90001865575E+01  0.19715578077E+01  0.34862282653E+01  0.98511007526E+01  0.51100000000E-03 0.  1.
        -12    1    3    3    0    0  0.79009387228E+01  0.20581584866E+02  0.27693377864E+02  0.35397028771E+02  0.00000000000E+00 0.  1.
</event>
<event>
 7    1  0.5038211E-009  0.4778727E+02  0.7816164E-02  0.1312668E+00
        -11   -1    0    0    0    0  0.00000000000E+00  0.00000000000E+00  0.45593999997E+02  0.45594000000E+02  0.51100000000E-03 0.  1.
         11   -1    0    0    0    0 -0.00000000000E+00 -0.00000000000E+00 -0.45593999997E+02  0.45594000000E+02  0.51100000000E-03 0. -1.
    9900012    2    1    2    0    0 -0.42304823650E+02  0.95203117823E+01 -0.18134434601E+01  0.47787273996E+02  0.20000013456E+02 0.  0.
         12    1    1    2    0    0  0.42304823650E+02 -0.95203117823E+01  0.18134434601E+01  0.43400726004E+02  0.00000000000E+00 0. -1.
         11    1    3    3    0    0 -0.12536661114E+02 -0.39337454587E+01  0.24424991588E+01  0.13364431436E+02  0.51100000000E-03 0. -1.
        -11    1    3    3    0    0 -0.28280884616E+02  0.12894284565E+02 -0.13502635741E+01  0.31110998394E+02  0.51100000000E-03 0.  1.
        -12    1    3    3    0    0 -0.14872779208E+01  0.55977267569E+00 -0.29056790448E+01  0.33118441651E+01  0.00000000000E+00 0.  1.
</event>
<event>
 7    1  0.5038211E-009  0.4778727E+02  0.7816164E-02  0.1312668E+00
        -11   -1    0    0    0    0  0.00000000000E+00  0.00000000000E+00  0.45593999997E+02  0.45594000000E+02  0.51100000000E-03 0.  1.
         11   -1    0    0    0    0 -0.00000000000E+00 -0.00000000000E+00 -0.45593999997E+02  0.45594000000E+02  0.51100000000E-03 0. -1.
    9900012    2    1    2    0    0  0.16592022661E+02 -0.22970379899E+01  0.40038131096E+02  0.47787267965E+02  0.19999985958E+02 0.  0.
         12    1    1    2    0    0 -0.16592022661E+02  0.22970379899E+01 -0.40038131096E+02  0.43400732035E+02  0.00000000000E+00 0. -1.
         11    1    3    3    0    0  0.55067053666E+01  0.28583618812E+01  0.31994498187E+02  0.32590519345E+02  0.51100000000E-03 0.  1.
        -11    1    3    3    0    0  0.73465079465E+01 -0.52222691657E+01  0.66699662027E+01  0.11213015814E+02  0.51100000000E-03 0. -1.
         12    1    3    3    0    0  0.37388093482E+01  0.66869294633E-01  0.13736667062E+01  0.39837328054E+01  0.00000000000E+00 0. -1.
</event>
<event>
 7    1  0.5038211E-009  0.4778727E+02  0.7816164E-02  0.1312668E+00
        -11   -1    0    0    0    0  0.00000000000E+00  0.00000000000E+00  0.45593999997E+02  0.45594000000E+02  0.51100000000E-03 0.  1.
         11   -1    0    0    0    0 -0.00000000000E+00 -0.00000000000E+00 -0.45593999997E+02  0.45594000000E+02  0.51100000000E-03 0. -1.
    9900012    2    1    2    0    0  0.15622953258E+02  0.35216962208E+02  0.19982792220E+02  0.47787273271E+02  0.20000010153E+02 0.  0.
         12    1    1    2    0    0 -0.15622953258E+02 -0.35216962208E+02 -0.19982792220E+02  0.43400726729E+02  0.00000000000E+00 0. -1.
         11    1    3    3    0    0 -0.25540373193E+01 -0.54444995607E+00 -0.38446488039E+00  0.26395730504E+01  0.51100000000E-03 0. -1.
        -11    1    3    3    0    0  0.14069814799E+02  0.27139632063E+02  0.17253964293E+02  0.35102971399E+02  0.51100000000E-03 0.  1.
         12    1    3    3    0    0  0.41071757785E+01  0.86217801014E+01  0.31132928071E+01  0.10044728821E+02  0.00000000000E+00 0. -1.
</event>
<event>
 7    1  0.5038211E-009  0.4778725E+02  0.7816164E-02  0.1312668E+00
        -11   -1    0    0    0    0  0.00000000000E+00  0.00000000000E+00  0.45593999997E+02  0.45594000000E+02  0.51100000000E-03 0. -1.
         11   -1    0    0    0    0 -0.00000000000E+00 -0.00000000000E+00 -0.45593999997E+02  0.45594000000E+02  0.51100000000E-03 0.  1.
    9900012    2    1    2    0    0 -0.10976311748E+02 -0.25769765262E+02 -0.33152150740E+02  0.47787247473E+02  0.19999892527E+02 0.  0.
         12    1    1    2    0    0  0.10976311748E+02  0.25769765262E+02  0.33152150740E+02  0.43400752527E+02  0.00000000000E+00 0. -1.
         11    1    3    3    0    0  0.24450989308E+01 -0.11144667540E+02 -0.51380696243E+01  0.12513268282E+02  0.51100000000E-03 0. -1.
        -11    1    3    3    0    0 -0.47378558386E+01 -0.28166931055E+01 -0.13783750579E+02  0.14844959356E+02  0.51100000000E-03 0.  1.
         12    1    3    3    0    0 -0.86835548399E+01 -0.11808404617E+02 -0.14230330537E+02  0.20429019835E+02  0.00000000000E+00 0. -1.
</event>
<event>
 7    1  0.5038211E-009  0.4778727E+02  0.7816164E-02  0.1312668E+00
        -11   -1    0    0    0    0  0.00000000000E+00  0.00000000000E+00  0.45593999997E+02  0.45594000000E+02  0.51100000000E-03 0. -1.
         11   -1    0    0    0    0 -0.00000000000E+00 -0.00000000000E+00 -0.45593999997E+02  0.45594000000E+02  0.51100000000E-03 0.  1.
    9900012    2    1    2    0    0 -0.19112558455E+02 -0.36335802698E+02 -0.14072780914E+02  0.47787267160E+02  0.19999982290E+02 0.  0.
         12    1    1    2    0    0  0.19112558455E+02  0.36335802698E+02  0.14072780914E+02  0.43400732840E+02  0.00000000000E+00 0. -1.
         11    1    3    3    0    0 -0.95129233746E+01 -0.47465812179E+01  0.79774624852E+00  0.10661244943E+02  0.51100000000E-03 0. -1.
        -11    1    3    3    0    0 -0.70016769267E+01 -0.13616531483E+02 -0.35186495789E+01  0.15710324775E+02  0.51100000000E-03 0.  1.
         12    1    3    3    0    0 -0.25979581542E+01 -0.17972689997E+02 -0.11351877583E+02  0.21415697443E+02  0.00000000000E+00 0. -1.
</event>
<event>
 7    1  0.5038211E-009  0.4778727E+02  0.7816164E-02  0.1312668E+00
        -11   -1    0    0    0    0  0.00000000000E+00  0.00000000000E+00  0.45593999997E+02  0.45594000000E+02  0.51100000000E-03 0.  1.
         11   -1    0    0    0    0 -0.00000000000E+00 -0.00000000000E+00 -0.45593999997E+02  0.45594000000E+02  0.51100000000E-03 0. -1.
    9900012    2    1    2    0    0 -0.34863756084E+02 -0.24526894719E+02  0.81592390600E+01  0.47787271494E+02  0.20000002048E+02 0.  0.
         12    1    1    2    0    0  0.34863756084E+02  0.24526894719E+02 -0.81592390600E+01  0.43400728506E+02  0.00000000000E+00 0. -1.
         11    1    3    3    0    0 -0.24016248641E+02 -0.11515640727E+02 -0.27568363929E+01  0.26776675060E+02  0.51100000000E-03 0. -1.
        -11    1    3    3    0    0 -0.90240420400E+01 -0.12833114861E+02  0.81131056748E+01  0.17661955037E+02  0.51100000000E-03 0.  1.
         12    1    3    3    0    0 -0.18234654031E+01 -0.17813913130E+00  0.28029697780E+01  0.33486413965E+01  0.00000000000E+00 0. -1.
</event>
<event>
 7    1  0.5038211E-009  0.4778726E+02  0.7816164E-02  0.1312668E+00
        -11   -1    0    0    0    0  0.00000000000E+00  0.00000000000E+00  0.45593999997E+02  0.45594000000E+02  0.51100000000E-03 0.  1.
         11   -1    0    0    0    0 -0.00000000000E+00 -0.00000000000E+00 -0.45593999997E+02  0.45594000000E+02  0.51100000000E-03 0. -1.
    9900012    2    1    2    0    0 -0.39171660040E+02 -0.10982478780E+02 -0.15119198914E+02  0.47787263068E+02  0.19999963632E+02 0.  0.
         12    1    1    2    0    0  0.39171660040E+02  0.10982478780E+02  0.15119198914E+02  0.43400736932E+02  0.00000000000E+00 0. -1.
         11    1    3    3    0    0 -0.14449485364E+02 -0.30538951738E+01 -0.10612674488E+02  0.18186334514E+02  0.51100000000E-03 0. -1.
        -11    1    3    3    0    0 -0.10672376905E+02 -0.53991452954E+01  0.44350163877E+01  0.12756165934E+02  0.51100000000E-03 0.  1.
        -12    1    3    3    0    0 -0.14049797771E+02 -0.25294383107E+01 -0.89415408139E+01  0.16844762619E+02  0.00000000000E+00 0.  1.
</event>
<event>
 7    1  0.5038211E-009  0.4778727E+02  0.7816164E-02  0.1312668E+00
        -11   -1    0    0    0    0  0.00000000000E+00  0.00000000000E+00  0.45593999997E+02  0.45594000000E+02  0.51100000000E-03 0.  1.
         11   -1    0    0    0    0 -0.00000000000E+00 -0.00000000000E+00 -0.45593999997E+02  0.45594000000E+02  0.51100000000E-03 0. -1.
    9900012    2    1    2    0    0  0.38301852471E+02  0.13298045680E+02  0.15483967253E+02  0.47787272316E+02  0.20000005799E+02 0.  0.
         12    1    1    2    0    0 -0.38301852471E+02 -0.13298045680E+02 -0.15483967253E+02  0.43400727684E+02  0.00000000000E+00 0. -1.
         11    1    3    3    0    0  0.14883819296E+02  0.50006646773E-01  0.11651439380E+01  0.14929438642E+02  0.51100000000E-03 0. -1.
        -11    1    3    3    0    0  0.15508698158E+02  0.71337336741E+01  0.15153056091E+02  0.22825971696E+02  0.51100000000E-03 0.  1.
        -12    1    3    3    0    0  0.79093350168E+01  0.61143053596E+01 -0.83423277666E+00  0.10031861979E+02  0.00000000000E+00 0.  1.
</event>
<event>
 7    1  0.5038211E-009  0.4778729E+02  0.7816164E-02  0.1312668E+00
        -11   -1    0    0    0    0  0.00000000000E+00  0.00000000000E+00  0.45593999997E+02  0.45594000000E+02  0.51100000000E-03 0. -1.
         11   -1    0    0    0    0 -0.00000000000E+00 -0.00000000000E+00 -0.45593999997E+02  0.45594000000E+02  0.51100000000E-03 0.  1.
    9900012    2    1    2    0    0 -0.77997693658E+01  0.17363624907E+02 -0.39003710086E+02  0.47787294101E+02  0.20000105124E+02 0.  0.
         12    1    1    2    0    0  0.77997693658E+01 -0.17363624907E+02  0.39003710086E+02  0.43400705899E+02  0.00000000000E+00 0. -1.
         11    1    3    3    0    0  0.23902507317E+00 -0.21506196975E+00 -0.20024129466E+01  0.20280637333E+01  0.51100000000E-03 0. -1.
        -11    1    3    3    0    0 -0.11239809072E+02  0.16886881803E+02 -0.20148904710E+02  0.28591579989E+02  0.51100000000E-03 0.  1.
        -12    1    3    3    0    0  0.32010146326E+01  0.69180507325E+00 -0.16852392429E+02  0.17167650379E+02  0.00000000000E+00 0.  1.
</event>
<event>
 7    1  0.5038211E-009  0.4778727E+02  0.7816164E-02  0.1312668E+00
        -11   -1    0    0    0    0  0.00000000000E+00  0.00000000000E+00  0.45593999997E+02  0.45594000000E+02  0.51100000000E-03 0. -1.
         11   -1    0    0    0    0 -0.00000000000E+00 -0.00000000000E+00 -0.45593999997E+02  0.45594000000E+02  0.51100000000E-03 0.  1.
    9900012    2    1    2    0    0 -0.27418532890E+02  0.21998508330E+02 -0.25454136798E+02  0.47787269653E+02  0.19999993654E+02 0.  0.
         12    1    1    2    0    0  0.27418532890E+02 -0.21998508330E+02  0.25454136798E+02  0.43400730347E+02  0.00000000000E+00 0. -1.
         11    1    3    3    0    0 -0.39111005037E+01  0.74884033538E+01  0.19145627279E+01  0.86624732404E+01  0.51100000000E-03 0. -1.
        -11    1    3    3    0    0 -0.19317468902E+02  0.10272722743E+02 -0.19949456908E+02  0.29608685694E+02  0.51100000000E-03 0.  1.
        -12    1    3    3    0    0 -0.41899634839E+01  0.42373822331E+01 -0.74192426176E+01  0.95161107184E+01  0.00000000000E+00 0.  1.
</event>
<event>
 7    1  0.5038211E-009  0.4778727E+02  0.7816164E-02  0.1312668E+00
        -11   -1    0    0    0    0  0.00000000000E+00  0.00000000000E+00  0.45593999997E+02  0.45594000000E+02  0.51100000000E-03 0. -1.
         11   -1    0    0    0    0 -0.00000000000E+00 -0.00000000000E+00 -0.45593999997E+02  0.45594000000E+02  0.51100000000E-03 0.  1.
    9900012    2    1    2    0    0  0.33121829342E+02 -0.12201720614E+02 -0.25252438546E+02  0.47787271694E+02  0.20000002963E+02 0.  0.
         12    1    1    2    0    0 -0.33121829342E+02  0.12201720614E+02  0.25252438546E+02  0.43400728306E+02  0.00000000000E+00 0. -1.
         11    1    3    3    0    0 -0.11817070255E+01 -0.13058621409E+01 -0.22749961338E+01  0.28770323417E+01  0.51100000000E-03 0. -1.
        -11    1    3    3    0    0  0.33252360344E+02 -0.78529250558E+01 -0.23735984250E+02  0.41602702424E+02  0.51100000000E-03 0.  1.
        -12    1    3    3    0    0  0.10511760237E+01 -0.30429334174E+01  0.75854183763E+00  0.33075369288E+01  0.00000000000E+00 0.  1.
</event>
<event>
 7    1  0.5038211E-009  0.4778727E+02  0.7816164E-02  0.1312668E+00
        -11   -1    0    0    0    0  0.00000000000E+00  0.00000000000E+00  0.45593999997E+02  0.45594000000E+02  0.51100000000E-03 0.  1.
         11   -1    0    0    0    0 -0.00000000000E+00 -0.00000000000E+00 -0.45593999997E+02  0.45594000000E+02  0.51100000000E-03 0. -1.
    9900012    2    1    2    0    0  0.35904104266E+02  0.68320831011E+01  0.23406004285E+02  0.47787273056E+02  0.20000009173E+02 0.  0.
         12    1    1    2    0    0 -0.35904104266E+02 -0.68320831011E+01 -0.23406004285E+02  0.43400726944E+02  0.00000000000E+00 0. -1.
         11    1    3    3    0    0 -0.47425589958E+00  0.22146252465E+01 -0.77504396117E+00  0.23937788209E+01  0.51100000000E-03 0. -1.
        -11    1    3    3    0    0  0.30329700508E+02  0.63603811178E+01  0.23823800497E+02  0.39088600016E+02  0.51100000000E-03 0.  1.
        -12    1    3    3    0    0  0.60486596582E+01 -0.17429232631E+01  0.35724774918E+00  0.63048942192E+01  0.00000000000E+00 0.  1.
</event>
<event>
 7    1  0.5038211E-009  0.4778726E+02  0.7816164E-02  0.1312668E+00
        -11   -1    0    0    0    0  0.00000000000E+00  0.00000000000E+00  0.45593999997E+02  0.45594000000E+02  0.51100000000E-03 0. -1.
         11   -1    0    0    0    0 -0.00000000000E+00 -0.00000000000E+00 -0.45593999997E+02  0.45594000000E+02  0.51100000000E-03 0.  1.
    9900012    2    1    2    0    0 -0.20790294738E+02 -0.35740105189E+02  0.13192133846E+02  0.47787264181E+02  0.19999968708E+02 0.  0.
         12    1    1    2    0    0  0.20790294738E+02  0.35740105189E+02 -0.13192133846E+02  0.43400735819E+02  0.00000000000E+00 0. -1.
         11    1    3    3    0    0 -0.11128625184E+02 -0.28411199915E+02  0.59109822427E+01  0.31080255636E+02  0.51100000000E-03 0. -1.
        -11    1    3    3    0    0 -0.97247745641E+01 -0.85281726444E+01  0.45293959857E+01  0.13704612261E+02  0.51100000000E-03 0.  1.
         12    1    3    3    0    0  0.63105010551E-01  0.11992673701E+01  0.27517556171E+01  0.30023962836E+01  0.00000000000E+00 0. -1.
</event>
<event>
 7    1  0.5038211E-009  0.4778727E+02  0.7816164E-02  0.1312668E+00
        -11   -1    0    0    0    0  0.00000000000E+00  0.00000000000E+00  0.45593999997E+02  0.45594000000E+02  0.51100000000E-03 0.  1.
         11   -1    0    0    0    0 -0.00000000000E+00 -0.00000000000E+00 -0.45593999997E+02  0.45594000000E+02  0.51100000000E-03 0. -1.
    9900012    2    1    2    0    0 -0.33772097155E+02  0.50541881134E+01 -0.26786634351E+02  0.47787272545E+02  0.20000006841E+02 0.  0.
         12    1    1    2    0    0  0.33772097155E+02 -0.50541881134E+01  0.26786634351E+02  0.43400727455E+02  0.00000000000E+00 0. -1.
         11    1    3    3    0    0 -0.14401275069E+02  0.10275571031E+02 -0.81924731985E+01  0.19496171445E+02  0.51100000000E-03 0. -1.
        -11    1    3    3    0    0 -0.14338067252E+02 -0.55121449604E+01 -0.10005648570E+02  0.18332400775E+02  0.51100000000E-03 0.  1.
         12    1    3    3    0    0 -0.50327548334E+01  0.29076204312E+00 -0.85885125834E+01  0.99587003256E+01  0.00000000000E+00 0. -1.
</event>
<event>
 7    1  0.5038211E-009  0.4778727E+02  0.7816164E-02  0.1312668E+00
        -11   -1    0    0    0    0  0.00000000000E+00  0.00000000000E+00  0.45593999997E+02  0.45594000000E+02  0.51100000000E-03 0. -1.
         11   -1    0    0    0    0 -0.00000000000E+00 -0.00000000000E+00 -0.45593999997E+02  0.45594000000E+02  0.51100000000E-03 0.  1.
    9900012    2    1    2    0    0 -0.61190158918E+01 -0.36480529950E+02  0.22701363804E+02  0.47787270289E+02  0.19999996554E+02 0.  0.
         12    1    1    2    0    0  0.61190158918E+01  0.36480529950E+02 -0.22701363804E+02  0.43400729711E+02  0.00000000000E+00 0. -1.
         11    1    3    3    0    0 -0.72725556632E+01 -0.18655171125E+02  0.19843048054E+02  0.28189573106E+02  0.51100000000E-03 0. -1.
        -11    1    3    3    0    0 -0.12246631777E+00 -0.23202095443E+01 -0.22386836874E+01  0.32264648211E+01  0.51100000000E-03 0.  1.
         12    1    3    3    0    0  0.12760060891E+01 -0.15505149281E+02  0.50969994372E+01  0.16371232361E+02  0.00000000000E+00 0. -1.
</event>
<event>
 7    1  0.5038211E-009  0.4778728E+02  0.7816164E-02  0.1312668E+00
        -11   -1    0    0    0    0  0.00000000000E+00  0.00000000000E+00  0.45593999997E+02  0.45594000000E+02  0.51100000000E-03 0.  1.
         11   -1    0    0    0    0 -0.00000000000E+00 -0.00000000000E+00 -0.45593999997E+02  0.45594000000E+02  0.51100000000E-03 0. -1.
    9900012    2    1    2    0    0 -0.22414144850E+02  0.28942910959E+02  0.23313868011E+02  0.47787280815E+02  0.20000044548E+02 0.  0.
         12    1    1    2    0    0  0.22414144850E+02 -0.28942910959E+02 -0.23313868011E+02  0.43400719185E+02  0.00000000000E+00 0. -1.
         11    1    3    3    0    0 -0.54734921488E+01  0.10961585251E+02 -0.68133634645E-01  0.12252351202E+02  0.51100000000E-03 0. -1.
        -11    1    3    3    0    0 -0.14042845742E+02  0.75865400855E+01  0.14323445439E+02  0.21445703451E+02  0.51100000000E-03 0.  1.
         12    1    3    3    0    0 -0.28978069595E+01  0.10394785622E+02  0.90585562070E+01  0.14089226162E+02  0.00000000000E+00 0. -1.
</event>
<event>
 7    1  0.5038211E-009  0.4778727E+02  0.7816164E-02  0.1312668E+00
        -11   -1    0    0    0    0  0.00000000000E+00  0.00000000000E+00  0.45593999997E+02  0.45594000000E+02  0.51100000000E-03 0. -1.
         11   -1    0    0    0    0 -0.00000000000E+00 -0.00000000000E+00 -0.45593999997E+02  0.45594000000E+02  0.51100000000E-03 0.  1.
    9900012    2    1    2    0    0  0.16248295054E+02  0.40060446822E+02 -0.38440527834E+01  0.47787271509E+02  0.20000002120E+02 0.  0.
         12    1    1    2    0    0 -0.16248295054E+02 -0.40060446822E+02  0.38440527834E+01  0.43400728491E+02  0.00000000000E+00 0. -1.
         11    1    3    3    0    0  0.10649652112E+01  0.40340296828E+01 -0.22891320114E+01  0.47589570296E+01  0.51100000000E-03 0. -1.
        -11    1    3    3    0    0  0.20868238256E+01  0.25213894993E+02 -0.47636144730E+01  0.25744656873E+02  0.51100000000E-03 0.  1.
        -12    1    3    3    0    0  0.13096506017E+02  0.10812522146E+02  0.32086937010E+01  0.17283657607E+02  0.00000000000E+00 0.  1.
</event>
<event>
 7    1  0.5038211E-009  0.4778729E+02  0.7816164E-02  0.1312668E+00
        -11   -1    0    0    0    0  0.00000000000E+00  0.00000000000E+00  0.45593999997E+02  0.45594000000E+02  0.51100000000E-03 0.  1.
         11   -1    0    0    0    0 -0.00000000000E+00 -0.00000000000E+00 -0.45593999997E+02  0.45594000000E+02  0.51100000000E-03 0. -1.
    9900012    2    1    2    0    0 -0.20278861080E+02 -0.12161818572E+02  0.36393397331E+02  0.47787292552E+02  0.20000098063E+02 0.  0.
         12    1    1    2    0    0  0.20278861080E+02  0.12161818572E+02 -0.36393397331E+02  0.43400707448E+02  0.00000000000E+00 0. -1.
         11    1    3    3    0    0  0.20414638359E+01  0.12837444196E+01  0.15555976841E+01  0.28697488991E+01  0.51100000000E-03 0. -1.
        -11    1    3    3    0    0 -0.13147112590E+02 -0.10178432424E+02  0.29370160885E+02  0.33749865285E+02  0.51100000000E-03 0.  1.
        -12    1    3    3    0    0 -0.91732123256E+01 -0.32671305672E+01  0.54676387617E+01  0.11167678369E+02  0.00000000000E+00 0.  1.
</event>
<event>
 7    1  0.5038211E-009  0.4778727E+02  0.7816164E-02  0.1312668E+00
        -11   -1    0    0    0    0  0.00000000000E+00  0.00000000000E+00  0.45593999997E+02  0.45594000000E+02  0.51100000000E-03 0. -1.
         11   -1    0    0    0    0 -0.00000000000E+00 -0.00000000000E+00 -0.45593999997E+02  0.45594000000E+02  0.51100000000E-03 0.  1.
    9900012    2    1    2    0    0  0.57361962502E+01  0.39506228594E+02 -0.17028718501E+02  0.47787270756E+02  0.19999998684E+02 0.  0.
         12    1    1    2    0    0 -0.57361962502E+01 -0.39506228594E+02  0.17028718501E+02  0.43400729244E+02  0.00000000000E+00 0. -1.
         11    1    3    3    0    0 -0.17372118529E+01  0.61672332697E+01  0.14697179284E+01  0.65736399563E+01  0.51100000000E-03 0. -1.
        -11    1    3    3    0    0  0.95128334961E+01  0.31510608314E+02 -0.13626116193E+02  0.35624197959E+02  0.51100000000E-03 0.  1.
        -12    1    3    3    0    0 -0.20394253930E+01  0.18283870097E+01 -0.48723202364E+01  0.55894328404E+01  0.00000000000E+00 0.  1.
</event>
<event>
 7    1  0.5038211E-009  0.4778727E+02  0.7816164E-02  0.1312668E+00
        -11   -1    0    0    0    0  0.00000000000E+00  0.00000000000E+00  0.45593999997E+02  0.45594000000E+02  0.51100000000E-03 0. -1.
         11   -1    0    0    0    0 -0.00000000000E+00 -0.00000000000E+00 -0.45593999997E+02  0.45594000000E+02  0.51100000000E-03 0.  1.
    9900012    2    1    2    0    0 -0.34809104894E+01  0.37434774883E+02  0.21682806503E+02  0.47787271824E+02  0.20000003555E+02 0.  0.
         12    1    1    2    0    0  0.34809104894E+01 -0.37434774883E+02 -0.21682806503E+02  0.43400728176E+02  0.00000000000E+00 0. -1.
         11    1    3    3    0    0 -0.33578248725E+01  0.14396604778E+02  0.37328460318E+01  0.15247011405E+02  0.51100000000E-03 0.  1.
        -11    1    3    3    0    0  0.70555934580E+01  0.10153013122E+02  0.89203717557E+01  0.15245920996E+02  0.51100000000E-03 0. -1.
        -12    1    3    3    0    0 -0.71786790749E+01  0.12885156982E+02  0.90295887155E+01  0.17294339423E+02  0.00000000000E+00 0.  1.
</event>
<event>
 7    1  0.5038211E-009  0.4778727E+02  0.7816164E-02  0.1312668E+00
        -11   -1    0    0    0    0  0.00000000000E+00  0.00000000000E+00  0.45593999997E+02  0.45594000000E+02  0.51100000000E-03 0. -1.
         11   -1    0    0    0    0 -0.00000000000E+00 -0.00000000000E+00 -0.45593999997E+02  0.45594000000E+02  0.51100000000E-03 0.  1.
    9900012    2    1    2    0    0 -0.96447475652E+01 -0.38384823205E+02 -0.17810323295E+02  0.47787269315E+02  0.19999992117E+02 0.  0.
         12    1    1    2    0    0  0.96447475652E+01  0.38384823205E+02  0.17810323295E+02  0.43400730685E+02  0.00000000000E+00 0. -1.
         11    1    3    3    0    0 -0.14052603059E+02 -0.20980385690E+02 -0.83909705994E+01  0.26609408567E+02  0.51100000000E-03 0. -1.
        -11    1    3    3    0    0  0.41434493146E+01 -0.66150575039E+01 -0.60366636965E+01  0.98675461412E+01  0.51100000000E-03 0.  1.
         12    1    3    3    0    0  0.26440617874E+00 -0.10789380011E+02 -0.33826889989E+01  0.11310314607E+02  0.00000000000E+00 0. -1.
</event>
<event>
 7    1  0.5038211E-009  0.4778728E+02  0.7816164E-02  0.1312668E+00
        -11   -1    0    0    0    0  0.00000000000E+00  0.00000000000E+00  0.45593999997E+02  0.45594000000E+02  0.51100000000E-03 0.  1.
         11   -1    0    0    0    0 -0.00000000000E+00 -0.00000000000E+00 -0.45593999997E+02  0.45594000000E+02  0.51100000000E-03 0. -1.
    9900012    2    1    2    0    0 -0.35217080554E+02  0.10659685125E-01  0.25364936183E+02  0.47787275768E+02  0.20000021535E+02 0.  0.
         12    1    1    2    0    0  0.35217080554E+02 -0.10659685125E-01 -0.25364936183E+02  0.43400724232E+02  0.00000000000E+00 0. -1.
         11    1    3    3    0    0 -0.16493223051E+01  0.41626717945E+01  0.24429508543E+01  0.51005989523E+01  0.51100000000E-03 0. -1.
        -11    1    3    3    0    0 -0.32905705139E+02 -0.56211923895E+01  0.23657512035E+02  0.40915291891E+02  0.51100000000E-03 0.  1.
        -12    1    3    3    0    0 -0.66205310959E+00  0.14691802801E+01 -0.73552670650E+00  0.17713849246E+01  0.00000000000E+00 0.  1.
</event>
<event>
 7    1  0.5038211E-009  0.4778727E+02  0.7816164E-02  0.1312668E+00
        -11   -1    0    0    0    0  0.00000000000E+00  0.00000000000E+00  0.45593999997E+02  0.45594000000E+02  0.51100000000E-03 0.  1.
         11   -1    0    0    0    0 -0.00000000000E+00 -0.00000000000E+00 -0.45593999997E+02  0.45594000000E+02  0.51100000000E-03 0. -1.
    9900012    2    1    2    0    0 -0.13052873076E+02 -0.37875403695E+02  0.16694291668E+02  0.47787273337E+02  0.20000010453E+02 0.  0.
         12    1    1    2    0    0  0.13052873076E+02  0.37875403695E+02 -0.16694291668E+02  0.43400726663E+02  0.00000000000E+00 0. -1.
         11    1    3    3    0    0  0.35937705973E+01 -0.49418418639E+01  0.52239237017E+01  0.80390526318E+01  0.51100000000E-03 0. -1.
        -11    1    3    3    0    0 -0.98108540745E+01 -0.18058423348E+02  0.11135144884E+02  0.23374151607E+02  0.51100000000E-03 0.  1.
        -12    1    3    3    0    0 -0.68357895991E+01 -0.14875138483E+02  0.33522308187E+00  0.16374069098E+02  0.00000000000E+00 0.  1.
</event>
<event>
 7    1  0.5038211E-009  0.4778727E+02  0.7816164E-02  0.1312668E+00
        -11   -1    0    0    0    0  0.00000000000E+00  0.00000000000E+00  0.45593999997E+02  0.45594000000E+02  0.51100000000E-03 0.  1.
         11   -1    0    0    0    0 -0.00000000000E+00 -0.00000000000E+00 -0.45593999997E+02  0.45594000000E+02  0.51100000000E-03 0. -1.
    9900012    2    1    2    0    0 -0.40744540487E+01  0.33530357987E+02  0.27253203274E+02  0.47787272227E+02  0.20000005392E+02 0.  0.
         12    1    1    2    0    0  0.40744540487E+01 -0.33530357987E+02 -0.27253203274E+02  0.43400727773E+02  0.00000000000E+00 0. -1.
         11    1    3    3    0    0 -0.65590762827E+01  0.23245122711E+02  0.85905466980E+01  0.25635028855E+02  0.51100000000E-03 0. -1.
        -11    1    3    3    0    0  0.28447903400E+01  0.52970109662E+01  0.14311317325E+02  0.15523046128E+02  0.51100000000E-03 0.  1.
        -12    1    3    3    0    0 -0.36016810603E+00  0.49882243093E+01  0.43513392507E+01  0.66291972440E+01  0.00000000000E+00 0.  1.
</event>
<event>
 7    1  0.5038211E-009  0.4778727E+02  0.7816164E-02  0.1312668E+00
        -11   -1    0    0    0    0  0.00000000000E+00  0.00000000000E+00  0.45593999997E+02  0.45594000000E+02  0.51100000000E-03 0.  1.
         11   -1    0    0    0    0 -0.00000000000E+00 -0.00000000000E+00 -0.45593999997E+02  0.45594000000E+02  0.51100000000E-03 0. -1.
    9900012    2    1    2    0    0 -0.37177863666E+02  0.86041019209E+00  0.22376097908E+02  0.47787267171E+02  0.19999982341E+02 0.  0.
         12    1    1    2    0    0  0.37177863666E+02 -0.86041019209E+00 -0.22376097908E+02  0.43400732829E+02  0.00000000000E+00 0. -1.
         11    1    3    3    0    0 -0.13784638513E+02 -0.16701998764E+01 -0.90928513071E+00  0.13915194079E+02  0.51100000000E-03 0. -1.
        -11    1    3    3    0    0 -0.10120726079E+02  0.15101844443E+01  0.15114890348E+02  0.18252935761E+02  0.51100000000E-03 0.  1.
         12    1    3    3    0    0 -0.13272499075E+02  0.10204256242E+01  0.81704926908E+01  0.15619137331E+02  0.00000000000E+00 0. -1.
</event>
<event>
 7    1  0.5038211E-009  0.4778727E+02  0.7816164E-02  0.1312668E+00
        -11   -1    0    0    0    0  0.00000000000E+00  0.00000000000E+00  0.45593999997E+02  0.45594000000E+02  0.51100000000E-03 0. -1.
         11   -1    0    0    0    0 -0.00000000000E+00 -0.00000000000E+00 -0.45593999997E+02  0.45594000000E+02  0.51100000000E-03 0.  1.
    9900012    2    1    2    0    0 -0.32502832055E+02 -0.92796699557E+01 -0.27222728995E+02  0.47787270282E+02  0.19999996525E+02 0.  0.
         12    1    1    2    0    0  0.32502832055E+02  0.92796699557E+01  0.27222728995E+02  0.43400729718E+02  0.00000000000E+00 0. -1.
         11    1    3    3    0    0 -0.87835261731E+01 -0.67106711688E+01 -0.37186386926E+00  0.11059915125E+02  0.51100000000E-03 0. -1.
        -11    1    3    3    0    0 -0.98176342342E+01 -0.88290296434E+00 -0.16842331598E+02  0.19514855714E+02  0.51100000000E-03 0.  1.
         12    1    3    3    0    0 -0.13901671648E+02 -0.16860958226E+01 -0.10008533528E+02  0.17212499444E+02  0.00000000000E+00 0. -1.
</event>
<event>
 7    1  0.5038211E-009  0.4778725E+02  0.7816164E-02  0.1312668E+00
        -11   -1    0    0    0    0  0.00000000000E+00  0.00000000000E+00  0.45593999997E+02  0.45594000000E+02  0.51100000000E-03 0.  1.
         11   -1    0    0    0    0 -0.00000000000E+00 -0.00000000000E+00 -0.45593999997E+02  0.45594000000E+02  0.51100000000E-03 0. -1.
    9900012    2    1    2    0    0  0.22883998372E+01  0.43317993627E+02 -0.13926347319E+01  0.47787253726E+02  0.19999921037E+02 0.  0.
         12    1    1    2    0    0 -0.22883998372E+01 -0.43317993627E+02  0.13926347319E+01  0.43400746274E+02  0.00000000000E+00 0. -1.
         11    1    3    3    0    0  0.52043889566E+01  0.24214349375E+02 -0.95985031551E+01  0.26562222105E+02  0.51100000000E-03 0. -1.
        -11    1    3    3    0    0 -0.15594577025E+01  0.12976992117E+02  0.39919284157E+01  0.13666372066E+02  0.51100000000E-03 0.  1.
         12    1    3    3    0    0 -0.13565314168E+01  0.61266521349E+01  0.42139400075E+01  0.75586595540E+01  0.00000000000E+00 0. -1.
</event>
<event>
 7    1  0.5038211E-009  0.4778727E+02  0.7816164E-02  0.1312668E+00
        -11   -1    0    0    0    0  0.00000000000E+00  0.00000000000E+00  0.45593999997E+02  0.45594000000E+02  0.51100000000E-03 0.  1.
         11   -1    0    0    0    0 -0.00000000000E+00 -0.00000000000E+00 -0.45593999997E+02  0.45594000000E+02  0.51100000000E-03 0. -1.
    9900012    2    1    2    0    0 -0.36314888099E+02  0.22492431038E+02  0.76774157834E+01  0.47787271149E+02  0.20000000477E+02 0.  0.
         12    1    1    2    0    0  0.36314888099E+02 -0.22492431038E+02 -0.76774157834E+01  0.43400728851E+02  0.00000000000E+00 0. -1.
         11    1    3    3    0    0 -0.82684770464E+01  0.14745872642E+02  0.69278163070E+01  0.18270279464E+02  0.51100000000E-03 0.  1.
        -11    1    3    3    0    0 -0.17605551575E+02  0.24223485490E+01  0.92785111760E+00  0.17795620998E+02  0.51100000000E-03 0. -1.
        -12    1    3    3    0    0 -0.10440859478E+02  0.53242098472E+01 -0.17825164119E+00  0.11721370687E+02  0.00000000000E+00 0.  1.
</event>
<event>
 7    1  0.5038211E-009  0.4778727E+02  0.7816164E-02  0.1312668E+00
        -11   -1    0    0    0    0  0.00000000000E+00  0.00000000000E+00  0.45593999997E+02  0.45594000000E+02  0.51100000000E-03 0.  1.
         11   -1    0    0    0    0 -0.00000000000E+00 -0.00000000000E+00 -0.45593999997E+02  0.45594000000E+02  0.51100000000E-03 0. -1.
    9900012    2    1    2    0    0 -0.36026551012E+02  0.96138964550E-01  0.24201275461E+02  0.47787270116E+02  0.19999995767E+02 0.  0.
         12    1    1    2    0    0  0.36026551012E+02 -0.96138964550E-01 -0.24201275461E+02  0.43400729884E+02  0.00000000000E+00 0. -1.
         11    1    3    3    0    0 -0.20232957347E+01 -0.30718111197E+01  0.42797562277E+01  0.56432315932E+01  0.51100000000E-03 0. -1.
        -11    1    3    3    0    0 -0.21211462470E+02  0.58305423457E+01  0.54829955116E+01  0.22671228555E+02  0.51100000000E-03 0.  1.
        -12    1    3    3    0    0 -0.12791792808E+02 -0.26625922615E+01  0.14438523721E+02  0.19472809968E+02  0.00000000000E+00 0.  1.
</event>
<event>
 7    1  0.5038211E-009  0.4778727E+02  0.7816164E-02  0.1312668E+00
        -11   -1    0    0    0    0  0.00000000000E+00  0.00000000000E+00  0.45593999997E+02  0.45594000000E+02  0.51100000000E-03 0. -1.
         11   -1    0    0    0    0 -0.00000000000E+00 -0.00000000000E+00 -0.45593999997E+02  0.45594000000E+02  0.51100000000E-03 0.  1.
    9900012    2    1    2    0    0 -0.32845330313E+02 -0.26521524887E+02  0.10070565748E+02  0.47787270742E+02  0.19999998619E+02 0.  0.
         12    1    1    2    0    0  0.32845330313E+02  0.26521524887E+02 -0.10070565748E+02  0.43400729258E+02  0.00000000000E+00 0. -1.
         11    1    3    3    0    0 -0.10625078753E+02 -0.81704030093E+01  0.41334565754E+01  0.14026162960E+02  0.51100000000E-03 0. -1.
        -11    1    3    3    0    0 -0.19100160434E+02 -0.11900720103E+02 -0.25561936622E+01  0.22649004258E+02  0.51100000000E-03 0.  1.
        -12    1    3    3    0    0 -0.31200911252E+01 -0.64504017748E+01  0.84933028349E+01  0.11112103524E+02  0.00000000000E+00 0.  1.
</event>
<event>
 7    1  0.5038211E-009  0.4778725E+02  0.7816164E-02  0.1312668E+00
        -11   -1    0    0    0    0  0.00000000000E+00  0.00000000000E+00  0.45593999997E+02  0.45594000000E+02  0.51100000000E-03 0. -1.
         11   -1    0    0    0    0 -0.00000000000E+00 -0.00000000000E+00 -0.45593999997E+02  0.45594000000E+02  0.51100000000E-03 0.  1.
    9900012    2    1    2    0    0 -0.32523298525E+02 -0.24004701001E+02 -0.15799822288E+02  0.47787251142E+02  0.19999909255E+02 0.  0.
         12    1    1    2    0    0  0.32523298525E+02  0.24004701001E+02  0.15799822288E+02  0.43400748858E+02  0.00000000000E+00 0. -1.
         11    1    3    3    0    0 -0.72759161864E+01 -0.15310272566E+02 -0.11022919866E+02  0.20219994189E+02  0.51100000000E-03 0. -1.
        -11    1    3    3    0    0 -0.23893061714E+02 -0.80273382460E+01 -0.32399588867E+01  0.25412868615E+02  0.51100000000E-03 0.  1.
        -12    1    3    3    0    0 -0.13543206249E+01 -0.66709018934E+00 -0.15369435360E+01  0.21543883375E+01  0.00000000000E+00 0.  1.
</event>
<event>
 7    1  0.5038211E-009  0.4778727E+02  0.7816164E-02  0.1312668E+00
        -11   -1    0    0    0    0  0.00000000000E+00  0.00000000000E+00  0.45593999997E+02  0.45594000000E+02  0.51100000000E-03 0. -1.
         11   -1    0    0    0    0 -0.00000000000E+00 -0.00000000000E+00 -0.45593999997E+02  0.45594000000E+02  0.51100000000E-03 0.  1.
    9900012    2    1    2    0    0 -0.25615510865E+02  0.15947024679E+02 -0.31195532688E+02  0.47787271289E+02  0.20000001114E+02 0.  0.
         12    1    1    2    0    0  0.25615510865E+02 -0.15947024679E+02  0.31195532688E+02  0.43400728711E+02  0.00000000000E+00 0. -1.
         11    1    3    3    0    0 -0.46219707342E+01  0.53720709635E+01 -0.15601700494E+02  0.17135775981E+02  0.51100000000E-03 0. -1.
        -11    1    3    3    0    0 -0.15174571240E+01  0.37549191450E+01 -0.74251754950E+01  0.84578558336E+01  0.51100000000E-03 0.  1.
         12    1    3    3    0    0 -0.19476083007E+02  0.68200345701E+01 -0.81686566984E+01  0.22193639474E+02  0.00000000000E+00 0. -1.
</event>
<event>
 7    1  0.5038211E-009  0.4778727E+02  0.7816164E-02  0.1312668E+00
        -11   -1    0    0    0    0  0.00000000000E+00  0.00000000000E+00  0.45593999997E+02  0.45594000000E+02  0.51100000000E-03 0.  1.
         11   -1    0    0    0    0 -0.00000000000E+00 -0.00000000000E+00 -0.45593999997E+02  0.45594000000E+02  0.51100000000E-03 0. -1.
    9900012    2    1    2    0    0 -0.15720038916E+02 -0.24042998584E+02  0.32533640296E+02  0.47787272410E+02  0.20000006228E+02 0.  0.
         12    1    1    2    0    0  0.15720038916E+02  0.24042998584E+02 -0.32533640296E+02  0.43400727590E+02  0.00000000000E+00 0. -1.
         11    1    3    3    0    0 -0.57236006806E+00 -0.56005588825E+01 -0.13250433118E+01  0.57835625598E+01  0.51100000000E-03 0. -1.
        -11    1    3    3    0    0 -0.65723479410E+01 -0.71644703478E+01  0.83113195596E+01  0.12790755486E+02  0.51100000000E-03 0.  1.
         12    1    3    3    0    0 -0.85753309066E+01 -0.11277969353E+02  0.25547364048E+02  0.29212954364E+02  0.00000000000E+00 0. -1.
</event>
<event>
 7    1  0.5038211E-009  0.4778727E+02  0.7816164E-02  0.1312668E+00
        -11   -1    0    0    0    0  0.00000000000E+00  0.00000000000E+00  0.45593999997E+02  0.45594000000E+02  0.51100000000E-03 0.  1.
         11   -1    0    0    0    0 -0.00000000000E+00 -0.00000000000E+00 -0.45593999997E+02  0.45594000000E+02  0.51100000000E-03 0. -1.
    9900012    2    1    2    0    0 -0.40032332758E+02  0.95375008073E+01  0.13786643261E+02  0.47787272816E+02  0.20000008078E+02 0.  0.
         12    1    1    2    0    0  0.40032332758E+02 -0.95375008073E+01 -0.13786643261E+02  0.43400727184E+02  0.00000000000E+00 0. -1.
         11    1    3    3    0    0 -0.52386038148E+01  0.55518083316E+01  0.37238607947E+01  0.84930963234E+01  0.51100000000E-03 0. -1.
        -11    1    3    3    0    0 -0.63946274018E+01 -0.19653270904E+01 -0.31704554415E+01  0.74030776133E+01  0.51100000000E-03 0.  1.
        -12    1    3    3    0    0 -0.28399101541E+02  0.59510195662E+01  0.13233237908E+02  0.31891098880E+02  0.00000000000E+00 0.  1.
</event>
<event>
 7    1  0.5038211E-009  0.4778727E+02  0.7816164E-02  0.1312668E+00
        -11   -1    0    0    0    0  0.00000000000E+00  0.00000000000E+00  0.45593999997E+02  0.45594000000E+02  0.51100000000E-03 0.  1.
         11   -1    0    0    0    0 -0.00000000000E+00 -0.00000000000E+00 -0.45593999997E+02  0.45594000000E+02  0.51100000000E-03 0. -1.
    9900012    2    1    2    0    0 -0.87568545265E+01 -0.30363693688E+02  0.29748729185E+02  0.47787270931E+02  0.19999999482E+02 0.  0.
         12    1    1    2    0    0  0.87568545265E+01  0.30363693688E+02 -0.29748729185E+02  0.43400729069E+02  0.00000000000E+00 0. -1.
         11    1    3    3    0    0 -0.40959702696E+00 -0.22708280638E+01  0.67629149892E+01  0.71457294402E+01  0.51100000000E-03 0. -1.
        -11    1    3    3    0    0 -0.14775799653E+01  0.20711297496E+01  0.12645305329E+01  0.28411016742E+01  0.51100000000E-03 0.  1.
        -12    1    3    3    0    0 -0.68696775343E+01 -0.30163995374E+02  0.21721283663E+02  0.37800439817E+02  0.00000000000E+00 0.  1.
</event>
<event>
 7    1  0.5038211E-009  0.4778728E+02  0.7816164E-02  0.1312668E+00
        -11   -1    0    0    0    0  0.00000000000E+00  0.00000000000E+00  0.45593999997E+02  0.45594000000E+02  0.51100000000E-03 0. -1.
         11   -1    0    0    0    0 -0.00000000000E+00 -0.00000000000E+00 -0.45593999997E+02  0.45594000000E+02  0.51100000000E-03 0.  1.
    9900012    2    1    2    0    0  0.43318256939E+02 -0.35417475259E+00  0.26506286219E+01  0.47787278162E+02  0.20000032453E+02 0.  0.
         12    1    1    2    0    0 -0.43318256939E+02  0.35417475259E+00 -0.26506286219E+01  0.43400721838E+02  0.00000000000E+00 0. -1.
         11    1    3    3    0    0  0.10756391597E+02 -0.59826128489E+01  0.68032731305E+01  0.14063290590E+02  0.51100000000E-03 0. -1.
        -11    1    3    3    0    0  0.32376440526E+02  0.57600505571E+01 -0.35451968737E+01  0.33075376108E+02  0.51100000000E-03 0.  1.
        -12    1    3    3    0    0  0.18542481624E+00 -0.13161246084E+00 -0.60744763493E+00  0.64861146421E+00  0.00000000000E+00 0.  1.
</event>
<event>
 7    1  0.5038211E-009  0.4778725E+02  0.7816164E-02  0.1312668E+00
        -11   -1    0    0    0    0  0.00000000000E+00  0.00000000000E+00  0.45593999997E+02  0.45594000000E+02  0.51100000000E-03 0. -1.
         11   -1    0    0    0    0 -0.00000000000E+00 -0.00000000000E+00 -0.45593999997E+02  0.45594000000E+02  0.51100000000E-03 0.  1.
    9900012    2    1    2    0    0 -0.25694841366E+02 -0.12219057148E+02 -0.32773380808E+02  0.47787254384E+02  0.19999924039E+02 0.  0.
         12    1    1    2    0    0  0.25694841366E+02  0.12219057148E+02  0.32773380808E+02  0.43400745616E+02  0.00000000000E+00 0. -1.
         11    1    3    3    0    0 -0.48037036143E+01  0.11931716135E+01 -0.42292850451E+01  0.65104592133E+01  0.51100000000E-03 0. -1.
        -11    1    3    3    0    0 -0.22234909282E+02 -0.86180641331E+01 -0.18918147422E+02  0.30439423817E+02  0.51100000000E-03 0.  1.
        -12    1    3    3    0    0  0.13437715296E+01 -0.47941646287E+01 -0.96259483403E+01  0.10837371354E+02  0.00000000000E+00 0.  1.
</event>
<event>
 7    1  0.5038211E-009  0.4778729E+02  0.7816164E-02  0.1312668E+00
        -11   -1    0    0    0    0  0.00000000000E+00  0.00000000000E+00  0.45593999997E+02  0.45594000000E+02  0.51100000000E-03 0.  1.
         11   -1    0    0    0    0 -0.00000000000E+00 -0.00000000000E+00 -0.45593999997E+02  0.45594000000E+02  0.51100000000E-03 0. -1.
    9900012    2    1    2    0    0 -0.74373822589E+01  0.37976631761E+02 -0.19648989614E+02  0.47787285632E+02  0.20000066510E+02 0.  0.
         12    1    1    2    0    0  0.74373822589E+01 -0.37976631761E+02  0.19648989614E+02  0.43400714368E+02  0.00000000000E+00 0. -1.
         11    1    3    3    0    0 -0.18268734174E+01  0.95672374759E+01 -0.13228586933E+02  0.16427568655E+02  0.51100000000E-03 0. -1.
        -11    1    3    3    0    0  0.28712870686E+01  0.60964976719E+01 -0.23968778885E+01  0.71523840198E+01  0.51100000000E-03 0.  1.
         12    1    3    3    0    0 -0.84817959100E+01  0.22312896614E+02 -0.40235247928E+01  0.24207332957E+02  0.00000000000E+00 0. -1.
</event>
<event>
 7    1  0.5038211E-009  0.4778727E+02  0.7816164E-02  0.1312668E+00
        -11   -1    0    0    0    0  0.00000000000E+00  0.00000000000E+00  0.45593999997E+02  0.45594000000E+02  0.51100000000E-03 0.  1.
         11   -1    0    0    0    0 -0.00000000000E+00 -0.00000000000E+00 -0.45593999997E+02  0.45594000000E+02  0.51100000000E-03 0. -1.
    9900012    2    1    2    0    0  0.17879080163E+02  0.30891309465E+02  0.24691876037E+02  0.47787271318E+02  0.20000001246E+02 0.  0.
         12    1    1    2    0    0 -0.17879080163E+02 -0.30891309465E+02 -0.24691876037E+02  0.43400728682E+02  0.00000000000E+00 0. -1.
         11    1    3    3    0    0  0.63084731688E+00  0.42740366614E+01  0.57893874762E+01  0.72237362446E+01  0.51100000000E-03 0. -1.
        -11    1    3    3    0    0  0.55611537766E+01  0.45513777825E+01  0.13079677025E+02  0.14923787133E+02  0.51100000000E-03 0.  1.
        -12    1    3    3    0    0  0.11687079069E+02  0.22065895021E+02  0.58228115353E+01  0.25639747940E+02  0.00000000000E+00 0.  1.
</event>
<event>
 7    1  0.5038211E-009  0.4778727E+02  0.7816164E-02  0.1312668E+00
        -11   -1    0    0    0    0  0.00000000000E+00  0.00000000000E+00  0.45593999997E+02  0.45594000000E+02  0.51100000000E-03 0.  1.
         11   -1    0    0    0    0 -0.00000000000E+00 -0.00000000000E+00 -0.45593999997E+02  0.45594000000E+02  0.51100000000E-03 0. -1.
    9900012    2    1    2    0    0  0.23326613364E+02 -0.79483147471E-01  0.36598986239E+02  0.47787274173E+02  0.20000014264E+02 0.  0.
         12    1    1    2    0    0 -0.23326613364E+02  0.79483147471E-01 -0.36598986239E+02  0.43400725827E+02  0.00000000000E+00 0. -1.
         11    1    3    3    0    0  0.89474723658E+01  0.71939673248E+01  0.10624870108E+02  0.15642835187E+02  0.51100000000E-03 0.  1.
        -11    1    3    3    0    0  0.44640475553E+01 -0.31804055170E+01  0.17894944772E+02  0.18715548308E+02  0.51100000000E-03 0. -1.
        -12    1    3    3    0    0  0.99150934429E+01 -0.40930449553E+01  0.80791713588E+01  0.13428890678E+02  0.00000000000E+00 0.  1.
</event>
<event>
 7    1  0.5038211E-009  0.4778727E+02  0.7816164E-02  0.1312668E+00
        -11   -1    0    0    0    0  0.00000000000E+00  0.00000000000E+00  0.45593999997E+02  0.45594000000E+02  0.51100000000E-03 0.  1.
         11   -1    0    0    0    0 -0.00000000000E+00 -0.00000000000E+00 -0.45593999997E+02  0.45594000000E+02  0.51100000000E-03 0. -1.
    9900012    2    1    2    0    0  0.64463278694E+01  0.42812165370E+02  0.30309719790E+01  0.47787269155E+02  0.19999991387E+02 0.  0.
         12    1    1    2    0    0 -0.64463278694E+01 -0.42812165370E+02 -0.30309719790E+01  0.43400730845E+02  0.00000000000E+00 0. -1.
         11    1    3    3    0    0  0.73962336520E+01  0.56640872163E+01  0.53417296338E+00  0.93312109206E+01  0.51100000000E-03 0.  1.
        -11    1    3    3    0    0 -0.49725909607E+01  0.16476777263E+02 -0.29115097801E+00  0.17213239642E+02  0.51100000000E-03 0. -1.
        -12    1    3    3    0    0  0.40226851781E+01  0.20671300891E+02  0.27879499936E+01  0.21242818592E+02  0.00000000000E+00 0.  1.
</event>
<event>
 7    1  0.5038211E-009  0.4778727E+02  0.7816164E-02  0.1312668E+00
        -11   -1    0    0    0    0  0.00000000000E+00  0.00000000000E+00  0.45593999997E+02  0.45594000000E+02  0.51100000000E-03 0. -1.
         11   -1    0    0    0    0 -0.00000000000E+00 -0.00000000000E+00 -0.45593999997E+02  0.45594000000E+02  0.51100000000E-03 0.  1.
    9900012    2    1    2    0    0  0.15176267251E+02  0.39393448313E+02 -0.10072753022E+02  0.47787271768E+02  0.20000003297E+02 0.  0.
         12    1    1    2    0    0 -0.15176267251E+02 -0.39393448313E+02  0.10072753022E+02  0.43400728232E+02  0.00000000000E+00 0. -1.
         11    1    3    3    0    0  0.45676699828E+00  0.67870998362E+01 -0.53010055924E+01  0.86240373856E+01  0.51100000000E-03 0. -1.
        -11    1    3    3    0    0  0.10038093898E+01  0.19133651323E+02  0.70369048308E+00  0.19172882590E+02  0.51100000000E-03 0.  1.
        -12    1    3    3    0    0  0.13715690863E+02  0.13472697154E+02 -0.54754379124E+01  0.19990351792E+02  0.00000000000E+00 0.  1.
</event>
<event>
 7    1  0.5038211E-009  0.4778727E+02  0.7816164E-02  0.1312668E+00
        -11   -1    0    0    0    0  0.00000000000E+00  0.00000000000E+00  0.45593999997E+02  0.45594000000E+02  0.51100000000E-03 0. -1.
         11   -1    0    0    0    0 -0.00000000000E+00 -0.00000000000E+00 -0.45593999997E+02  0.45594000000E+02  0.51100000000E-03 0.  1.
    9900012    2    1    2    0    0 -0.88384915223E+01  0.34284661618E+02 -0.25101122904E+02  0.47787270448E+02  0.19999997281E+02 0.  0.
         12    1    1    2    0    0  0.88384915223E+01 -0.34284661618E+02  0.25101122904E+02  0.43400729552E+02  0.00000000000E+00 0. -1.
         11    1    3    3    0    0  0.45984397631E+01  0.55798831762E+01 -0.66889041938E+01  0.98499839640E+01  0.51100000000E-03 0. -1.
        -11    1    3    3    0    0 -0.58456418482E+01  0.14817751762E+02 -0.37539424025E+01  0.16365493568E+02  0.51100000000E-03 0.  1.
         12    1    3    3    0    0 -0.75912894372E+01  0.13887026679E+02 -0.14658276307E+02  0.21571792916E+02  0.00000000000E+00 0. -1.
</event>
<event>
 7    1  0.5038211E-009  0.4778729E+02  0.7816164E-02  0.1312668E+00
        -11   -1    0    0    0    0  0.00000000000E+00  0.00000000000E+00  0.45593999997E+02  0.45594000000E+02  0.51100000000E-03 0.  1.
         11   -1    0    0    0    0 -0.00000000000E+00 -0.00000000000E+00 -0.45593999997E+02  0.45594000000E+02  0.51100000000E-03 0. -1.
    9900012    2    1    2    0    0  0.32317143777E+02  0.21622438463E+02  0.19279375359E+02  0.47787286398E+02  0.20000070001E+02 0.  0.
         12    1    1    2    0    0 -0.32317143777E+02 -0.21622438463E+02 -0.19279375359E+02  0.43400713602E+02  0.00000000000E+00 0. -1.
         11    1    3    3    0    0  0.19968121697E+02  0.15820854323E+02  0.17258060026E+02  0.30771187038E+02  0.51100000000E-03 0.  1.
        -11    1    3    3    0    0  0.80326120772E+01  0.70392423291E+01 -0.21413875415E+01  0.10893086349E+02  0.51100000000E-03 0. -1.
         12    1    3    3    0    0  0.43164100026E+01 -0.12376581888E+01  0.41627028743E+01  0.61230130101E+01  0.00000000000E+00 0. -1.
</event>
<event>
 7    1  0.5038211E-009  0.4778727E+02  0.7816164E-02  0.1312668E+00
        -11   -1    0    0    0    0  0.00000000000E+00  0.00000000000E+00  0.45593999997E+02  0.45594000000E+02  0.51100000000E-03 0.  1.
         11   -1    0    0    0    0 -0.00000000000E+00 -0.00000000000E+00 -0.45593999997E+02  0.45594000000E+02  0.51100000000E-03 0. -1.
    9900012    2    1    2    0    0 -0.21257090254E+02  0.33183066253E+02  0.18183606287E+02  0.47787270632E+02  0.19999998122E+02 0.  0.
         12    1    1    2    0    0  0.21257090254E+02 -0.33183066253E+02 -0.18183606287E+02  0.43400729368E+02  0.00000000000E+00 0. -1.
         11    1    3    3    0    0  0.42322230207E-01  0.58586793375E+01  0.71825622095E+01  0.92690406680E+01  0.51100000000E-03 0. -1.
        -11    1    3    3    0    0 -0.21973838315E+02  0.21444087132E+02  0.73740953546E+01  0.31576505915E+02  0.51100000000E-03 0.  1.
        -12    1    3    3    0    0  0.67442583065E+00  0.58802997834E+01  0.36269487230E+01  0.69417240498E+01  0.00000000000E+00 0.  1.
</event>
<event>
 7    1  0.5038211E-009  0.4778727E+02  0.7816164E-02  0.1312668E+00
        -11   -1    0    0    0    0  0.00000000000E+00  0.00000000000E+00  0.45593999997E+02  0.45594000000E+02  0.51100000000E-03 0.  1.
         11   -1    0    0    0    0 -0.00000000000E+00 -0.00000000000E+00 -0.45593999997E+02  0.45594000000E+02  0.51100000000E-03 0. -1.
    9900012    2    1    2    0    0  0.31777679587E+02 -0.28746346165E+02 -0.68883877983E+01  0.47787271616E+02  0.20000002605E+02 0.  0.
         12    1    1    2    0    0 -0.31777679587E+02  0.28746346165E+02  0.68883877983E+01  0.43400728384E+02  0.00000000000E+00 0. -1.
         11    1    3    3    0    0  0.13097538102E+02 -0.22309581999E+02 -0.40711361358E+01  0.26188491804E+02  0.51100000000E-03 0. -1.
        -11    1    3    3    0    0  0.10178784606E+02 -0.77062173975E+01 -0.24183391967E+01  0.12993914244E+02  0.51100000000E-03 0.  1.
         12    1    3    3    0    0  0.85013568789E+01  0.12694532307E+01 -0.39891246587E+00  0.86048655680E+01  0.00000000000E+00 0. -1.
</event>
<event>
 7    1  0.5038211E-009  0.4778727E+02  0.7816164E-02  0.1312668E+00
        -11   -1    0    0    0    0  0.00000000000E+00  0.00000000000E+00  0.45593999997E+02  0.45594000000E+02  0.51100000000E-03 0.  1.
         11   -1    0    0    0    0 -0.00000000000E+00 -0.00000000000E+00 -0.45593999997E+02  0.45594000000E+02  0.51100000000E-03 0. -1.
    9900012    2    1    2    0    0 -0.38366193178E+02  0.18895605702E+02 -0.73901657548E+01  0.47787271392E+02  0.20000001584E+02 0.  0.
         12    1    1    2    0    0  0.38366193178E+02 -0.18895605702E+02  0.73901657548E+01  0.43400728608E+02  0.00000000000E+00 0. -1.
         11    1    3    3    0    0  0.15734037674E+01  0.35854523830E+01 -0.76491270208E+00  0.39895062237E+01  0.51100000000E-03 0. -1.
        -11    1    3    3    0    0 -0.29936027736E+02  0.93548205768E+01 -0.70567314778E+01  0.32147719733E+02  0.51100000000E-03 0.  1.
        -12    1    3    3    0    0 -0.10003569210E+02  0.59553327426E+01  0.43147842507E+00  0.11650045435E+02  0.00000000000E+00 0.  1.
</event>
<event>
 7    1  0.5038211E-009  0.4778727E+02  0.7816164E-02  0.1312668E+00
        -11   -1    0    0    0    0  0.00000000000E+00  0.00000000000E+00  0.45593999997E+02  0.45594000000E+02  0.51100000000E-03 0.  1.
         11   -1    0    0    0    0 -0.00000000000E+00 -0.00000000000E+00 -0.45593999997E+02  0.45594000000E+02  0.51100000000E-03 0. -1.
    9900012    2    1    2    0    0 -0.41760439668E+02 -0.11791190072E+02  0.81048333622E+00  0.47787269962E+02  0.19999995065E+02 0.  0.
         12    1    1    2    0    0  0.41760439668E+02  0.11791190072E+02 -0.81048333622E+00  0.43400730038E+02  0.00000000000E+00 0. -1.
         11    1    3    3    0    0 -0.18252158358E+01 -0.33710368984E+01  0.43699845655E+01  0.58130945272E+01  0.51100000000E-03 0. -1.
        -11    1    3    3    0    0 -0.27827284207E+02 -0.32719455058E+01  0.10348764684E+01  0.28038087369E+02  0.51100000000E-03 0.  1.
         12    1    3    3    0    0 -0.12107939625E+02 -0.51482076682E+01 -0.45943776977E+01  0.13936088066E+02  0.00000000000E+00 0. -1.
</event>
<event>
 7    1  0.5038211E-009  0.4778727E+02  0.7816164E-02  0.1312668E+00
        -11   -1    0    0    0    0  0.00000000000E+00  0.00000000000E+00  0.45593999997E+02  0.45594000000E+02  0.51100000000E-03 0.  1.
         11   -1    0    0    0    0 -0.00000000000E+00 -0.00000000000E+00 -0.45593999997E+02  0.45594000000E+02  0.51100000000E-03 0. -1.
    9900012    2    1    2    0    0 -0.68526169050E+01 -0.38992873244E+02  0.17782602286E+02  0.47787268827E+02  0.19999989891E+02 0.  0.
         12    1    1    2    0    0  0.68526169050E+01  0.38992873244E+02 -0.17782602286E+02  0.43400731173E+02  0.00000000000E+00 0. -1.
         11    1    3    3    0    0 -0.17369031802E+01 -0.13353998412E+01 -0.33503570610E+01  0.40031260398E+01  0.51100000000E-03 0. -1.
        -11    1    3    3    0    0 -0.21470809116E+01 -0.21523740319E+02  0.14752679877E+02  0.26182492578E+02  0.51100000000E-03 0.  1.
        -12    1    3    3    0    0 -0.29686328133E+01 -0.16133733084E+02  0.63802794703E+01  0.17601650210E+02  0.00000000000E+00 0.  1.
</event>
<event>
 7    1  0.5038211E-009  0.4778728E+02  0.7816164E-02  0.1312668E+00
        -11   -1    0    0    0    0  0.00000000000E+00  0.00000000000E+00  0.45593999997E+02  0.45594000000E+02  0.51100000000E-03 0.  1.
         11   -1    0    0    0    0 -0.00000000000E+00 -0.00000000000E+00 -0.45593999997E+02  0.45594000000E+02  0.51100000000E-03 0. -1.
    9900012    2    1    2    0    0 -0.17178737772E+02 -0.33327159159E+02  0.21858963204E+02  0.47787276027E+02  0.20000022719E+02 0.  0.
         12    1    1    2    0    0  0.17178737772E+02  0.33327159159E+02 -0.21858963204E+02  0.43400723973E+02  0.00000000000E+00 0. -1.
         11    1    3    3    0    0 -0.19332215295E+02 -0.22362443665E+02  0.18150947174E+02  0.34688187016E+02  0.51100000000E-03 0. -1.
        -11    1    3    3    0    0  0.23397183728E+01 -0.92377332855E+00  0.59336840845E+00  0.25845165033E+01  0.51100000000E-03 0.  1.
        -12    1    3    3    0    0 -0.18624084943E+00 -0.10040942165E+02  0.31146476215E+01  0.10514572508E+02  0.00000000000E+00 0.  1.
</event>
<event>
 7    1  0.5038211E-009  0.4778727E+02  0.7816164E-02  0.1312668E+00
        -11   -1    0    0    0    0  0.00000000000E+00  0.00000000000E+00  0.45593999997E+02  0.45594000000E+02  0.51100000000E-03 0.  1.
         11   -1    0    0    0    0 -0.00000000000E+00 -0.00000000000E+00 -0.45593999997E+02  0.45594000000E+02  0.51100000000E-03 0. -1.
    9900012    2    1    2    0    0 -0.27428342417E+01 -0.21072909146E+02  0.37842206543E+02  0.47787271485E+02  0.20000002010E+02 0.  0.
         12    1    1    2    0    0  0.27428342417E+01  0.21072909146E+02 -0.37842206543E+02  0.43400728515E+02  0.00000000000E+00 0. -1.
         11    1    3    3    0    0  0.29544447164E+00 -0.11242963187E+02  0.30404301589E+02  0.32417789314E+02  0.51100000000E-03 0.  1.
        -11    1    3    3    0    0 -0.22232560426E+01 -0.30892905753E+01  0.76843058466E+01  0.85752632784E+01  0.51100000000E-03 0. -1.
         12    1    3    3    0    0 -0.81502267076E+00 -0.67406553842E+01 -0.24640089234E+00  0.67942188927E+01  0.00000000000E+00 0. -1.
</event>
<event>
 7    1  0.5038211E-009  0.4778728E+02  0.7816164E-02  0.1312668E+00
        -11   -1    0    0    0    0  0.00000000000E+00  0.00000000000E+00  0.45593999997E+02  0.45594000000E+02  0.51100000000E-03 0.  1.
         11   -1    0    0    0    0 -0.00000000000E+00 -0.00000000000E+00 -0.45593999997E+02  0.45594000000E+02  0.51100000000E-03 0. -1.
    9900012    2    1    2    0    0  0.13051611241E+02  0.10886611881E+02  0.39934446800E+02  0.47787275174E+02  0.20000018828E+02 0.  0.
         12    1    1    2    0    0 -0.13051611241E+02 -0.10886611881E+02 -0.39934446800E+02  0.43400724826E+02  0.00000000000E+00 0. -1.
         11    1    3    3    0    0  0.19816135100E+00  0.85443259689E+01  0.76617526736E+01  0.11478119553E+02  0.51100000000E-03 0. -1.
        -11    1    3    3    0    0  0.80807973326E+01 -0.33428983994E+01  0.13109961581E+02  0.15758976748E+02  0.51100000000E-03 0.  1.
         12    1    3    3    0    0  0.47726525575E+01  0.56851843117E+01  0.19162732545E+02  0.20550178872E+02  0.00000000000E+00 0. -1.
</event>
<event>
 7    1  0.5038211E-009  0.4778727E+02  0.7816164E-02  0.1312668E+00
        -11   -1    0    0    0    0  0.00000000000E+00  0.00000000000E+00  0.45593999997E+02  0.45594000000E+02  0.51100000000E-03 0.  1.
         11   -1    0    0    0    0 -0.00000000000E+00 -0.00000000000E+00 -0.45593999997E+02  0.45594000000E+02  0.51100000000E-03 0. -1.
    9900012    2    1    2    0    0  0.13193257449E+02  0.12143683425E+02  0.39523314254E+02  0.47787268913E+02  0.19999990283E+02 0.  0.
         12    1    1    2    0    0 -0.13193257449E+02 -0.12143683425E+02 -0.39523314254E+02  0.43400731087E+02  0.00000000000E+00 0. -1.
         11    1    3    3    0    0  0.44346987979E+01 -0.48157942205E+01  0.55759788610E+01  0.85994167199E+01  0.51100000000E-03 0. -1.
        -11    1    3    3    0    0  0.28527869538E+01  0.24578425247E+01  0.47980196059E+01  0.60992110703E+01  0.51100000000E-03 0.  1.
         12    1    3    3    0    0  0.59057716976E+01  0.14501635121E+02  0.29149315787E+02  0.33088641123E+02  0.00000000000E+00 0. -1.
</event>
<event>
 7    1  0.5038211E-009  0.4778727E+02  0.7816164E-02  0.1312668E+00
        -11   -1    0    0    0    0  0.00000000000E+00  0.00000000000E+00  0.45593999997E+02  0.45594000000E+02  0.51100000000E-03 0.  1.
         11   -1    0    0    0    0 -0.00000000000E+00 -0.00000000000E+00 -0.45593999997E+02  0.45594000000E+02  0.51100000000E-03 0. -1.
    9900012    2    1    2    0    0  0.33680216348E+02 -0.12324515341E+02  0.24441211932E+02  0.47787268528E+02  0.19999988527E+02 0.  0.
         12    1    1    2    0    0 -0.33680216348E+02  0.12324515341E+02 -0.24441211932E+02  0.43400731472E+02  0.00000000000E+00 0. -1.
         11    1    3    3    0    0  0.17094973353E+01 -0.33614894628E+01 -0.28738941550E+01  0.47414407540E+01  0.51100000000E-03 0. -1.
        -11    1    3    3    0    0  0.23287115375E+02 -0.58326405645E+01  0.20562612547E+02  0.31609025190E+02  0.51100000000E-03 0.  1.
         12    1    3    3    0    0  0.86836036372E+01 -0.31303853136E+01  0.67524935403E+01  0.11436802584E+02  0.00000000000E+00 0. -1.
</event>
<event>
 7    1  0.5038211E-009  0.4778727E+02  0.7816164E-02  0.1312668E+00
        -11   -1    0    0    0    0  0.00000000000E+00  0.00000000000E+00  0.45593999997E+02  0.45594000000E+02  0.51100000000E-03 0.  1.
         11   -1    0    0    0    0 -0.00000000000E+00 -0.00000000000E+00 -0.45593999997E+02  0.45594000000E+02  0.51100000000E-03 0. -1.
    9900012    2    1    2    0    0  0.31076257817E+02 -0.29009971410E+02  0.87356116910E+01  0.47787272440E+02  0.20000006364E+02 0.  0.
         12    1    1    2    0    0 -0.31076257817E+02  0.29009971410E+02 -0.87356116910E+01  0.43400727560E+02  0.00000000000E+00 0. -1.
         11    1    3    3    0    0  0.41347128134E+01  0.13724097549E+01 -0.25829151249E+01  0.50646628109E+01  0.51100000000E-03 0. -1.
        -11    1    3    3    0    0  0.91546491356E+01 -0.97726313338E+01  0.71545181730E+01  0.15182195313E+02  0.51100000000E-03 0.  1.
         12    1    3    3    0    0  0.17786895868E+02 -0.20609749831E+02  0.41640086430E+01  0.27540414316E+02  0.00000000000E+00 0. -1.
</event>
<event>
 7    1  0.5038211E-009  0.4778727E+02  0.7816164E-02  0.1312668E+00
        -11   -1    0    0    0    0  0.00000000000E+00  0.00000000000E+00  0.45593999997E+02  0.45594000000E+02  0.51100000000E-03 0.  1.
         11   -1    0    0    0    0 -0.00000000000E+00 -0.00000000000E+00 -0.45593999997E+02  0.45594000000E+02  0.51100000000E-03 0. -1.
    9900012    2    1    2    0    0 -0.21930051323E+01  0.41458152731E+02 -0.12650513825E+02  0.47787271903E+02  0.20000003913E+02 0.  0.
         12    1    1    2    0    0  0.21930051323E+01 -0.41458152731E+02  0.12650513825E+02  0.43400728097E+02  0.00000000000E+00 0. -1.
         11    1    3    3    0    0  0.75856894177E+01  0.87943824046E+01 -0.12748589611E+01  0.11683711373E+02  0.51100000000E-03 0. -1.
        -11    1    3    3    0    0 -0.65016965136E+01  0.24173053785E+02 -0.69245347971E+01  0.25972249984E+02  0.51100000000E-03 0.  1.
         12    1    3    3    0    0 -0.32769980364E+01  0.84907165413E+01 -0.44511200664E+01  0.10131310545E+02  0.00000000000E+00 0. -1.
</event>
<event>
 7    1  0.5038211E-009  0.4778727E+02  0.7816164E-02  0.1312668E+00
        -11   -1    0    0    0    0  0.00000000000E+00  0.00000000000E+00  0.45593999997E+02  0.45594000000E+02  0.51100000000E-03 0.  1.
         11   -1    0    0    0    0 -0.00000000000E+00 -0.00000000000E+00 -0.45593999997E+02  0.45594000000E+02  0.51100000000E-03 0. -1.
    9900012    2    1    2    0    0  0.31009481972E+02 -0.22287971882E+02  0.20622356277E+02  0.47787271421E+02  0.20000001716E+02 0.  0.
         12    1    1    2    0    0 -0.31009481972E+02  0.22287971882E+02 -0.20622356277E+02  0.43400728579E+02  0.00000000000E+00 0. -1.
         11    1    3    3    0    0  0.15815863130E+02 -0.55136771260E+01  0.28792921912E+01  0.16995072397E+02  0.51100000000E-03 0. -1.
        -11    1    3    3    0    0  0.89071452636E+01 -0.66687019588E+01  0.24146357714E+01  0.11385925028E+02  0.51100000000E-03 0.  1.
         12    1    3    3    0    0  0.62864735783E+01 -0.10105592797E+02  0.15328428314E+02  0.19406273996E+02  0.00000000000E+00 0. -1.
</event>
<event>
 7    1  0.5038211E-009  0.4778726E+02  0.7816164E-02  0.1312668E+00
        -11   -1    0    0    0    0  0.00000000000E+00  0.00000000000E+00  0.45593999997E+02  0.45594000000E+02  0.51100000000E-03 0.  1.
         11   -1    0    0    0    0 -0.00000000000E+00 -0.00000000000E+00 -0.45593999997E+02  0.45594000000E+02  0.51100000000E-03 0. -1.
    9900012    2    1    2    0    0 -0.34674088792E+02  0.12982164642E+02  0.22644974213E+02  0.47787263952E+02  0.19999967664E+02 0.  0.
         12    1    1    2    0    0  0.34674088792E+02 -0.12982164642E+02 -0.22644974213E+02  0.43400736048E+02  0.00000000000E+00 0. -1.
         11    1    3    3    0    0  0.15908680049E+00 -0.19737703300E+01 -0.91706150072E+00  0.21822190502E+01  0.51100000000E-03 0. -1.
        -11    1    3    3    0    0 -0.11456053808E+02  0.77925133238E+01  0.43879684626E+01  0.14533365069E+02  0.51100000000E-03 0.  1.
         12    1    3    3    0    0 -0.23377121785E+02  0.71634216481E+01  0.19174067251E+02  0.31071679833E+02  0.00000000000E+00 0. -1.
</event>
<event>
 7    1  0.5038211E-009  0.4778727E+02  0.7816164E-02  0.1312668E+00
        -11   -1    0    0    0    0  0.00000000000E+00  0.00000000000E+00  0.45593999997E+02  0.45594000000E+02  0.51100000000E-03 0. -1.
         11   -1    0    0    0    0 -0.00000000000E+00 -0.00000000000E+00 -0.45593999997E+02  0.45594000000E+02  0.51100000000E-03 0.  1.
    9900012    2    1    2    0    0 -0.42779803453E+02  0.26767985093E+01  0.68078549326E+01  0.47787265876E+02  0.19999976434E+02 0.  0.
         12    1    1    2    0    0  0.42779803453E+02 -0.26767985093E+01 -0.68078549326E+01  0.43400734124E+02  0.00000000000E+00 0. -1.
         11    1    3    3    0    0 -0.22414011303E+02  0.64430685339E+01 -0.31261222302E+00  0.23323781029E+02  0.51100000000E-03 0. -1.
        -11    1    3    3    0    0 -0.58338688425E+01 -0.62609504073E+01  0.15223130329E+01  0.86920056894E+01  0.51100000000E-03 0.  1.
        -12    1    3    3    0    0 -0.14531923307E+02  0.24946803827E+01  0.55981541227E+01  0.15771479157E+02  0.00000000000E+00 0.  1.
</event>
<event>
 7    1  0.5038211E-009  0.4778727E+02  0.7816164E-02  0.1312668E+00
        -11   -1    0    0    0    0  0.00000000000E+00  0.00000000000E+00  0.45593999997E+02  0.45594000000E+02  0.51100000000E-03 0.  1.
         11   -1    0    0    0    0 -0.00000000000E+00 -0.00000000000E+00 -0.45593999997E+02  0.45594000000E+02  0.51100000000E-03 0. -1.
    9900012    2    1    2    0    0 -0.42005483576E+01 -0.12155772919E+02  0.41451365040E+02  0.47787273215E+02  0.20000009895E+02 0.  0.
         12    1    1    2    0    0  0.42005483576E+01  0.12155772919E+02 -0.41451365040E+02  0.43400726785E+02  0.00000000000E+00 0. -1.
         11    1    3    3    0    0 -0.69661111351E+00 -0.78333446480E+01  0.36711625709E+02  0.37544507160E+02  0.51100000000E-03 0. -1.
        -11    1    3    3    0    0 -0.14067495214E+01  0.83543317589E+00  0.43657965167E+01  0.46623033249E+01  0.51100000000E-03 0.  1.
         12    1    3    3    0    0 -0.20971877227E+01 -0.51578614472E+01  0.37394281493E+00  0.55804627301E+01  0.00000000000E+00 0. -1.
</event>
<event>
 7    1  0.5038211E-009  0.4778727E+02  0.7816164E-02  0.1312668E+00
        -11   -1    0    0    0    0  0.00000000000E+00  0.00000000000E+00  0.45593999997E+02  0.45594000000E+02  0.51100000000E-03 0.  1.
         11   -1    0    0    0    0 -0.00000000000E+00 -0.00000000000E+00 -0.45593999997E+02  0.45594000000E+02  0.51100000000E-03 0. -1.
    9900012    2    1    2    0    0  0.85989970906E+01  0.70864562165E+01  0.41945951388E+02  0.47787269009E+02  0.19999990720E+02 0.  0.
         12    1    1    2    0    0 -0.85989970906E+01 -0.70864562165E+01 -0.41945951388E+02  0.43400730991E+02  0.00000000000E+00 0. -1.
         11    1    3    3    0    0  0.62652855298E+01 -0.25657742679E+01  0.94088006897E+01  0.11591485282E+02  0.51100000000E-03 0. -1.
        -11    1    3    3    0    0  0.54346533978E+01  0.10638933752E+02  0.20505074165E+02  0.23731422961E+02  0.51100000000E-03 0.  1.
        -12    1    3    3    0    0 -0.31009418370E+01 -0.98670326813E+00  0.12032076533E+02  0.12464360766E+02  0.00000000000E+00 0.  1.
</event>
<event>
 7    1  0.5038211E-009  0.4778727E+02  0.7816164E-02  0.1312668E+00
        -11   -1    0    0    0    0  0.00000000000E+00  0.00000000000E+00  0.45593999997E+02  0.45594000000E+02  0.51100000000E-03 0.  1.
         11   -1    0    0    0    0 -0.00000000000E+00 -0.00000000000E+00 -0.45593999997E+02  0.45594000000E+02  0.51100000000E-03 0. -1.
    9900012    2    1    2    0    0 -0.56203173953E+00  0.43235381500E+02 -0.37429436623E+01  0.47787265901E+02  0.19999976548E+02 0.  0.
         12    1    1    2    0    0  0.56203173953E+00 -0.43235381500E+02  0.37429436623E+01  0.43400734099E+02  0.00000000000E+00 0. -1.
         11    1    3    3    0    0 -0.47775319492E+00  0.30114610503E+02 -0.97522791794E+01  0.31657936814E+02  0.51100000000E-03 0. -1.
        -11    1    3    3    0    0 -0.10319995928E+01  0.13056945365E+02  0.36663747666E+01  0.13601145158E+02  0.51100000000E-03 0.  1.
         12    1    3    3    0    0  0.94772104815E+00  0.63825631149E-01  0.23429607505E+01  0.25281839282E+01  0.00000000000E+00 0. -1.
</event>
<event>
 7    1  0.5038211E-009  0.4778727E+02  0.7816164E-02  0.1312668E+00
        -11   -1    0    0    0    0  0.00000000000E+00  0.00000000000E+00  0.45593999997E+02  0.45594000000E+02  0.51100000000E-03 0. -1.
         11   -1    0    0    0    0 -0.00000000000E+00 -0.00000000000E+00 -0.45593999997E+02  0.45594000000E+02  0.51100000000E-03 0.  1.
    9900012    2    1    2    0    0 -0.11073565319E+02  0.28679052703E+02 -0.30635132043E+02  0.47787271571E+02  0.20000002403E+02 0.  0.
         12    1    1    2    0    0  0.11073565319E+02 -0.28679052703E+02  0.30635132043E+02  0.43400728429E+02  0.00000000000E+00 0. -1.
         11    1    3    3    0    0  0.44706490152E+01  0.54465459118E+01 -0.26703072964E+01  0.75353902557E+01  0.51100000000E-03 0. -1.
        -11    1    3    3    0    0 -0.78161493151E+01  0.13595938511E+02 -0.20529643664E+02  0.25834240909E+02  0.51100000000E-03 0.  1.
        -12    1    3    3    0    0 -0.77280650192E+01  0.96365682807E+01 -0.74351810822E+01  0.14417640407E+02  0.00000000000E+00 0.  1.
</event>
<event>
 7    1  0.5038211E-009  0.4778725E+02  0.7816164E-02  0.1312668E+00
        -11   -1    0    0    0    0  0.00000000000E+00  0.00000000000E+00  0.45593999997E+02  0.45594000000E+02  0.51100000000E-03 0. -1.
         11   -1    0    0    0    0 -0.00000000000E+00 -0.00000000000E+00 -0.45593999997E+02  0.45594000000E+02  0.51100000000E-03 0.  1.
    9900012    2    1    2    0    0 -0.29553448522E+02 -0.10164703244E+02 -0.30114735631E+02  0.47787253304E+02  0.19999919115E+02 0.  0.
         12    1    1    2    0    0  0.29553448522E+02  0.10164703244E+02  0.30114735631E+02  0.43400746696E+02  0.00000000000E+00 0. -1.
         11    1    3    3    0    0 -0.24968579812E+02 -0.13310081043E+02 -0.19097018216E+02  0.34136261368E+02  0.51100000000E-03 0. -1.
        -11    1    3    3    0    0 -0.58912300004E+01  0.17601663879E+01 -0.86516029730E+01  0.10613906486E+02  0.51100000000E-03 0.  1.
         12    1    3    3    0    0  0.13063612901E+01  0.13852114111E+01 -0.23661144428E+01  0.30370854499E+01  0.00000000000E+00 0. -1.
</event>
<event>
 7    1  0.5038211E-009  0.4778727E+02  0.7816164E-02  0.1312668E+00
        -11   -1    0    0    0    0  0.00000000000E+00  0.00000000000E+00  0.45593999997E+02  0.45594000000E+02  0.51100000000E-03 0.  1.
         11   -1    0    0    0    0 -0.00000000000E+00 -0.00000000000E+00 -0.45593999997E+02  0.45594000000E+02  0.51100000000E-03 0. -1.
    9900012    2    1    2    0    0 -0.17630981991E+01 -0.19960988781E+02  0.38497712379E+02  0.47787269053E+02  0.19999990919E+02 0.  0.
         12    1    1    2    0    0  0.17630981991E+01  0.19960988781E+02 -0.38497712379E+02  0.43400730947E+02  0.00000000000E+00 0. -1.
         11    1    3    3    0    0  0.73515604996E+01 -0.42862070336E+01  0.10364330201E+02  0.13410307725E+02  0.51100000000E-03 0. -1.
        -11    1    3    3    0    0 -0.15108787184E+01 -0.46999825044E+00  0.92135173917E-01  0.15849738195E+01  0.51100000000E-03 0.  1.
         12    1    3    3    0    0 -0.76037799802E+01 -0.15204783497E+02  0.28041247004E+02  0.32791987508E+02  0.00000000000E+00 0. -1.
</event>
<event>
 7    1  0.5038211E-009  0.4778727E+02  0.7816164E-02  0.1312668E+00
        -11   -1    0    0    0    0  0.00000000000E+00  0.00000000000E+00  0.45593999997E+02  0.45594000000E+02  0.51100000000E-03 0.  1.
         11   -1    0    0    0    0 -0.00000000000E+00 -0.00000000000E+00 -0.45593999997E+02  0.45594000000E+02  0.51100000000E-03 0. -1.
    9900012    2    1    2    0    0  0.22614252660E+02 -0.27333758585E+02  0.25001689700E+02  0.47787271094E+02  0.20000000224E+02 0.  0.
         12    1    1    2    0    0 -0.22614252660E+02  0.27333758585E+02 -0.25001689700E+02  0.43400728906E+02  0.00000000000E+00 0. -1.
         11    1    3    3    0    0 -0.15960170535E+01 -0.14445372501E+01  0.63337702246E+01  0.66895892117E+01  0.51100000000E-03 0. -1.
        -11    1    3    3    0    0  0.21049183177E+02 -0.20977585527E+02  0.18957927381E+02  0.35249542094E+02  0.51100000000E-03 0.  1.
         12    1    3    3    0    0  0.31610865364E+01 -0.49116358073E+01 -0.29000790525E+00  0.58481397880E+01  0.00000000000E+00 0. -1.
</event>
<event>
 7    1  0.5038211E-009  0.4778727E+02  0.7816164E-02  0.1312668E+00
        -11   -1    0    0    0    0  0.00000000000E+00  0.00000000000E+00  0.45593999997E+02  0.45594000000E+02  0.51100000000E-03 0.  1.
         11   -1    0    0    0    0 -0.00000000000E+00 -0.00000000000E+00 -0.45593999997E+02  0.45594000000E+02  0.51100000000E-03 0. -1.
    9900012    2    1    2    0    0  0.35065597024E+02  0.10422593707E+02  0.23353732281E+02  0.47787269987E+02  0.19999995178E+02 0.  0.
         12    1    1    2    0    0 -0.35065597024E+02 -0.10422593707E+02 -0.23353732281E+02  0.43400730013E+02  0.00000000000E+00 0. -1.
         11    1    3    3    0    0  0.32065650951E+01  0.80195491276E+01  0.37279920394E+01  0.94070799309E+01  0.51100000000E-03 0. -1.
        -11    1    3    3    0    0  0.27470759849E+02  0.27703457034E+01  0.13232871385E+02  0.30617419019E+02  0.51100000000E-03 0.  1.
         12    1    3    3    0    0  0.43882720797E+01 -0.36730112408E+00  0.63928688562E+01  0.77627710371E+01  0.00000000000E+00 0. -1.
</event>
<event>
 7    1  0.5038211E-009  0.4778727E+02  0.7816164E-02  0.1312668E+00
        -11   -1    0    0    0    0  0.00000000000E+00  0.00000000000E+00  0.45593999997E+02  0.45594000000E+02  0.51100000000E-03 0.  1.
         11   -1    0    0    0    0 -0.00000000000E+00 -0.00000000000E+00 -0.45593999997E+02  0.45594000000E+02  0.51100000000E-03 0. -1.
    9900012    2    1    2    0    0  0.19518539457E+02 -0.33492314091E+02 -0.19517037983E+02  0.47787271235E+02  0.20000000870E+02 0.  0.
         12    1    1    2    0    0 -0.19518539457E+02  0.33492314091E+02  0.19517037983E+02  0.43400728765E+02  0.00000000000E+00 0. -1.
         11    1    3    3    0    0 -0.25660172899E+00 -0.27917791409E+00  0.12103502658E+00  0.39803830697E+00  0.51100000000E-03 0. -1.
        -11    1    3    3    0    0  0.16368200980E+01  0.25235771694E+01 -0.19382696277E+01  0.35783391642E+01  0.51100000000E-03 0.  1.
        -12    1    3    3    0    0  0.18138321088E+02 -0.35736713346E+02 -0.17699803382E+02  0.43810893764E+02  0.00000000000E+00 0.  1.
</event>
<event>
 7    1  0.5038211E-009  0.4778728E+02  0.7816164E-02  0.1312668E+00
        -11   -1    0    0    0    0  0.00000000000E+00  0.00000000000E+00  0.45593999997E+02  0.45594000000E+02  0.51100000000E-03 0.  1.
         11   -1    0    0    0    0 -0.00000000000E+00 -0.00000000000E+00 -0.45593999997E+02  0.45594000000E+02  0.51100000000E-03 0. -1.
    9900012    2    1    2    0    0  0.97924458967E+01  0.20000511464E+02  0.37251978250E+02  0.47787281814E+02  0.20000049104E+02 0.  0.
         12    1    1    2    0    0 -0.97924458967E+01 -0.20000511464E+02 -0.37251978250E+02  0.43400718186E+02  0.00000000000E+00 0. -1.
         11    1    3    3    0    0  0.87576712147E+01  0.69779078056E+01  0.23759641913E+02  0.26266110990E+02  0.51100000000E-03 0. -1.
        -11    1    3    3    0    0  0.15923924854E+01  0.10174192344E+02  0.15043148229E+02  0.18230365124E+02  0.51100000000E-03 0.  1.
         12    1    3    3    0    0 -0.55761780342E+00  0.28484113150E+01 -0.15508118910E+01  0.32908057001E+01  0.00000000000E+00 0. -1.
</event>
<event>
 7    1  0.5038211E-009  0.4778727E+02  0.7816164E-02  0.1312668E+00
        -11   -1    0    0    0    0  0.00000000000E+00  0.00000000000E+00  0.45593999997E+02  0.45594000000E+02  0.51100000000E-03 0.  1.
         11   -1    0    0    0    0 -0.00000000000E+00 -0.00000000000E+00 -0.45593999997E+02  0.45594000000E+02  0.51100000000E-03 0. -1.
    9900012    2    1    2    0    0  0.13061101021E+02  0.19825970748E+01  0.41341263096E+02  0.47787273216E+02  0.20000009901E+02 0.  0.
         12    1    1    2    0    0 -0.13061101021E+02 -0.19825970748E+01 -0.41341263096E+02  0.43400726784E+02  0.00000000000E+00 0. -1.
         11    1    3    3    0    0  0.66572233628E+01  0.45773547368E+01  0.24513123643E+02  0.25810153628E+02  0.51100000000E-03 0.  1.
        -11    1    3    3    0    0 -0.11935509332E+01 -0.55762235807E+01  0.90883581525E+01  0.10729263135E+02  0.51100000000E-03 0. -1.
         12    1    3    3    0    0  0.75974285911E+01  0.29814659187E+01  0.77397813003E+01  0.11247856453E+02  0.00000000000E+00 0. -1.
</event>
<event>
 7    1  0.5038211E-009  0.4778729E+02  0.7816164E-02  0.1312668E+00
        -11   -1    0    0    0    0  0.00000000000E+00  0.00000000000E+00  0.45593999997E+02  0.45594000000E+02  0.51100000000E-03 0.  1.
         11   -1    0    0    0    0 -0.00000000000E+00 -0.00000000000E+00 -0.45593999997E+02  0.45594000000E+02  0.51100000000E-03 0. -1.
    9900012    2    1    2    0    0  0.13998078467E+02 -0.24131441169E+01  0.41010386584E+02  0.47787294095E+02  0.20000105095E+02 0.  0.
         12    1    1    2    0    0 -0.13998078467E+02  0.24131441169E+01 -0.41010386584E+02  0.43400705905E+02  0.00000000000E+00 0. -1.
         11    1    3    3    0    0  0.27520795911E-01  0.37044604120E+01  0.20423837050E+01  0.42302619065E+01  0.51100000000E-03 0. -1.
        -11    1    3    3    0    0  0.82784204155E+01 -0.72369385466E+01  0.13374160167E+02  0.17313973679E+02  0.51100000000E-03 0.  1.
        -12    1    3    3    0    0  0.56921372557E+01  0.11193340177E+01  0.25593842712E+02  0.26243058509E+02  0.00000000000E+00 0.  1.
</event>
<event>
 7    1  0.5106096E-009  0.4778727E+02  0.7816164E-02  0.1312668E+00
        -11   -1    0    0    0    0  0.00000000000E+00  0.00000000000E+00  0.45593999997E+02  0.45594000000E+02  0.51100000000E-03 0.  1.
         11   -1    0    0    0    0 -0.00000000000E+00 -0.00000000000E+00 -0.45593999997E+02  0.45594000000E+02  0.51100000000E-03 0. -1.
    9900012    2    1    2    0    0 -0.10982292893E+02  0.41731051599E+02  0.46402274608E+01  0.47787272637E+02  0.20000007262E+02 0.  0.
         12    1    1    2    0    0  0.10982292893E+02 -0.41731051599E+02 -0.46402274608E+01  0.43400727363E+02  0.00000000000E+00 0. -1.
         11    1    3    3    0    0 -0.85715929924E+01  0.94857308297E+01 -0.50455428779E+00  0.12794759517E+02  0.51100000000E-03 0. -1.
        -11    1    3    3    0    0  0.13577181324E+01  0.30374107799E+02  0.44657921177E+01  0.30730654445E+02  0.51100000000E-03 0.  1.
        -12    1    3    3    0    0 -0.37684180330E+01  0.18712129701E+01  0.67898963090E+00  0.42618586755E+01  0.00000000000E+00 0.  1.
</event>
<event>
 7    1  0.5038211E-009  0.4778727E+02  0.7816164E-02  0.1312668E+00
        -11   -1    0    0    0    0  0.00000000000E+00  0.00000000000E+00  0.45593999997E+02  0.45594000000E+02  0.51100000000E-03 0. -1.
         11   -1    0    0    0    0 -0.00000000000E+00 -0.00000000000E+00 -0.45593999997E+02  0.45594000000E+02  0.51100000000E-03 0.  1.
    9900012    2    1    2    0    0  0.18855321270E+02 -0.39033750533E+02 -0.21133814237E+01  0.47787271874E+02  0.20000003781E+02 0.  0.
         12    1    1    2    0    0 -0.18855321270E+02  0.39033750533E+02  0.21133814237E+01  0.43400728126E+02  0.00000000000E+00 0. -1.
         11    1    3    3    0    0  0.10935632554E+01 -0.11317591116E+02  0.32996624838E+01  0.11839405476E+02  0.51100000000E-03 0. -1.
        -11    1    3    3    0    0  0.77245185033E+01 -0.72464544624E+01 -0.76132531093E+01  0.13043807402E+02  0.51100000000E-03 0.  1.
        -12    1    3    3    0    0  0.10037239511E+02 -0.20469704955E+02  0.22002092018E+01  0.22904058995E+02  0.00000000000E+00 0.  1.
</event>
<event>
 7    1  0.5038211E-009  0.4778727E+02  0.7816164E-02  0.1312668E+00
        -11   -1    0    0    0    0  0.00000000000E+00  0.00000000000E+00  0.45593999997E+02  0.45594000000E+02  0.51100000000E-03 0. -1.
         11   -1    0    0    0    0 -0.00000000000E+00 -0.00000000000E+00 -0.45593999997E+02  0.45594000000E+02  0.51100000000E-03 0.  1.
    9900012    2    1    2    0    0 -0.23185891148E+02 -0.33659727872E+02 -0.14596598262E+02  0.47787268329E+02  0.19999987620E+02 0.  0.
         12    1    1    2    0    0  0.23185891148E+02  0.33659727872E+02  0.14596598262E+02  0.43400731671E+02  0.00000000000E+00 0. -1.
         11    1    3    3    0    0 -0.57480964400E+01 -0.17314872926E+02  0.92556100674E-01  0.18244286887E+02  0.51100000000E-03 0. -1.
        -11    1    3    3    0    0 -0.15088695211E+02 -0.12600431195E+02 -0.73731691336E+01  0.20995314068E+02  0.51100000000E-03 0.  1.
         12    1    3    3    0    0 -0.23490994966E+01 -0.37444237512E+01 -0.73159852289E+01  0.85476673744E+01  0.00000000000E+00 0. -1.
</event>
<event>
 7    1  0.5038211E-009  0.4778727E+02  0.7816164E-02  0.1312668E+00
        -11   -1    0    0    0    0  0.00000000000E+00  0.00000000000E+00  0.45593999997E+02  0.45594000000E+02  0.51100000000E-03 0.  1.
         11   -1    0    0    0    0 -0.00000000000E+00 -0.00000000000E+00 -0.45593999997E+02  0.45594000000E+02  0.51100000000E-03 0. -1.
    9900012    2    1    2    0    0 -0.37999710460E+02  0.55031211484E+01  0.20232673149E+02  0.47787269590E+02  0.19999993367E+02 0.  0.
         12    1    1    2    0    0  0.37999710460E+02 -0.55031211484E+01 -0.20232673149E+02  0.43400730410E+02  0.00000000000E+00 0. -1.
         11    1    3    3    0    0 -0.99305750612E+01 -0.60409248479E+01  0.48835453237E+01  0.12607859027E+02  0.51100000000E-03 0. -1.
        -11    1    3    3    0    0 -0.20584344443E+02  0.10856028112E+02  0.78450600976E+01  0.24558370278E+02  0.51100000000E-03 0.  1.
        -12    1    3    3    0    0 -0.74847909558E+01  0.68801788417E+00  0.75040677273E+01  0.10621040284E+02  0.00000000000E+00 0.  1.
</event>
<event>
 7    1  0.5038211E-009  0.4778727E+02  0.7816164E-02  0.1312668E+00
        -11   -1    0    0    0    0  0.00000000000E+00  0.00000000000E+00  0.45593999997E+02  0.45594000000E+02  0.51100000000E-03 0.  1.
         11   -1    0    0    0    0 -0.00000000000E+00 -0.00000000000E+00 -0.45593999997E+02  0.45594000000E+02  0.51100000000E-03 0. -1.
    9900012    2    1    2    0    0 -0.39800171672E+01  0.27063712978E+02  0.33694778271E+02  0.47787272131E+02  0.20000004955E+02 0.  0.
         12    1    1    2    0    0  0.39800171672E+01 -0.27063712978E+02 -0.33694778271E+02  0.43400727869E+02  0.00000000000E+00 0. -1.
         11    1    3    3    0    0 -0.39969990529E+01  0.60310043316E-01  0.18704813528E+01  0.44134271811E+01  0.51100000000E-03 0. -1.
        -11    1    3    3    0    0  0.24340151874E+01  0.21276300537E+02  0.17145570144E+02  0.27433118129E+02  0.51100000000E-03 0.  1.
        -12    1    3    3    0    0 -0.24170333017E+01  0.57271023975E+01  0.14678726775E+02  0.15940726821E+02  0.00000000000E+00 0.  1.
</event>
<event>
 7    1  0.5038211E-009  0.4778726E+02  0.7816164E-02  0.1312668E+00
        -11   -1    0    0    0    0  0.00000000000E+00  0.00000000000E+00  0.45593999997E+02  0.45594000000E+02  0.51100000000E-03 0. -1.
         11   -1    0    0    0    0 -0.00000000000E+00 -0.00000000000E+00 -0.45593999997E+02  0.45594000000E+02  0.51100000000E-03 0.  1.
    9900012    2    1    2    0    0 -0.42196487864E+02 -0.25700182525E+01 -0.98222237021E+01  0.47787255072E+02  0.19999927175E+02 0.  0.
         12    1    1    2    0    0  0.42196487864E+02  0.25700182525E+01  0.98222237021E+01  0.43400744928E+02  0.00000000000E+00 0. -1.
         11    1    3    3    0    0  0.34109560674E+00 -0.28199405890E+00 -0.96250880392E+00  0.10593820467E+01  0.51100000000E-03 0. -1.
        -11    1    3    3    0    0 -0.22925991213E+02  0.50721208014E+01 -0.10490481137E+02  0.25717264187E+02  0.51100000000E-03 0.  1.
        -12    1    3    3    0    0 -0.19611592257E+02 -0.73601449950E+01  0.16307662391E+01  0.21010608838E+02  0.00000000000E+00 0.  1.
</event>
<event>
 7    1  0.5038211E-009  0.4778727E+02  0.7816164E-02  0.1312668E+00
        -11   -1    0    0    0    0  0.00000000000E+00  0.00000000000E+00  0.45593999997E+02  0.45594000000E+02  0.51100000000E-03 0.  1.
         11   -1    0    0    0    0 -0.00000000000E+00 -0.00000000000E+00 -0.45593999997E+02  0.45594000000E+02  0.51100000000E-03 0. -1.
    9900012    2    1    2    0    0 -0.40015948480E+02  0.67652037671E+01  0.15381129164E+02  0.47787271330E+02  0.20000001302E+02 0.  0.
         12    1    1    2    0    0  0.40015948480E+02 -0.67652037671E+01 -0.15381129164E+02  0.43400728670E+02  0.00000000000E+00 0. -1.
         11    1    3    3    0    0 -0.30843988078E+01  0.11925782277E+01 -0.49890825945E+00  0.33443487479E+01  0.51100000000E-03 0. -1.
        -11    1    3    3    0    0 -0.21118654623E+02 -0.79139156643E+00 -0.19065148797E-01  0.21133486164E+02  0.51100000000E-03 0.  1.
        -12    1    3    3    0    0 -0.15812895048E+02  0.63640171058E+01  0.15899102572E+02  0.23309436418E+02  0.00000000000E+00 0.  1.
</event>
<event>
 7    1  0.5038211E-009  0.4778728E+02  0.7816164E-02  0.1312668E+00
        -11   -1    0    0    0    0  0.00000000000E+00  0.00000000000E+00  0.45593999997E+02  0.45594000000E+02  0.51100000000E-03 0.  1.
         11   -1    0    0    0    0 -0.00000000000E+00 -0.00000000000E+00 -0.45593999997E+02  0.45594000000E+02  0.51100000000E-03 0. -1.
    9900012    2    1    2    0    0  0.42774173444E+00  0.41014699721E+02  0.14185688223E+02  0.47787282188E+02  0.20000050810E+02 0.  0.
         12    1    1    2    0    0 -0.42774173444E+00 -0.41014699721E+02 -0.14185688223E+02  0.43400717812E+02  0.00000000000E+00 0. -1.
         11    1    3    3    0    0 -0.43308925248E+01  0.73891292036E+01  0.89108649753E+00  0.86110333791E+01  0.51100000000E-03 0. -1.
        -11    1    3    3    0    0  0.84804227211E+01  0.20873659835E+02  0.38018085079E+01  0.22849091724E+02  0.51100000000E-03 0.  1.
        -12    1    3    3    0    0 -0.37217884619E+01  0.12751910682E+02  0.94927932173E+01  0.16327157085E+02  0.00000000000E+00 0.  1.
</event>
<event>
 7    1  0.5038211E-009  0.4778727E+02  0.7816164E-02  0.1312668E+00
        -11   -1    0    0    0    0  0.00000000000E+00  0.00000000000E+00  0.45593999997E+02  0.45594000000E+02  0.51100000000E-03 0. -1.
         11   -1    0    0    0    0 -0.00000000000E+00 -0.00000000000E+00 -0.45593999997E+02  0.45594000000E+02  0.51100000000E-03 0.  1.
    9900012    2    1    2    0    0  0.26769448916E+02  0.32101695141E+02 -0.11683363883E+02  0.47787271691E+02  0.20000002946E+02 0.  0.
         12    1    1    2    0    0 -0.26769448916E+02 -0.32101695141E+02  0.11683363883E+02  0.43400728309E+02  0.00000000000E+00 0. -1.
         11    1    3    3    0    0  0.41383274466E+01  0.13504219981E+01  0.29731104749E+01  0.52715064057E+01  0.51100000000E-03 0. -1.
        -11    1    3    3    0    0  0.13994848429E+02  0.25698599124E+02 -0.14132882150E+02  0.32496340373E+02  0.51100000000E-03 0.  1.
        -12    1    3    3    0    0  0.86362730407E+01  0.50526740186E+01 -0.52359220766E+00  0.10019424912E+02  0.00000000000E+00 0.  1.
</event>
<event>
 7    1  0.5038211E-009  0.4778727E+02  0.7816164E-02  0.1312668E+00
        -11   -1    0    0    0    0  0.00000000000E+00  0.00000000000E+00  0.45593999997E+02  0.45594000000E+02  0.51100000000E-03 0.  1.
         11   -1    0    0    0    0 -0.00000000000E+00 -0.00000000000E+00 -0.45593999997E+02  0.45594000000E+02  0.51100000000E-03 0. -1.
    9900012    2    1    2    0    0 -0.19905261620E+02  0.38564414404E+02 -0.43566124417E+00  0.47787270752E+02  0.19999998668E+02 0.  0.
         12    1    1    2    0    0  0.19905261620E+02 -0.38564414404E+02  0.43566124417E+00  0.43400729248E+02  0.00000000000E+00 0. -1.
         11    1    3    3    0    0 -0.55707220877E+01  0.24426683535E+02 -0.20722863284E+01  0.25139414949E+02  0.51100000000E-03 0. -1.
        -11    1    3    3    0    0 -0.11543417821E+02  0.10599637575E+02  0.56042676714E+01  0.16643636264E+02  0.51100000000E-03 0.  1.
        -12    1    3    3    0    0 -0.27911217118E+01  0.35380932945E+01 -0.39676425871E+01  0.60042195388E+01  0.00000000000E+00 0.  1.
</event>
<event>
 7    1  0.5038211E-009  0.4778727E+02  0.7816164E-02  0.1312668E+00
        -11   -1    0    0    0    0  0.00000000000E+00  0.00000000000E+00  0.45593999997E+02  0.45594000000E+02  0.51100000000E-03 0.  1.
         11   -1    0    0    0    0 -0.00000000000E+00 -0.00000000000E+00 -0.45593999997E+02  0.45594000000E+02  0.51100000000E-03 0. -1.
    9900012    2    1    2    0    0  0.47887868926E+01 -0.24309844082E+02  0.35633160153E+02  0.47787273029E+02  0.20000009046E+02 0.  0.
         12    1    1    2    0    0 -0.47887868926E+01  0.24309844082E+02 -0.35633160153E+02  0.43400726971E+02  0.00000000000E+00 0. -1.
         11    1    3    3    0    0 -0.28238541873E+01  0.17417779495E+01  0.49198670147E+01  0.59340571787E+01  0.51100000000E-03 0. -1.
        -11    1    3    3    0    0  0.48391011438E+01 -0.20309389077E+02  0.17738618151E+02  0.27396108459E+02  0.51100000000E-03 0.  1.
         12    1    3    3    0    0  0.27735399361E+01 -0.57422329547E+01  0.12974674987E+02  0.14457107391E+02  0.00000000000E+00 0. -1.
</event>
<event>
 7    1  0.5038211E-009  0.4778727E+02  0.7816164E-02  0.1312668E+00
        -11   -1    0    0    0    0  0.00000000000E+00  0.00000000000E+00  0.45593999997E+02  0.45594000000E+02  0.51100000000E-03 0. -1.
         11   -1    0    0    0    0 -0.00000000000E+00 -0.00000000000E+00 -0.45593999997E+02  0.45594000000E+02  0.51100000000E-03 0.  1.
    9900012    2    1    2    0    0 -0.27546452742E+01 -0.42797076499E+02 -0.66667347171E+01  0.47787272135E+02  0.20000004971E+02 0.  0.
         12    1    1    2    0    0  0.27546452742E+01  0.42797076499E+02  0.66667347171E+01  0.43400727865E+02  0.00000000000E+00 0. -1.
         11    1    3    3    0    0 -0.64031874750E+01 -0.82384576239E+01  0.30747443794E+01  0.10877823639E+02  0.51100000000E-03 0. -1.
        -11    1    3    3    0    0  0.56788889263E+01 -0.19871254795E+02 -0.42577072667E+01  0.21100820315E+02  0.51100000000E-03 0.  1.
         12    1    3    3    0    0 -0.20303467255E+01 -0.14687364081E+02 -0.54837718298E+01  0.15808628180E+02  0.00000000000E+00 0. -1.
</event>
<event>
 7    1  0.5038211E-009  0.4778727E+02  0.7816164E-02  0.1312668E+00
        -11   -1    0    0    0    0  0.00000000000E+00  0.00000000000E+00  0.45593999997E+02  0.45594000000E+02  0.51100000000E-03 0.  1.
         11   -1    0    0    0    0 -0.00000000000E+00 -0.00000000000E+00 -0.45593999997E+02  0.45594000000E+02  0.51100000000E-03 0. -1.
    9900012    2    1    2    0    0  0.29924240271E+02 -0.31118317860E+02 -0.44512145906E+01  0.47787272200E+02  0.20000005268E+02 0.  0.
         12    1    1    2    0    0 -0.29924240271E+02  0.31118317860E+02  0.44512145906E+01  0.43400727800E+02  0.00000000000E+00 0. -1.
         11    1    3    3    0    0  0.87909388445E+00 -0.10744144462E+01  0.23252329851E+01  0.27081139481E+01  0.51100000000E-03 0. -1.
        -11    1    3    3    0    0  0.21368196822E+02 -0.22067816108E+02  0.22429978365E+01  0.30799665303E+02  0.51100000000E-03 0.  1.
        -12    1    3    3    0    0  0.76769495646E+01 -0.79760873059E+01 -0.90194454122E+01  0.14279492949E+02  0.00000000000E+00 0.  1.
</event>
<event>
 7    1  0.5038211E-009  0.4778727E+02  0.7816164E-02  0.1312668E+00
        -11   -1    0    0    0    0  0.00000000000E+00  0.00000000000E+00  0.45593999997E+02  0.45594000000E+02  0.51100000000E-03 0.  1.
         11   -1    0    0    0    0 -0.00000000000E+00 -0.00000000000E+00 -0.45593999997E+02  0.45594000000E+02  0.51100000000E-03 0. -1.
    9900012    2    1    2    0    0 -0.32757020454E+02  0.27811708348E+02 -0.60917674304E+01  0.47787272579E+02  0.20000006998E+02 0.  0.
         12    1    1    2    0    0  0.32757020454E+02 -0.27811708348E+02  0.60917674304E+01  0.43400727421E+02  0.00000000000E+00 0. -1.
         11    1    3    3    0    0 -0.33015919651E+01  0.98067949125E+01  0.18340030769E+01  0.10508915430E+02  0.51100000000E-03 0. -1.
        -11    1    3    3    0    0 -0.28388134642E+02  0.19582472968E+02 -0.71427501502E+01  0.35219005040E+02  0.51100000000E-03 0.  1.
        -12    1    3    3    0    0 -0.10672938459E+01 -0.15775595326E+01 -0.78302035702E+00  0.20593521098E+01  0.00000000000E+00 0.  1.
</event>
<event>
 7    1  0.5038211E-009  0.4778731E+02  0.7816164E-02  0.1312668E+00
        -11   -1    0    0    0    0  0.00000000000E+00  0.00000000000E+00  0.45593999997E+02  0.45594000000E+02  0.51100000000E-03 0.  1.
         11   -1    0    0    0    0 -0.00000000000E+00 -0.00000000000E+00 -0.45593999997E+02  0.45594000000E+02  0.51100000000E-03 0. -1.
    9900012    2    1    2    0    0 -0.49967429106E+01 -0.41468126244E+02 -0.11791831829E+02  0.47787306091E+02  0.20000159792E+02 0.  0.
         12    1    1    2    0    0  0.49967429106E+01  0.41468126244E+02  0.11791831829E+02  0.43400693909E+02  0.00000000000E+00 0. -1.
         11    1    3    3    0    0 -0.27386505784E+01 -0.20662382976E+02 -0.13218529156E+02  0.24681243700E+02  0.51100000000E-03 0. -1.
        -11    1    3    3    0    0  0.26313483820E+01 -0.15503356364E+02  0.20884060732E+01  0.15863148901E+02  0.51100000000E-03 0.  1.
         12    1    3    3    0    0 -0.48894407143E+01 -0.53023869028E+01 -0.66170874620E+00  0.72429134905E+01  0.00000000000E+00 0. -1.
</event>
<event>
 7    1  0.5038211E-009  0.4778727E+02  0.7816164E-02  0.1312668E+00
        -11   -1    0    0    0    0  0.00000000000E+00  0.00000000000E+00  0.45593999997E+02  0.45594000000E+02  0.51100000000E-03 0.  1.
         11   -1    0    0    0    0 -0.00000000000E+00 -0.00000000000E+00 -0.45593999997E+02  0.45594000000E+02  0.51100000000E-03 0. -1.
    9900012    2    1    2    0    0 -0.13232387745E+02 -0.11821052993E+02  0.39607954423E+02  0.47787269213E+02  0.19999991651E+02 0.  0.
         12    1    1    2    0    0  0.13232387745E+02  0.11821052993E+02 -0.39607954423E+02  0.43400730787E+02  0.00000000000E+00 0. -1.
         11    1    3    3    0    0  0.15272386674E+01 -0.21131774992E+01 -0.87103826817E+00  0.27489425269E+01  0.51100000000E-03 0. -1.
        -11    1    3    3    0    0 -0.15951930168E+02 -0.91646143715E+01  0.38424393612E+02  0.42601505341E+02  0.51100000000E-03 0.  1.
        -12    1    3    3    0    0  0.11923037555E+01 -0.54326112245E+00  0.20545990790E+01  0.24368213451E+01  0.00000000000E+00 0.  1.
</event>
<event>
 7    1  0.5038211E-009  0.4778727E+02  0.7816164E-02  0.1312668E+00
        -11   -1    0    0    0    0  0.00000000000E+00  0.00000000000E+00  0.45593999997E+02  0.45594000000E+02  0.51100000000E-03 0. -1.
         11   -1    0    0    0    0 -0.00000000000E+00 -0.00000000000E+00 -0.45593999997E+02  0.45594000000E+02  0.51100000000E-03 0.  1.
    9900012    2    1    2    0    0 -0.30631987231E+02  0.28054004468E+02  0.12580838457E+02  0.47787270690E+02  0.19999998382E+02 0.  0.
         12    1    1    2    0    0  0.30631987231E+02 -0.28054004468E+02 -0.12580838457E+02  0.43400729310E+02  0.00000000000E+00 0. -1.
         11    1    3    3    0    0 -0.15684303034E+02  0.18017287482E+02  0.13963040749E+02  0.27669234126E+02  0.51100000000E-03 0. -1.
        -11    1    3    3    0    0 -0.15722392757E+02  0.83294481364E+01 -0.62888829576E-02  0.17792509100E+02  0.51100000000E-03 0.  1.
         12    1    3    3    0    0  0.77470856033E+00  0.17072688493E+01 -0.13759134088E+01  0.23255274639E+01  0.00000000000E+00 0. -1.
</event>
<event>
 7    1  0.7578200E-009  0.4778727E+02  0.7816164E-02  0.1312668E+00
        -11   -1    0    0    0    0  0.00000000000E+00  0.00000000000E+00  0.45593999997E+02  0.45594000000E+02  0.51100000000E-03 0. -1.
         11   -1    0    0    0    0 -0.00000000000E+00 -0.00000000000E+00 -0.45593999997E+02  0.45594000000E+02  0.51100000000E-03 0.  1.
    9900012    2    1    2    0    0  0.23387078941E+02  0.26959567128E+02 -0.24695129966E+02  0.47787272297E+02  0.20000005712E+02 0.  0.
         12    1    1    2    0    0 -0.23387078941E+02 -0.26959567128E+02  0.24695129966E+02  0.43400727703E+02  0.00000000000E+00 0. -1.
         11    1    3    3    0    0 -0.12766627094E+01  0.84849293850E+00 -0.45421162955E+00  0.15987859162E+01  0.51100000000E-03 0. -1.
        -11    1    3    3    0    0  0.11747657581E+02  0.77112975023E+01 -0.13702327777E+01  0.14119104289E+02  0.51100000000E-03 0.  1.
        -12    1    3    3    0    0  0.12916084069E+02  0.18399776687E+02 -0.22870685559E+02  0.32069382092E+02  0.00000000000E+00 0.  1.
</event>
<event>
 7    1  0.5038211E-009  0.4778727E+02  0.7816164E-02  0.1312668E+00
        -11   -1    0    0    0    0  0.00000000000E+00  0.00000000000E+00  0.45593999997E+02  0.45594000000E+02  0.51100000000E-03 0.  1.
         11   -1    0    0    0    0 -0.00000000000E+00 -0.00000000000E+00 -0.45593999997E+02  0.45594000000E+02  0.51100000000E-03 0. -1.
    9900012    2    1    2    0    0  0.46797930493E+00  0.39113839625E+02  0.18801912547E+02  0.47787269934E+02  0.19999994936E+02 0.  0.
         12    1    1    2    0    0 -0.46797930493E+00 -0.39113839625E+02 -0.18801912547E+02  0.43400730066E+02  0.00000000000E+00 0. -1.
         11    1    3    3    0    0  0.10836161108E+01  0.19692902199E+02  0.10768279305E+02  0.22470880275E+02  0.51100000000E-03 0.  1.
        -11    1    3    3    0    0  0.10956894600E+01  0.71087894467E+01 -0.38164381510E+01  0.81425194634E+01  0.51100000000E-03 0. -1.
        -12    1    3    3    0    0 -0.17113262659E+01  0.12312147980E+02  0.11850071394E+02  0.17173870196E+02  0.00000000000E+00 0.  1.
</event>
<event>
 7    1  0.5038211E-009  0.4778731E+02  0.7816164E-02  0.1312668E+00
        -11   -1    0    0    0    0  0.00000000000E+00  0.00000000000E+00  0.45593999997E+02  0.45594000000E+02  0.51100000000E-03 0. -1.
         11   -1    0    0    0    0 -0.00000000000E+00 -0.00000000000E+00 -0.45593999997E+02  0.45594000000E+02  0.51100000000E-03 0.  1.
    9900012    2    1    2    0    0  0.20529398181E+02  0.24513831659E+02 -0.29346824058E+02  0.47787306289E+02  0.20000160694E+02 0.  0.
         12    1    1    2    0    0 -0.20529398181E+02 -0.24513831659E+02  0.29346824058E+02  0.43400693711E+02  0.00000000000E+00 0. -1.
         11    1    3    3    0    0  0.16618530943E+02  0.12384813266E+02 -0.21956282534E+02  0.30193335578E+02  0.51100000000E-03 0. -1.
        -11    1    3    3    0    0 -0.87280293542E+00  0.87564478071E+01 -0.88693893477E+00  0.88444233332E+01  0.51100000000E-03 0.  1.
        -12    1    3    3    0    0  0.47836701728E+01  0.33725705865E+01 -0.65036025889E+01  0.87495473779E+01  0.00000000000E+00 0.  1.
</event>
<event>
 7    1  0.5038211E-009  0.4778727E+02  0.7816164E-02  0.1312668E+00
        -11   -1    0    0    0    0  0.00000000000E+00  0.00000000000E+00  0.45593999997E+02  0.45594000000E+02  0.51100000000E-03 0.  1.
         11   -1    0    0    0    0 -0.00000000000E+00 -0.00000000000E+00 -0.45593999997E+02  0.45594000000E+02  0.51100000000E-03 0. -1.
    9900012    2    1    2    0    0 -0.26942594756E+02  0.29909512235E+02  0.16221617155E+02  0.47787271925E+02  0.20000004015E+02 0.  0.
         12    1    1    2    0    0  0.26942594756E+02 -0.29909512235E+02 -0.16221617155E+02  0.43400728075E+02  0.00000000000E+00 0. -1.
         11    1    3    3    0    0  0.25035670872E+01  0.34282320214E+01  0.30019713710E+00  0.42556716902E+01  0.51100000000E-03 0. -1.
        -11    1    3    3    0    0 -0.28270571318E+02  0.24127368846E+02  0.16759051125E+02  0.40770343694E+02  0.51100000000E-03 0.  1.
        -12    1    3    3    0    0 -0.11755905250E+01  0.23539113680E+01 -0.83763110746E+00  0.27612565406E+01  0.00000000000E+00 0.  1.
</event>
<event>
 7    1  0.5038211E-009  0.4778727E+02  0.7816164E-02  0.1312668E+00
        -11   -1    0    0    0    0  0.00000000000E+00  0.00000000000E+00  0.45593999997E+02  0.45594000000E+02  0.51100000000E-03 0. -1.
         11   -1    0    0    0    0 -0.00000000000E+00 -0.00000000000E+00 -0.45593999997E+02  0.45594000000E+02  0.51100000000E-03 0.  1.
    9900012    2    1    2    0    0  0.29002767604E+02 -0.31919274117E+02  0.48603193622E+01  0.47787270822E+02  0.19999998988E+02 0.  0.
         12    1    1    2    0    0 -0.29002767604E+02  0.31919274117E+02 -0.48603193622E+01  0.43400729178E+02  0.00000000000E+00 0. -1.
         11    1    3    3    0    0  0.76424410203E+01 -0.90722683870E+00  0.25412338707E+01  0.81048032137E+01  0.51100000000E-03 0. -1.
        -11    1    3    3    0    0  0.16112672889E+02 -0.23337546961E+02 -0.37107242669E+01  0.28601202783E+02  0.51100000000E-03 0.  1.
        -12    1    3    3    0    0  0.52476536946E+01 -0.76745003169E+01  0.60298097584E+01  0.11081264826E+02  0.00000000000E+00 0.  1.
</event>
<event>
 7    1  0.5038211E-009  0.4778727E+02  0.7816164E-02  0.1312668E+00
        -11   -1    0    0    0    0  0.00000000000E+00  0.00000000000E+00  0.45593999997E+02  0.45594000000E+02  0.51100000000E-03 0. -1.
         11   -1    0    0    0    0 -0.00000000000E+00 -0.00000000000E+00 -0.45593999997E+02  0.45594000000E+02  0.51100000000E-03 0.  1.
    9900012    2    1    2    0    0  0.10542629107E+02  0.41635519869E+02  0.62417596886E+01  0.47787272964E+02  0.20000008751E+02 0.  0.
         12    1    1    2    0    0 -0.10542629107E+02 -0.41635519869E+02 -0.62417596886E+01  0.43400727036E+02  0.00000000000E+00 0. -1.
         11    1    3    3    0    0  0.88557588250E+01  0.48107183645E+01 -0.33745013540E+00  0.10083716993E+02  0.51100000000E-03 0. -1.
        -11    1    3    3    0    0  0.26934981376E+01  0.25819041721E+02  0.32531180219E+01  0.26162198393E+02  0.51100000000E-03 0.  1.
         12    1    3    3    0    0 -0.10066278559E+01  0.11005759784E+02  0.33260918021E+01  0.11541357577E+02  0.00000000000E+00 0. -1.
</event>
<event>
 7    1  0.5038211E-009  0.4778727E+02  0.7816164E-02  0.1312668E+00
        -11   -1    0    0    0    0  0.00000000000E+00  0.00000000000E+00  0.45593999997E+02  0.45594000000E+02  0.51100000000E-03 0.  1.
         11   -1    0    0    0    0 -0.00000000000E+00 -0.00000000000E+00 -0.45593999997E+02  0.45594000000E+02  0.51100000000E-03 0. -1.
    9900012    2    1    2    0    0 -0.70569492969E+01  0.42753178541E+02 -0.24470709246E+01  0.47787274605E+02  0.20000016233E+02 0.  0.
         12    1    1    2    0    0  0.70569492969E+01 -0.42753178541E+02  0.24470709246E+01  0.43400725395E+02  0.00000000000E+00 0. -1.
         11    1    3    3    0    0 -0.15562166393E+01  0.11088169661E+02 -0.48267611101E+01  0.12192905304E+02  0.51100000000E-03 0. -1.
        -11    1    3    3    0    0  0.45362688836E+01  0.17693623769E+02  0.21297909299E+01  0.18389618461E+02  0.51100000000E-03 0.  1.
        -12    1    3    3    0    0 -0.10037001541E+02  0.13971385110E+02  0.24989925557E+00  0.17204750840E+02  0.00000000000E+00 0.  1.
</event>
<event>
 7    1  0.5038211E-009  0.4778728E+02  0.7816164E-02  0.1312668E+00
        -11   -1    0    0    0    0  0.00000000000E+00  0.00000000000E+00  0.45593999997E+02  0.45594000000E+02  0.51100000000E-03 0.  1.
         11   -1    0    0    0    0 -0.00000000000E+00 -0.00000000000E+00 -0.45593999997E+02  0.45594000000E+02  0.51100000000E-03 0. -1.
    9900012    2    1    2    0    0  0.27112887406E+02  0.10915358933E+02  0.32083780720E+02  0.47787277547E+02  0.20000029648E+02 0.  0.
         12    1    1    2    0    0 -0.27112887406E+02 -0.10915358933E+02 -0.32083780720E+02  0.43400722453E+02  0.00000000000E+00 0. -1.
         11    1    3    3    0    0  0.65781280210E+01 -0.13515065712E+01  0.18938813071E+01  0.69774726757E+01  0.51100000000E-03 0. -1.
        -11    1    3    3    0    0  0.10591386801E+02  0.13623462464E+02  0.21211671548E+02  0.27344308622E+02  0.51100000000E-03 0.  1.
        -12    1    3    3    0    0  0.99433725837E+01 -0.13565969599E+01  0.89782278645E+01  0.13465496249E+02  0.00000000000E+00 0.  1.
</event>
<event>
 7    1  0.5038211E-009  0.4778727E+02  0.7816164E-02  0.1312668E+00
        -11   -1    0    0    0    0  0.00000000000E+00  0.00000000000E+00  0.45593999997E+02  0.45594000000E+02  0.51100000000E-03 0.  1.
         11   -1    0    0    0    0 -0.00000000000E+00 -0.00000000000E+00 -0.45593999997E+02  0.45594000000E+02  0.51100000000E-03 0. -1.
    9900012    2    1    2    0    0 -0.12566932927E+02 -0.30597864163E+02  0.28097436463E+02  0.47787273850E+02  0.20000012793E+02 0.  0.
         12    1    1    2    0    0  0.12566932927E+02  0.30597864163E+02 -0.28097436463E+02  0.43400726150E+02  0.00000000000E+00 0. -1.
         11    1    3    3    0    0  0.12293044686E+01 -0.15004733584E+02  0.67704236603E+01  0.16507327349E+02  0.51100000000E-03 0. -1.
        -11    1    3    3    0    0 -0.90161398824E+01 -0.35539584695E+01  0.11383392109E+02  0.14950017236E+02  0.51100000000E-03 0.  1.
        -12    1    3    3    0    0 -0.47800975132E+01 -0.12039172110E+02  0.99436206936E+01  0.16329929266E+02  0.00000000000E+00 0.  1.
</event>
<event>
 7    1  0.5038211E-009  0.4778728E+02  0.7816164E-02  0.1312668E+00
        -11   -1    0    0    0    0  0.00000000000E+00  0.00000000000E+00  0.45593999997E+02  0.45594000000E+02  0.51100000000E-03 0.  1.
         11   -1    0    0    0    0 -0.00000000000E+00 -0.00000000000E+00 -0.45593999997E+02  0.45594000000E+02  0.51100000000E-03 0. -1.
    9900012    2    1    2    0    0  0.10572215882E+01  0.43371276242E+02 -0.11989789950E+01  0.47787275686E+02  0.20000021162E+02 0.  0.
         12    1    1    2    0    0 -0.10572215882E+01 -0.43371276242E+02  0.11989789950E+01  0.43400724314E+02  0.00000000000E+00 0. -1.
         11    1    3    3    0    0  0.48262385853E-01  0.81839126498E+01 -0.68568251537E+01  0.10676835063E+02  0.51100000000E-03 0. -1.
        -11    1    3    3    0    0  0.33111124791E+01  0.32825407664E+02  0.35184633627E+01  0.33179066275E+02  0.51100000000E-03 0.  1.
        -12    1    3    3    0    0 -0.23021532767E+01  0.23619559282E+01  0.21393827960E+01  0.39313743480E+01  0.00000000000E+00 0.  1.
</event>
<event>
 7    1  0.5038211E-009  0.4778727E+02  0.7816164E-02  0.1312668E+00
        -11   -1    0    0    0    0  0.00000000000E+00  0.00000000000E+00  0.45593999997E+02  0.45594000000E+02  0.51100000000E-03 0.  1.
         11   -1    0    0    0    0 -0.00000000000E+00 -0.00000000000E+00 -0.45593999997E+02  0.45594000000E+02  0.51100000000E-03 0. -1.
    9900012    2    1    2    0    0 -0.32739361507E+02  0.27809680667E+02 -0.61950940804E+01  0.47787270497E+02  0.19999997506E+02 0.  0.
         12    1    1    2    0    0  0.32739361507E+02 -0.27809680667E+02  0.61950940804E+01  0.43400729503E+02  0.00000000000E+00 0. -1.
         11    1    3    3    0    0 -0.10262821666E+01 -0.19684976981E+01  0.22640145498E+01  0.31708043799E+01  0.51100000000E-03 0. -1.
        -11    1    3    3    0    0 -0.17549404939E+02  0.16232475500E+02 -0.20346084062E+01  0.23991967535E+02  0.51100000000E-03 0.  1.
         12    1    3    3    0    0 -0.14163674401E+02  0.13545702865E+02 -0.64245002239E+01  0.20624498582E+02  0.00000000000E+00 0. -1.
</event>
<event>
 7    1  0.5038211E-009  0.4778727E+02  0.7816164E-02  0.1312668E+00
        -11   -1    0    0    0    0  0.00000000000E+00  0.00000000000E+00  0.45593999997E+02  0.45594000000E+02  0.51100000000E-03 0.  1.
         11   -1    0    0    0    0 -0.00000000000E+00 -0.00000000000E+00 -0.45593999997E+02  0.45594000000E+02  0.51100000000E-03 0. -1.
    9900012    2    1    2    0    0 -0.30405007230E+02  0.27481685221E+02  0.14279911018E+02  0.47787270214E+02  0.19999996215E+02 0.  0.
         12    1    1    2    0    0  0.30405007230E+02 -0.27481685221E+02 -0.14279911018E+02  0.43400729786E+02  0.00000000000E+00 0. -1.
         11    1    3    3    0    0 -0.94918224752E+01  0.11585216560E+02  0.12960850326E+02  0.19806452940E+02  0.51100000000E-03 0. -1.
        -11    1    3    3    0    0 -0.17133508242E+01  0.34217374152E+01  0.32258517945E+01  0.50049953093E+01  0.51100000000E-03 0.  1.
         12    1    3    3    0    0 -0.19199833931E+02  0.12474731246E+02 -0.19067911032E+01  0.22975821965E+02  0.00000000000E+00 0. -1.
</event>
<event>
 7    1  0.5038211E-009  0.4778727E+02  0.7816164E-02  0.1312668E+00
        -11   -1    0    0    0    0  0.00000000000E+00  0.00000000000E+00  0.45593999997E+02  0.45594000000E+02  0.51100000000E-03 0. -1.
         11   -1    0    0    0    0 -0.00000000000E+00 -0.00000000000E+00 -0.45593999997E+02  0.45594000000E+02  0.51100000000E-03 0.  1.
    9900012    2    1    2    0    0 -0.32876506420E+01  0.43274951109E+02 -0.30567835023E+00  0.47787268676E+02  0.19999989202E+02 0.  0.
         12    1    1    2    0    0  0.32876506420E+01 -0.43274951109E+02  0.30567835023E+00  0.43400731324E+02  0.00000000000E+00 0. -1.
         11    1    3    3    0    0  0.79118468673E+00  0.42866108527E+01  0.13334142038E+01  0.45583987881E+01  0.51100000000E-03 0. -1.
        -11    1    3    3    0    0  0.37195783206E+01  0.57073491413E+01  0.49451710939E+01  0.84180647724E+01  0.51100000000E-03 0.  1.
        -12    1    3    3    0    0 -0.77984136493E+01  0.33280991115E+02 -0.65842636479E+01  0.34810805116E+02  0.00000000000E+00 0.  1.
</event>
<event>
 7    1  0.5038211E-009  0.4778727E+02  0.7816164E-02  0.1312668E+00
        -11   -1    0    0    0    0  0.00000000000E+00  0.00000000000E+00  0.45593999997E+02  0.45594000000E+02  0.51100000000E-03 0. -1.
         11   -1    0    0    0    0 -0.00000000000E+00 -0.00000000000E+00 -0.45593999997E+02  0.45594000000E+02  0.51100000000E-03 0.  1.
    9900012    2    1    2    0    0  0.11805778711E+02  0.23822070018E+02 -0.34303875163E+02  0.47787270949E+02  0.19999999566E+02 0.  0.
         12    1    1    2    0    0 -0.11805778711E+02 -0.23822070018E+02  0.34303875163E+02  0.43400729051E+02  0.00000000000E+00 0. -1.
         11    1    3    3    0    0  0.84461997513E+01  0.57575372745E+01 -0.96994533801E+01  0.14091377571E+02  0.51100000000E-03 0. -1.
        -11    1    3    3    0    0  0.23052486376E+01  0.14997678440E+02 -0.26048570655E+02  0.30145854828E+02  0.51100000000E-03 0.  1.
        -12    1    3    3    0    0  0.10543303226E+01  0.30668543035E+01  0.14441488720E+01  0.35500385508E+01  0.00000000000E+00 0.  1.
</event>
<event>
 7    1  0.5038211E-009  0.4778727E+02  0.7816164E-02  0.1312668E+00
        -11   -1    0    0    0    0  0.00000000000E+00  0.00000000000E+00  0.45593999997E+02  0.45594000000E+02  0.51100000000E-03 0.  1.
         11   -1    0    0    0    0 -0.00000000000E+00 -0.00000000000E+00 -0.45593999997E+02  0.45594000000E+02  0.51100000000E-03 0. -1.
    9900012    2    1    2    0    0  0.66519242659E+01  0.32624172485E+02  0.27839513304E+02  0.47787271575E+02  0.20000002420E+02 0.  0.
         12    1    1    2    0    0 -0.66519242659E+01 -0.32624172485E+02 -0.27839513304E+02  0.43400728425E+02  0.00000000000E+00 0. -1.
         11    1    3    3    0    0  0.29075165487E+01 -0.98274952261E+00  0.15409401365E+01  0.34342314818E+01  0.51100000000E-03 0. -1.
        -11    1    3    3    0    0  0.43882751232E+01  0.34251342865E+02  0.26356124639E+02  0.43440266491E+02  0.51100000000E-03 0.  1.
        -12    1    3    3    0    0 -0.64386740599E+00 -0.64442085680E+00 -0.57551471021E-01  0.91277360226E+00  0.00000000000E+00 0.  1.
</event>
<event>
 7    1  0.5038211E-009  0.4778727E+02  0.7816164E-02  0.1312668E+00
        -11   -1    0    0    0    0  0.00000000000E+00  0.00000000000E+00  0.45593999997E+02  0.45594000000E+02  0.51100000000E-03 0.  1.
         11   -1    0    0    0    0 -0.00000000000E+00 -0.00000000000E+00 -0.45593999997E+02  0.45594000000E+02  0.51100000000E-03 0. -1.
    9900012    2    1    2    0    0  0.13623718930E+02  0.39016416972E+02  0.13256574583E+02  0.47787270969E+02  0.19999999654E+02 0.  0.
         12    1    1    2    0    0 -0.13623718930E+02 -0.39016416972E+02 -0.13256574583E+02  0.43400729031E+02  0.00000000000E+00 0. -1.
         11    1    3    3    0    0  0.11572645321E+02  0.10133517687E+02  0.69559785710E+01  0.16881941197E+02  0.51100000000E-03 0. -1.
        -11    1    3    3    0    0 -0.22514511769E+00  0.16485385371E+02  0.77498592305E+01  0.18217544827E+02  0.51100000000E-03 0.  1.
        -12    1    3    3    0    0  0.22762187263E+01  0.12397513914E+02 -0.14492632188E+01  0.12687784945E+02  0.00000000000E+00 0.  1.
</event>
<event>
 7    1  0.5038211E-009  0.4778727E+02  0.7816164E-02  0.1312668E+00
        -11   -1    0    0    0    0  0.00000000000E+00  0.00000000000E+00  0.45593999997E+02  0.45594000000E+02  0.51100000000E-03 0.  1.
         11   -1    0    0    0    0 -0.00000000000E+00 -0.00000000000E+00 -0.45593999997E+02  0.45594000000E+02  0.51100000000E-03 0. -1.
    9900012    2    1    2    0    0 -0.43542390085E+01 -0.38578562850E+02  0.19399960275E+02  0.47787269965E+02  0.19999995077E+02 0.  0.
         12    1    1    2    0    0  0.43542390085E+01  0.38578562850E+02 -0.19399960275E+02  0.43400730035E+02  0.00000000000E+00 0. -1.
         11    1    3    3    0    0  0.37413252696E+01 -0.12987901339E+02  0.12576928332E+02  0.18462454401E+02  0.51100000000E-03 0. -1.
        -11    1    3    3    0    0 -0.44596968792E+01 -0.24184536268E+02  0.54261413249E+01  0.25183798377E+02  0.51100000000E-03 0.  1.
         12    1    3    3    0    0 -0.36358673989E+01 -0.14061252428E+01  0.13968906175E+01  0.41410171864E+01  0.00000000000E+00 0. -1.
</event>
<event>
 7    1  0.5038211E-009  0.4778728E+02  0.7816164E-02  0.1312668E+00
        -11   -1    0    0    0    0  0.00000000000E+00  0.00000000000E+00  0.45593999997E+02  0.45594000000E+02  0.51100000000E-03 0. -1.
         11   -1    0    0    0    0 -0.00000000000E+00 -0.00000000000E+00 -0.45593999997E+02  0.45594000000E+02  0.51100000000E-03 0.  1.
    9900012    2    1    2    0    0 -0.30343828902E+02 -0.13989107122E+02 -0.27698005390E+02  0.47787279118E+02  0.20000036809E+02 0.  0.
         12    1    1    2    0    0  0.30343828902E+02  0.13989107122E+02  0.27698005390E+02  0.43400720882E+02  0.00000000000E+00 0. -1.
         11    1    3    3    0    0 -0.11182204829E+02 -0.15013646785E+02 -0.14245895613E+02  0.23524388126E+02  0.51100000000E-03 0. -1.
        -11    1    3    3    0    0 -0.42267299156E+01  0.27065631237E+01 -0.21596457943E+01  0.54639546064E+01  0.51100000000E-03 0.  1.
         12    1    3    3    0    0 -0.14934894157E+02 -0.16820234614E+01 -0.11292463983E+02  0.18798936385E+02  0.00000000000E+00 0. -1.
</event>
<event>
 7    1  0.5038211E-009  0.4778727E+02  0.7816164E-02  0.1312668E+00
        -11   -1    0    0    0    0  0.00000000000E+00  0.00000000000E+00  0.45593999997E+02  0.45594000000E+02  0.51100000000E-03 0.  1.
         11   -1    0    0    0    0 -0.00000000000E+00 -0.00000000000E+00 -0.45593999997E+02  0.45594000000E+02  0.51100000000E-03 0. -1.
    9900012    2    1    2    0    0  0.35028664196E+02 -0.24968715532E+02 -0.57601399363E+01  0.47787270942E+02  0.19999999533E+02 0.  0.
         12    1    1    2    0    0 -0.35028664196E+02  0.24968715532E+02  0.57601399363E+01  0.43400729058E+02  0.00000000000E+00 0. -1.
         11    1    3    3    0    0  0.12851308884E+02 -0.38584840867E+01 -0.98306774562E+01  0.16633888871E+02  0.51100000000E-03 0. -1.
        -11    1    3    3    0    0  0.11975969410E+02 -0.12426098829E+02  0.39954616617E+00  0.17262427779E+02  0.51100000000E-03 0.  1.
         12    1    3    3    0    0  0.10201385902E+02 -0.86841326163E+01  0.36709913537E+01  0.13890954292E+02  0.00000000000E+00 0. -1.
</event>
<event>
 7    1  0.5038211E-009  0.4778727E+02  0.7816164E-02  0.1312668E+00
        -11   -1    0    0    0    0  0.00000000000E+00  0.00000000000E+00  0.45593999997E+02  0.45594000000E+02  0.51100000000E-03 0. -1.
         11   -1    0    0    0    0 -0.00000000000E+00 -0.00000000000E+00 -0.45593999997E+02  0.45594000000E+02  0.51100000000E-03 0.  1.
    9900012    2    1    2    0    0  0.27066599327E+02 -0.33541379522E+00 -0.33925061979E+02  0.47787272681E+02  0.20000007461E+02 0.  0.
         12    1    1    2    0    0 -0.27066599327E+02  0.33541379522E+00  0.33925061979E+02  0.43400727319E+02  0.00000000000E+00 0. -1.
         11    1    3    3    0    0  0.58803020554E+01  0.57189538396E+00 -0.20628056044E+02  0.21457439572E+02  0.51100000000E-03 0. -1.
        -11    1    3    3    0    0  0.61578944963E+01 -0.38652029621E+01 -0.56653682308E+01  0.92171501028E+01  0.51100000000E-03 0.  1.
         12    1    3    3    0    0  0.15028402775E+02  0.29578937830E+01 -0.76316377051E+01  0.17112683006E+02  0.00000000000E+00 0. -1.
</event>
<event>
 7    1  0.5038211E-009  0.4778728E+02  0.7816164E-02  0.1312668E+00
        -11   -1    0    0    0    0  0.00000000000E+00  0.00000000000E+00  0.45593999997E+02  0.45594000000E+02  0.51100000000E-03 0. -1.
         11   -1    0    0    0    0 -0.00000000000E+00 -0.00000000000E+00 -0.45593999997E+02  0.45594000000E+02  0.51100000000E-03 0.  1.
    9900012    2    1    2    0    0  0.33360042690E+02  0.82805709730E+01 -0.26498347764E+02  0.47787277217E+02  0.20000028141E+02 0.  0.
         12    1    1    2    0    0 -0.33360042690E+02 -0.82805709730E+01  0.26498347764E+02  0.43400722783E+02  0.00000000000E+00 0. -1.
         11    1    3    3    0    0  0.79362083905E+01 -0.39198953574E+01 -0.32906623992E+01  0.94433808838E+01  0.51100000000E-03 0. -1.
        -11    1    3    3    0    0  0.21405307246E+02  0.10190697643E+02 -0.24052394353E+02  0.33772106407E+02  0.51100000000E-03 0.  1.
         12    1    3    3    0    0  0.40185270530E+01  0.20097686870E+01  0.84470898868E+00  0.45717899259E+01  0.00000000000E+00 0. -1.
</event>
<event>
 7    1  0.5038211E-009  0.4778730E+02  0.7816164E-02  0.1312668E+00
        -11   -1    0    0    0    0  0.00000000000E+00  0.00000000000E+00  0.45593999997E+02  0.45594000000E+02  0.51100000000E-03 0. -1.
         11   -1    0    0    0    0 -0.00000000000E+00 -0.00000000000E+00 -0.45593999997E+02  0.45594000000E+02  0.51100000000E-03 0.  1.
    9900012    2    1    2    0    0  0.25558918588E+02 -0.12582188381E+02 -0.32742195297E+02  0.47787295665E+02  0.20000112257E+02 0.  0.
         12    1    1    2    0    0 -0.25558918588E+02  0.12582188381E+02  0.32742195297E+02  0.43400704335E+02  0.00000000000E+00 0. -1.
         11    1    3    3    0    0 -0.34911128149E+00  0.40394133244E+00 -0.76178550459E+01  0.76365413015E+01  0.51100000000E-03 0. -1.
        -11    1    3    3    0    0  0.24139845370E+02 -0.10183526947E+02 -0.25798019261E+02  0.36769201155E+02  0.51100000000E-03 0.  1.
         12    1    3    3    0    0  0.17681844998E+01 -0.28026027670E+01  0.67367900967E+00  0.33815532087E+01  0.00000000000E+00 0. -1.
</event>
<event>
 7    1  0.5038211E-009  0.4778726E+02  0.7816164E-02  0.1312668E+00
        -11   -1    0    0    0    0  0.00000000000E+00  0.00000000000E+00  0.45593999997E+02  0.45594000000E+02  0.51100000000E-03 0.  1.
         11   -1    0    0    0    0 -0.00000000000E+00 -0.00000000000E+00 -0.45593999997E+02  0.45594000000E+02  0.51100000000E-03 0. -1.
    9900012    2    1    2    0    0  0.37343139818E+02 -0.14324338980E+02  0.16850135065E+02  0.47787264634E+02  0.19999970771E+02 0.  0.
         12    1    1    2    0    0 -0.37343139818E+02  0.14324338980E+02 -0.16850135065E+02  0.43400735366E+02  0.00000000000E+00 0. -1.
         11    1    3    3    0    0  0.27828060779E+01 -0.58972830523E+01  0.82811168381E+01  0.10540344084E+02  0.51100000000E-03 0. -1.
        -11    1    3    3    0    0  0.28290473523E+02 -0.70208838062E+01  0.41362718464E+01  0.29440659752E+02  0.51100000000E-03 0.  1.
         12    1    3    3    0    0  0.62698602163E+01 -0.14061721213E+01  0.44327463802E+01  0.78062607974E+01  0.00000000000E+00 0. -1.
</event>
<event>
 7    1  0.5038211E-009  0.4778727E+02  0.7816164E-02  0.1312668E+00
        -11   -1    0    0    0    0  0.00000000000E+00  0.00000000000E+00  0.45593999997E+02  0.45594000000E+02  0.51100000000E-03 0.  1.
         11   -1    0    0    0    0 -0.00000000000E+00 -0.00000000000E+00 -0.45593999997E+02  0.45594000000E+02  0.51100000000E-03 0. -1.
    9900012    2    1    2    0    0 -0.78448272311E+01 -0.10704934932E+02  0.41321743481E+02  0.47787269240E+02  0.19999991773E+02 0.  0.
         12    1    1    2    0    0  0.78448272311E+01  0.10704934932E+02 -0.41321743481E+02  0.43400730760E+02  0.00000000000E+00 0. -1.
         11    1    3    3    0    0 -0.94443278505E+01 -0.59359655949E+00  0.18111790812E+02  0.20434888111E+02  0.51100000000E-03 0. -1.
        -11    1    3    3    0    0  0.32783462988E+01 -0.69365288353E+01  0.22390800816E+02  0.23668775807E+02  0.51100000000E-03 0.  1.
        -12    1    3    3    0    0 -0.16788456794E+01 -0.31748095373E+01  0.81915185276E+00  0.36836053224E+01  0.00000000000E+00 0.  1.
</event>
<event>
 7    1  0.5038211E-009  0.4778727E+02  0.7816164E-02  0.1312668E+00
        -11   -1    0    0    0    0  0.00000000000E+00  0.00000000000E+00  0.45593999997E+02  0.45594000000E+02  0.51100000000E-03 0.  1.
         11   -1    0    0    0    0 -0.00000000000E+00 -0.00000000000E+00 -0.45593999997E+02  0.45594000000E+02  0.51100000000E-03 0. -1.
    9900012    2    1    2    0    0 -0.15545000676E+02 -0.40404880178E+02 -0.30694680888E+01  0.47787273940E+02  0.20000013202E+02 0.  0.
         12    1    1    2    0    0  0.15545000676E+02  0.40404880178E+02  0.30694680888E+01  0.43400726060E+02  0.00000000000E+00 0. -1.
         11    1    3    3    0    0  0.41037912570E+01 -0.10089732042E+02  0.15649516362E+01  0.11004220519E+02  0.51100000000E-03 0. -1.
        -11    1    3    3    0    0 -0.11139329783E+02 -0.18246544193E+02 -0.25192764185E+00  0.21379534860E+02  0.51100000000E-03 0.  1.
         12    1    3    3    0    0 -0.85094621502E+01 -0.12068603942E+02 -0.43824920832E+01  0.15403518561E+02  0.00000000000E+00 0. -1.
</event>
<event>
 7    1  0.5038211E-009  0.4778727E+02  0.7816164E-02  0.1312668E+00
        -11   -1    0    0    0    0  0.00000000000E+00  0.00000000000E+00  0.45593999997E+02  0.45594000000E+02  0.51100000000E-03 0. -1.
         11   -1    0    0    0    0 -0.00000000000E+00 -0.00000000000E+00 -0.45593999997E+02  0.45594000000E+02  0.51100000000E-03 0.  1.
    9900012    2    1    2    0    0  0.37035031651E+02  0.20857494600E+01 -0.22531737775E+02  0.47787272732E+02  0.20000007696E+02 0.  0.
         12    1    1    2    0    0 -0.37035031651E+02 -0.20857494600E+01  0.22531737775E+02  0.43400727268E+02  0.00000000000E+00 0. -1.
         11    1    3    3    0    0  0.47645133704E+01  0.28278741942E+01 -0.54511830692E+01  0.77725708250E+01  0.51100000000E-03 0. -1.
        -11    1    3    3    0    0  0.28094072563E+02  0.22950189384E+01 -0.19536885318E+02  0.34296266755E+02  0.51100000000E-03 0.  1.
        -12    1    3    3    0    0  0.41764457175E+01 -0.30371436726E+01  0.24563306123E+01  0.57184351527E+01  0.00000000000E+00 0.  1.
</event>
<event>
 7    1  0.5038211E-009  0.4778727E+02  0.7816164E-02  0.1312668E+00
        -11   -1    0    0    0    0  0.00000000000E+00  0.00000000000E+00  0.45593999997E+02  0.45594000000E+02  0.51100000000E-03 0. -1.
         11   -1    0    0    0    0 -0.00000000000E+00 -0.00000000000E+00 -0.45593999997E+02  0.45594000000E+02  0.51100000000E-03 0.  1.
    9900012    2    1    2    0    0 -0.85287979703E+01 -0.38395492511E+02 -0.18348547115E+02  0.47787269347E+02  0.19999992260E+02 0.  0.
         12    1    1    2    0    0  0.85287979703E+01  0.38395492511E+02  0.18348547115E+02  0.43400730653E+02  0.00000000000E+00 0. -1.
         11    1    3    3    0    0 -0.15741132791E+01 -0.36954372980E+01  0.17935625432E+01  0.43989721864E+01  0.51100000000E-03 0. -1.
        -11    1    3    3    0    0 -0.68421692347E+01 -0.27724485041E+02 -0.22137426422E+02  0.36132090992E+02  0.51100000000E-03 0.  1.
        -12    1    3    3    0    0 -0.11251545647E+00 -0.69755701729E+01  0.19953167644E+01  0.72562061682E+01  0.00000000000E+00 0.  1.
</event>
<event>
 7    1  0.5038211E-009  0.4778725E+02  0.7816164E-02  0.1312668E+00
        -11   -1    0    0    0    0  0.00000000000E+00  0.00000000000E+00  0.45593999997E+02  0.45594000000E+02  0.51100000000E-03 0.  1.
         11   -1    0    0    0    0 -0.00000000000E+00 -0.00000000000E+00 -0.45593999997E+02  0.45594000000E+02  0.51100000000E-03 0. -1.
    9900012    2    1    2    0    0 -0.23394783256E+02  0.12131089563E+02  0.34483993488E+02  0.47787250877E+02  0.19999908047E+02 0.  0.
         12    1    1    2    0    0  0.23394783256E+02 -0.12131089563E+02 -0.34483993488E+02  0.43400749123E+02  0.00000000000E+00 0. -1.
         11    1    3    3    0    0 -0.25131092587E+01  0.23557999405E+01  0.13662326791E+01  0.37056852944E+01  0.51100000000E-03 0. -1.
        -11    1    3    3    0    0 -0.23580408901E+02  0.82376035881E+01  0.32370357272E+02  0.40886841734E+02  0.51100000000E-03 0.  1.
        -12    1    3    3    0    0  0.26987349037E+01  0.15376860342E+01  0.74740353703E+00  0.31947238484E+01  0.00000000000E+00 0.  1.
</event>
<event>
 7    1  0.5038211E-009  0.4778727E+02  0.7816164E-02  0.1312668E+00
        -11   -1    0    0    0    0  0.00000000000E+00  0.00000000000E+00  0.45593999997E+02  0.45594000000E+02  0.51100000000E-03 0.  1.
         11   -1    0    0    0    0 -0.00000000000E+00 -0.00000000000E+00 -0.45593999997E+02  0.45594000000E+02  0.51100000000E-03 0. -1.
    9900012    2    1    2    0    0  0.37752766709E+02 -0.20484908774E+02 -0.62225499951E+01  0.47787274083E+02  0.20000013855E+02 0.  0.
         12    1    1    2    0    0 -0.37752766709E+02  0.20484908774E+02  0.62225499951E+01  0.43400725917E+02  0.00000000000E+00 0. -1.
         11    1    3    3    0    0  0.14992469304E+02  0.70900274889E+00 -0.17577150070E+01  0.15111796156E+02  0.51100000000E-03 0. -1.
        -11    1    3    3    0    0  0.12949975565E+02 -0.17275879373E+02 -0.47534344522E+01  0.22107759149E+02  0.51100000000E-03 0.  1.
        -12    1    3    3    0    0  0.98103218400E+01 -0.39180321496E+01  0.28859946413E+00  0.10567718778E+02  0.00000000000E+00 0.  1.
</event>
<event>
 7    1  0.5038211E-009  0.4778727E+02  0.7816164E-02  0.1312668E+00
        -11   -1    0    0    0    0  0.00000000000E+00  0.00000000000E+00  0.45593999997E+02  0.45594000000E+02  0.51100000000E-03 0. -1.
         11   -1    0    0    0    0 -0.00000000000E+00 -0.00000000000E+00 -0.45593999997E+02  0.45594000000E+02  0.51100000000E-03 0.  1.
    9900012    2    1    2    0    0  0.39819779710E+02 -0.10497339462E+01  0.17230986531E+02  0.47787266201E+02  0.19999977916E+02 0.  0.
         12    1    1    2    0    0 -0.39819779710E+02  0.10497339462E+01 -0.17230986531E+02  0.43400733799E+02  0.00000000000E+00 0. -1.
         11    1    3    3    0    0  0.24584723418E+01 -0.80264717969E+00 -0.22298033595E+00  0.25957752680E+01  0.51100000000E-03 0. -1.
        -11    1    3    3    0    0  0.27753976898E+02 -0.52577764038E+01  0.50052946397E+01  0.28687635334E+02  0.51100000000E-03 0.  1.
        -12    1    3    3    0    0  0.96073304694E+01  0.50106896373E+01  0.12448672227E+02  0.16503855599E+02  0.00000000000E+00 0.  1.
</event>
<event>
 7    1  0.5038211E-009  0.4778727E+02  0.7816164E-02  0.1312668E+00
        -11   -1    0    0    0    0  0.00000000000E+00  0.00000000000E+00  0.45593999997E+02  0.45594000000E+02  0.51100000000E-03 0. -1.
         11   -1    0    0    0    0 -0.00000000000E+00 -0.00000000000E+00 -0.45593999997E+02  0.45594000000E+02  0.51100000000E-03 0.  1.
    9900012    2    1    2    0    0  0.34840284350E+02 -0.22779343128E+02 -0.12283295211E+02  0.47787271571E+02  0.20000002399E+02 0.  0.
         12    1    1    2    0    0 -0.34840284350E+02  0.22779343128E+02  0.12283295211E+02  0.43400728429E+02  0.00000000000E+00 0. -1.
         11    1    3    3    0    0  0.40507554182E+01 -0.19655530117E+01 -0.37538743312E+01  0.58620466439E+01  0.51100000000E-03 0. -1.
        -11    1    3    3    0    0  0.19052960621E+02 -0.16846057908E+02 -0.13238139408E+02  0.28671472070E+02  0.51100000000E-03 0.  1.
        -12    1    3    3    0    0  0.11736568311E+02 -0.39677322091E+01  0.47087185275E+01  0.13253752856E+02  0.00000000000E+00 0.  1.
</event>
<event>
 7    1  0.5038211E-009  0.4778727E+02  0.7816164E-02  0.1312668E+00
        -11   -1    0    0    0    0  0.00000000000E+00  0.00000000000E+00  0.45593999997E+02  0.45594000000E+02  0.51100000000E-03 0.  1.
         11   -1    0    0    0    0 -0.00000000000E+00 -0.00000000000E+00 -0.45593999997E+02  0.45594000000E+02  0.51100000000E-03 0. -1.
    9900012    2    1    2    0    0 -0.24842035149E+02 -0.35578321090E+02  0.82471504910E+00  0.47787265020E+02  0.19999972531E+02 0.  0.
         12    1    1    2    0    0  0.24842035149E+02  0.35578321090E+02 -0.82471504910E+00  0.43400734980E+02  0.00000000000E+00 0. -1.
         11    1    3    3    0    0 -0.62101766102E+01 -0.24140348034E+02  0.13181382214E+01  0.24961173557E+02  0.51100000000E-03 0. -1.
        -11    1    3    3    0    0 -0.18422220139E+02 -0.11890118702E+02  0.25422682335E+00  0.21927556844E+02  0.51100000000E-03 0.  1.
        -12    1    3    3    0    0 -0.20963839932E+00  0.45214564638E+00 -0.74764999568E+00  0.89853461817E+00  0.00000000000E+00 0.  1.
</event>
<event>
 7    1  0.5038211E-009  0.4778726E+02  0.7816164E-02  0.1312668E+00
        -11   -1    0    0    0    0  0.00000000000E+00  0.00000000000E+00  0.45593999997E+02  0.45594000000E+02  0.51100000000E-03 0.  1.
         11   -1    0    0    0    0 -0.00000000000E+00 -0.00000000000E+00 -0.45593999997E+02  0.45594000000E+02  0.51100000000E-03 0. -1.
    9900012    2    1    2    0    0  0.10255729627E+02 -0.22198980310E+02  0.35855951125E+02  0.47787263277E+02  0.19999964586E+02 0.  0.
         12    1    1    2    0    0 -0.10255729627E+02  0.22198980310E+02 -0.35855951125E+02  0.43400736723E+02  0.00000000000E+00 0. -1.
         11    1    3    3    0    0  0.73294644948E+00 -0.13888800580E+01  0.10512512943E+02  0.10629163981E+02  0.51100000000E-03 0. -1.
        -11    1    3    3    0    0  0.76007608924E+01 -0.16577668399E+01  0.90969332235E+01  0.11969709745E+02  0.51100000000E-03 0.  1.
        -12    1    3    3    0    0  0.19220222854E+01 -0.19152333412E+02  0.16246504959E+02  0.25188389551E+02  0.00000000000E+00 0.  1.
</event>
<event>
 7    1  0.5038211E-009  0.4778727E+02  0.7816164E-02  0.1312668E+00
        -11   -1    0    0    0    0  0.00000000000E+00  0.00000000000E+00  0.45593999997E+02  0.45594000000E+02  0.51100000000E-03 0.  1.
         11   -1    0    0    0    0 -0.00000000000E+00 -0.00000000000E+00 -0.45593999997E+02  0.45594000000E+02  0.51100000000E-03 0. -1.
    9900012    2    1    2    0    0  0.51347051777E+01  0.27834006031E+02  0.32901766617E+02  0.47787270335E+02  0.19999996764E+02 0.  0.
         12    1    1    2    0    0 -0.51347051777E+01 -0.27834006031E+02 -0.32901766617E+02  0.43400729665E+02  0.00000000000E+00 0. -1.
         11    1    3    3    0    0 -0.26790492508E+01 -0.99246075776E+00  0.27057013923E+01  0.39348574979E+01  0.51100000000E-03 0. -1.
        -11    1    3    3    0    0  0.31528542476E+01  0.20304858939E+02  0.26328228060E+02  0.33397655299E+02  0.51100000000E-03 0.  1.
        -12    1    3    3    0    0  0.46609001809E+01  0.85216078499E+01  0.38678371646E+01  0.10454757538E+02  0.00000000000E+00 0.  1.
</event>
<event>
 7    1  0.5038211E-009  0.4778727E+02  0.7816164E-02  0.1312668E+00
        -11   -1    0    0    0    0  0.00000000000E+00  0.00000000000E+00  0.45593999997E+02  0.45594000000E+02  0.51100000000E-03 0. -1.
         11   -1    0    0    0    0 -0.00000000000E+00 -0.00000000000E+00 -0.45593999997E+02  0.45594000000E+02  0.51100000000E-03 0.  1.
    9900012    2    1    2    0    0 -0.29004458136E+02 -0.12553352297E+02 -0.29745215498E+02  0.47787273155E+02  0.20000009624E+02 0.  0.
         12    1    1    2    0    0  0.29004458136E+02  0.12553352297E+02  0.29745215498E+02  0.43400726845E+02  0.00000000000E+00 0. -1.
         11    1    3    3    0    0 -0.52854147374E+01  0.34381596793E+01 -0.39871373354E+01  0.74601484784E+01  0.51100000000E-03 0. -1.
        -11    1    3    3    0    0 -0.16429989627E+02 -0.16715460465E+02 -0.17259044202E+02  0.29107143191E+02  0.51100000000E-03 0.  1.
        -12    1    3    3    0    0 -0.72890537718E+01  0.72394848874E+00 -0.84990339598E+01  0.11219981486E+02  0.00000000000E+00 0.  1.
</event>
<event>
 7    1  0.5038211E-009  0.4778728E+02  0.7816164E-02  0.1312668E+00
        -11   -1    0    0    0    0  0.00000000000E+00  0.00000000000E+00  0.45593999997E+02  0.45594000000E+02  0.51100000000E-03 0.  1.
         11   -1    0    0    0    0 -0.00000000000E+00 -0.00000000000E+00 -0.45593999997E+02  0.45594000000E+02  0.51100000000E-03 0. -1.
    9900012    2    1    2    0    0  0.13018394838E+02 -0.41277532259E+02 -0.32108518829E+01  0.47787276004E+02  0.20000022614E+02 0.  0.
         12    1    1    2    0    0 -0.13018394838E+02  0.41277532259E+02  0.32108518829E+01  0.43400723996E+02  0.00000000000E+00 0. -1.
         11    1    3    3    0    0  0.46070466034E+01 -0.30723673643E+02 -0.12091117672E+01  0.31090689153E+02  0.51100000000E-03 0. -1.
        -11    1    3    3    0    0  0.27526497666E+01  0.81020868518E+00  0.18692151283E+01  0.34245414742E+01  0.51100000000E-03 0.  1.
        -12    1    3    3    0    0  0.56586984683E+01 -0.11364067301E+02 -0.38709552440E+01  0.13272045377E+02  0.00000000000E+00 0.  1.
</event>
<event>
 7    1  0.5038211E-009  0.4778726E+02  0.7816164E-02  0.1312668E+00
        -11   -1    0    0    0    0  0.00000000000E+00  0.00000000000E+00  0.45593999997E+02  0.45594000000E+02  0.51100000000E-03 0.  1.
         11   -1    0    0    0    0 -0.00000000000E+00 -0.00000000000E+00 -0.45593999997E+02  0.45594000000E+02  0.51100000000E-03 0. -1.
    9900012    2    1    2    0    0 -0.55807511283E+01 -0.17395599805E+02  0.39368421200E+02  0.47787259644E+02  0.19999948019E+02 0.  0.
         12    1    1    2    0    0  0.55807511283E+01  0.17395599805E+02 -0.39368421200E+02  0.43400740356E+02  0.00000000000E+00 0. -1.
         11    1    3    3    0    0 -0.11541966641E+02 -0.14654478498E+02  0.21010123929E+02  0.28096192656E+02  0.51100000000E-03 0.  1.
        -11    1    3    3    0    0  0.45589669479E+01 -0.31355803870E+01  0.12793680216E+02  0.13938948947E+02  0.51100000000E-03 0. -1.
        -12    1    3    3    0    0  0.14022485643E+01  0.39445907999E+00  0.55646170538E+01  0.57521180410E+01  0.00000000000E+00 0.  1.
</event>
<event>
 7    1  0.5038211E-009  0.4778728E+02  0.7816164E-02  0.1312668E+00
        -11   -1    0    0    0    0  0.00000000000E+00  0.00000000000E+00  0.45593999997E+02  0.45594000000E+02  0.51100000000E-03 0. -1.
         11   -1    0    0    0    0 -0.00000000000E+00 -0.00000000000E+00 -0.45593999997E+02  0.45594000000E+02  0.51100000000E-03 0.  1.
    9900012    2    1    2    0    0 -0.37306787349E+02 -0.17146328247E+02  0.14065202526E+02  0.47787275620E+02  0.20000020861E+02 0.  0.
         12    1    1    2    0    0  0.37306787349E+02  0.17146328247E+02 -0.14065202526E+02  0.43400724380E+02  0.00000000000E+00 0. -1.
         11    1    3    3    0    0 -0.11763446195E+02 -0.15665894852E+01  0.97031940913E+01  0.15329215402E+02  0.51100000000E-03 0. -1.
        -11    1    3    3    0    0 -0.19246298778E+02 -0.12123183344E+02 -0.20378096537E+01  0.22837343529E+02  0.51100000000E-03 0.  1.
        -12    1    3    3    0    0 -0.62970423758E+01 -0.34565554175E+01  0.63998180885E+01  0.96207166886E+01  0.00000000000E+00 0.  1.
</event>
<event>
 7    1  0.5038211E-009  0.4778727E+02  0.7816164E-02  0.1312668E+00
        -11   -1    0    0    0    0  0.00000000000E+00  0.00000000000E+00  0.45593999997E+02  0.45594000000E+02  0.51100000000E-03 0.  1.
         11   -1    0    0    0    0 -0.00000000000E+00 -0.00000000000E+00 -0.45593999997E+02  0.45594000000E+02  0.51100000000E-03 0. -1.
    9900012    2    1    2    0    0 -0.81970070126E+00 -0.25049949028E+02  0.35432349460E+02  0.47787271391E+02  0.20000001582E+02 0.  0.
         12    1    1    2    0    0  0.81970070126E+00  0.25049949028E+02 -0.35432349460E+02  0.43400728609E+02  0.00000000000E+00 0. -1.
         11    1    3    3    0    0 -0.35066390352E+01 -0.17538790334E+02  0.20990271573E+02  0.27577113421E+02  0.51100000000E-03 0. -1.
        -11    1    3    3    0    0  0.66200783174E+01 -0.70022722029E+01  0.12531287505E+02  0.15807922688E+02  0.51100000000E-03 0.  1.
         12    1    3    3    0    0 -0.39331399834E+01 -0.50888649095E+00  0.19107903818E+01  0.44022352815E+01  0.00000000000E+00 0. -1.
</event>
<event>
 7    1  0.5038211E-009  0.4778726E+02  0.7816164E-02  0.1312668E+00
        -11   -1    0    0    0    0  0.00000000000E+00  0.00000000000E+00  0.45593999997E+02  0.45594000000E+02  0.51100000000E-03 0.  1.
         11   -1    0    0    0    0 -0.00000000000E+00 -0.00000000000E+00 -0.45593999997E+02  0.45594000000E+02  0.51100000000E-03 0. -1.
    9900012    2    1    2    0    0  0.30217389069E+02  0.23687111559E+02  0.20234975718E+02  0.47787261545E+02  0.19999956690E+02 0.  0.
         12    1    1    2    0    0 -0.30217389069E+02 -0.23687111559E+02 -0.20234975718E+02  0.43400738455E+02  0.00000000000E+00 0. -1.
         11    1    3    3    0    0  0.35777514089E+01  0.69908125319E+01 -0.22422558777E+01  0.81669747570E+01  0.51100000000E-03 0. -1.
        -11    1    3    3    0    0  0.12841709469E+02  0.11150727047E+02  0.16169957760E+02  0.23467333679E+02  0.51100000000E-03 0.  1.
         12    1    3    3    0    0  0.13797928190E+02  0.55455719797E+01  0.63072738351E+01  0.16152953109E+02  0.00000000000E+00 0. -1.
</event>
<event>
 7    1  0.5038211E-009  0.4778727E+02  0.7816164E-02  0.1312668E+00
        -11   -1    0    0    0    0  0.00000000000E+00  0.00000000000E+00  0.45593999997E+02  0.45594000000E+02  0.51100000000E-03 0. -1.
         11   -1    0    0    0    0 -0.00000000000E+00 -0.00000000000E+00 -0.45593999997E+02  0.45594000000E+02  0.51100000000E-03 0.  1.
    9900012    2    1    2    0    0 -0.11563152053E+02 -0.40186005137E+01 -0.41638535773E+02  0.47787270781E+02  0.19999998798E+02 0.  0.
         12    1    1    2    0    0  0.11563152053E+02  0.40186005137E+01  0.41638535773E+02  0.43400729219E+02  0.00000000000E+00 0. -1.
         11    1    3    3    0    0 -0.51880579592E+01  0.66321342046E+01 -0.14969584440E+02  0.17175261514E+02  0.51100000000E-03 0. -1.
        -11    1    3    3    0    0 -0.54822222630E+00 -0.83323298046E+01 -0.18634095495E+02  0.20419544137E+02  0.51100000000E-03 0.  1.
        -12    1    3    3    0    0 -0.58268718671E+01 -0.23184049137E+01 -0.80348558376E+01  0.10192465130E+02  0.00000000000E+00 0.  1.
</event>
<event>
 7    1  0.5038211E-009  0.4778727E+02  0.7816164E-02  0.1312668E+00
        -11   -1    0    0    0    0  0.00000000000E+00  0.00000000000E+00  0.45593999997E+02  0.45594000000E+02  0.51100000000E-03 0. -1.
         11   -1    0    0    0    0 -0.00000000000E+00 -0.00000000000E+00 -0.45593999997E+02  0.45594000000E+02  0.51100000000E-03 0.  1.
    9900012    2    1    2    0    0 -0.14127025565E+02  0.12377468591E+02 -0.39126059012E+02  0.47787273349E+02  0.20000010505E+02 0.  0.
         12    1    1    2    0    0  0.14127025565E+02 -0.12377468591E+02  0.39126059012E+02  0.43400726651E+02  0.00000000000E+00 0. -1.
         11    1    3    3    0    0 -0.57644728918E+01  0.14707824879E+02 -0.18378157685E+02  0.24234395816E+02  0.51100000000E-03 0. -1.
        -11    1    3    3    0    0 -0.50492986167E+01 -0.15915346300E+01 -0.19021411427E+02  0.19744429390E+02  0.51100000000E-03 0.  1.
         12    1    3    3    0    0 -0.33132540565E+01 -0.73882165758E+00 -0.17264899005E+01  0.38084481434E+01  0.00000000000E+00 0. -1.
</event>
<event>
 7    1  0.5038211E-009  0.4778727E+02  0.7816164E-02  0.1312668E+00
        -11   -1    0    0    0    0  0.00000000000E+00  0.00000000000E+00  0.45593999997E+02  0.45594000000E+02  0.51100000000E-03 0.  1.
         11   -1    0    0    0    0 -0.00000000000E+00 -0.00000000000E+00 -0.45593999997E+02  0.45594000000E+02  0.51100000000E-03 0. -1.
    9900012    2    1    2    0    0 -0.98035387447E+01  0.27380010053E+02  0.32215670388E+02  0.47787265663E+02  0.19999975465E+02 0.  0.
         12    1    1    2    0    0  0.98035387447E+01 -0.27380010053E+02 -0.32215670388E+02  0.43400734337E+02  0.00000000000E+00 0. -1.
         11    1    3    3    0    0  0.30295754438E+01  0.11422804312E+01 -0.11260694064E+01  0.34279971590E+01  0.51100000000E-03 0. -1.
        -11    1    3    3    0    0 -0.11236979319E+02  0.23720869495E+02  0.29299652069E+02  0.39337246541E+02  0.51100000000E-03 0.  1.
         12    1    3    3    0    0 -0.15961348694E+01  0.25168601266E+01  0.40420877254E+01  0.50220219631E+01  0.00000000000E+00 0. -1.
</event>
<event>
 7    1  0.5038211E-009  0.4778726E+02  0.7816164E-02  0.1312668E+00
        -11   -1    0    0    0    0  0.00000000000E+00  0.00000000000E+00  0.45593999997E+02  0.45594000000E+02  0.51100000000E-03 0. -1.
         11   -1    0    0    0    0 -0.00000000000E+00 -0.00000000000E+00 -0.45593999997E+02  0.45594000000E+02  0.51100000000E-03 0.  1.
    9900012    2    1    2    0    0  0.23829207593E+02  0.35636111413E+02 -0.67720182617E+01  0.47787264954E+02  0.19999972233E+02 0.  0.
         12    1    1    2    0    0 -0.23829207593E+02 -0.35636111413E+02  0.67720182617E+01  0.43400735046E+02  0.00000000000E+00 0. -1.
         11    1    3    3    0    0  0.98795108634E+01  0.17255275808E+02  0.11012788465E+01  0.19913866864E+02  0.51100000000E-03 0. -1.
        -11    1    3    3    0    0  0.32828482952E+01  0.64379975926E+01 -0.93219863324E+01  0.11795097938E+02  0.51100000000E-03 0.  1.
        -12    1    3    3    0    0  0.10666848435E+02  0.11942838012E+02  0.14486892243E+01  0.16078300152E+02  0.00000000000E+00 0.  1.
</event>
<event>
 7    1  0.5038211E-009  0.4778727E+02  0.7816164E-02  0.1312668E+00
        -11   -1    0    0    0    0  0.00000000000E+00  0.00000000000E+00  0.45593999997E+02  0.45594000000E+02  0.51100000000E-03 0. -1.
         11   -1    0    0    0    0 -0.00000000000E+00 -0.00000000000E+00 -0.45593999997E+02  0.45594000000E+02  0.51100000000E-03 0.  1.
    9900012    2    1    2    0    0  0.39345343522E+01  0.15046961052E+02 -0.40518288259E+02  0.47787270964E+02  0.19999999632E+02 0.  0.
         12    1    1    2    0    0 -0.39345343522E+01 -0.15046961052E+02  0.40518288259E+02  0.43400729036E+02  0.00000000000E+00 0. -1.
         11    1    3    3    0    0 -0.21405882119E+01  0.47668657988E+01 -0.82241489455E+00  0.52897536764E+01  0.51100000000E-03 0. -1.
        -11    1    3    3    0    0  0.81720012350E+01  0.78507906170E+01 -0.35161075120E+02  0.36942086045E+02  0.51100000000E-03 0.  1.
        -12    1    3    3    0    0 -0.20968786710E+01  0.24293046360E+01 -0.45347982440E+01  0.55554312424E+01  0.00000000000E+00 0.  1.
</event>
<event>
 7    1  0.5038211E-009  0.4778728E+02  0.7816164E-02  0.1312668E+00
        -11   -1    0    0    0    0  0.00000000000E+00  0.00000000000E+00  0.45593999997E+02  0.45594000000E+02  0.51100000000E-03 0. -1.
         11   -1    0    0    0    0 -0.00000000000E+00 -0.00000000000E+00 -0.45593999997E+02  0.45594000000E+02  0.51100000000E-03 0.  1.
    9900012    2    1    2    0    0  0.16387405073E+02  0.39963864527E+02  0.42384664765E+01  0.47787284441E+02  0.20000061082E+02 0.  0.
         12    1    1    2    0    0 -0.16387405073E+02 -0.39963864527E+02 -0.42384664765E+01  0.43400715559E+02  0.00000000000E+00 0. -1.
         11    1    3    3    0    0  0.99875464900E+00  0.84665349977E+00 -0.38222228638E+01  0.40402624765E+01  0.51100000000E-03 0. -1.
        -11    1    3    3    0    0  0.75352136445E+01  0.10494969374E+02 -0.26039662759E+00  0.12922524270E+02  0.51100000000E-03 0.  1.
         12    1    3    3    0    0  0.78534367797E+01  0.28622241652E+02  0.83210859679E+01  0.30824497695E+02  0.00000000000E+00 0. -1.
</event>
<event>
 7    1  0.5038211E-009  0.4778727E+02  0.7816164E-02  0.1312668E+00
        -11   -1    0    0    0    0  0.00000000000E+00  0.00000000000E+00  0.45593999997E+02  0.45594000000E+02  0.51100000000E-03 0. -1.
         11   -1    0    0    0    0 -0.00000000000E+00 -0.00000000000E+00 -0.45593999997E+02  0.45594000000E+02  0.51100000000E-03 0.  1.
    9900012    2    1    2    0    0  0.19546993650E+02 -0.31082616593E+02 -0.23138914155E+02  0.47787270014E+02  0.19999995303E+02 0.  0.
         12    1    1    2    0    0 -0.19546993650E+02  0.31082616593E+02  0.23138914155E+02  0.43400729986E+02  0.00000000000E+00 0. -1.
         11    1    3    3    0    0 -0.15501505382E+01 -0.13800230902E+02 -0.69678507653E+01  0.15537061633E+02  0.51100000000E-03 0. -1.
        -11    1    3    3    0    0  0.20354541635E+02 -0.14423792133E+02 -0.14327087277E+02  0.28768360655E+02  0.51100000000E-03 0.  1.
        -12    1    3    3    0    0  0.74260255285E+00 -0.28585935582E+01 -0.18439761130E+01  0.34818477261E+01  0.00000000000E+00 0.  1.
</event>
<event>
 7    1  0.5038211E-009  0.4778726E+02  0.7816164E-02  0.1312668E+00
        -11   -1    0    0    0    0  0.00000000000E+00  0.00000000000E+00  0.45593999997E+02  0.45594000000E+02  0.51100000000E-03 0.  1.
         11   -1    0    0    0    0 -0.00000000000E+00 -0.00000000000E+00 -0.45593999997E+02  0.45594000000E+02  0.51100000000E-03 0. -1.
    9900012    2    1    2    0    0  0.13849945550E+02 -0.36392196610E+02  0.19167966036E+02  0.47787263972E+02  0.19999967753E+02 0.  0.
         12    1    1    2    0    0 -0.13849945550E+02  0.36392196610E+02 -0.19167966036E+02  0.43400736028E+02  0.00000000000E+00 0. -1.
         11    1    3    3    0    0  0.11958342856E+01 -0.19674117319E+02  0.35062215898E+01  0.20019852697E+02  0.51100000000E-03 0. -1.
        -11    1    3    3    0    0 -0.14004672729E+01 -0.28926440358E+01  0.22490558252E+01  0.39226203572E+01  0.51100000000E-03 0.  1.
         12    1    3    3    0    0  0.14054578537E+02 -0.13825435255E+02  0.13412688621E+02  0.23844790918E+02  0.00000000000E+00 0. -1.
</event>
<event>
 7    1  0.5038211E-009  0.4778727E+02  0.7816164E-02  0.1312668E+00
        -11   -1    0    0    0    0  0.00000000000E+00  0.00000000000E+00  0.45593999997E+02  0.45594000000E+02  0.51100000000E-03 0. -1.
         11   -1    0    0    0    0 -0.00000000000E+00 -0.00000000000E+00 -0.45593999997E+02  0.45594000000E+02  0.51100000000E-03 0.  1.
    9900012    2    1    2    0    0  0.25819397117E+01 -0.21863160178E+02 -0.37402665128E+02  0.47787267929E+02  0.19999985793E+02 0.  0.
         12    1    1    2    0    0 -0.25819397117E+01  0.21863160178E+02  0.37402665128E+02  0.43400732071E+02  0.00000000000E+00 0. -1.
         11    1    3    3    0    0 -0.16166477023E+00 -0.20871390518E+02 -0.16905679285E+02  0.26859692292E+02  0.51100000000E-03 0. -1.
        -11    1    3    3    0    0  0.46739169769E+00 -0.16529743727E+01 -0.11311603232E+02  0.11441291326E+02  0.51100000000E-03 0.  1.
         12    1    3    3    0    0  0.22762127843E+01  0.66120471242E+00 -0.91853826110E+01  0.94862843106E+01  0.00000000000E+00 0. -1.
</event>
<event>
 7    1  0.5038211E-009  0.4778727E+02  0.7816164E-02  0.1312668E+00
        -11   -1    0    0    0    0  0.00000000000E+00  0.00000000000E+00  0.45593999997E+02  0.45594000000E+02  0.51100000000E-03 0. -1.
         11   -1    0    0    0    0 -0.00000000000E+00 -0.00000000000E+00 -0.45593999997E+02  0.45594000000E+02  0.51100000000E-03 0.  1.
    9900012    2    1    2    0    0  0.13297166898E+02  0.41300759911E+02 -0.10274229786E+01  0.47787274030E+02  0.20000013613E+02 0.  0.
         12    1    1    2    0    0 -0.13297166898E+02 -0.41300759911E+02  0.10274229786E+01  0.43400725970E+02  0.00000000000E+00 0. -1.
         11    1    3    3    0    0 -0.45516649060E+01  0.45603196809E+01  0.12850914212E+00  0.64444304535E+01  0.51100000000E-03 0. -1.
        -11    1    3    3    0    0  0.16368535610E+02  0.27823471182E+02 -0.12060275945E+01  0.32303699625E+02  0.51100000000E-03 0.  1.
        -12    1    3    3    0    0  0.14802961946E+01  0.89169690479E+01  0.50095473721E-01  0.90391439518E+01  0.00000000000E+00 0.  1.
</event>
<event>
 7    1  0.5038211E-009  0.4778727E+02  0.7816164E-02  0.1312668E+00
        -11   -1    0    0    0    0  0.00000000000E+00  0.00000000000E+00  0.45593999997E+02  0.45594000000E+02  0.51100000000E-03 0.  1.
         11   -1    0    0    0    0 -0.00000000000E+00 -0.00000000000E+00 -0.45593999997E+02  0.45594000000E+02  0.51100000000E-03 0. -1.
    9900012    2    1    2    0    0 -0.25120444304E+02  0.13300894722E+02  0.32797449377E+02  0.47787271802E+02  0.20000003455E+02 0.  0.
         12    1    1    2    0    0  0.25120444304E+02 -0.13300894722E+02 -0.32797449377E+02  0.43400728198E+02  0.00000000000E+00 0. -1.
         11    1    3    3    0    0 -0.18986925386E+02  0.23263902210E+01  0.25348705043E+02  0.31756452489E+02  0.51100000000E-03 0. -1.
        -11    1    3    3    0    0 -0.30720274837E+01  0.23732023580E+01  0.54391758483E+01  0.66823705721E+01  0.51100000000E-03 0.  1.
         12    1    3    3    0    0 -0.30614914346E+01  0.86013021434E+01  0.20095684860E+01  0.93484487412E+01  0.00000000000E+00 0. -1.
</event>
<event>
 7    1  0.5038211E-009  0.4778727E+02  0.7816164E-02  0.1312668E+00
        -11   -1    0    0    0    0  0.00000000000E+00  0.00000000000E+00  0.45593999997E+02  0.45594000000E+02  0.51100000000E-03 0.  1.
         11   -1    0    0    0    0 -0.00000000000E+00 -0.00000000000E+00 -0.45593999997E+02  0.45594000000E+02  0.51100000000E-03 0. -1.
    9900012    2    1    2    0    0  0.11473174321E+02  0.14852168202E+02  0.39133136641E+02  0.47787274053E+02  0.20000013719E+02 0.  0.
         12    1    1    2    0    0 -0.11473174321E+02 -0.14852168202E+02 -0.39133136641E+02  0.43400725947E+02  0.00000000000E+00 0. -1.
         11    1    3    3    0    0  0.10963632615E+02 -0.58906596209E+00  0.18701910604E+02  0.21686624895E+02  0.51100000000E-03 0. -1.
        -11    1    3    3    0    0  0.83530926970E+00  0.11554620087E+02  0.18293017342E+02  0.21652747416E+02  0.51100000000E-03 0.  1.
         12    1    3    3    0    0 -0.32576756371E+00  0.38866140766E+01  0.21382086956E+01  0.44479017426E+01  0.00000000000E+00 0. -1.
</event>
<event>
 7    1  0.5038211E-009  0.4778727E+02  0.7816164E-02  0.1312668E+00
        -11   -1    0    0    0    0  0.00000000000E+00  0.00000000000E+00  0.45593999997E+02  0.45594000000E+02  0.51100000000E-03 0.  1.
         11   -1    0    0    0    0 -0.00000000000E+00 -0.00000000000E+00 -0.45593999997E+02  0.45594000000E+02  0.51100000000E-03 0. -1.
    9900012    2    1    2    0    0  0.31796219385E+02 -0.65217188463E+01  0.28811295919E+02  0.47787272398E+02  0.20000006170E+02 0.  0.
         12    1    1    2    0    0 -0.31796219385E+02  0.65217188463E+01 -0.28811295919E+02  0.43400727602E+02  0.00000000000E+00 0. -1.
         11    1    3    3    0    0  0.21200191545E+02 -0.72873014394E+01  0.25835584313E+02  0.34205705677E+02  0.51100000000E-03 0. -1.
        -11    1    3    3    0    0  0.41145043706E+01  0.41716629297E+01  0.63053200008E+00  0.58931730570E+01  0.51100000000E-03 0.  1.
         12    1    3    3    0    0  0.64815234692E+01 -0.34060803366E+01  0.23451796056E+01  0.76883936634E+01  0.00000000000E+00 0. -1.
</event>
<event>
 7    1  0.5038211E-009  0.4778732E+02  0.7816164E-02  0.1312668E+00
        -11   -1    0    0    0    0  0.00000000000E+00  0.00000000000E+00  0.45593999997E+02  0.45594000000E+02  0.51100000000E-03 0. -1.
         11   -1    0    0    0    0 -0.00000000000E+00 -0.00000000000E+00 -0.45593999997E+02  0.45594000000E+02  0.51100000000E-03 0.  1.
    9900012    2    1    2    0    0  0.30703306045E+01 -0.36220003600E+02 -0.23712935404E+02  0.47787321476E+02  0.20000229938E+02 0.  0.
         12    1    1    2    0    0 -0.30703306045E+01  0.36220003600E+02  0.23712935404E+02  0.43400678524E+02  0.00000000000E+00 0. -1.
         11    1    3    3    0    0 -0.47449490122E+01 -0.81679360160E+01 -0.21452753757E+01  0.96866881125E+01  0.51100000000E-03 0. -1.
        -11    1    3    3    0    0  0.91537476750E+01 -0.13458401355E+02 -0.14635963115E+02  0.21889063024E+02  0.51100000000E-03 0.  1.
        -12    1    3    3    0    0 -0.13384680583E+01 -0.14593666230E+02 -0.69316969138E+01  0.16211570339E+02  0.00000000000E+00 0.  1.
</event>
<event>
 7    1  0.5038211E-009  0.4778727E+02  0.7816164E-02  0.1312668E+00
        -11   -1    0    0    0    0  0.00000000000E+00  0.00000000000E+00  0.45593999997E+02  0.45594000000E+02  0.51100000000E-03 0.  1.
         11   -1    0    0    0    0 -0.00000000000E+00 -0.00000000000E+00 -0.45593999997E+02  0.45594000000E+02  0.51100000000E-03 0. -1.
    9900012    2    1    2    0    0  0.39267935976E+02  0.33829213735E+01  0.18171648106E+02  0.47787265586E+02  0.19999975111E+02 0.  0.
         12    1    1    2    0    0 -0.39267935976E+02 -0.33829213735E+01 -0.18171648106E+02  0.43400734414E+02  0.00000000000E+00 0. -1.
         11    1    3    3    0    0  0.25358293941E+02  0.16383912969E+01  0.71172979048E+01  0.26389075910E+02  0.51100000000E-03 0. -1.
        -11    1    3    3    0    0  0.14648984138E+02  0.33145289861E-01  0.56833884311E+01  0.15712884497E+02  0.51100000000E-03 0.  1.
         12    1    3    3    0    0 -0.73934210402E+00  0.17113847868E+01  0.53709617701E+01  0.56853051784E+01  0.00000000000E+00 0. -1.
</event>
<event>
 7    1  0.5038211E-009  0.4778727E+02  0.7816164E-02  0.1312668E+00
        -11   -1    0    0    0    0  0.00000000000E+00  0.00000000000E+00  0.45593999997E+02  0.45594000000E+02  0.51100000000E-03 0.  1.
         11   -1    0    0    0    0 -0.00000000000E+00 -0.00000000000E+00 -0.45593999997E+02  0.45594000000E+02  0.51100000000E-03 0. -1.
    9900012    2    1    2    0    0  0.56458970351E+01 -0.42005188865E+02  0.93440297138E+01  0.47787274935E+02  0.20000017738E+02 0.  0.
         12    1    1    2    0    0 -0.56458970351E+01  0.42005188865E+02 -0.93440297138E+01  0.43400725065E+02  0.00000000000E+00 0. -1.
         11    1    3    3    0    0  0.49534520180E+01 -0.13182791159E+02 -0.42574118589E+01  0.14712179500E+02  0.51100000000E-03 0. -1.
        -11    1    3    3    0    0 -0.12496312620E+01 -0.14458086625E+02  0.22958915647E+01  0.14692479895E+02  0.51100000000E-03 0.  1.
         12    1    3    3    0    0  0.19420762791E+01 -0.14364311081E+02  0.11305550008E+02  0.18382615540E+02  0.00000000000E+00 0. -1.
</event>
<event>
 7    1  0.5038211E-009  0.4778727E+02  0.7816164E-02  0.1312668E+00
        -11   -1    0    0    0    0  0.00000000000E+00  0.00000000000E+00  0.45593999997E+02  0.45594000000E+02  0.51100000000E-03 0.  1.
         11   -1    0    0    0    0 -0.00000000000E+00 -0.00000000000E+00 -0.45593999997E+02  0.45594000000E+02  0.51100000000E-03 0. -1.
    9900012    2    1    2    0    0  0.23317237548E+02 -0.36444804705E+02  0.34213764437E+01  0.47787272199E+02  0.20000005266E+02 0.  0.
         12    1    1    2    0    0 -0.23317237548E+02  0.36444804705E+02 -0.34213764437E+01  0.43400727801E+02  0.00000000000E+00 0. -1.
         11    1    3    3    0    0  0.32912514087E+01 -0.87612331495E+00 -0.33815145201E+00  0.34226122427E+01  0.51100000000E-03 0. -1.
        -11    1    3    3    0    0 -0.94458545847E+00  0.13206806988E+01 -0.54689266487E+00  0.17133391505E+01  0.51100000000E-03 0.  1.
        -12    1    3    3    0    0  0.20970571598E+02 -0.36889362089E+02  0.43064205606E+01  0.42651320806E+02  0.00000000000E+00 0.  1.
</event>
<event>
 7    1  0.5038211E-009  0.4778727E+02  0.7816164E-02  0.1312668E+00
        -11   -1    0    0    0    0  0.00000000000E+00  0.00000000000E+00  0.45593999997E+02  0.45594000000E+02  0.51100000000E-03 0.  1.
         11   -1    0    0    0    0 -0.00000000000E+00 -0.00000000000E+00 -0.45593999997E+02  0.45594000000E+02  0.51100000000E-03 0. -1.
    9900012    2    1    2    0    0  0.38628584676E+02 -0.14508224524E+02  0.13452408434E+02  0.47787269297E+02  0.19999992031E+02 0.  0.
         12    1    1    2    0    0 -0.38628584676E+02  0.14508224524E+02 -0.13452408434E+02  0.43400730703E+02  0.00000000000E+00 0. -1.
         11    1    3    3    0    0  0.19018570418E+02 -0.21739142930E+01  0.10718875351E+02  0.21939147959E+02  0.51100000000E-03 0. -1.
        -11    1    3    3    0    0  0.20198279532E+02 -0.10942638989E+02  0.28833753316E+00  0.22973789041E+02  0.51100000000E-03 0.  1.
        -12    1    3    3    0    0 -0.58826527432E+00 -0.13916712419E+01  0.24451955494E+01  0.28743322970E+01  0.00000000000E+00 0.  1.
</event>
<event>
 7    1  0.5038211E-009  0.4778727E+02  0.7816164E-02  0.1312668E+00
        -11   -1    0    0    0    0  0.00000000000E+00  0.00000000000E+00  0.45593999997E+02  0.45594000000E+02  0.51100000000E-03 0.  1.
         11   -1    0    0    0    0 -0.00000000000E+00 -0.00000000000E+00 -0.45593999997E+02  0.45594000000E+02  0.51100000000E-03 0. -1.
    9900012    2    1    2    0    0  0.14019520116E+01 -0.32077447842E+02  0.29200945664E+02  0.47787270085E+02  0.19999995627E+02 0.  0.
         12    1    1    2    0    0 -0.14019520116E+01  0.32077447842E+02 -0.29200945664E+02  0.43400729915E+02  0.00000000000E+00 0. -1.
         11    1    3    3    0    0  0.15961854043E+01 -0.24099327568E+01  0.29805673533E+01  0.41520315204E+01  0.51100000000E-03 0.  1.
        -11    1    3    3    0    0  0.63613037972E+01 -0.47574763819E+01  0.18083795846E+01  0.81467787811E+01  0.51100000000E-03 0. -1.
        -12    1    3    3    0    0 -0.65555371900E+01 -0.24910038703E+02  0.24411998726E+02  0.35488459784E+02  0.00000000000E+00 0.  1.
</event>
<event>
 7    1  0.5038211E-009  0.4778727E+02  0.7816164E-02  0.1312668E+00
        -11   -1    0    0    0    0  0.00000000000E+00  0.00000000000E+00  0.45593999997E+02  0.45594000000E+02  0.51100000000E-03 0.  1.
         11   -1    0    0    0    0 -0.00000000000E+00 -0.00000000000E+00 -0.45593999997E+02  0.45594000000E+02  0.51100000000E-03 0. -1.
    9900012    2    1    2    0    0 -0.21788879632E+02  0.28909717883E+02  0.23939426540E+02  0.47787271818E+02  0.20000003525E+02 0.  0.
         12    1    1    2    0    0  0.21788879632E+02 -0.28909717883E+02 -0.23939426540E+02  0.43400728182E+02  0.00000000000E+00 0. -1.
         11    1    3    3    0    0 -0.74218324043E+01  0.65529358368E+01  0.10257252797E+01  0.99537267860E+01  0.51100000000E-03 0. -1.
        -11    1    3    3    0    0 -0.55814048126E+01  0.16072191166E+02  0.20721472703E+02  0.26811319248E+02  0.51100000000E-03 0.  1.
        -12    1    3    3    0    0 -0.87856424155E+01  0.62845908799E+01  0.21922285574E+01  0.11022225784E+02  0.00000000000E+00 0.  1.
</event>
<event>
 7    1  0.5038211E-009  0.4778727E+02  0.7816164E-02  0.1312668E+00
        -11   -1    0    0    0    0  0.00000000000E+00  0.00000000000E+00  0.45593999997E+02  0.45594000000E+02  0.51100000000E-03 0.  1.
         11   -1    0    0    0    0 -0.00000000000E+00 -0.00000000000E+00 -0.45593999997E+02  0.45594000000E+02  0.51100000000E-03 0. -1.
    9900012    2    1    2    0    0 -0.20920027289E+01 -0.70210008355E+01  0.42777941325E+02  0.47787271986E+02  0.20000004291E+02 0.  0.
         12    1    1    2    0    0  0.20920027289E+01  0.70210008355E+01 -0.42777941325E+02  0.43400728014E+02  0.00000000000E+00 0. -1.
         11    1    3    3    0    0  0.45877916732E+00  0.60472638119E+00  0.19087325976E+00  0.78269098812E+00  0.51100000000E-03 0. -1.
        -11    1    3    3    0    0  0.44361402445E+00 -0.32806334319E+01 -0.71112659032E+00  0.33860080339E+01  0.51100000000E-03 0.  1.
        -12    1    3    3    0    0 -0.29943959207E+01 -0.43450937848E+01  0.43298194656E+02  0.43618572964E+02  0.00000000000E+00 0.  1.
</event>
<event>
 7    1  0.5038211E-009  0.4778729E+02  0.7816164E-02  0.1312668E+00
        -11   -1    0    0    0    0  0.00000000000E+00  0.00000000000E+00  0.45593999997E+02  0.45594000000E+02  0.51100000000E-03 0. -1.
         11   -1    0    0    0    0 -0.00000000000E+00 -0.00000000000E+00 -0.45593999997E+02  0.45594000000E+02  0.51100000000E-03 0.  1.
    9900012    2    1    2    0    0  0.23269943553E+02 -0.21694304534E+02 -0.29520991226E+02  0.47787285200E+02  0.20000064541E+02 0.  0.
         12    1    1    2    0    0 -0.23269943553E+02  0.21694304534E+02  0.29520991226E+02  0.43400714800E+02  0.00000000000E+00 0. -1.
         11    1    3    3    0    0  0.20138539064E+02 -0.18099421859E+02 -0.24216432198E+02  0.36326098276E+02  0.51100000000E-03 0. -1.
        -11    1    3    3    0    0 -0.16638905305E+01 -0.47390702723E+01 -0.38272773616E+01  0.63146948467E+01  0.51100000000E-03 0.  1.
         12    1    3    3    0    0  0.47952950198E+01  0.11441875975E+01 -0.14772816661E+01  0.51464920777E+01  0.00000000000E+00 0. -1.
</event>
<event>
 7    1  0.5038211E-009  0.4778727E+02  0.7816164E-02  0.1312668E+00
        -11   -1    0    0    0    0  0.00000000000E+00  0.00000000000E+00  0.45593999997E+02  0.45594000000E+02  0.51100000000E-03 0.  1.
         11   -1    0    0    0    0 -0.00000000000E+00 -0.00000000000E+00 -0.45593999997E+02  0.45594000000E+02  0.51100000000E-03 0. -1.
    9900012    2    1    2    0    0 -0.34029613118E+02  0.27162712459E+01  0.26799825805E+02  0.47787270033E+02  0.19999995390E+02 0.  0.
         12    1    1    2    0    0  0.34029613118E+02 -0.27162712459E+01 -0.26799825805E+02  0.43400729967E+02  0.00000000000E+00 0. -1.
         11    1    3    3    0    0 -0.43126617888E+01  0.20092437514E+01  0.85676397350E+01  0.98000287268E+01  0.51100000000E-03 0. -1.
        -11    1    3    3    0    0 -0.19423865796E+02  0.11798868816E+01  0.31374550683E+01  0.19710969536E+02  0.51100000000E-03 0.  1.
        -12    1    3    3    0    0 -0.10293085534E+02 -0.47285938718E+00  0.15094731001E+02  0.18276271770E+02  0.00000000000E+00 0.  1.
</event>
<event>
 7    1  0.5038211E-009  0.4778727E+02  0.7816164E-02  0.1312668E+00
        -11   -1    0    0    0    0  0.00000000000E+00  0.00000000000E+00  0.45593999997E+02  0.45594000000E+02  0.51100000000E-03 0. -1.
         11   -1    0    0    0    0 -0.00000000000E+00 -0.00000000000E+00 -0.45593999997E+02  0.45594000000E+02  0.51100000000E-03 0.  1.
    9900012    2    1    2    0    0  0.21023719189E+02  0.25496913968E+02 -0.28134212942E+02  0.47787270417E+02  0.19999997142E+02 0.  0.
         12    1    1    2    0    0 -0.21023719189E+02 -0.25496913968E+02  0.28134212942E+02  0.43400729583E+02  0.00000000000E+00 0. -1.
         11    1    3    3    0    0  0.73188432860E+01  0.13484360684E+02 -0.22726402661E+01  0.15509943396E+02  0.51100000000E-03 0. -1.
        -11    1    3    3    0    0  0.52345909554E+01  0.10106235199E+01 -0.86830987416E+01  0.10189136685E+02  0.51100000000E-03 0.  1.
         12    1    3    3    0    0  0.84702849476E+01  0.11001929764E+02 -0.17178473935E+02  0.22088190336E+02  0.00000000000E+00 0. -1.
</event>
<event>
 7    1  0.5038211E-009  0.4778727E+02  0.7816164E-02  0.1312668E+00
        -11   -1    0    0    0    0  0.00000000000E+00  0.00000000000E+00  0.45593999997E+02  0.45594000000E+02  0.51100000000E-03 0. -1.
         11   -1    0    0    0    0 -0.00000000000E+00 -0.00000000000E+00 -0.45593999997E+02  0.45594000000E+02  0.51100000000E-03 0.  1.
    9900012    2    1    2    0    0  0.32273121346E+02 -0.23201868344E+02 -0.17428200782E+02  0.47787271452E+02  0.20000001857E+02 0.  0.
         12    1    1    2    0    0 -0.32273121346E+02  0.23201868344E+02  0.17428200782E+02  0.43400728548E+02  0.00000000000E+00 0. -1.
         11    1    3    3    0    0  0.10336356624E+01  0.24748407417E+01  0.71155005154E+00  0.27748050592E+01  0.51100000000E-03 0. -1.
        -11    1    3    3    0    0  0.10597726265E+02 -0.13686838955E+02 -0.70451361168E+01  0.18688908629E+02  0.51100000000E-03 0.  1.
         12    1    3    3    0    0  0.20641759418E+02 -0.11989870130E+02 -0.11094614717E+02  0.26323557764E+02  0.00000000000E+00 0. -1.
</event>
<event>
 7    1  0.5038211E-009  0.4778727E+02  0.7816164E-02  0.1312668E+00
        -11   -1    0    0    0    0  0.00000000000E+00  0.00000000000E+00  0.45593999997E+02  0.45594000000E+02  0.51100000000E-03 0. -1.
         11   -1    0    0    0    0 -0.00000000000E+00 -0.00000000000E+00 -0.45593999997E+02  0.45594000000E+02  0.51100000000E-03 0.  1.
    9900012    2    1    2    0    0  0.14495309116E+02 -0.98339340527E+01 -0.39708980407E+02  0.47787269934E+02  0.19999994936E+02 0.  0.
         12    1    1    2    0    0 -0.14495309116E+02  0.98339340527E+01  0.39708980407E+02  0.43400730066E+02  0.00000000000E+00 0. -1.
         11    1    3    3    0    0 -0.15737451261E+01  0.52584503572E+00 -0.26381314880E+01  0.31165565505E+01  0.51100000000E-03 0. -1.
        -11    1    3    3    0    0  0.19241719843E+02 -0.93504236318E+01 -0.33814163494E+02  0.40013395978E+02  0.51100000000E-03 0.  1.
        -12    1    3    3    0    0 -0.31726656015E+01 -0.10093554566E+01 -0.32566854249E+01  0.46573174053E+01  0.00000000000E+00 0.  1.
</event>
<event>
 7    1  0.5038211E-009  0.4778727E+02  0.7816164E-02  0.1312668E+00
        -11   -1    0    0    0    0  0.00000000000E+00  0.00000000000E+00  0.45593999997E+02  0.45594000000E+02  0.51100000000E-03 0. -1.
         11   -1    0    0    0    0 -0.00000000000E+00 -0.00000000000E+00 -0.45593999997E+02  0.45594000000E+02  0.51100000000E-03 0.  1.
    9900012    2    1    2    0    0  0.12669928539E+02 -0.40462438311E+00 -0.41508222338E+02  0.47787270378E+02  0.19999996962E+02 0.  0.
         12    1    1    2    0    0 -0.12669928539E+02  0.40462438311E+00  0.41508222338E+02  0.43400729622E+02  0.00000000000E+00 0. -1.
         11    1    3    3    0    0  0.11309560328E+02 -0.31880979321E+01 -0.19710857177E+02  0.22947505619E+02  0.51100000000E-03 0. -1.
        -11    1    3    3    0    0 -0.35686718192E+01  0.36947111343E+01 -0.17496547929E+02  0.18235007502E+02  0.51100000000E-03 0.  1.
        -12    1    3    3    0    0  0.49290400305E+01 -0.91123758527E+00 -0.43008172317E+01  0.66047572567E+01  0.00000000000E+00 0.  1.
</event>
<event>
 7    1  0.5038211E-009  0.4778727E+02  0.7816164E-02  0.1312668E+00
        -11   -1    0    0    0    0  0.00000000000E+00  0.00000000000E+00  0.45593999997E+02  0.45594000000E+02  0.51100000000E-03 0. -1.
         11   -1    0    0    0    0 -0.00000000000E+00 -0.00000000000E+00 -0.45593999997E+02  0.45594000000E+02  0.51100000000E-03 0.  1.
    9900012    2    1    2    0    0 -0.14836438161E+02 -0.17794001975E+02 -0.36699827830E+02  0.47787265371E+02  0.19999974132E+02 0.  0.
         12    1    1    2    0    0  0.14836438161E+02  0.17794001975E+02  0.36699827830E+02  0.43400734629E+02  0.00000000000E+00 0. -1.
         11    1    3    3    0    0 -0.83266574866E+01 -0.25741600815E+01 -0.26017809502E+01  0.90955367845E+01  0.51100000000E-03 0. -1.
        -11    1    3    3    0    0 -0.64520785316E+01 -0.80392016411E+01 -0.25403191125E+02  0.27414963068E+02  0.51100000000E-03 0.  1.
         12    1    3    3    0    0 -0.57702143075E-01 -0.71806402522E+01 -0.86948557545E+01  0.11276765519E+02  0.00000000000E+00 0. -1.
</event>
<event>
 7    1  0.5038211E-009  0.4778727E+02  0.7816164E-02  0.1312668E+00
        -11   -1    0    0    0    0  0.00000000000E+00  0.00000000000E+00  0.45593999997E+02  0.45594000000E+02  0.51100000000E-03 0. -1.
         11   -1    0    0    0    0 -0.00000000000E+00 -0.00000000000E+00 -0.45593999997E+02  0.45594000000E+02  0.51100000000E-03 0.  1.
    9900012    2    1    2    0    0  0.39400413762E+02 -0.55178367643E+01 -0.17343133714E+02  0.47787269428E+02  0.19999992630E+02 0.  0.
         12    1    1    2    0    0 -0.39400413762E+02  0.55178367643E+01  0.17343133714E+02  0.43400730572E+02  0.00000000000E+00 0. -1.
         11    1    3    3    0    0  0.17420772941E+02 -0.91084072236E+01 -0.98653960600E+01  0.21994827839E+02  0.51100000000E-03 0. -1.
        -11    1    3    3    0    0  0.15002565220E+02  0.21802021622E+00  0.27794699792E-01  0.15004175046E+02  0.51100000000E-03 0.  1.
         12    1    3    3    0    0  0.69770756011E+01  0.33725502431E+01 -0.75055323540E+01  0.10788266543E+02  0.00000000000E+00 0. -1.
</event>
<event>
 7    1  0.5038211E-009  0.4778728E+02  0.7816164E-02  0.1312668E+00
        -11   -1    0    0    0    0  0.00000000000E+00  0.00000000000E+00  0.45593999997E+02  0.45594000000E+02  0.51100000000E-03 0.  1.
         11   -1    0    0    0    0 -0.00000000000E+00 -0.00000000000E+00 -0.45593999997E+02  0.45594000000E+02  0.51100000000E-03 0. -1.
    9900012    2    1    2    0    0 -0.27636958506E+02  0.11716498197E+02 -0.31345573025E+02  0.47787277036E+02  0.20000027320E+02 0.  0.
         12    1    1    2    0    0  0.27636958506E+02 -0.11716498197E+02  0.31345573025E+02  0.43400722964E+02  0.00000000000E+00 0. -1.
         11    1    3    3    0    0 -0.48893403083E+01  0.58268945373E+01  0.21107947752E+00  0.76093957320E+01  0.51100000000E-03 0. -1.
        -11    1    3    3    0    0 -0.16491821867E+02  0.62231437709E+01 -0.17744923277E+02  0.25011797401E+02  0.51100000000E-03 0.  1.
         12    1    3    3    0    0 -0.62557963309E+01 -0.33354011144E+00 -0.13811729226E+02  0.15166083903E+02  0.00000000000E+00 0. -1.
</event>
<event>
 7    1  0.5038211E-009  0.4778727E+02  0.7816164E-02  0.1312668E+00
        -11   -1    0    0    0    0  0.00000000000E+00  0.00000000000E+00  0.45593999997E+02  0.45594000000E+02  0.51100000000E-03 0. -1.
         11   -1    0    0    0    0 -0.00000000000E+00 -0.00000000000E+00 -0.45593999997E+02  0.45594000000E+02  0.51100000000E-03 0.  1.
    9900012    2    1    2    0    0  0.30407343204E+02  0.38053700583E+00 -0.30965658067E+02  0.47787270643E+02  0.19999998171E+02 0.  0.
         12    1    1    2    0    0 -0.30407343204E+02 -0.38053700583E+00  0.30965658067E+02  0.43400729357E+02  0.00000000000E+00 0. -1.
         11    1    3    3    0    0  0.10274768494E+02 -0.71902369279E+01 -0.12542120727E+02  0.17736267005E+02  0.51100000000E-03 0. -1.
        -11    1    3    3    0    0  0.98045564334E+01 -0.21530492305E-01 -0.35776054095E+01  0.10436908122E+02  0.51100000000E-03 0.  1.
         12    1    3    3    0    0  0.10328018277E+02  0.75923044261E+01 -0.14845931931E+02  0.19614095516E+02  0.00000000000E+00 0. -1.
</event>
<event>
 7    1  0.5038211E-009  0.4778728E+02  0.7816164E-02  0.1312668E+00
        -11   -1    0    0    0    0  0.00000000000E+00  0.00000000000E+00  0.45593999997E+02  0.45594000000E+02  0.51100000000E-03 0.  1.
         11   -1    0    0    0    0 -0.00000000000E+00 -0.00000000000E+00 -0.45593999997E+02  0.45594000000E+02  0.51100000000E-03 0. -1.
    9900012    2    1    2    0    0  0.29991648435E+01  0.78737390131E+01  0.42575010630E+02  0.47787282426E+02  0.20000051893E+02 0.  0.
         12    1    1    2    0    0 -0.29991648435E+01 -0.78737390131E+01 -0.42575010630E+02  0.43400717574E+02  0.00000000000E+00 0. -1.
         11    1    3    3    0    0 -0.73265865463E+01  0.38316828342E+01  0.88875713481E+01  0.12138763878E+02  0.51100000000E-03 0. -1.
        -11    1    3    3    0    0  0.43276378528E+01  0.20417982433E+01  0.20103380412E+02  0.20665025858E+02  0.51100000000E-03 0.  1.
         12    1    3    3    0    0  0.59981135370E+01  0.20002579357E+01  0.13584058870E+02  0.14983492690E+02  0.00000000000E+00 0. -1.
</event>
<event>
 7    1  0.5038211E-009  0.4778727E+02  0.7816164E-02  0.1312668E+00
        -11   -1    0    0    0    0  0.00000000000E+00  0.00000000000E+00  0.45593999997E+02  0.45594000000E+02  0.51100000000E-03 0. -1.
         11   -1    0    0    0    0 -0.00000000000E+00 -0.00000000000E+00 -0.45593999997E+02  0.45594000000E+02  0.51100000000E-03 0.  1.
    9900012    2    1    2    0    0 -0.17401888307E+02 -0.32263526302E+02 -0.23234939211E+02  0.47787271363E+02  0.20000001454E+02 0.  0.
         12    1    1    2    0    0  0.17401888307E+02  0.32263526302E+02  0.23234939211E+02  0.43400728637E+02  0.00000000000E+00 0. -1.
         11    1    3    3    0    0 -0.47708914715E+01  0.74877515814E+00 -0.55919005807E+00  0.48615597757E+01  0.51100000000E-03 0. -1.
        -11    1    3    3    0    0  0.29294439116E-01 -0.11394500048E+02 -0.69523810649E+01  0.13348074477E+02  0.51100000000E-03 0.  1.
         12    1    3    3    0    0 -0.12660291274E+02 -0.21617801412E+02 -0.15723368088E+02  0.29577637111E+02  0.00000000000E+00 0. -1.
</event>
<event>
 7    1  0.5038211E-009  0.4778727E+02  0.7816164E-02  0.1312668E+00
        -11   -1    0    0    0    0  0.00000000000E+00  0.00000000000E+00  0.45593999997E+02  0.45594000000E+02  0.51100000000E-03 0.  1.
         11   -1    0    0    0    0 -0.00000000000E+00 -0.00000000000E+00 -0.45593999997E+02  0.45594000000E+02  0.51100000000E-03 0. -1.
    9900012    2    1    2    0    0  0.19808216623E+02  0.33248492071E+02  0.19641679422E+02  0.47787271419E+02  0.20000001709E+02 0.  0.
         12    1    1    2    0    0 -0.19808216623E+02 -0.33248492071E+02 -0.19641679422E+02  0.43400728581E+02  0.00000000000E+00 0. -1.
         11    1    3    3    0    0  0.13661437117E+01  0.94599106491E+00  0.53899794091E+01  0.56403125825E+01  0.51100000000E-03 0. -1.
        -11    1    3    3    0    0  0.18788190013E+02  0.33360860258E+02  0.12914912030E+02  0.40407153255E+02  0.51100000000E-03 0.  1.
        -12    1    3    3    0    0 -0.34611710179E+00 -0.10583592515E+01  0.13367879829E+01  0.17398055824E+01  0.00000000000E+00 0.  1.
</event>
<event>
 7    1  0.5038211E-009  0.4778727E+02  0.7816164E-02  0.1312668E+00
        -11   -1    0    0    0    0  0.00000000000E+00  0.00000000000E+00  0.45593999997E+02  0.45594000000E+02  0.51100000000E-03 0.  1.
         11   -1    0    0    0    0 -0.00000000000E+00 -0.00000000000E+00 -0.45593999997E+02  0.45594000000E+02  0.51100000000E-03 0. -1.
    9900012    2    1    2    0    0  0.76325721637E+01 -0.29992630417E+02  0.30427110127E+02  0.47787273418E+02  0.20000010822E+02 0.  0.
         12    1    1    2    0    0 -0.76325721637E+01  0.29992630417E+02 -0.30427110127E+02  0.43400726582E+02  0.00000000000E+00 0. -1.
         11    1    3    3    0    0 -0.24731830113E+01 -0.83852387517E+00  0.24548447629E+01  0.35841344238E+01  0.51100000000E-03 0. -1.
        -11    1    3    3    0    0  0.70527399716E+01 -0.26057064029E+02  0.15802949790E+02  0.31280104688E+02  0.51100000000E-03 0.  1.
        -12    1    3    3    0    0  0.30530152033E+01 -0.30970425124E+01  0.12169315574E+02  0.12923034307E+02  0.00000000000E+00 0.  1.
</event>
<event>
 7    1  0.5038211E-009  0.4778727E+02  0.7816164E-02  0.1312668E+00
        -11   -1    0    0    0    0  0.00000000000E+00  0.00000000000E+00  0.45593999997E+02  0.45594000000E+02  0.51100000000E-03 0.  1.
         11   -1    0    0    0    0 -0.00000000000E+00 -0.00000000000E+00 -0.45593999997E+02  0.45594000000E+02  0.51100000000E-03 0. -1.
    9900012    2    1    2    0    0  0.98642256912E+01  0.40227614522E+02  0.12963769440E+02  0.47787271473E+02  0.20000001953E+02 0.  0.
         12    1    1    2    0    0 -0.98642256912E+01 -0.40227614522E+02 -0.12963769440E+02  0.43400728527E+02  0.00000000000E+00 0. -1.
         11    1    3    3    0    0  0.74000874682E+01  0.13448773642E+02  0.12619893990E+02  0.19871903069E+02  0.51100000000E-03 0. -1.
        -11    1    3    3    0    0 -0.15730336053E+00  0.13672471336E+02 -0.32912430812E+01  0.14063907639E+02  0.51100000000E-03 0.  1.
         12    1    3    3    0    0  0.26214415835E+01  0.13106369543E+02  0.36351185320E+01  0.13851460765E+02  0.00000000000E+00 0. -1.
</event>
<event>
 7    1  0.5038211E-009  0.4778727E+02  0.7816164E-02  0.1312668E+00
        -11   -1    0    0    0    0  0.00000000000E+00  0.00000000000E+00  0.45593999997E+02  0.45594000000E+02  0.51100000000E-03 0.  1.
         11   -1    0    0    0    0 -0.00000000000E+00 -0.00000000000E+00 -0.45593999997E+02  0.45594000000E+02  0.51100000000E-03 0. -1.
    9900012    2    1    2    0    0  0.22179680932E+02 -0.34355721050E+01  0.37146759559E+02  0.47787272498E+02  0.20000006628E+02 0.  0.
         12    1    1    2    0    0 -0.22179680932E+02  0.34355721050E+01 -0.37146759559E+02  0.43400727502E+02  0.00000000000E+00 0. -1.
         11    1    3    3    0    0 -0.60817647753E+00  0.18790820943E+01  0.66905456387E+01  0.69759751540E+01  0.51100000000E-03 0. -1.
        -11    1    3    3    0    0  0.66461732837E+01  0.46697643636E+01  0.10429620759E+02  0.13219504830E+02  0.51100000000E-03 0.  1.
        -12    1    3    3    0    0  0.16141684126E+02 -0.99844185629E+01  0.20026593162E+02  0.27591792514E+02  0.00000000000E+00 0.  1.
</event>
<event>
 7    1  0.5038211E-009  0.4778727E+02  0.7816164E-02  0.1312668E+00
        -11   -1    0    0    0    0  0.00000000000E+00  0.00000000000E+00  0.45593999997E+02  0.45594000000E+02  0.51100000000E-03 0. -1.
         11   -1    0    0    0    0 -0.00000000000E+00 -0.00000000000E+00 -0.45593999997E+02  0.45594000000E+02  0.51100000000E-03 0.  1.
    9900012    2    1    2    0    0 -0.17050985927E+02 -0.37545305565E+01 -0.39733997534E+02  0.47787272116E+02  0.20000004888E+02 0.  0.
         12    1    1    2    0    0  0.17050985927E+02  0.37545305565E+01  0.39733997534E+02  0.43400727884E+02  0.00000000000E+00 0. -1.
         11    1    3    3    0    0 -0.22051805366E+01  0.18345109687E+01 -0.56268056103E+01  0.63157892088E+01  0.51100000000E-03 0. -1.
        -11    1    3    3    0    0 -0.17335160770E+02  0.13839363155E+00 -0.25632476953E+02  0.30944318165E+02  0.51100000000E-03 0.  1.
        -12    1    3    3    0    0  0.24893553789E+01 -0.57274351567E+01 -0.84747149708E+01  0.10527164742E+02  0.00000000000E+00 0.  1.
</event>
<event>
 7    1  0.5038211E-009  0.4778727E+02  0.7816164E-02  0.1312668E+00
        -11   -1    0    0    0    0  0.00000000000E+00  0.00000000000E+00  0.45593999997E+02  0.45594000000E+02  0.51100000000E-03 0. -1.
         11   -1    0    0    0    0 -0.00000000000E+00 -0.00000000000E+00 -0.45593999997E+02  0.45594000000E+02  0.51100000000E-03 0.  1.
    9900012    2    1    2    0    0  0.18503251159E+02 -0.18768216952E+02 -0.34481981230E+02  0.47787270737E+02  0.19999998601E+02 0.  0.
         12    1    1    2    0    0 -0.18503251159E+02  0.18768216952E+02  0.34481981230E+02  0.43400729263E+02  0.00000000000E+00 0. -1.
         11    1    3    3    0    0  0.12336698171E+02 -0.76880266210E+01 -0.61118154372E+01  0.15768771775E+02  0.51100000000E-03 0. -1.
        -11    1    3    3    0    0  0.79861793929E+01 -0.83016893192E+01 -0.22257362086E+02  0.25061669420E+02  0.51100000000E-03 0.  1.
        -12    1    3    3    0    0 -0.18196264053E+01 -0.27785010119E+01 -0.61128037063E+01  0.69568295422E+01  0.00000000000E+00 0.  1.
</event>
<event>
 7    1  0.5038211E-009  0.4778728E+02  0.7816164E-02  0.1312668E+00
        -11   -1    0    0    0    0  0.00000000000E+00  0.00000000000E+00  0.45593999997E+02  0.45594000000E+02  0.51100000000E-03 0. -1.
         11   -1    0    0    0    0 -0.00000000000E+00 -0.00000000000E+00 -0.45593999997E+02  0.45594000000E+02  0.51100000000E-03 0.  1.
    9900012    2    1    2    0    0  0.29196980463E+02 -0.26077517947E+01 -0.32005598459E+02  0.47787281454E+02  0.20000047461E+02 0.  0.
         12    1    1    2    0    0 -0.29196980463E+02  0.26077517947E+01  0.32005598459E+02  0.43400718546E+02  0.00000000000E+00 0. -1.
         11    1    3    3    0    0  0.19214280295E+02 -0.15626998289E+01 -0.14986663619E+02  0.24417835381E+02  0.51100000000E-03 0. -1.
        -11    1    3    3    0    0  0.20819818274E+00 -0.24209381953E+01  0.11530886386E+01  0.26895913999E+01  0.51100000000E-03 0.  1.
        -12    1    3    3    0    0  0.97745019852E+01  0.13758862294E+01 -0.18172023478E+02  0.20679854673E+02  0.00000000000E+00 0.  1.
</event>
<event>
 7    1  0.5038211E-009  0.4778728E+02  0.7816164E-02  0.1312668E+00
        -11   -1    0    0    0    0  0.00000000000E+00  0.00000000000E+00  0.45593999997E+02  0.45594000000E+02  0.51100000000E-03 0.  1.
         11   -1    0    0    0    0 -0.00000000000E+00 -0.00000000000E+00 -0.45593999997E+02  0.45594000000E+02  0.51100000000E-03 0. -1.
    9900012    2    1    2    0    0 -0.26738661517E+02  0.51942471984E+01  0.33788843776E+02  0.47787283561E+02  0.20000057067E+02 0.  0.
         12    1    1    2    0    0  0.26738661517E+02 -0.51942471984E+01 -0.33788843776E+02  0.43400716439E+02  0.00000000000E+00 0. -1.
         11    1    3    3    0    0 -0.63200427562E+01  0.36006646628E+01  0.84669916982E+01  0.11162332871E+02  0.51100000000E-03 0. -1.
        -11    1    3    3    0    0 -0.67124931245E+00  0.27236580404E+01  0.13048971137E+02  0.13347079709E+02  0.51100000000E-03 0.  1.
        -12    1    3    3    0    0 -0.19747369449E+02 -0.11300755048E+01  0.12272880941E+02  0.23277870980E+02  0.00000000000E+00 0.  1.
</event>
<event>
 7    1  0.5038211E-009  0.4778729E+02  0.7816164E-02  0.1312668E+00
        -11   -1    0    0    0    0  0.00000000000E+00  0.00000000000E+00  0.45593999997E+02  0.45594000000E+02  0.51100000000E-03 0. -1.
         11   -1    0    0    0    0 -0.00000000000E+00 -0.00000000000E+00 -0.45593999997E+02  0.45594000000E+02  0.51100000000E-03 0.  1.
    9900012    2    1    2    0    0 -0.18209405758E+02  0.15620864911E+02 -0.36166672004E+02  0.47787285231E+02  0.20000064681E+02 0.  0.
         12    1    1    2    0    0  0.18209405758E+02 -0.15620864911E+02  0.36166672004E+02  0.43400714769E+02  0.00000000000E+00 0. -1.
         11    1    3    3    0    0  0.22426192045E+01  0.98201176304E+00  0.25829413920E-01  0.24483372763E+01  0.51100000000E-03 0. -1.
        -11    1    3    3    0    0 -0.19535136293E+02  0.12132243748E+02 -0.35927549057E+02  0.42656789258E+02  0.51100000000E-03 0.  1.
        -12    1    3    3    0    0 -0.91688866958E+00  0.25066094004E+01 -0.26495236121E+00  0.26821586963E+01  0.00000000000E+00 0.  1.
</event>
<event>
 7    1  0.5038211E-009  0.4778727E+02  0.7816164E-02  0.1312668E+00
        -11   -1    0    0    0    0  0.00000000000E+00  0.00000000000E+00  0.45593999997E+02  0.45594000000E+02  0.51100000000E-03 0.  1.
         11   -1    0    0    0    0 -0.00000000000E+00 -0.00000000000E+00 -0.45593999997E+02  0.45594000000E+02  0.51100000000E-03 0. -1.
    9900012    2    1    2    0    0 -0.14286347604E+02  0.30401531889E+02  0.27482181855E+02  0.47787272027E+02  0.20000004481E+02 0.  0.
         12    1    1    2    0    0  0.14286347604E+02 -0.30401531889E+02 -0.27482181855E+02  0.43400727973E+02  0.00000000000E+00 0. -1.
         11    1    3    3    0    0  0.34782711728E+01  0.10830002874E+01  0.10787445331E+01  0.37993354686E+01  0.51100000000E-03 0. -1.
        -11    1    3    3    0    0 -0.10251806316E+02  0.11254876085E+02  0.83318505307E+01  0.17354869690E+02  0.51100000000E-03 0.  1.
         12    1    3    3    0    0 -0.75128124608E+01  0.18063655517E+02  0.18071586791E+02  0.26633066869E+02  0.00000000000E+00 0. -1.
</event>
<event>
 7    1  0.5038211E-009  0.4778727E+02  0.7816164E-02  0.1312668E+00
        -11   -1    0    0    0    0  0.00000000000E+00  0.00000000000E+00  0.45593999997E+02  0.45594000000E+02  0.51100000000E-03 0.  1.
         11   -1    0    0    0    0 -0.00000000000E+00 -0.00000000000E+00 -0.45593999997E+02  0.45594000000E+02  0.51100000000E-03 0. -1.
    9900012    2    1    2    0    0 -0.27563200209E+02  0.91024956343E+01  0.32265123912E+02  0.47787266670E+02  0.19999980056E+02 0.  0.
         12    1    1    2    0    0  0.27563200209E+02 -0.91024956343E+01 -0.32265123912E+02  0.43400733330E+02  0.00000000000E+00 0. -1.
         11    1    3    3    0    0  0.47824863226E+00  0.53191592610E+01  0.10056702371E+02  0.11386809906E+02  0.51100000000E-03 0. -1.
        -11    1    3    3    0    0 -0.14742722528E+02 -0.82389648407E+00  0.11246329579E+02  0.18560889047E+02  0.51100000000E-03 0.  1.
         12    1    3    3    0    0 -0.13298726313E+02  0.46072328573E+01  0.10962091962E+02  0.17839567717E+02  0.00000000000E+00 0. -1.
</event>
<event>
 7    1  0.5038211E-009  0.4778728E+02  0.7816164E-02  0.1312668E+00
        -11   -1    0    0    0    0  0.00000000000E+00  0.00000000000E+00  0.45593999997E+02  0.45594000000E+02  0.51100000000E-03 0.  1.
         11   -1    0    0    0    0 -0.00000000000E+00 -0.00000000000E+00 -0.45593999997E+02  0.45594000000E+02  0.51100000000E-03 0. -1.
    9900012    2    1    2    0    0  0.27043694624E+02 -0.79066358416E+01  0.33011306270E+02  0.47787278221E+02  0.20000032722E+02 0.  0.
         12    1    1    2    0    0 -0.27043694624E+02  0.79066358416E+01 -0.33011306270E+02  0.43400721779E+02  0.00000000000E+00 0. -1.
         11    1    3    3    0    0  0.27258552965E+02 -0.33334013360E+01  0.31179269184E+02  0.41548611305E+02  0.51100000000E-03 0. -1.
        -11    1    3    3    0    0  0.13998343211E+01 -0.35526629539E+00  0.52807822609E+00  0.15377311667E+01  0.51100000000E-03 0.  1.
         12    1    3    3    0    0 -0.16146926621E+01 -0.42179682103E+01  0.13039588598E+01  0.47009357498E+01  0.00000000000E+00 0. -1.
</event>
<event>
 7    1  0.5038211E-009  0.4778727E+02  0.7816164E-02  0.1312668E+00
        -11   -1    0    0    0    0  0.00000000000E+00  0.00000000000E+00  0.45593999997E+02  0.45594000000E+02  0.51100000000E-03 0.  1.
         11   -1    0    0    0    0 -0.00000000000E+00 -0.00000000000E+00 -0.45593999997E+02  0.45594000000E+02  0.51100000000E-03 0. -1.
    9900012    2    1    2    0    0  0.32823177360E+01 -0.42334358306E+02 -0.89806559421E+01  0.47787266319E+02  0.19999978456E+02 0.  0.
         12    1    1    2    0    0 -0.32823177360E+01  0.42334358306E+02  0.89806559421E+01  0.43400733681E+02  0.00000000000E+00 0. -1.
         11    1    3    3    0    0 -0.17005531691E+01 -0.90942817978E+01 -0.46571518827E+01  0.10357939294E+02  0.51100000000E-03 0. -1.
        -11    1    3    3    0    0 -0.54716670213E+01 -0.75403727172E+01  0.19790935432E+00  0.93185583156E+01  0.51100000000E-03 0.  1.
        -12    1    3    3    0    0  0.10454537926E+02 -0.25699703791E+02 -0.45214134138E+01  0.28110768710E+02  0.00000000000E+00 0.  1.
</event>
<event>
 7    1  0.5038211E-009  0.4778727E+02  0.7816164E-02  0.1312668E+00
        -11   -1    0    0    0    0  0.00000000000E+00  0.00000000000E+00  0.45593999997E+02  0.45594000000E+02  0.51100000000E-03 0.  1.
         11   -1    0    0    0    0 -0.00000000000E+00 -0.00000000000E+00 -0.45593999997E+02  0.45594000000E+02  0.51100000000E-03 0. -1.
    9900012    2    1    2    0    0  0.19316707886E+02  0.74184860434E+01  0.38150417227E+02  0.47787268747E+02  0.19999989525E+02 0.  0.
         12    1    1    2    0    0 -0.19316707886E+02 -0.74184860434E+01 -0.38150417227E+02  0.43400731253E+02  0.00000000000E+00 0. -1.
         11    1    3    3    0    0  0.81657837497E+01  0.65042661744E+01  0.50832983789E+01  0.11611435113E+02  0.51100000000E-03 0. -1.
        -11    1    3    3    0    0  0.12642114109E+02 -0.44577555284E+00  0.28781210510E+02  0.31438508929E+02  0.51100000000E-03 0.  1.
         12    1    3    3    0    0 -0.14911899727E+01  0.13599954219E+01  0.42859083378E+01  0.47373247051E+01  0.00000000000E+00 0. -1.
</event>
<event>
 7    1  0.5038211E-009  0.4778727E+02  0.7816164E-02  0.1312668E+00
        -11   -1    0    0    0    0  0.00000000000E+00  0.00000000000E+00  0.45593999997E+02  0.45594000000E+02  0.51100000000E-03 0.  1.
         11   -1    0    0    0    0 -0.00000000000E+00 -0.00000000000E+00 -0.45593999997E+02  0.45594000000E+02  0.51100000000E-03 0. -1.
    9900012    2    1    2    0    0 -0.24220777561E+02  0.35778106856E+02  0.41115443082E+01  0.47787265070E+02  0.19999972761E+02 0.  0.
         12    1    1    2    0    0  0.24220777561E+02 -0.35778106856E+02 -0.41115443082E+01  0.43400734930E+02  0.00000000000E+00 0. -1.
         11    1    3    3    0    0 -0.48311338529E+01  0.11470581407E+01 -0.17521021789E+01  0.52654970315E+01  0.51100000000E-03 0. -1.
        -11    1    3    3    0    0 -0.14606331006E+02  0.17048271868E+02  0.87078048501E+01  0.24079334391E+02  0.51100000000E-03 0.  1.
        -12    1    3    3    0    0 -0.47833127021E+01  0.17582776847E+02 -0.28441583630E+01  0.18442433648E+02  0.00000000000E+00 0.  1.
</event>
<event>
 7    1  0.5038211E-009  0.4778727E+02  0.7816164E-02  0.1312668E+00
        -11   -1    0    0    0    0  0.00000000000E+00  0.00000000000E+00  0.45593999997E+02  0.45594000000E+02  0.51100000000E-03 0.  1.
         11   -1    0    0    0    0 -0.00000000000E+00 -0.00000000000E+00 -0.45593999997E+02  0.45594000000E+02  0.51100000000E-03 0. -1.
    9900012    2    1    2    0    0 -0.15130368766E+02 -0.30944760759E+02  0.26402975654E+02  0.47787269582E+02  0.19999993333E+02 0.  0.
         12    1    1    2    0    0  0.15130368766E+02  0.30944760759E+02 -0.26402975654E+02  0.43400730418E+02  0.00000000000E+00 0. -1.
         11    1    3    3    0    0  0.35208846657E+01 -0.91514820573E+01  0.61978402842E+01  0.11599977462E+02  0.51100000000E-03 0. -1.
        -11    1    3    3    0    0 -0.10171298966E+02 -0.15228760481E+02  0.17018321333E+02  0.24999874594E+02  0.51100000000E-03 0.  1.
         12    1    3    3    0    0 -0.84799544650E+01 -0.65645182203E+01  0.31868140368E+01  0.11187417526E+02  0.00000000000E+00 0. -1.
</event>
<event>
 7    1  0.5038211E-009  0.4778727E+02  0.7816164E-02  0.1312668E+00
        -11   -1    0    0    0    0  0.00000000000E+00  0.00000000000E+00  0.45593999997E+02  0.45594000000E+02  0.51100000000E-03 0.  1.
         11   -1    0    0    0    0 -0.00000000000E+00 -0.00000000000E+00 -0.45593999997E+02  0.45594000000E+02  0.51100000000E-03 0. -1.
    9900012    2    1    2    0    0 -0.18617016935E+02  0.38379192335E+02 -0.80042208919E+01  0.47787271020E+02  0.19999999891E+02 0.  0.
         12    1    1    2    0    0  0.18617016935E+02 -0.38379192335E+02  0.80042208919E+01  0.43400728980E+02  0.00000000000E+00 0. -1.
         11    1    3    3    0    0 -0.61524006261E+01  0.31798629443E+01 -0.72392335752E+01  0.10018486154E+02  0.51100000000E-03 0. -1.
        -11    1    3    3    0    0 -0.91835815850E+01  0.26894710250E+02 -0.29615296160E+01  0.28573313915E+02  0.51100000000E-03 0.  1.
         12    1    3    3    0    0 -0.32810347235E+01  0.83046191414E+01  0.21965422993E+01  0.91954709512E+01  0.00000000000E+00 0. -1.
</event>
<event>
 7    1  0.5038211E-009  0.4778727E+02  0.7816164E-02  0.1312668E+00
        -11   -1    0    0    0    0  0.00000000000E+00  0.00000000000E+00  0.45593999997E+02  0.45594000000E+02  0.51100000000E-03 0. -1.
         11   -1    0    0    0    0 -0.00000000000E+00 -0.00000000000E+00 -0.45593999997E+02  0.45594000000E+02  0.51100000000E-03 0.  1.
    9900012    2    1    2    0    0  0.11485241052E+02  0.38343204347E+02 -0.16778292817E+02  0.47787271994E+02  0.20000004329E+02 0.  0.
         12    1    1    2    0    0 -0.11485241052E+02 -0.38343204347E+02  0.16778292817E+02  0.43400728006E+02  0.00000000000E+00 0. -1.
         11    1    3    3    0    0  0.67466676339E+01  0.26863124766E+02 -0.38658832485E+01  0.27965872951E+02  0.51100000000E-03 0.  1.
        -11    1    3    3    0    0  0.11585380575E+01  0.19936274480E+01 -0.84222263319E+01  0.87321622453E+01  0.51100000000E-03 0. -1.
        -12    1    3    3    0    0  0.35800353601E+01  0.94864521326E+01 -0.44901832370E+01  0.11089236797E+02  0.00000000000E+00 0.  1.
</event>
<event>
 7    1  0.5038211E-009  0.4778727E+02  0.7816164E-02  0.1312668E+00
        -11   -1    0    0    0    0  0.00000000000E+00  0.00000000000E+00  0.45593999997E+02  0.45594000000E+02  0.51100000000E-03 0.  1.
         11   -1    0    0    0    0 -0.00000000000E+00 -0.00000000000E+00 -0.45593999997E+02  0.45594000000E+02  0.51100000000E-03 0. -1.
    9900012    2    1    2    0    0  0.42929737270E+02 -0.16915039222E+00  0.63743291918E+01  0.47787273893E+02  0.20000012989E+02 0.  0.
         12    1    1    2    0    0 -0.42929737270E+02  0.16915039222E+00 -0.63743291918E+01  0.43400726107E+02  0.00000000000E+00 0. -1.
         11    1    3    3    0    0  0.66727410182E+01 -0.61037931565E+01  0.97614146945E+00  0.90958570802E+01  0.51100000000E-03 0. -1.
        -11    1    3    3    0    0  0.33131334855E+02  0.85720464010E+01  0.47356348884E+01  0.34548394562E+02  0.51100000000E-03 0.  1.
        -12    1    3    3    0    0  0.31256613969E+01 -0.26374036367E+01  0.66255283398E+00  0.41430222506E+01  0.00000000000E+00 0.  1.
</event>
<event>
 7    1  0.5038211E-009  0.4778727E+02  0.7816164E-02  0.1312668E+00
        -11   -1    0    0    0    0  0.00000000000E+00  0.00000000000E+00  0.45593999997E+02  0.45594000000E+02  0.51100000000E-03 0.  1.
         11   -1    0    0    0    0 -0.00000000000E+00 -0.00000000000E+00 -0.45593999997E+02  0.45594000000E+02  0.51100000000E-03 0. -1.
    9900012    2    1    2    0    0  0.12241281125E+02 -0.27317419086E+02 -0.31425036418E+02  0.47787271170E+02  0.20000000574E+02 0.  0.
         12    1    1    2    0    0 -0.12241281125E+02  0.27317419086E+02  0.31425036418E+02  0.43400728830E+02  0.00000000000E+00 0. -1.
         11    1    3    3    0    0  0.93718286901E+01 -0.17068600744E+02 -0.62475216014E+01  0.20449934738E+02  0.51100000000E-03 0. -1.
        -11    1    3    3    0    0  0.20690597312E+01 -0.79416047411E+01 -0.19574340255E+02  0.21225100488E+02  0.51100000000E-03 0.  1.
         12    1    3    3    0    0  0.80039270342E+00 -0.23072136007E+01 -0.56031745612E+01  0.61122359446E+01  0.00000000000E+00 0. -1.
</event>
<event>
 7    1  0.5038211E-009  0.4778727E+02  0.7816164E-02  0.1312668E+00
        -11   -1    0    0    0    0  0.00000000000E+00  0.00000000000E+00  0.45593999997E+02  0.45594000000E+02  0.51100000000E-03 0. -1.
         11   -1    0    0    0    0 -0.00000000000E+00 -0.00000000000E+00 -0.45593999997E+02  0.45594000000E+02  0.51100000000E-03 0.  1.
    9900012    2    1    2    0    0 -0.99481805906E+01  0.25014195094E+02 -0.34043309788E+02  0.47787271958E+02  0.20000004166E+02 0.  0.
         12    1    1    2    0    0  0.99481805906E+01 -0.25014195094E+02  0.34043309788E+02  0.43400728042E+02  0.00000000000E+00 0. -1.
         11    1    3    3    0    0  0.17451491146E+01 -0.96373979002E-01  0.66905178097E+00  0.18714870886E+01  0.51100000000E-03 0. -1.
        -11    1    3    3    0    0 -0.66701437869E+01  0.23999479091E+02 -0.28935277644E+02  0.38180048551E+02  0.51100000000E-03 0.  1.
        -12    1    3    3    0    0 -0.50231859184E+01  0.11110899821E+01 -0.57770839251E+01  0.77357363190E+01  0.00000000000E+00 0.  1.
</event>
<event>
 7    1  0.5038211E-009  0.4778727E+02  0.7816164E-02  0.1312668E+00
        -11   -1    0    0    0    0  0.00000000000E+00  0.00000000000E+00  0.45593999997E+02  0.45594000000E+02  0.51100000000E-03 0. -1.
         11   -1    0    0    0    0 -0.00000000000E+00 -0.00000000000E+00 -0.45593999997E+02  0.45594000000E+02  0.51100000000E-03 0.  1.
    9900012    2    1    2    0    0  0.57157679265E+01 -0.42936773021E+02  0.27178578980E+01  0.47787271527E+02  0.20000002201E+02 0.  0.
         12    1    1    2    0    0 -0.57157679265E+01  0.42936773021E+02 -0.27178578980E+01  0.43400728473E+02  0.00000000000E+00 0. -1.
         11    1    3    3    0    0  0.46950900693E+01 -0.38027434166E+01 -0.48456981934E+01  0.77450319234E+01  0.51100000000E-03 0. -1.
        -11    1    3    3    0    0 -0.10075185367E+00 -0.15860942020E+02  0.12972049129E+01  0.15914219226E+02  0.51100000000E-03 0.  1.
         12    1    3    3    0    0  0.11214297108E+01 -0.23273087584E+02  0.62663511785E+01  0.24128020378E+02  0.00000000000E+00 0. -1.
</event>
<event>
 7    1  0.5038211E-009  0.4778727E+02  0.7816164E-02  0.1312668E+00
        -11   -1    0    0    0    0  0.00000000000E+00  0.00000000000E+00  0.45593999997E+02  0.45594000000E+02  0.51100000000E-03 0.  1.
         11   -1    0    0    0    0 -0.00000000000E+00 -0.00000000000E+00 -0.45593999997E+02  0.45594000000E+02  0.51100000000E-03 0. -1.
    9900012    2    1    2    0    0  0.11622088451E+02 -0.23049660166E+02  0.34889304382E+02  0.47787270352E+02  0.19999996844E+02 0.  0.
         12    1    1    2    0    0 -0.11622088451E+02  0.23049660166E+02 -0.34889304382E+02  0.43400729648E+02  0.00000000000E+00 0. -1.
         11    1    3    3    0    0  0.95997316744E+01 -0.83255236796E+01  0.51924926286E+01  0.13727023447E+02  0.51100000000E-03 0. -1.
        -11    1    3    3    0    0  0.33992143765E+01 -0.21651991752E+01  0.65790691221E+01  0.77153675622E+01  0.51100000000E-03 0.  1.
         12    1    3    3    0    0 -0.13768576003E+01 -0.12558937311E+02  0.23117742631E+02  0.26344879343E+02  0.00000000000E+00 0. -1.
</event>
<event>
 7    1  0.5038211E-009  0.4778727E+02  0.7816164E-02  0.1312668E+00
        -11   -1    0    0    0    0  0.00000000000E+00  0.00000000000E+00  0.45593999997E+02  0.45594000000E+02  0.51100000000E-03 0. -1.
         11   -1    0    0    0    0 -0.00000000000E+00 -0.00000000000E+00 -0.45593999997E+02  0.45594000000E+02  0.51100000000E-03 0.  1.
    9900012    2    1    2    0    0 -0.38266987765E+01  0.25173160368E+02 -0.35146718099E+02  0.47787269366E+02  0.19999992347E+02 0.  0.
         12    1    1    2    0    0  0.38266987765E+01 -0.25173160368E+02  0.35146718099E+02  0.43400730634E+02  0.00000000000E+00 0. -1.
         11    1    3    3    0    0 -0.29104782503E+01  0.24907375319E+01 -0.35427773875E-01  0.38309153588E+01  0.51100000000E-03 0. -1.
        -11    1    3    3    0    0  0.53838857713E+01  0.88676979098E+01 -0.20022904001E+02  0.22550808790E+02  0.51100000000E-03 0.  1.
        -12    1    3    3    0    0 -0.63001062975E+01  0.13814724926E+02 -0.15088386325E+02  0.21405545217E+02  0.00000000000E+00 0.  1.
</event>
<event>
 7    1  0.5038211E-009  0.4778725E+02  0.7816164E-02  0.1312668E+00
        -11   -1    0    0    0    0  0.00000000000E+00  0.00000000000E+00  0.45593999997E+02  0.45594000000E+02  0.51100000000E-03 0.  1.
         11   -1    0    0    0    0 -0.00000000000E+00 -0.00000000000E+00 -0.45593999997E+02  0.45594000000E+02  0.51100000000E-03 0. -1.
    9900012    2    1    2    0    0  0.74482743621E+01  0.81152365824E+01  0.41979651757E+02  0.47787250958E+02  0.19999908417E+02 0.  0.
         12    1    1    2    0    0 -0.74482743621E+01 -0.81152365824E+01 -0.41979651757E+02  0.43400749042E+02  0.00000000000E+00 0. -1.
         11    1    3    3    0    0  0.39266358922E+01  0.53732261717E+01  0.23513510810E+01  0.70582491519E+01  0.51100000000E-03 0. -1.
        -11    1    3    3    0    0  0.26016099452E+01 -0.69223984780E+00  0.34483378711E+01  0.43747690966E+01  0.51100000000E-03 0.  1.
         12    1    3    3    0    0  0.92002852466E+00  0.34342502584E+01  0.36179962805E+02  0.36354232709E+02  0.00000000000E+00 0. -1.
</event>
<event>
 7    1  0.5038211E-009  0.4778727E+02  0.7816164E-02  0.1312668E+00
        -11   -1    0    0    0    0  0.00000000000E+00  0.00000000000E+00  0.45593999997E+02  0.45594000000E+02  0.51100000000E-03 0.  1.
         11   -1    0    0    0    0 -0.00000000000E+00 -0.00000000000E+00 -0.45593999997E+02  0.45594000000E+02  0.51100000000E-03 0. -1.
    9900012    2    1    2    0    0  0.79613429646E+01  0.24013047809E+02  0.35264910347E+02  0.47787270183E+02  0.19999996072E+02 0.  0.
         12    1    1    2    0    0 -0.79613429646E+01 -0.24013047809E+02 -0.35264910347E+02  0.43400729817E+02  0.00000000000E+00 0. -1.
         11    1    3    3    0    0 -0.35437079849E+00  0.90250150051E+00 -0.24860241237E+01  0.26684084818E+01  0.51100000000E-03 0. -1.
        -11    1    3    3    0    0  0.79446329873E+01  0.19158279791E+02  0.31705537015E+02  0.37886646137E+02  0.51100000000E-03 0.  1.
         12    1    3    3    0    0  0.37108077579E+00  0.39522665182E+01  0.60453974551E+01  0.72322155639E+01  0.00000000000E+00 0. -1.
</event>
<event>
 7    1  0.5038211E-009  0.4778727E+02  0.7816164E-02  0.1312668E+00
        -11   -1    0    0    0    0  0.00000000000E+00  0.00000000000E+00  0.45593999997E+02  0.45594000000E+02  0.51100000000E-03 0.  1.
         11   -1    0    0    0    0 -0.00000000000E+00 -0.00000000000E+00 -0.45593999997E+02  0.45594000000E+02  0.51100000000E-03 0. -1.
    9900012    2    1    2    0    0  0.11760467580E+02 -0.78868615326E+01  0.41025747638E+02  0.47787272451E+02  0.20000006412E+02 0.  0.
         12    1    1    2    0    0 -0.11760467580E+02  0.78868615326E+01 -0.41025747638E+02  0.43400727549E+02  0.00000000000E+00 0. -1.
         11    1    3    3    0    0  0.10072523436E+02  0.29095459078E+01  0.20796205087E+02  0.23289554140E+02  0.51100000000E-03 0. -1.
        -11    1    3    3    0    0  0.28221631619E+01 -0.29355232740E+01  0.13458045980E+02  0.14060615338E+02  0.51100000000E-03 0.  1.
         12    1    3    3    0    0 -0.11342190181E+01 -0.78608841664E+01  0.67714965707E+01  0.10437102973E+02  0.00000000000E+00 0. -1.
</event>
<event>
 7    1  0.5038211E-009  0.4778727E+02  0.7816164E-02  0.1312668E+00
        -11   -1    0    0    0    0  0.00000000000E+00  0.00000000000E+00  0.45593999997E+02  0.45594000000E+02  0.51100000000E-03 0.  1.
         11   -1    0    0    0    0 -0.00000000000E+00 -0.00000000000E+00 -0.45593999997E+02  0.45594000000E+02  0.51100000000E-03 0. -1.
    9900012    2    1    2    0    0  0.31404443244E+02  0.29522662496E+02 -0.50790073479E+01  0.47787274523E+02  0.20000015859E+02 0.  0.
         12    1    1    2    0    0 -0.31404443244E+02 -0.29522662496E+02  0.50790073479E+01  0.43400725477E+02  0.00000000000E+00 0. -1.
         11    1    3    3    0    0  0.68508784559E+01  0.19102173776E+02 -0.13492281109E+01  0.20338338068E+02  0.51100000000E-03 0. -1.
        -11    1    3    3    0    0  0.24610123840E+02  0.10749636919E+02 -0.36252689143E+01  0.27098993787E+02  0.51100000000E-03 0.  1.
         12    1    3    3    0    0 -0.56559051229E-01 -0.32914819954E+00 -0.10451032275E+00  0.34994266831E+00  0.00000000000E+00 0. -1.
</event>
<event>
 7    1  0.5038211E-009  0.4778727E+02  0.7816164E-02  0.1312668E+00
        -11   -1    0    0    0    0  0.00000000000E+00  0.00000000000E+00  0.45593999997E+02  0.45594000000E+02  0.51100000000E-03 0. -1.
         11   -1    0    0    0    0 -0.00000000000E+00 -0.00000000000E+00 -0.45593999997E+02  0.45594000000E+02  0.51100000000E-03 0.  1.
    9900012    2    1    2    0    0 -0.14263673587E+02 -0.39309642938E+02 -0.11615637005E+02  0.47787269187E+02  0.19999991529E+02 0.  0.
         12    1    1    2    0    0  0.14263673587E+02  0.39309642938E+02  0.11615637005E+02  0.43400730813E+02  0.00000000000E+00 0. -1.
         11    1    3    3    0    0  0.70193931507E+00 -0.84825929604E+00  0.27541834425E+01  0.29661067633E+01  0.51100000000E-03 0. -1.
        -11    1    3    3    0    0 -0.11612585924E+02 -0.34378940970E+02 -0.92127874167E+01  0.37438472008E+02  0.51100000000E-03 0.  1.
        -12    1    3    3    0    0 -0.33530269778E+01 -0.40824426725E+01 -0.51570330309E+01  0.73826904154E+01  0.00000000000E+00 0.  1.
</event>
<event>
 7    1  0.5038211E-009  0.4778728E+02  0.7816164E-02  0.1312668E+00
        -11   -1    0    0    0    0  0.00000000000E+00  0.00000000000E+00  0.45593999997E+02  0.45594000000E+02  0.51100000000E-03 0. -1.
         11   -1    0    0    0    0 -0.00000000000E+00 -0.00000000000E+00 -0.45593999997E+02  0.45594000000E+02  0.51100000000E-03 0.  1.
    9900012    2    1    2    0    0 -0.37137510385E+02  0.11664381261E+02 -0.19192972403E+02  0.47787278146E+02  0.20000032377E+02 0.  0.
         12    1    1    2    0    0  0.37137510385E+02 -0.11664381261E+02  0.19192972403E+02  0.43400721854E+02  0.00000000000E+00 0. -1.
         11    1    3    3    0    0 -0.22907742436E+02  0.61232673995E+01 -0.18696564095E+02  0.30196366940E+02  0.51100000000E-03 0. -1.
        -11    1    3    3    0    0 -0.39712014327E+01 -0.18905048084E+01 -0.20052885001E+01  0.48338009350E+01  0.51100000000E-03 0.  1.
         12    1    3    3    0    0 -0.10258566517E+02  0.74316186695E+01  0.15088801918E+01  0.12757110271E+02  0.00000000000E+00 0. -1.
</event>
<event>
 7    1  0.5038211E-009  0.4778727E+02  0.7816164E-02  0.1312668E+00
        -11   -1    0    0    0    0  0.00000000000E+00  0.00000000000E+00  0.45593999997E+02  0.45594000000E+02  0.51100000000E-03 0.  1.
         11   -1    0    0    0    0 -0.00000000000E+00 -0.00000000000E+00 -0.45593999997E+02  0.45594000000E+02  0.51100000000E-03 0. -1.
    9900012    2    1    2    0    0 -0.17802732987E+02 -0.21112315273E+02  0.33480685677E+02  0.47787268769E+02  0.19999989625E+02 0.  0.
         12    1    1    2    0    0  0.17802732987E+02  0.21112315273E+02 -0.33480685677E+02  0.43400731231E+02  0.00000000000E+00 0. -1.
         11    1    3    3    0    0 -0.88465671101E+01 -0.77270957272E+01  0.36492229292E+01  0.12299861229E+02  0.51100000000E-03 0. -1.
        -11    1    3    3    0    0 -0.39875762456E+01 -0.12244448645E+02  0.26307418519E+02  0.29290059002E+02  0.51100000000E-03 0.  1.
        -12    1    3    3    0    0 -0.49685896313E+01 -0.11407709004E+01  0.35240442288E+01  0.61973485377E+01  0.00000000000E+00 0.  1.
</event>
<event>
 7    1  0.5038211E-009  0.4778727E+02  0.7816164E-02  0.1312668E+00
        -11   -1    0    0    0    0  0.00000000000E+00  0.00000000000E+00  0.45593999997E+02  0.45594000000E+02  0.51100000000E-03 0. -1.
         11   -1    0    0    0    0 -0.00000000000E+00 -0.00000000000E+00 -0.45593999997E+02  0.45594000000E+02  0.51100000000E-03 0.  1.
    9900012    2    1    2    0    0  0.53258306037E+01 -0.21994945849E+02 -0.37033511819E+02  0.47787272907E+02  0.20000008492E+02 0.  0.
         12    1    1    2    0    0 -0.53258306037E+01  0.21994945849E+02  0.37033511819E+02  0.43400727093E+02  0.00000000000E+00 0. -1.
         11    1    3    3    0    0  0.35849674123E+01 -0.20821719768E+01 -0.12931169559E+01  0.43427621638E+01  0.51100000000E-03 0. -1.
        -11    1    3    3    0    0 -0.72053357308E+00 -0.21501071237E+02 -0.33233550652E+02  0.39588939391E+02  0.51100000000E-03 0.  1.
        -12    1    3    3    0    0  0.24613967644E+01  0.15882973640E+01 -0.25068442116E+01  0.38555713519E+01  0.00000000000E+00 0.  1.
</event>
<event>
 7    1  0.5038211E-009  0.4778727E+02  0.7816164E-02  0.1312668E+00
        -11   -1    0    0    0    0  0.00000000000E+00  0.00000000000E+00  0.45593999997E+02  0.45594000000E+02  0.51100000000E-03 0.  1.
         11   -1    0    0    0    0 -0.00000000000E+00 -0.00000000000E+00 -0.45593999997E+02  0.45594000000E+02  0.51100000000E-03 0. -1.
    9900012    2    1    2    0    0 -0.33771765409E+01 -0.41968529005E+02  0.10529042246E+02  0.47787268684E+02  0.19999989236E+02 0.  0.
         12    1    1    2    0    0  0.33771765409E+01  0.41968529005E+02 -0.10529042246E+02  0.43400731316E+02  0.00000000000E+00 0. -1.
         11    1    3    3    0    0 -0.42335669053E+01 -0.13609157477E+02  0.11830489092E+02  0.18522762440E+02  0.51100000000E-03 0. -1.
        -11    1    3    3    0    0  0.55966205106E+00 -0.28709055821E+02 -0.15236327472E+01  0.28754905055E+02  0.51100000000E-03 0.  1.
        -12    1    3    3    0    0  0.29672831326E+00  0.34968429345E+00  0.22218590098E+00  0.50960118875E+00  0.00000000000E+00 0.  1.
</event>
<event>
 7    1  0.5038211E-009  0.4778726E+02  0.7816164E-02  0.1312668E+00
        -11   -1    0    0    0    0  0.00000000000E+00  0.00000000000E+00  0.45593999997E+02  0.45594000000E+02  0.51100000000E-03 0.  1.
         11   -1    0    0    0    0 -0.00000000000E+00 -0.00000000000E+00 -0.45593999997E+02  0.45594000000E+02  0.51100000000E-03 0. -1.
    9900012    2    1    2    0    0  0.38806721513E+02  0.39923926230E+01  0.19019016360E+02  0.47787264790E+02  0.19999971485E+02 0.  0.
         12    1    1    2    0    0 -0.38806721513E+02 -0.39923926230E+01 -0.19019016360E+02  0.43400735210E+02  0.00000000000E+00 0. -1.
         11    1    3    3    0    0  0.53440151698E+00  0.68535913207E+00  0.97271794558E-01  0.87450796703E+00  0.51100000000E-03 0. -1.
        -11    1    3    3    0    0  0.17474174947E+02 -0.60575112070E+01  0.21873583620E+01  0.18623231969E+02  0.51100000000E-03 0.  1.
        -12    1    3    3    0    0  0.20798145049E+02  0.93645446979E+01  0.16734386204E+02  0.28289524855E+02  0.00000000000E+00 0.  1.
</event>
<event>
 7    1  0.5038211E-009  0.4778727E+02  0.7816164E-02  0.1312668E+00
        -11   -1    0    0    0    0  0.00000000000E+00  0.00000000000E+00  0.45593999997E+02  0.45594000000E+02  0.51100000000E-03 0.  1.
         11   -1    0    0    0    0 -0.00000000000E+00 -0.00000000000E+00 -0.45593999997E+02  0.45594000000E+02  0.51100000000E-03 0. -1.
    9900012    2    1    2    0    0  0.31545720748E+02 -0.29502526872E+02 -0.42534015556E+01  0.47787274037E+02  0.20000013643E+02 0.  0.
         12    1    1    2    0    0 -0.31545720748E+02  0.29502526872E+02  0.42534015556E+01  0.43400725963E+02  0.00000000000E+00 0. -1.
         11    1    3    3    0    0  0.23538298466E+01 -0.41502649807E+01 -0.33080621608E+01  0.58059012977E+01  0.51100000000E-03 0. -1.
        -11    1    3    3    0    0 -0.66918675089E+00 -0.56559543747E+01 -0.23988100919E+01  0.61799612389E+01  0.51100000000E-03 0.  1.
        -12    1    3    3    0    0  0.29861077652E+02 -0.19696307517E+02  0.14534706972E+01  0.35801411500E+02  0.00000000000E+00 0.  1.
</event>
<event>
 7    1  0.5038211E-009  0.4778727E+02  0.7816164E-02  0.1312668E+00
        -11   -1    0    0    0    0  0.00000000000E+00  0.00000000000E+00  0.45593999997E+02  0.45594000000E+02  0.51100000000E-03 0.  1.
         11   -1    0    0    0    0 -0.00000000000E+00 -0.00000000000E+00 -0.45593999997E+02  0.45594000000E+02  0.51100000000E-03 0. -1.
    9900012    2    1    2    0    0  0.35899524343E+02  0.20752122129E+02  0.12813928428E+02  0.47787272095E+02  0.20000004790E+02 0.  0.
         12    1    1    2    0    0 -0.35899524343E+02 -0.20752122129E+02 -0.12813928428E+02  0.43400727905E+02  0.00000000000E+00 0. -1.
         11    1    3    3    0    0  0.37001671664E+01 -0.69424850154E+00  0.51965622683E+00  0.38004290411E+01  0.51100000000E-03 0. -1.
        -11    1    3    3    0    0 -0.64844339836E-01  0.12812387585E+01  0.51080128166E+01  0.52666472010E+01  0.51100000000E-03 0.  1.
        -12    1    3    3    0    0  0.32264201517E+02  0.20165131873E+02  0.71862593844E+01  0.38720195853E+02  0.00000000000E+00 0.  1.
</event>
<event>
 7    1  0.6198048E-009  0.4778726E+02  0.7816164E-02  0.1312668E+00
        -11   -1    0    0    0    0  0.00000000000E+00  0.00000000000E+00  0.45593999997E+02  0.45594000000E+02  0.51100000000E-03 0. -1.
         11   -1    0    0    0    0 -0.00000000000E+00 -0.00000000000E+00 -0.45593999997E+02  0.45594000000E+02  0.51100000000E-03 0.  1.
    9900012    2    1    2    0    0  0.10260561198E+02 -0.37444943129E+02 -0.19396435336E+02  0.47787255930E+02  0.19999931088E+02 0.  0.
         12    1    1    2    0    0 -0.10260561198E+02  0.37444943129E+02  0.19396435336E+02  0.43400744070E+02  0.00000000000E+00 0. -1.
         11    1    3    3    0    0 -0.13133068711E+01 -0.11476276947E+01  0.76989119289E+00  0.19064514086E+01  0.51100000000E-03 0. -1.
        -11    1    3    3    0    0  0.79935342517E+01 -0.24997158906E+02 -0.51416438263E+01  0.26743056009E+02  0.51100000000E-03 0.  1.
        -12    1    3    3    0    0  0.35803338171E+01 -0.11300156529E+02 -0.15024682703E+02  0.19137748512E+02  0.00000000000E+00 0.  1.
</event>
<event>
 7    1  0.5038211E-009  0.4778727E+02  0.7816164E-02  0.1312668E+00
        -11   -1    0    0    0    0  0.00000000000E+00  0.00000000000E+00  0.45593999997E+02  0.45594000000E+02  0.51100000000E-03 0.  1.
         11   -1    0    0    0    0 -0.00000000000E+00 -0.00000000000E+00 -0.45593999997E+02  0.45594000000E+02  0.51100000000E-03 0. -1.
    9900012    2    1    2    0    0 -0.18234236638E+01 -0.30563330593E+02  0.30760057853E+02  0.47787271781E+02  0.20000003358E+02 0.  0.
         12    1    1    2    0    0  0.18234236638E+01  0.30563330593E+02 -0.30760057853E+02  0.43400728219E+02  0.00000000000E+00 0. -1.
         11    1    3    3    0    0  0.51559965466E+01 -0.12905794240E+01  0.40739224119E+01  0.66967708425E+01  0.51100000000E-03 0. -1.
        -11    1    3    3    0    0 -0.65994442990E+01 -0.25073744324E+02  0.26176496587E+02  0.36843646581E+02  0.51100000000E-03 0.  1.
         12    1    3    3    0    0 -0.37997591143E+00 -0.41990068449E+01  0.50963885382E+00  0.42468543580E+01  0.00000000000E+00 0. -1.
</event>
<event>
 7    1  0.5038211E-009  0.4778727E+02  0.7816164E-02  0.1312668E+00
        -11   -1    0    0    0    0  0.00000000000E+00  0.00000000000E+00  0.45593999997E+02  0.45594000000E+02  0.51100000000E-03 0. -1.
         11   -1    0    0    0    0 -0.00000000000E+00 -0.00000000000E+00 -0.45593999997E+02  0.45594000000E+02  0.51100000000E-03 0.  1.
    9900012    2    1    2    0    0  0.13546741750E+02 -0.31004938596E+02 -0.27180933246E+02  0.47787267731E+02  0.19999984893E+02 0.  0.
         12    1    1    2    0    0 -0.13546741750E+02  0.31004938596E+02  0.27180933246E+02  0.43400732269E+02  0.00000000000E+00 0. -1.
         11    1    3    3    0    0  0.50127252720E+01 -0.10601674383E+02 -0.63756703163E+01  0.13348111725E+02  0.51100000000E-03 0. -1.
        -11    1    3    3    0    0  0.11554245974E+02 -0.69727952968E+01 -0.83136962588E+01  0.15850489583E+02  0.51100000000E-03 0.  1.
        -12    1    3    3    0    0 -0.30202294959E+01 -0.13430468916E+02 -0.12491566670E+02  0.18588666423E+02  0.00000000000E+00 0.  1.
</event>
<event>
 7    1  0.5038211E-009  0.4778727E+02  0.7816164E-02  0.1312668E+00
        -11   -1    0    0    0    0  0.00000000000E+00  0.00000000000E+00  0.45593999997E+02  0.45594000000E+02  0.51100000000E-03 0. -1.
         11   -1    0    0    0    0 -0.00000000000E+00 -0.00000000000E+00 -0.45593999997E+02  0.45594000000E+02  0.51100000000E-03 0.  1.
    9900012    2    1    2    0    0 -0.37848945884E+02 -0.11583503482E+02 -0.17801775870E+02  0.47787268652E+02  0.19999989091E+02 0.  0.
         12    1    1    2    0    0  0.37848945884E+02  0.11583503482E+02  0.17801775870E+02  0.43400731348E+02  0.00000000000E+00 0. -1.
         11    1    3    3    0    0  0.22747101087E+01 -0.79048202873E+00 -0.34931120675E+00  0.24333488235E+01  0.51100000000E-03 0. -1.
        -11    1    3    3    0    0 -0.17063237840E+02 -0.40850825166E+01 -0.10064012476E+02  0.20226871536E+02  0.51100000000E-03 0.  1.
         12    1    3    3    0    0 -0.23060418153E+02 -0.67079389366E+01 -0.73884521866E+01  0.25127048293E+02  0.00000000000E+00 0. -1.
</event>
<event>
 7    1  0.5038211E-009  0.4778727E+02  0.7816164E-02  0.1312668E+00
        -11   -1    0    0    0    0  0.00000000000E+00  0.00000000000E+00  0.45593999997E+02  0.45594000000E+02  0.51100000000E-03 0.  1.
         11   -1    0    0    0    0 -0.00000000000E+00 -0.00000000000E+00 -0.45593999997E+02  0.45594000000E+02  0.51100000000E-03 0. -1.
    9900012    2    1    2    0    0 -0.55601064456E+01 -0.43035605032E+02  0.80339496663E+00  0.47787268121E+02  0.19999986669E+02 0.  0.
         12    1    1    2    0    0  0.55601064456E+01  0.43035605032E+02 -0.80339496663E+00  0.43400731879E+02  0.00000000000E+00 0. -1.
         11    1    3    3    0    0 -0.10550518442E+02 -0.30539859227E+02 -0.41642087299E+01  0.32578168697E+02  0.51100000000E-03 0. -1.
        -11    1    3    3    0    0  0.36116208101E+01 -0.12483248308E+02  0.45413510644E+01  0.13765869494E+02  0.51100000000E-03 0.  1.
         12    1    3    3    0    0  0.13787911866E+01 -0.12497497799E-01  0.42625263215E+00  0.14432299297E+01  0.00000000000E+00 0. -1.
</event>
<event>
 7    1  0.5038211E-009  0.4778727E+02  0.7816164E-02  0.1312668E+00
        -11   -1    0    0    0    0  0.00000000000E+00  0.00000000000E+00  0.45593999997E+02  0.45594000000E+02  0.51100000000E-03 0.  1.
         11   -1    0    0    0    0 -0.00000000000E+00 -0.00000000000E+00 -0.45593999997E+02  0.45594000000E+02  0.51100000000E-03 0. -1.
    9900012    2    1    2    0    0  0.51388456928E+01  0.15606531683E+01  0.43067152067E+02  0.47787274655E+02  0.20000016461E+02 0.  0.
         12    1    1    2    0    0 -0.51388456928E+01 -0.15606531683E+01 -0.43067152067E+02  0.43400725345E+02  0.00000000000E+00 0. -1.
         11    1    3    3    0    0 -0.10705090973E+01 -0.55595159384E+01  0.82641057738E+01  0.10017467330E+02  0.51100000000E-03 0. -1.
        -11    1    3    3    0    0  0.39795560711E+01  0.59388243995E+01  0.34494621089E+02  0.35227622487E+02  0.51100000000E-03 0.  1.
         12    1    3    3    0    0  0.22297987191E+01  0.11813447072E+01  0.30842520416E+00  0.25421848381E+01  0.00000000000E+00 0. -1.
</event>
<event>
 7    1  0.5038211E-009  0.4778728E+02  0.7816164E-02  0.1312668E+00
        -11   -1    0    0    0    0  0.00000000000E+00  0.00000000000E+00  0.45593999997E+02  0.45594000000E+02  0.51100000000E-03 0.  1.
         11   -1    0    0    0    0 -0.00000000000E+00 -0.00000000000E+00 -0.45593999997E+02  0.45594000000E+02  0.51100000000E-03 0. -1.
    9900012    2    1    2    0    0  0.22749693204E+02  0.34494445619E+02 -0.13274316958E+02  0.47787276387E+02  0.20000024358E+02 0.  0.
         12    1    1    2    0    0 -0.22749693204E+02 -0.34494445619E+02  0.13274316958E+02  0.43400723613E+02  0.00000000000E+00 0. -1.
         11    1    3    3    0    0  0.60812277501E+01  0.21771554671E+02 -0.10575347340E+02  0.24956359818E+02  0.51100000000E-03 0. -1.
        -11    1    3    3    0    0  0.88604944638E+01  0.11743146128E+02 -0.78229765291E+00  0.14731660905E+02  0.51100000000E-03 0.  1.
         12    1    3    3    0    0  0.78079709899E+01  0.97974481976E+00 -0.19166719651E+01  0.80992556641E+01  0.00000000000E+00 0. -1.
</event>
<event>
 7    1  0.5038211E-009  0.4778727E+02  0.7816164E-02  0.1312668E+00
        -11   -1    0    0    0    0  0.00000000000E+00  0.00000000000E+00  0.45593999997E+02  0.45594000000E+02  0.51100000000E-03 0.  1.
         11   -1    0    0    0    0 -0.00000000000E+00 -0.00000000000E+00 -0.45593999997E+02  0.45594000000E+02  0.51100000000E-03 0. -1.
    9900012    2    1    2    0    0 -0.30393511762E+02 -0.16531005370E+02  0.26202740138E+02  0.47787270899E+02  0.19999999336E+02 0.  0.
         12    1    1    2    0    0  0.30393511762E+02  0.16531005370E+02 -0.26202740138E+02  0.43400729101E+02  0.00000000000E+00 0. -1.
         11    1    3    3    0    0 -0.21862954928E+02 -0.43234477357E+01  0.12426450091E+02  0.25516615383E+02  0.51100000000E-03 0. -1.
        -11    1    3    3    0    0 -0.47809715289E+01 -0.11250578710E+02  0.13753418319E+02  0.18400807749E+02  0.51100000000E-03 0.  1.
         12    1    3    3    0    0 -0.37495853052E+01 -0.95697892418E+00  0.22871728272E-01  0.38698477668E+01  0.00000000000E+00 0. -1.
</event>
<event>
 7    1  0.5038211E-009  0.4778728E+02  0.7816164E-02  0.1312668E+00
        -11   -1    0    0    0    0  0.00000000000E+00  0.00000000000E+00  0.45593999997E+02  0.45594000000E+02  0.51100000000E-03 0.  1.
         11   -1    0    0    0    0 -0.00000000000E+00 -0.00000000000E+00 -0.45593999997E+02  0.45594000000E+02  0.51100000000E-03 0. -1.
    9900012    2    1    2    0    0 -0.46287980631E+01  0.43106922851E+02  0.19974481191E+01  0.47787281479E+02  0.20000047575E+02 0.  0.
         12    1    1    2    0    0  0.46287980631E+01 -0.43106922851E+02 -0.19974481191E+01  0.43400718521E+02  0.00000000000E+00 0. -1.
         11    1    3    3    0    0 -0.71798757176E+00  0.12389726493E+02  0.64404081913E+01  0.13982120249E+02  0.51100000000E-03 0. -1.
        -11    1    3    3    0    0  0.65681417751E-01  0.17517251882E+02 -0.84497045855E+01  0.19448802930E+02  0.51100000000E-03 0.  1.
        -12    1    3    3    0    0 -0.39764919091E+01  0.13199944476E+02  0.40067445133E+01  0.14356358301E+02  0.00000000000E+00 0.  1.
</event>
<event>
 7    1  0.5038211E-009  0.4778727E+02  0.7816164E-02  0.1312668E+00
        -11   -1    0    0    0    0  0.00000000000E+00  0.00000000000E+00  0.45593999997E+02  0.45594000000E+02  0.51100000000E-03 0.  1.
         11   -1    0    0    0    0 -0.00000000000E+00 -0.00000000000E+00 -0.45593999997E+02  0.45594000000E+02  0.51100000000E-03 0. -1.
    9900012    2    1    2    0    0 -0.22406520942E+02  0.35203216508E+02  0.11929152566E+02  0.47787270580E+02  0.19999997883E+02 0.  0.
         12    1    1    2    0    0  0.22406520942E+02 -0.35203216508E+02 -0.11929152566E+02  0.43400729420E+02  0.00000000000E+00 0. -1.
         11    1    3    3    0    0 -0.18202747030E+02  0.12447803295E+02  0.43418779547E+01  0.22475313362E+02  0.51100000000E-03 0. -1.
        -11    1    3    3    0    0 -0.28014365754E+01  0.23581623740E+01  0.63251609500E+00  0.37160534899E+01  0.51100000000E-03 0.  1.
         12    1    3    3    0    0 -0.14023373368E+01  0.20397250840E+02  0.69547585163E+01  0.21595903728E+02  0.00000000000E+00 0. -1.
</event>
<event>
 7    1  0.5038211E-009  0.4778728E+02  0.7816164E-02  0.1312668E+00
        -11   -1    0    0    0    0  0.00000000000E+00  0.00000000000E+00  0.45593999997E+02  0.45594000000E+02  0.51100000000E-03 0.  1.
         11   -1    0    0    0    0 -0.00000000000E+00 -0.00000000000E+00 -0.45593999997E+02  0.45594000000E+02  0.51100000000E-03 0. -1.
    9900012    2    1    2    0    0 -0.13619483663E+02 -0.36789548733E+01  0.41043852492E+02  0.47787275679E+02  0.20000021130E+02 0.  0.
         12    1    1    2    0    0  0.13619483663E+02  0.36789548733E+01 -0.41043852492E+02  0.43400724321E+02  0.00000000000E+00 0. -1.
         11    1    3    3    0    0 -0.39207084037E+01 -0.44584233380E+01  0.58694027556E+01  0.83486155748E+01  0.51100000000E-03 0. -1.
        -11    1    3    3    0    0  0.13438026940E+01  0.12824932614E+01 -0.63404262854E+00  0.19628053806E+01  0.51100000000E-03 0.  1.
        -12    1    3    3    0    0 -0.11042577953E+02 -0.50302479678E+00  0.35808492365E+02  0.37475854724E+02  0.00000000000E+00 0.  1.
</event>
<event>
 7    1  0.5038211E-009  0.4778726E+02  0.7816164E-02  0.1312668E+00
        -11   -1    0    0    0    0  0.00000000000E+00  0.00000000000E+00  0.45593999997E+02  0.45594000000E+02  0.51100000000E-03 0. -1.
         11   -1    0    0    0    0 -0.00000000000E+00 -0.00000000000E+00 -0.45593999997E+02  0.45594000000E+02  0.51100000000E-03 0.  1.
    9900012    2    1    2    0    0 -0.14780521440E+02  0.19402977558E+02 -0.35898259009E+02  0.47787258624E+02  0.19999943370E+02 0.  0.
         12    1    1    2    0    0  0.14780521440E+02 -0.19402977558E+02  0.35898259009E+02  0.43400741376E+02  0.00000000000E+00 0. -1.
         11    1    3    3    0    0 -0.12564774949E+01  0.40023017371E+01 -0.50707571183E+01  0.65810130606E+01  0.51100000000E-03 0. -1.
        -11    1    3    3    0    0 -0.22665970181E+01  0.19880949572E+01 -0.20820713844E+02  0.21037873201E+02  0.51100000000E-03 0.  1.
        -12    1    3    3    0    0 -0.11257446927E+02  0.13412580863E+02 -0.10006788047E+02  0.20168372362E+02  0.00000000000E+00 0.  1.
</event>
<event>
 7    1  0.5038211E-009  0.4778727E+02  0.7816164E-02  0.1312668E+00
        -11   -1    0    0    0    0  0.00000000000E+00  0.00000000000E+00  0.45593999997E+02  0.45594000000E+02  0.51100000000E-03 0.  1.
         11   -1    0    0    0    0 -0.00000000000E+00 -0.00000000000E+00 -0.45593999997E+02  0.45594000000E+02  0.51100000000E-03 0. -1.
    9900012    2    1    2    0    0 -0.13412865517E+02  0.40365518233E+01  0.41078274919E+02  0.47787269795E+02  0.19999994303E+02 0.  0.
         12    1    1    2    0    0  0.13412865517E+02 -0.40365518233E+01 -0.41078274919E+02  0.43400730205E+02  0.00000000000E+00 0. -1.
         11    1    3    3    0    0 -0.24365690648E+01  0.21755562491E+01  0.21799221963E+00  0.32737493291E+01  0.51100000000E-03 0. -1.
        -11    1    3    3    0    0 -0.95381261070E+01 -0.14949334623E+00  0.40943616208E+02  0.42040193938E+02  0.51100000000E-03 0.  1.
        -12    1    3    3    0    0 -0.14381703454E+01  0.20104889204E+01 -0.83333508129E-01  0.24733265282E+01  0.00000000000E+00 0.  1.
</event>
<event>
 7    1  0.5038211E-009  0.4778727E+02  0.7816164E-02  0.1312668E+00
        -11   -1    0    0    0    0  0.00000000000E+00  0.00000000000E+00  0.45593999997E+02  0.45594000000E+02  0.51100000000E-03 0. -1.
         11   -1    0    0    0    0 -0.00000000000E+00 -0.00000000000E+00 -0.45593999997E+02  0.45594000000E+02  0.51100000000E-03 0.  1.
    9900012    2    1    2    0    0  0.72602254984E+01  0.25774098069E+02  0.34155647093E+02  0.47787271505E+02  0.20000002098E+02 0.  0.
         12    1    1    2    0    0 -0.72602254984E+01 -0.25774098069E+02 -0.34155647093E+02  0.43400728495E+02  0.00000000000E+00 0. -1.
         11    1    3    3    0    0  0.53004398647E+00 -0.11026676538E+01  0.24689725441E+01  0.27554760508E+01  0.51100000000E-03 0. -1.
        -11    1    3    3    0    0  0.81052299510E+01  0.11535957328E+02  0.65369036243E+01  0.15540404541E+02  0.51100000000E-03 0.  1.
        -12    1    3    3    0    0 -0.13750484391E+01  0.15340808395E+02  0.25149770925E+02  0.29491390913E+02  0.00000000000E+00 0.  1.
</event>
<event>
 7    1  0.5038211E-009  0.4778727E+02  0.7816164E-02  0.1312668E+00
        -11   -1    0    0    0    0  0.00000000000E+00  0.00000000000E+00  0.45593999997E+02  0.45594000000E+02  0.51100000000E-03 0.  1.
         11   -1    0    0    0    0 -0.00000000000E+00 -0.00000000000E+00 -0.45593999997E+02  0.45594000000E+02  0.51100000000E-03 0. -1.
    9900012    2    1    2    0    0 -0.11663115621E+02 -0.30187310754E+02  0.28919220494E+02  0.47787270622E+02  0.19999998076E+02 0.  0.
         12    1    1    2    0    0  0.11663115621E+02  0.30187310754E+02 -0.28919220494E+02  0.43400729378E+02  0.00000000000E+00 0. -1.
         11    1    3    3    0    0 -0.38160492405E+01  0.21057069282E+01  0.15760762050E+01  0.46346790545E+01  0.51100000000E-03 0. -1.
        -11    1    3    3    0    0 -0.58417209580E+01 -0.17608050687E+02  0.14647102122E+02  0.23636978521E+02  0.51100000000E-03 0.  1.
         12    1    3    3    0    0 -0.20053454222E+01 -0.14684966994E+02  0.12696042168E+02  0.19515613047E+02  0.00000000000E+00 0. -1.
</event>
<event>
 7    1  0.5038211E-009  0.4778727E+02  0.7816164E-02  0.1312668E+00
        -11   -1    0    0    0    0  0.00000000000E+00  0.00000000000E+00  0.45593999997E+02  0.45594000000E+02  0.51100000000E-03 0. -1.
         11   -1    0    0    0    0 -0.00000000000E+00 -0.00000000000E+00 -0.45593999997E+02  0.45594000000E+02  0.51100000000E-03 0.  1.
    9900012    2    1    2    0    0 -0.28859487411E+02  0.11756312623E+02 -0.30208318846E+02  0.47787269273E+02  0.19999991925E+02 0.  0.
         12    1    1    2    0    0  0.28859487411E+02 -0.11756312623E+02  0.30208318846E+02  0.43400730727E+02  0.00000000000E+00 0. -1.
         11    1    3    3    0    0 -0.13824171773E+02 -0.38674797178E-01 -0.16678338620E+02  0.21662783762E+02  0.51100000000E-03 0. -1.
        -11    1    3    3    0    0 -0.35330231228E+01  0.80709625782E+01 -0.12620943380E+01  0.89003130116E+01  0.51100000000E-03 0.  1.
        -12    1    3    3    0    0 -0.11502292515E+02  0.37240248423E+01 -0.12267885889E+02  0.17224172500E+02  0.00000000000E+00 0.  1.
</event>
<event>
 7    1  0.5038211E-009  0.4778727E+02  0.7816164E-02  0.1312668E+00
        -11   -1    0    0    0    0  0.00000000000E+00  0.00000000000E+00  0.45593999997E+02  0.45594000000E+02  0.51100000000E-03 0. -1.
         11   -1    0    0    0    0 -0.00000000000E+00 -0.00000000000E+00 -0.45593999997E+02  0.45594000000E+02  0.51100000000E-03 0.  1.
    9900012    2    1    2    0    0 -0.32297496345E+02  0.21515497559E+02 -0.19431374304E+02  0.47787271749E+02  0.20000003214E+02 0.  0.
         12    1    1    2    0    0  0.32297496345E+02 -0.21515497559E+02  0.19431374304E+02  0.43400728251E+02  0.00000000000E+00 0. -1.
         11    1    3    3    0    0 -0.21969861242E+02  0.15558551214E+02 -0.93405042477E+01  0.28495409082E+02  0.51100000000E-03 0.  1.
        -11    1    3    3    0    0 -0.38528655574E+01 -0.27034364703E+01 -0.31914610322E+00  0.47175201376E+01  0.51100000000E-03 0. -1.
         12    1    3    3    0    0 -0.64747695451E+01  0.86603828150E+01 -0.97717239528E+01  0.14574342530E+02  0.00000000000E+00 0. -1.
</event>
<event>
 7    1  0.5038211E-009  0.4778727E+02  0.7816164E-02  0.1312668E+00
        -11   -1    0    0    0    0  0.00000000000E+00  0.00000000000E+00  0.45593999997E+02  0.45594000000E+02  0.51100000000E-03 0.  1.
         11   -1    0    0    0    0 -0.00000000000E+00 -0.00000000000E+00 -0.45593999997E+02  0.45594000000E+02  0.51100000000E-03 0. -1.
    9900012    2    1    2    0    0  0.15142502306E+02  0.31610093817E+02  0.25595510097E+02  0.47787267929E+02  0.19999985795E+02 0.  0.
         12    1    1    2    0    0 -0.15142502306E+02 -0.31610093817E+02 -0.25595510097E+02  0.43400732071E+02  0.00000000000E+00 0. -1.
         11    1    3    3    0    0 -0.12358934856E+01 -0.15854968564E+01  0.71254534848E+00  0.21328277296E+01  0.51100000000E-03 0. -1.
        -11    1    3    3    0    0  0.52847293998E+01  0.21182561203E+02  0.15799094848E+02  0.26948852707E+02  0.51100000000E-03 0.  1.
        -12    1    3    3    0    0  0.11093666392E+02  0.12013029470E+02  0.90838699008E+01  0.18705587492E+02  0.00000000000E+00 0.  1.
</event>
<event>
 7    1  0.5038211E-009  0.4778727E+02  0.7816164E-02  0.1312668E+00
        -11   -1    0    0    0    0  0.00000000000E+00  0.00000000000E+00  0.45593999997E+02  0.45594000000E+02  0.51100000000E-03 0. -1.
         11   -1    0    0    0    0 -0.00000000000E+00 -0.00000000000E+00 -0.45593999997E+02  0.45594000000E+02  0.51100000000E-03 0.  1.
    9900012    2    1    2    0    0 -0.72591607273E+01 -0.42740267647E+02 -0.20487889026E+01  0.47787269258E+02  0.19999991853E+02 0.  0.
         12    1    1    2    0    0  0.72591607273E+01  0.42740267647E+02  0.20487889026E+01  0.43400730742E+02  0.00000000000E+00 0. -1.
         11    1    3    3    0    0 -0.24982852924E+01 -0.69076682492E+01  0.64686542785E+01  0.97877882323E+01  0.51100000000E-03 0. -1.
        -11    1    3    3    0    0 -0.69787900649E+01 -0.24163500041E+02 -0.55414893992E+01  0.25754346236E+02  0.51100000000E-03 0.  1.
         12    1    3    3    0    0  0.22179146300E+01 -0.11669099356E+02 -0.29759537819E+01  0.12245134789E+02  0.00000000000E+00 0. -1.
</event>
<event>
 7    1  0.5038211E-009  0.4778726E+02  0.7816164E-02  0.1312668E+00
        -11   -1    0    0    0    0  0.00000000000E+00  0.00000000000E+00  0.45593999997E+02  0.45594000000E+02  0.51100000000E-03 0. -1.
         11   -1    0    0    0    0 -0.00000000000E+00 -0.00000000000E+00 -0.45593999997E+02  0.45594000000E+02  0.51100000000E-03 0.  1.
    9900012    2    1    2    0    0 -0.22468157176E+02  0.17749126789E+02 -0.32615561818E+02  0.47787257364E+02  0.19999937623E+02 0.  0.
         12    1    1    2    0    0  0.22468157176E+02 -0.17749126789E+02  0.32615561818E+02  0.43400742636E+02  0.00000000000E+00 0. -1.
         11    1    3    3    0    0 -0.44873146549E+01  0.79151746844E+01 -0.79862188433E+01  0.12106431133E+02  0.51100000000E-03 0. -1.
        -11    1    3    3    0    0 -0.13939413594E-01  0.27964724031E+01 -0.12679554011E+02  0.12984280588E+02  0.51100000000E-03 0.  1.
        -12    1    3    3    0    0 -0.17966903107E+02  0.70374797018E+01 -0.11949788964E+02  0.22696545642E+02  0.00000000000E+00 0.  1.
</event>
<event>
 7    1  0.5038211E-009  0.4778727E+02  0.7816164E-02  0.1312668E+00
        -11   -1    0    0    0    0  0.00000000000E+00  0.00000000000E+00  0.45593999997E+02  0.45594000000E+02  0.51100000000E-03 0. -1.
         11   -1    0    0    0    0 -0.00000000000E+00 -0.00000000000E+00 -0.45593999997E+02  0.45594000000E+02  0.51100000000E-03 0.  1.
    9900012    2    1    2    0    0  0.11970886402E+01 -0.43369680880E+02  0.11230880074E+01  0.47787267662E+02  0.19999984578E+02 0.  0.
         12    1    1    2    0    0 -0.11970886402E+01  0.43369680880E+02 -0.11230880074E+01  0.43400732338E+02  0.00000000000E+00 0. -1.
         11    1    3    3    0    0  0.24070281546E+01 -0.38053473327E+01  0.56782469642E+01  0.72468573677E+01  0.51100000000E-03 0. -1.
        -11    1    3    3    0    0 -0.33742612992E+01 -0.22696520290E+02 -0.51778261168E+01  0.23522915554E+02  0.51100000000E-03 0.  1.
         12    1    3    3    0    0  0.21643217848E+01 -0.16867813256E+02  0.62266716007E+00  0.17017494740E+02  0.00000000000E+00 0. -1.
</event>
<event>
 7    1  0.5038211E-009  0.4778727E+02  0.7816164E-02  0.1312668E+00
        -11   -1    0    0    0    0  0.00000000000E+00  0.00000000000E+00  0.45593999997E+02  0.45594000000E+02  0.51100000000E-03 0. -1.
         11   -1    0    0    0    0 -0.00000000000E+00 -0.00000000000E+00 -0.45593999997E+02  0.45594000000E+02  0.51100000000E-03 0.  1.
    9900012    2    1    2    0    0 -0.14156690498E+02  0.16471338498E+02 -0.37575341749E+02  0.47787272065E+02  0.20000004653E+02 0.  0.
         12    1    1    2    0    0  0.14156690498E+02 -0.16471338498E+02  0.37575341749E+02  0.43400727935E+02  0.00000000000E+00 0. -1.
         11    1    3    3    0    0 -0.10122696988E+02  0.10347597618E+02 -0.97972553374E+01  0.17479358775E+02  0.51100000000E-03 0. -1.
        -11    1    3    3    0    0  0.24441434824E+01  0.34217886093E+01 -0.16471657849E+02  0.16999940800E+02  0.51100000000E-03 0.  1.
        -12    1    3    3    0    0 -0.64781369923E+01  0.27019522701E+01 -0.11306428562E+02  0.13307972490E+02  0.00000000000E+00 0.  1.
</event>
<event>
 7    1  0.5038211E-009  0.4778727E+02  0.7816164E-02  0.1312668E+00
        -11   -1    0    0    0    0  0.00000000000E+00  0.00000000000E+00  0.45593999997E+02  0.45594000000E+02  0.51100000000E-03 0.  1.
         11   -1    0    0    0    0 -0.00000000000E+00 -0.00000000000E+00 -0.45593999997E+02  0.45594000000E+02  0.51100000000E-03 0. -1.
    9900012    2    1    2    0    0 -0.39255655695E+02 -0.18153671965E+02  0.36140333895E+01  0.47787267896E+02  0.19999985643E+02 0.  0.
         12    1    1    2    0    0  0.39255655695E+02  0.18153671965E+02 -0.36140333895E+01  0.43400732104E+02  0.00000000000E+00 0. -1.
         11    1    3    3    0    0 -0.18226186815E+02 -0.18107783069E+01 -0.41488464161E+01  0.18779928933E+02  0.51100000000E-03 0. -1.
        -11    1    3    3    0    0 -0.60500416539E+01 -0.39133579749E+00  0.14749369001E+01  0.62395181577E+01  0.51100000000E-03 0.  1.
         12    1    3    3    0    0 -0.14979427226E+02 -0.15951557861E+02  0.62879429055E+01  0.22767820805E+02  0.00000000000E+00 0. -1.
</event>
<event>
 7    1  0.5038211E-009  0.4778727E+02  0.7816164E-02  0.1312668E+00
        -11   -1    0    0    0    0  0.00000000000E+00  0.00000000000E+00  0.45593999997E+02  0.45594000000E+02  0.51100000000E-03 0.  1.
         11   -1    0    0    0    0 -0.00000000000E+00 -0.00000000000E+00 -0.45593999997E+02  0.45594000000E+02  0.51100000000E-03 0. -1.
    9900012    2    1    2    0    0  0.35086443129E+02 -0.16913749427E+02 -0.19143918908E+02  0.47787273712E+02  0.20000012162E+02 0.  0.
         12    1    1    2    0    0 -0.35086443129E+02  0.16913749427E+02  0.19143918908E+02  0.43400726288E+02  0.00000000000E+00 0. -1.
         11    1    3    3    0    0  0.14367641779E+02 -0.12582987818E+02 -0.27155657948E+01  0.19290801190E+02  0.51100000000E-03 0.  1.
        -11    1    3    3    0    0  0.19220154627E+00  0.81834442097E+00 -0.37146226129E+01  0.38085496509E+01  0.51100000000E-03 0. -1.
         12    1    3    3    0    0  0.20526599804E+02 -0.51491060301E+01 -0.12713730501E+02  0.24687922871E+02  0.00000000000E+00 0. -1.
</event>
<event>
 7    1  0.5038211E-009  0.4778728E+02  0.7816164E-02  0.1312668E+00
        -11   -1    0    0    0    0  0.00000000000E+00  0.00000000000E+00  0.45593999997E+02  0.45594000000E+02  0.51100000000E-03 0. -1.
         11   -1    0    0    0    0 -0.00000000000E+00 -0.00000000000E+00 -0.45593999997E+02  0.45594000000E+02  0.51100000000E-03 0.  1.
    9900012    2    1    2    0    0  0.30245317176E+02  0.30577395507E+02  0.58194777139E+01  0.47787278256E+02  0.20000032881E+02 0.  0.
         12    1    1    2    0    0 -0.30245317176E+02 -0.30577395507E+02 -0.58194777139E+01  0.43400721744E+02  0.00000000000E+00 0. -1.
         11    1    3    3    0    0  0.22751570557E+02  0.25821308890E+02  0.10587148352E+02  0.36006411459E+02  0.51100000000E-03 0.  1.
        -11    1    3    3    0    0  0.20633621552E+00  0.29928286198E+01 -0.26165386376E+01  0.39806874387E+01  0.51100000000E-03 0. -1.
         12    1    3    3    0    0  0.72874104030E+01  0.17632579965E+01 -0.21511320007E+01  0.78001793587E+01  0.00000000000E+00 0. -1.
</event>
<event>
 7    1  0.5038211E-009  0.4778727E+02  0.7816164E-02  0.1312668E+00
        -11   -1    0    0    0    0  0.00000000000E+00  0.00000000000E+00  0.45593999997E+02  0.45594000000E+02  0.51100000000E-03 0.  1.
         11   -1    0    0    0    0 -0.00000000000E+00 -0.00000000000E+00 -0.45593999997E+02  0.45594000000E+02  0.51100000000E-03 0. -1.
    9900012    2    1    2    0    0  0.40370741144E+01 -0.43087142951E+02 -0.32899491521E+01  0.47787267051E+02  0.19999981792E+02 0.  0.
         12    1    1    2    0    0 -0.40370741144E+01  0.43087142951E+02  0.32899491521E+01  0.43400732949E+02  0.00000000000E+00 0. -1.
         11    1    3    3    0    0 -0.46636527649E+01 -0.98362852190E+01 -0.56222441397E+00  0.10900378919E+02  0.51100000000E-03 0. -1.
        -11    1    3    3    0    0  0.11164423457E+02 -0.29711094781E+02 -0.48030013534E+01  0.32100815044E+02  0.51100000000E-03 0.  1.
        -12    1    3    3    0    0 -0.24636965778E+01 -0.35397629509E+01  0.20752766153E+01  0.47860730883E+01  0.00000000000E+00 0.  1.
</event>
<event>
 7    1  0.5038211E-009  0.4778727E+02  0.7816164E-02  0.1312668E+00
        -11   -1    0    0    0    0  0.00000000000E+00  0.00000000000E+00  0.45593999997E+02  0.45594000000E+02  0.51100000000E-03 0.  1.
         11   -1    0    0    0    0 -0.00000000000E+00 -0.00000000000E+00 -0.45593999997E+02  0.45594000000E+02  0.51100000000E-03 0. -1.
    9900012    2    1    2    0    0 -0.22532192380E+02  0.27099896249E+02  0.25328232678E+02  0.47787269121E+02  0.19999991232E+02 0.  0.
         12    1    1    2    0    0  0.22532192380E+02 -0.27099896249E+02 -0.25328232678E+02  0.43400730879E+02  0.00000000000E+00 0. -1.
         11    1    3    3    0    0 -0.96658296782E+01  0.11923992595E+02  0.66603524251E+01  0.16732308790E+02  0.51100000000E-03 0. -1.
        -11    1    3    3    0    0 -0.51137726761E+01  0.16078143125E+02  0.14263427497E+02  0.22093046905E+02  0.51100000000E-03 0.  1.
        -12    1    3    3    0    0 -0.77525900260E+01 -0.90223947055E+00  0.44044527566E+01  0.89619134262E+01  0.00000000000E+00 0.  1.
</event>
<event>
 7    1  0.5038211E-009  0.4778728E+02  0.7816164E-02  0.1312668E+00
        -11   -1    0    0    0    0  0.00000000000E+00  0.00000000000E+00  0.45593999997E+02  0.45594000000E+02  0.51100000000E-03 0.  1.
         11   -1    0    0    0    0 -0.00000000000E+00 -0.00000000000E+00 -0.45593999997E+02  0.45594000000E+02  0.51100000000E-03 0. -1.
    9900012    2    1    2    0    0 -0.32617119919E+02 -0.28310422101E+02 -0.42738370095E+01  0.47787283483E+02  0.20000056713E+02 0.  0.
         12    1    1    2    0    0  0.32617119919E+02  0.28310422101E+02  0.42738370095E+01  0.43400716517E+02  0.00000000000E+00 0. -1.
         11    1    3    3    0    0 -0.26416796483E+02 -0.13299517344E+02 -0.67506270218E+01  0.30336368660E+02  0.51100000000E-03 0. -1.
        -11    1    3    3    0    0 -0.58116595887E+01 -0.10188086242E+02  0.39773039093E+01  0.12385129595E+02  0.51100000000E-03 0.  1.
         12    1    3    3    0    0 -0.38866384720E+00 -0.48228185155E+01 -0.15005138970E+01  0.50657852278E+01  0.00000000000E+00 0. -1.
</event>
<event>
 7    1  0.5038211E-009  0.4778727E+02  0.7816164E-02  0.1312668E+00
        -11   -1    0    0    0    0  0.00000000000E+00  0.00000000000E+00  0.45593999997E+02  0.45594000000E+02  0.51100000000E-03 0.  1.
         11   -1    0    0    0    0 -0.00000000000E+00 -0.00000000000E+00 -0.45593999997E+02  0.45594000000E+02  0.51100000000E-03 0. -1.
    9900012    2    1    2    0    0 -0.31085828467E+02 -0.13981435504E+02  0.26866600060E+02  0.47787268796E+02  0.19999989749E+02 0.  0.
         12    1    1    2    0    0  0.31085828467E+02  0.13981435504E+02 -0.26866600060E+02  0.43400731204E+02  0.00000000000E+00 0. -1.
         11    1    3    3    0    0  0.24755293782E+01 -0.15387912489E+01  0.19523936567E+01  0.35082710075E+01  0.51100000000E-03 0. -1.
        -11    1    3    3    0    0 -0.16488668822E+02 -0.10189154771E+02  0.13370517321E+02  0.23547097659E+02  0.51100000000E-03 0.  1.
         12    1    3    3    0    0 -0.17072689024E+02 -0.22534894839E+01  0.11543689082E+02  0.20731900130E+02  0.00000000000E+00 0. -1.
</event>
<event>
 7    1  0.5038211E-009  0.4778727E+02  0.7816164E-02  0.1312668E+00
        -11   -1    0    0    0    0  0.00000000000E+00  0.00000000000E+00  0.45593999997E+02  0.45594000000E+02  0.51100000000E-03 0. -1.
         11   -1    0    0    0    0 -0.00000000000E+00 -0.00000000000E+00 -0.45593999997E+02  0.45594000000E+02  0.51100000000E-03 0.  1.
    9900012    2    1    2    0    0 -0.53078029483E+01  0.42508917269E+02  0.69600709522E+01  0.47787269508E+02  0.19999992996E+02 0.  0.
         12    1    1    2    0    0  0.53078029483E+01 -0.42508917269E+02 -0.69600709522E+01  0.43400730492E+02  0.00000000000E+00 0. -1.
         11    1    3    3    0    0 -0.42216674524E+01  0.35594395916E+01 -0.23768524029E+01  0.60117812578E+01  0.51100000000E-03 0.  1.
        -11    1    3    3    0    0  0.93739006204E+00  0.31794373414E+02  0.11824125962E+02  0.33934802725E+02  0.51100000000E-03 0. -1.
         12    1    3    3    0    0 -0.20235255579E+01  0.71551042637E+01 -0.24872026069E+01  0.78406855259E+01  0.00000000000E+00 0. -1.
</event>
<event>
 7    1  0.5038211E-009  0.4778721E+02  0.7816164E-02  0.1312668E+00
        -11   -1    0    0    0    0  0.00000000000E+00  0.00000000000E+00  0.45593999997E+02  0.45594000000E+02  0.51100000000E-03 0.  1.
         11   -1    0    0    0    0 -0.00000000000E+00 -0.00000000000E+00 -0.45593999997E+02  0.45594000000E+02  0.51100000000E-03 0. -1.
    9900012    2    1    2    0    0  0.23950993724E+02 -0.25146552669E+02  0.26031318979E+02  0.47787207619E+02  0.19999710815E+02 0.  0.
         12    1    1    2    0    0 -0.23950993724E+02  0.25146552669E+02 -0.26031318979E+02  0.43400792381E+02  0.00000000000E+00 0. -1.
         11    1    3    3    0    0  0.66206260686E+01 -0.19395891334E+01  0.38717531496E+00  0.69097467777E+01  0.51100000000E-03 0. -1.
        -11    1    3    3    0    0  0.73867275608E+01 -0.15279576645E+02  0.21729390246E+02  0.27571644986E+02  0.51100000000E-03 0.  1.
        -12    1    3    3    0    0  0.99436400951E+01 -0.79273868908E+01  0.39147534184E+01  0.13305815856E+02  0.00000000000E+00 0.  1.
</event>
<event>
 7    1  0.5038211E-009  0.4778727E+02  0.7816164E-02  0.1312668E+00
        -11   -1    0    0    0    0  0.00000000000E+00  0.00000000000E+00  0.45593999997E+02  0.45594000000E+02  0.51100000000E-03 0. -1.
         11   -1    0    0    0    0 -0.00000000000E+00 -0.00000000000E+00 -0.45593999997E+02  0.45594000000E+02  0.51100000000E-03 0.  1.
    9900012    2    1    2    0    0  0.42159615450E+02  0.59219971252E+01 -0.84332555110E+01  0.47787273931E+02  0.20000013159E+02 0.  0.
         12    1    1    2    0    0 -0.42159615450E+02 -0.59219971252E+01  0.84332555110E+01  0.43400726069E+02  0.00000000000E+00 0. -1.
         11    1    3    3    0    0  0.19178102324E+02  0.10184140327E+02 -0.51990719789E+01  0.22328158738E+02  0.51100000000E-03 0. -1.
        -11    1    3    3    0    0  0.92258226238E+01  0.18794038225E+01 -0.43128617692E+01  0.10356096693E+02  0.51100000000E-03 0.  1.
         12    1    3    3    0    0  0.13755690502E+02 -0.61415470243E+01  0.10786782372E+01  0.15103018499E+02  0.00000000000E+00 0. -1.
</event>
<event>
 7    1  0.5038211E-009  0.4778727E+02  0.7816164E-02  0.1312668E+00
        -11   -1    0    0    0    0  0.00000000000E+00  0.00000000000E+00  0.45593999997E+02  0.45594000000E+02  0.51100000000E-03 0.  1.
         11   -1    0    0    0    0 -0.00000000000E+00 -0.00000000000E+00 -0.45593999997E+02  0.45594000000E+02  0.51100000000E-03 0. -1.
    9900012    2    1    2    0    0  0.29700322701E+02 -0.25470597769E+02  0.18781984746E+02  0.47787268782E+02  0.19999989685E+02 0.  0.
         12    1    1    2    0    0 -0.29700322701E+02  0.25470597769E+02 -0.18781984746E+02  0.43400731218E+02  0.00000000000E+00 0. -1.
         11    1    3    3    0    0  0.74552998374E+01 -0.13357442450E+02 -0.82047895106E+00  0.15319136739E+02  0.51100000000E-03 0. -1.
        -11    1    3    3    0    0  0.16955247197E+02 -0.90126077783E+01  0.11773234527E+02  0.22523688818E+02  0.51100000000E-03 0.  1.
         12    1    3    3    0    0  0.52897756668E+01 -0.31005475408E+01  0.78292291695E+01  0.99444432245E+01  0.00000000000E+00 0. -1.
</event>
<event>
 7    1  0.5038211E-009  0.4778725E+02  0.7816164E-02  0.1312668E+00
        -11   -1    0    0    0    0  0.00000000000E+00  0.00000000000E+00  0.45593999997E+02  0.45594000000E+02  0.51100000000E-03 0.  1.
         11   -1    0    0    0    0 -0.00000000000E+00 -0.00000000000E+00 -0.45593999997E+02  0.45594000000E+02  0.51100000000E-03 0. -1.
    9900012    2    1    2    0    0  0.78509883432E+01  0.17820147913E+02  0.38786970310E+02  0.47787253976E+02  0.19999922177E+02 0.  0.
         12    1    1    2    0    0 -0.78509883432E+01 -0.17820147913E+02 -0.38786970310E+02  0.43400746024E+02  0.00000000000E+00 0. -1.
         11    1    3    3    0    0  0.90035872458E+01  0.15904827512E+02  0.29843973400E+02  0.34995583579E+02  0.51100000000E-03 0. -1.
        -11    1    3    3    0    0  0.18766321265E+00 -0.18750416855E+01  0.85465498181E+01  0.87518291150E+01  0.51100000000E-03 0.  1.
         12    1    3    3    0    0 -0.13402621152E+01  0.37903620864E+01  0.39644709232E+00  0.40398412816E+01  0.00000000000E+00 0. -1.
</event>
<event>
 7    1  0.5038211E-009  0.4778727E+02  0.7816164E-02  0.1312668E+00
        -11   -1    0    0    0    0  0.00000000000E+00  0.00000000000E+00  0.45593999997E+02  0.45594000000E+02  0.51100000000E-03 0.  1.
         11   -1    0    0    0    0 -0.00000000000E+00 -0.00000000000E+00 -0.45593999997E+02  0.45594000000E+02  0.51100000000E-03 0. -1.
    9900012    2    1    2    0    0  0.38036743512E+02  0.46712897482E+01  0.20371766283E+02  0.47787266522E+02  0.19999979380E+02 0.  0.
         12    1    1    2    0    0 -0.38036743512E+02 -0.46712897482E+01 -0.20371766283E+02  0.43400733478E+02  0.00000000000E+00 0. -1.
         11    1    3    3    0    0  0.16146272485E+02 -0.48086256806E+01  0.56084723723E+01  0.17756124541E+02  0.51100000000E-03 0. -1.
        -11    1    3    3    0    0  0.18085774472E+02  0.11342255425E+02  0.97540217962E+01  0.23470895548E+02  0.51100000000E-03 0.  1.
        -12    1    3    3    0    0  0.38046965557E+01 -0.18623399964E+01  0.50092721146E+01  0.65602464330E+01  0.00000000000E+00 0.  1.
</event>
<event>
 7    1  0.5038211E-009  0.4778727E+02  0.7816164E-02  0.1312668E+00
        -11   -1    0    0    0    0  0.00000000000E+00  0.00000000000E+00  0.45593999997E+02  0.45594000000E+02  0.51100000000E-03 0. -1.
         11   -1    0    0    0    0 -0.00000000000E+00 -0.00000000000E+00 -0.45593999997E+02  0.45594000000E+02  0.51100000000E-03 0.  1.
    9900012    2    1    2    0    0  0.12610869389E+02  0.29524162980E+02 -0.29204673214E+02  0.47787272310E+02  0.20000005772E+02 0.  0.
         12    1    1    2    0    0 -0.12610869389E+02 -0.29524162980E+02  0.29204673214E+02  0.43400727690E+02  0.00000000000E+00 0. -1.
         11    1    3    3    0    0  0.47570933325E+00  0.78042397819E+00  0.28037560379E+00  0.95601866916E+00  0.51100000000E-03 0. -1.
        -11    1    3    3    0    0  0.22835437731E+00  0.23283347193E+02 -0.18762189539E+02  0.29902945654E+02  0.51100000000E-03 0.  1.
        -12    1    3    3    0    0  0.11906805679E+02  0.54603918086E+01 -0.10722859279E+02  0.16928307987E+02  0.00000000000E+00 0.  1.
</event>
<event>
 7    1  0.5038211E-009  0.4778727E+02  0.7816164E-02  0.1312668E+00
        -11   -1    0    0    0    0  0.00000000000E+00  0.00000000000E+00  0.45593999997E+02  0.45594000000E+02  0.51100000000E-03 0.  1.
         11   -1    0    0    0    0 -0.00000000000E+00 -0.00000000000E+00 -0.45593999997E+02  0.45594000000E+02  0.51100000000E-03 0. -1.
    9900012    2    1    2    0    0 -0.37272415524E+01  0.14521211773E+02  0.40729170738E+02  0.47787271089E+02  0.20000000205E+02 0.  0.
         12    1    1    2    0    0  0.37272415524E+01 -0.14521211773E+02 -0.40729170738E+02  0.43400728911E+02  0.00000000000E+00 0. -1.
         11    1    3    3    0    0 -0.34805170842E+01  0.47108383350E+01  0.26941432607E+02  0.27570759659E+02  0.51100000000E-03 0.  1.
        -11    1    3    3    0    0 -0.25849790162E+01  0.59623446926E+01  0.14277803313E+02  0.15687171143E+02  0.51100000000E-03 0. -1.
         12    1    3    3    0    0  0.23382545481E+01  0.38480287457E+01 -0.49006518202E+00  0.45293402877E+01  0.00000000000E+00 0. -1.
</event>
<event>
 7    1  0.5038211E-009  0.4778727E+02  0.7816164E-02  0.1312668E+00
        -11   -1    0    0    0    0  0.00000000000E+00  0.00000000000E+00  0.45593999997E+02  0.45594000000E+02  0.51100000000E-03 0. -1.
         11   -1    0    0    0    0 -0.00000000000E+00 -0.00000000000E+00 -0.45593999997E+02  0.45594000000E+02  0.51100000000E-03 0.  1.
    9900012    2    1    2    0    0  0.25493828886E+02  0.33867242536E+02  0.93111744870E+01  0.47787269608E+02  0.19999993449E+02 0.  0.
         12    1    1    2    0    0 -0.25493828886E+02 -0.33867242536E+02 -0.93111744870E+01  0.43400730392E+02  0.00000000000E+00 0. -1.
         11    1    3    3    0    0  0.11023586178E+02  0.59398715139E+01  0.63564941526E+01  0.14043024745E+02  0.51100000000E-03 0. -1.
        -11    1    3    3    0    0  0.10858759956E+02  0.24411964483E+02 -0.18486810902E+01  0.26781977144E+02  0.51100000000E-03 0.  1.
        -12    1    3    3    0    0  0.36114827523E+01  0.35154065390E+01  0.48033614246E+01  0.69622677182E+01  0.00000000000E+00 0.  1.
</event>
<event>
 7    1  0.5038211E-009  0.4778727E+02  0.7816164E-02  0.1312668E+00
        -11   -1    0    0    0    0  0.00000000000E+00  0.00000000000E+00  0.45593999997E+02  0.45594000000E+02  0.51100000000E-03 0.  1.
         11   -1    0    0    0    0 -0.00000000000E+00 -0.00000000000E+00 -0.45593999997E+02  0.45594000000E+02  0.51100000000E-03 0. -1.
    9900012    2    1    2    0    0  0.33504430043E+02  0.36514029341E+01  0.27344905937E+02  0.47787268939E+02  0.19999990403E+02 0.  0.
         12    1    1    2    0    0 -0.33504430043E+02 -0.36514029341E+01 -0.27344905937E+02  0.43400731061E+02  0.00000000000E+00 0. -1.
         11    1    3    3    0    0 -0.99862462125E+00  0.39338727258E+01  0.12652153500E+01  0.42512793251E+01  0.51100000000E-03 0. -1.
        -11    1    3    3    0    0  0.23732647307E+02 -0.18810071851E+01  0.19812514581E+02  0.30972769823E+02  0.51100000000E-03 0.  1.
         12    1    3    3    0    0  0.10770407357E+02  0.15985373934E+01  0.62671760063E+01  0.12563219792E+02  0.00000000000E+00 0. -1.
</event>
<event>
 7    1  0.5038211E-009  0.4778727E+02  0.7816164E-02  0.1312668E+00
        -11   -1    0    0    0    0  0.00000000000E+00  0.00000000000E+00  0.45593999997E+02  0.45594000000E+02  0.51100000000E-03 0.  1.
         11   -1    0    0    0    0 -0.00000000000E+00 -0.00000000000E+00 -0.45593999997E+02  0.45594000000E+02  0.51100000000E-03 0. -1.
    9900012    2    1    2    0    0  0.15262975380E+01  0.39825129147E+02  0.17182920667E+02  0.47787271223E+02  0.20000000815E+02 0.  0.
         12    1    1    2    0    0 -0.15262975380E+01 -0.39825129147E+02 -0.17182920667E+02  0.43400728777E+02  0.00000000000E+00 0. -1.
         11    1    3    3    0    0 -0.32466782151E+00 -0.70953932983E-01  0.16040667212E+01  0.16381312408E+01  0.51100000000E-03 0.  1.
        -11    1    3    3    0    0 -0.14803000354E+01  0.38850688894E+01 -0.33416366416E+01  0.53340026411E+01  0.51100000000E-03 0. -1.
        -12    1    3    3    0    0  0.33312653948E+01  0.36011014190E+02  0.18920490587E+02  0.40815137341E+02  0.00000000000E+00 0.  1.
</event>
<event>
 7    1  0.5038211E-009  0.4778727E+02  0.7816164E-02  0.1312668E+00
        -11   -1    0    0    0    0  0.00000000000E+00  0.00000000000E+00  0.45593999997E+02  0.45594000000E+02  0.51100000000E-03 0.  1.
         11   -1    0    0    0    0 -0.00000000000E+00 -0.00000000000E+00 -0.45593999997E+02  0.45594000000E+02  0.51100000000E-03 0. -1.
    9900012    2    1    2    0    0 -0.30888388446E+02 -0.30361519162E+02 -0.27765008209E+01  0.47787270243E+02  0.19999996345E+02 0.  0.
         12    1    1    2    0    0  0.30888388446E+02  0.30361519162E+02  0.27765008209E+01  0.43400729757E+02  0.00000000000E+00 0. -1.
         11    1    3    3    0    0 -0.20265865332E+02 -0.17792109899E+02 -0.10476111787E+02  0.28931183708E+02  0.51100000000E-03 0. -1.
        -11    1    3    3    0    0 -0.18108540997E+01 -0.51251018206E+01  0.39763862952E+01  0.67347983988E+01  0.51100000000E-03 0.  1.
         12    1    3    3    0    0 -0.88116690152E+01 -0.74443074424E+01  0.37232246710E+01  0.12121288136E+02  0.00000000000E+00 0. -1.
</event>
<event>
 7    1  0.5038211E-009  0.4778727E+02  0.7816164E-02  0.1312668E+00
        -11   -1    0    0    0    0  0.00000000000E+00  0.00000000000E+00  0.45593999997E+02  0.45594000000E+02  0.51100000000E-03 0.  1.
         11   -1    0    0    0    0 -0.00000000000E+00 -0.00000000000E+00 -0.45593999997E+02  0.45594000000E+02  0.51100000000E-03 0. -1.
    9900012    2    1    2    0    0 -0.30288655311E+02  0.80963153074E+01  0.30011167462E+02  0.47787272650E+02  0.20000007320E+02 0.  0.
         12    1    1    2    0    0  0.30288655311E+02 -0.80963153074E+01 -0.30011167462E+02  0.43400727350E+02  0.00000000000E+00 0. -1.
         11    1    3    3    0    0 -0.11795086359E+02 -0.45954941422E+01  0.16518525299E+02  0.20811158231E+02  0.51100000000E-03 0. -1.
        -11    1    3    3    0    0 -0.17989830623E+02  0.12413950365E+02  0.14199567202E+02  0.26064686426E+02  0.51100000000E-03 0.  1.
         12    1    3    3    0    0 -0.50373832932E+00  0.27785908496E+00 -0.70692503898E+00  0.91142799291E+00  0.00000000000E+00 0. -1.
</event>
<event>
 7    1  0.5038211E-009  0.4778729E+02  0.7816164E-02  0.1312668E+00
        -11   -1    0    0    0    0  0.00000000000E+00  0.00000000000E+00  0.45593999997E+02  0.45594000000E+02  0.51100000000E-03 0.  1.
         11   -1    0    0    0    0 -0.00000000000E+00 -0.00000000000E+00 -0.45593999997E+02  0.45594000000E+02  0.51100000000E-03 0. -1.
    9900012    2    1    2    0    0 -0.91855160834E+01 -0.29095357662E+01  0.42317643218E+02  0.47787285355E+02  0.20000065250E+02 0.  0.
         12    1    1    2    0    0  0.91855160834E+01  0.29095357662E+01 -0.42317643218E+02  0.43400714645E+02  0.00000000000E+00 0. -1.
         11    1    3    3    0    0  0.23229495301E+01  0.18170901510E+01  0.62023443044E-01  0.29498742862E+01  0.51100000000E-03 0. -1.
        -11    1    3    3    0    0 -0.96650598939E+01 -0.38385196481E+01  0.20510824772E+02  0.22996555154E+02  0.51100000000E-03 0.  1.
         12    1    3    3    0    0 -0.18434057195E+01 -0.88810626903E+00  0.21744795003E+02  0.21840855916E+02  0.00000000000E+00 0. -1.
</event>
<event>
 7    1  0.5038211E-009  0.4778727E+02  0.7816164E-02  0.1312668E+00
        -11   -1    0    0    0    0  0.00000000000E+00  0.00000000000E+00  0.45593999997E+02  0.45594000000E+02  0.51100000000E-03 0.  1.
         11   -1    0    0    0    0 -0.00000000000E+00 -0.00000000000E+00 -0.45593999997E+02  0.45594000000E+02  0.51100000000E-03 0. -1.
    9900012    2    1    2    0    0 -0.76613709371E+01  0.37422817946E+02  0.20602417265E+02  0.47787268384E+02  0.19999987871E+02 0.  0.
         12    1    1    2    0    0  0.76613709371E+01 -0.37422817946E+02 -0.20602417265E+02  0.43400731616E+02  0.00000000000E+00 0. -1.
         11    1    3    3    0    0 -0.37509989641E+01  0.55136979740E+01  0.12394649524E+02  0.14074736078E+02  0.51100000000E-03 0. -1.
        -11    1    3    3    0    0 -0.32770446984E+01  0.31621090544E+02  0.85738775098E+01  0.32926338469E+02  0.51100000000E-03 0.  1.
        -12    1    3    3    0    0 -0.63332727463E+00  0.28802942780E+00 -0.36610976884E+00  0.78619383800E+00  0.00000000000E+00 0.  1.
</event>
<event>
 7    1  0.5038211E-009  0.4778727E+02  0.7816164E-02  0.1312668E+00
        -11   -1    0    0    0    0  0.00000000000E+00  0.00000000000E+00  0.45593999997E+02  0.45594000000E+02  0.51100000000E-03 0.  1.
         11   -1    0    0    0    0 -0.00000000000E+00 -0.00000000000E+00 -0.45593999997E+02  0.45594000000E+02  0.51100000000E-03 0. -1.
    9900012    2    1    2    0    0 -0.41888084445E+02  0.81093513600E+01 -0.79530108008E+01  0.47787267532E+02  0.19999983987E+02 0.  0.
         12    1    1    2    0    0  0.41888084445E+02 -0.81093513600E+01  0.79530108008E+01  0.43400732468E+02  0.00000000000E+00 0. -1.
         11    1    3    3    0    0  0.10634232708E+01 -0.22345074908E+01  0.44063384739E+00  0.25135733981E+01  0.51100000000E-03 0. -1.
        -11    1    3    3    0    0 -0.30803306704E+02  0.62635949646E+01 -0.80763662144E+01  0.32454645542E+02  0.51100000000E-03 0.  1.
         12    1    3    3    0    0 -0.12148201012E+02  0.40802638862E+01 -0.31727843381E+00  0.12819048592E+02  0.00000000000E+00 0. -1.
</event>
<event>
 7    1  0.5038211E-009  0.4778727E+02  0.7816164E-02  0.1312668E+00
        -11   -1    0    0    0    0  0.00000000000E+00  0.00000000000E+00  0.45593999997E+02  0.45594000000E+02  0.51100000000E-03 0.  1.
         11   -1    0    0    0    0 -0.00000000000E+00 -0.00000000000E+00 -0.45593999997E+02  0.45594000000E+02  0.51100000000E-03 0. -1.
    9900012    2    1    2    0    0  0.15152747346E+02  0.14121010638E+02  0.38139410418E+02  0.47787270506E+02  0.19999997544E+02 0.  0.
         12    1    1    2    0    0 -0.15152747346E+02 -0.14121010638E+02 -0.38139410418E+02  0.43400729494E+02  0.00000000000E+00 0. -1.
         11    1    3    3    0    0  0.23991656143E+01  0.39731798318E+01  0.66487580416E+01  0.81085225150E+01  0.51100000000E-03 0.  1.
        -11    1    3    3    0    0  0.37924929655E+01  0.18334580339E+01 -0.15193329987E+01  0.44780513929E+01  0.51100000000E-03 0. -1.
        -12    1    3    3    0    0  0.89610887666E+01  0.83143727719E+01  0.33009985376E+02  0.35200696598E+02  0.00000000000E+00 0.  1.
</event>
<event>
 7    1  0.5038211E-009  0.4778728E+02  0.7816164E-02  0.1312668E+00
        -11   -1    0    0    0    0  0.00000000000E+00  0.00000000000E+00  0.45593999997E+02  0.45594000000E+02  0.51100000000E-03 0.  1.
         11   -1    0    0    0    0 -0.00000000000E+00 -0.00000000000E+00 -0.45593999997E+02  0.45594000000E+02  0.51100000000E-03 0. -1.
    9900012    2    1    2    0    0  0.25735622590E+02  0.34496162341E+02 -0.55960123857E+01  0.47787276032E+02  0.20000022738E+02 0.  0.
         12    1    1    2    0    0 -0.25735622590E+02 -0.34496162341E+02  0.55960123857E+01  0.43400723968E+02  0.00000000000E+00 0. -1.
         11    1    3    3    0    0  0.69469739768E+01  0.45644542783E+01  0.50837184913E+01  0.97436586687E+01  0.51100000000E-03 0. -1.
        -11    1    3    3    0    0  0.16279240898E+02  0.24439434106E+02 -0.12229132339E+02  0.31809610209E+02  0.51100000000E-03 0.  1.
        -12    1    3    3    0    0  0.25094077158E+01  0.54922739569E+01  0.15494014623E+01  0.62340071537E+01  0.00000000000E+00 0.  1.
</event>
<event>
 7    1  0.5038211E-009  0.4778727E+02  0.7816164E-02  0.1312668E+00
        -11   -1    0    0    0    0  0.00000000000E+00  0.00000000000E+00  0.45593999997E+02  0.45594000000E+02  0.51100000000E-03 0. -1.
         11   -1    0    0    0    0 -0.00000000000E+00 -0.00000000000E+00 -0.45593999997E+02  0.45594000000E+02  0.51100000000E-03 0.  1.
    9900012    2    1    2    0    0  0.30650357047E+02  0.27393219529E+02 -0.13920863308E+02  0.47787270760E+02  0.19999998705E+02 0.  0.
         12    1    1    2    0    0 -0.30650357047E+02 -0.27393219529E+02  0.13920863308E+02  0.43400729240E+02  0.00000000000E+00 0. -1.
         11    1    3    3    0    0  0.87384719584E+01  0.28409304725E+01  0.33737295786E+01  0.97884538946E+01  0.51100000000E-03 0. -1.
        -11    1    3    3    0    0  0.10036894965E+02  0.15563915364E+02 -0.12537591647E+02  0.22364389698E+02  0.51100000000E-03 0.  1.
         12    1    3    3    0    0  0.11874990123E+02  0.89883736932E+01 -0.47570012402E+01  0.15634427168E+02  0.00000000000E+00 0. -1.
</event>
<event>
 7    1  0.5038211E-009  0.4778728E+02  0.7816164E-02  0.1312668E+00
        -11   -1    0    0    0    0  0.00000000000E+00  0.00000000000E+00  0.45593999997E+02  0.45594000000E+02  0.51100000000E-03 0. -1.
         11   -1    0    0    0    0 -0.00000000000E+00 -0.00000000000E+00 -0.45593999997E+02  0.45594000000E+02  0.51100000000E-03 0.  1.
    9900012    2    1    2    0    0  0.38775231856E+02 -0.19475492466E+02 -0.89964364959E+00  0.47787276839E+02  0.20000026418E+02 0.  0.
         12    1    1    2    0    0 -0.38775231856E+02  0.19475492466E+02  0.89964364959E+00  0.43400723161E+02  0.00000000000E+00 0. -1.
         11    1    3    3    0    0  0.11963697135E+02 -0.36475333844E+01 -0.58385778486E+01  0.13803026497E+02  0.51100000000E-03 0. -1.
        -11    1    3    3    0    0  0.27212233575E+02 -0.15624013466E+02  0.67684721060E+01  0.32100275199E+02  0.51100000000E-03 0.  1.
         12    1    3    3    0    0 -0.40069885432E+00 -0.20394561519E+00 -0.18295379070E+01  0.18839751428E+01  0.00000000000E+00 0. -1.
</event>
<event>
 7    1  0.5038211E-009  0.4778727E+02  0.7816164E-02  0.1312668E+00
        -11   -1    0    0    0    0  0.00000000000E+00  0.00000000000E+00  0.45593999997E+02  0.45594000000E+02  0.51100000000E-03 0. -1.
         11   -1    0    0    0    0 -0.00000000000E+00 -0.00000000000E+00 -0.45593999997E+02  0.45594000000E+02  0.51100000000E-03 0.  1.
    9900012    2    1    2    0    0  0.38738286148E+02  0.91720461442E+01 -0.17287049730E+02  0.47787270369E+02  0.19999996921E+02 0.  0.
         12    1    1    2    0    0 -0.38738286148E+02 -0.91720461442E+01  0.17287049730E+02  0.43400729631E+02  0.00000000000E+00 0. -1.
         11    1    3    3    0    0  0.40805900792E+01  0.18294306563E+01  0.33470955412E+01  0.55857927588E+01  0.51100000000E-03 0. -1.
        -11    1    3    3    0    0  0.26236763914E+02  0.10662561280E+01 -0.15739453555E+02  0.30614295375E+02  0.51100000000E-03 0.  1.
         12    1    3    3    0    0  0.84209321541E+01  0.62763593599E+01 -0.48946917159E+01  0.11587182235E+02  0.00000000000E+00 0. -1.
</event>
<event>
 7    1  0.5038211E-009  0.4778727E+02  0.7816164E-02  0.1312668E+00
        -11   -1    0    0    0    0  0.00000000000E+00  0.00000000000E+00  0.45593999997E+02  0.45594000000E+02  0.51100000000E-03 0. -1.
         11   -1    0    0    0    0 -0.00000000000E+00 -0.00000000000E+00 -0.45593999997E+02  0.45594000000E+02  0.51100000000E-03 0.  1.
    9900012    2    1    2    0    0  0.41991374737E+02 -0.85975289075E+01  0.68139733438E+01  0.47787270878E+02  0.19999999239E+02 0.  0.
         12    1    1    2    0    0 -0.41991374737E+02  0.85975289075E+01 -0.68139733438E+01  0.43400729122E+02  0.00000000000E+00 0. -1.
         11    1    3    3    0    0 -0.40881243616E-01  0.18969599292E+01 -0.18731626554E+01  0.26662458333E+01  0.51100000000E-03 0. -1.
        -11    1    3    3    0    0  0.28939436106E+02 -0.29882006361E+01  0.43380230018E+01  0.29414940915E+02  0.51100000000E-03 0.  1.
         12    1    3    3    0    0  0.13092819875E+02 -0.75062882006E+01  0.43491129974E+01  0.15706084129E+02  0.00000000000E+00 0. -1.
</event>
<event>
 7    1  0.5038211E-009  0.4778728E+02  0.7816164E-02  0.1312668E+00
        -11   -1    0    0    0    0  0.00000000000E+00  0.00000000000E+00  0.45593999997E+02  0.45594000000E+02  0.51100000000E-03 0. -1.
         11   -1    0    0    0    0 -0.00000000000E+00 -0.00000000000E+00 -0.45593999997E+02  0.45594000000E+02  0.51100000000E-03 0.  1.
    9900012    2    1    2    0    0 -0.35858051092E+00 -0.42011240907E+02  0.10888055131E+02  0.47787277805E+02  0.20000030824E+02 0.  0.
         12    1    1    2    0    0  0.35858051092E+00  0.42011240907E+02 -0.10888055131E+02  0.43400722195E+02  0.00000000000E+00 0. -1.
         11    1    3    3    0    0 -0.82746617697E+01 -0.14165564718E+02  0.82331597336E+01  0.18355330850E+02  0.51100000000E-03 0. -1.
        -11    1    3    3    0    0  0.35839362235E+01 -0.10876451471E+02 -0.11519198516E+01  0.11509505422E+02  0.51100000000E-03 0.  1.
         12    1    3    3    0    0  0.43321450353E+01 -0.16969224718E+02  0.38068152491E+01  0.17922441533E+02  0.00000000000E+00 0. -1.
</event>
<event>
 7    1  0.5038211E-009  0.4778727E+02  0.7816164E-02  0.1312668E+00
        -11   -1    0    0    0    0  0.00000000000E+00  0.00000000000E+00  0.45593999997E+02  0.45594000000E+02  0.51100000000E-03 0.  1.
         11   -1    0    0    0    0 -0.00000000000E+00 -0.00000000000E+00 -0.45593999997E+02  0.45594000000E+02  0.51100000000E-03 0. -1.
    9900012    2    1    2    0    0 -0.11346675714E+02 -0.91476437033E+00  0.41881254334E+02  0.47787270649E+02  0.19999998197E+02 0.  0.
         12    1    1    2    0    0  0.11346675714E+02  0.91476437033E+00 -0.41881254334E+02  0.43400729351E+02  0.00000000000E+00 0. -1.
         11    1    3    3    0    0  0.40335662862E+01  0.15457474344E+00  0.25950534900E+01  0.47987345429E+01  0.51100000000E-03 0. -1.
        -11    1    3    3    0    0 -0.13448194140E+02 -0.33390583334E+01  0.27025520061E+02  0.30370742022E+02  0.51100000000E-03 0.  1.
         12    1    3    3    0    0 -0.19320478603E+01  0.22697192197E+01  0.12260680783E+02  0.12617794084E+02  0.00000000000E+00 0. -1.
</event>
<event>
 7    1  0.5038211E-009  0.4778727E+02  0.7816164E-02  0.1312668E+00
        -11   -1    0    0    0    0  0.00000000000E+00  0.00000000000E+00  0.45593999997E+02  0.45594000000E+02  0.51100000000E-03 0.  1.
         11   -1    0    0    0    0 -0.00000000000E+00 -0.00000000000E+00 -0.45593999997E+02  0.45594000000E+02  0.51100000000E-03 0. -1.
    9900012    2    1    2    0    0  0.23864224528E+02  0.35399150218E+02  0.78116801871E+01  0.47787269640E+02  0.19999993595E+02 0.  0.
         12    1    1    2    0    0 -0.23864224528E+02 -0.35399150218E+02 -0.78116801871E+01  0.43400730360E+02  0.00000000000E+00 0. -1.
         11    1    3    3    0    0  0.11423678145E+02  0.75621431971E+01  0.65244829592E+01  0.15174165883E+02  0.51100000000E-03 0. -1.
        -11    1    3    3    0    0  0.13112804421E+02  0.28125812773E+02  0.25675997331E+01  0.31138393545E+02  0.51100000000E-03 0.  1.
         12    1    3    3    0    0 -0.67225803801E+00 -0.28880575271E+00 -0.12804025051E+01  0.14747102114E+01  0.00000000000E+00 0. -1.
</event>
<event>
 7    1  0.5038211E-009  0.4778727E+02  0.7816164E-02  0.1312668E+00
        -11   -1    0    0    0    0  0.00000000000E+00  0.00000000000E+00  0.45593999997E+02  0.45594000000E+02  0.51100000000E-03 0. -1.
         11   -1    0    0    0    0 -0.00000000000E+00 -0.00000000000E+00 -0.45593999997E+02  0.45594000000E+02  0.51100000000E-03 0.  1.
    9900012    2    1    2    0    0 -0.16912412322E+02 -0.14694162871E+02 -0.37170892929E+02  0.47787269659E+02  0.19999993683E+02 0.  0.
         12    1    1    2    0    0  0.16912412322E+02  0.14694162871E+02  0.37170892929E+02  0.43400730341E+02  0.00000000000E+00 0. -1.
         11    1    3    3    0    0 -0.13016383877E+02 -0.11955806819E+02 -0.24939078931E+02  0.30566733946E+02  0.51100000000E-03 0. -1.
        -11    1    3    3    0    0 -0.48744043264E+01 -0.28137392951E+01 -0.14060548349E+02  0.15145163138E+02  0.51100000000E-03 0.  1.
         12    1    3    3    0    0  0.97837588191E+00  0.75383243153E-01  0.18287343506E+01  0.20753725749E+01  0.00000000000E+00 0. -1.
</event>
<event>
 7    1  0.5038211E-009  0.4778727E+02  0.7816164E-02  0.1312668E+00
        -11   -1    0    0    0    0  0.00000000000E+00  0.00000000000E+00  0.45593999997E+02  0.45594000000E+02  0.51100000000E-03 0.  1.
         11   -1    0    0    0    0 -0.00000000000E+00 -0.00000000000E+00 -0.45593999997E+02  0.45594000000E+02  0.51100000000E-03 0. -1.
    9900012    2    1    2    0    0 -0.18922030831E+02 -0.34929084802E+02  0.17479680918E+02  0.47787268890E+02  0.19999990179E+02 0.  0.
         12    1    1    2    0    0  0.18922030831E+02  0.34929084802E+02 -0.17479680918E+02  0.43400731110E+02  0.00000000000E+00 0. -1.
         11    1    3    3    0    0 -0.80090680080E+01 -0.17892814266E+02  0.16825734926E+02  0.25834150436E+02  0.51100000000E-03 0.  1.
        -11    1    3    3    0    0 -0.26031442277E+01 -0.11091017927E+02 -0.15591334557E+01  0.11498605825E+02  0.51100000000E-03 0. -1.
         12    1    3    3    0    0 -0.83098185949E+01 -0.59452526085E+01  0.22130794484E+01  0.10454512629E+02  0.00000000000E+00 0. -1.
</event>
<event>
 7    1  0.5038211E-009  0.4778727E+02  0.7816164E-02  0.1312668E+00
        -11   -1    0    0    0    0  0.00000000000E+00  0.00000000000E+00  0.45593999997E+02  0.45594000000E+02  0.51100000000E-03 0.  1.
         11   -1    0    0    0    0 -0.00000000000E+00 -0.00000000000E+00 -0.45593999997E+02  0.45594000000E+02  0.51100000000E-03 0. -1.
    9900012    2    1    2    0    0  0.57452991179E+01  0.21017507605E+02  0.37535037597E+02  0.47787272641E+02  0.20000007278E+02 0.  0.
         12    1    1    2    0    0 -0.57452991179E+01 -0.21017507605E+02 -0.37535037597E+02  0.43400727359E+02  0.00000000000E+00 0. -1.
         11    1    3    3    0    0 -0.22875036847E+01  0.36567142124E+01  0.12214390121E+02  0.12953592484E+02  0.51100000000E-03 0. -1.
        -11    1    3    3    0    0  0.85700368234E+01  0.18317562147E+02  0.16937746460E+02  0.26379269694E+02  0.51100000000E-03 0.  1.
        -12    1    3    3    0    0 -0.53723402082E+00 -0.95676875448E+00  0.83829010158E+01  0.84544104634E+01  0.00000000000E+00 0.  1.
</event>
<event>
 7    1  0.5038211E-009  0.4778726E+02  0.7816164E-02  0.1312668E+00
        -11   -1    0    0    0    0  0.00000000000E+00  0.00000000000E+00  0.45593999997E+02  0.45594000000E+02  0.51100000000E-03 0.  1.
         11   -1    0    0    0    0 -0.00000000000E+00 -0.00000000000E+00 -0.45593999997E+02  0.45594000000E+02  0.51100000000E-03 0. -1.
    9900012    2    1    2    0    0  0.22964069953E+02 -0.36736336633E+02  0.25917232845E+01  0.47787263053E+02  0.19999963562E+02 0.  0.
         12    1    1    2    0    0 -0.22964069953E+02  0.36736336633E+02 -0.25917232845E+01  0.43400736947E+02  0.00000000000E+00 0. -1.
         11    1    3    3    0    0  0.14266468995E+02 -0.79181805349E+01 -0.32961193936E+01  0.16646144415E+02  0.51100000000E-03 0. -1.
        -11    1    3    3    0    0  0.17451191909E+01 -0.49988910006E+01  0.31905789777E+01  0.61817591914E+01  0.51100000000E-03 0.  1.
         12    1    3    3    0    0  0.69524817670E+01 -0.23819265097E+02  0.26972637004E+01  0.24959359446E+02  0.00000000000E+00 0. -1.
</event>
<event>
 7    1  0.5038211E-009  0.4778727E+02  0.7816164E-02  0.1312668E+00
        -11   -1    0    0    0    0  0.00000000000E+00  0.00000000000E+00  0.45593999997E+02  0.45594000000E+02  0.51100000000E-03 0. -1.
         11   -1    0    0    0    0 -0.00000000000E+00 -0.00000000000E+00 -0.45593999997E+02  0.45594000000E+02  0.51100000000E-03 0.  1.
    9900012    2    1    2    0    0 -0.30273818353E+02 -0.25246681313E+02 -0.18158308270E+02  0.47787272423E+02  0.20000006284E+02 0.  0.
         12    1    1    2    0    0  0.30273818353E+02  0.25246681313E+02  0.18158308270E+02  0.43400727577E+02  0.00000000000E+00 0. -1.
         11    1    3    3    0    0 -0.10701451622E+01  0.20023366968E+01  0.15520151681E+01  0.27501480431E+01  0.51100000000E-03 0. -1.
        -11    1    3    3    0    0 -0.26227230985E+02 -0.26773909807E+02 -0.18341825509E+02  0.41726879284E+02  0.51100000000E-03 0.  1.
        -12    1    3    3    0    0 -0.29764422063E+01 -0.47510820269E+00 -0.13684979294E+01  0.33102450959E+01  0.00000000000E+00 0.  1.
</event>
<event>
 7    1  0.5038211E-009  0.4778727E+02  0.7816164E-02  0.1312668E+00
        -11   -1    0    0    0    0  0.00000000000E+00  0.00000000000E+00  0.45593999997E+02  0.45594000000E+02  0.51100000000E-03 0.  1.
         11   -1    0    0    0    0 -0.00000000000E+00 -0.00000000000E+00 -0.45593999997E+02  0.45594000000E+02  0.51100000000E-03 0. -1.
    9900012    2    1    2    0    0  0.72282797852E+01 -0.12723401530E+02  0.40859400899E+02  0.47787267092E+02  0.19999981979E+02 0.  0.
         12    1    1    2    0    0 -0.72282797852E+01  0.12723401530E+02 -0.40859400899E+02  0.43400732908E+02  0.00000000000E+00 0. -1.
         11    1    3    3    0    0  0.56583136060E+01  0.35514552176E+01  0.17693315099E+02  0.18912502386E+02  0.51100000000E-03 0. -1.
        -11    1    3    3    0    0 -0.10883976820E+01 -0.99505419401E+00  0.37176452498E+01  0.39994535662E+01  0.51100000000E-03 0.  1.
         12    1    3    3    0    0  0.26583638611E+01 -0.15279802554E+02  0.19448440549E+02  0.24875311140E+02  0.00000000000E+00 0. -1.
</event>
<event>
 7    1  0.5038211E-009  0.4778727E+02  0.7816164E-02  0.1312668E+00
        -11   -1    0    0    0    0  0.00000000000E+00  0.00000000000E+00  0.45593999997E+02  0.45594000000E+02  0.51100000000E-03 0. -1.
         11   -1    0    0    0    0 -0.00000000000E+00 -0.00000000000E+00 -0.45593999997E+02  0.45594000000E+02  0.51100000000E-03 0.  1.
    9900012    2    1    2    0    0 -0.14707437100E+02  0.95519243565E+01 -0.39699816272E+02  0.47787269857E+02  0.19999994585E+02 0.  0.
         12    1    1    2    0    0  0.14707437100E+02 -0.95519243565E+01  0.39699816272E+02  0.43400730143E+02  0.00000000000E+00 0. -1.
         11    1    3    3    0    0 -0.58447823810E+01  0.40416585370E+01 -0.36563433435E+01  0.79915788000E+01  0.51100000000E-03 0.  1.
        -11    1    3    3    0    0 -0.66308296302E+01 -0.34873902197E+01 -0.13911349416E+02  0.15800488441E+02  0.51100000000E-03 0. -1.
        -12    1    3    3    0    0 -0.22318250885E+01  0.89976560392E+01 -0.22132123512E+02  0.23995202616E+02  0.00000000000E+00 0.  1.
</event>
<event>
 7    1  0.5038211E-009  0.4778730E+02  0.7816164E-02  0.1312668E+00
        -11   -1    0    0    0    0  0.00000000000E+00  0.00000000000E+00  0.45593999997E+02  0.45594000000E+02  0.51100000000E-03 0. -1.
         11   -1    0    0    0    0 -0.00000000000E+00 -0.00000000000E+00 -0.45593999997E+02  0.45594000000E+02  0.51100000000E-03 0.  1.
    9900012    2    1    2    0    0 -0.10003147521E+02  0.42162408064E+02 -0.24267860775E+01  0.47787298338E+02  0.20000124443E+02 0.  0.
         12    1    1    2    0    0  0.10003147521E+02 -0.42162408064E+02  0.24267860775E+01  0.43400701662E+02  0.00000000000E+00 0. -1.
         11    1    3    3    0    0  0.18895123746E+01 -0.75095863900E+00 -0.50091976068E+00  0.20940670378E+01  0.51100000000E-03 0. -1.
        -11    1    3    3    0    0 -0.12712614647E+02  0.42988879838E+02 -0.18986145284E+01  0.44869355893E+02  0.51100000000E-03 0.  1.
        -12    1    3    3    0    0  0.81995475056E+00 -0.75513135510E-01 -0.27251788421E-01  0.82387540719E+00  0.00000000000E+00 0.  1.
</event>
<event>
 7    1  0.5038211E-009  0.4778727E+02  0.7816164E-02  0.1312668E+00
        -11   -1    0    0    0    0  0.00000000000E+00  0.00000000000E+00  0.45593999997E+02  0.45594000000E+02  0.51100000000E-03 0.  1.
         11   -1    0    0    0    0 -0.00000000000E+00 -0.00000000000E+00 -0.45593999997E+02  0.45594000000E+02  0.51100000000E-03 0. -1.
    9900012    2    1    2    0    0  0.41928081200E+02 -0.83803249396E+01 -0.74451182358E+01  0.47787267002E+02  0.19999981569E+02 0.  0.
         12    1    1    2    0    0 -0.41928081200E+02  0.83803249396E+01  0.74451182358E+01  0.43400732998E+02  0.00000000000E+00 0. -1.
         11    1    3    3    0    0  0.40244893880E+01 -0.47551426904E+01 -0.53815100748E+01  0.82321654372E+01  0.51100000000E-03 0. -1.
        -11    1    3    3    0    0  0.37414918474E+02 -0.40057676256E+01 -0.36953474387E+01  0.37809759212E+02  0.51100000000E-03 0.  1.
        -12    1    3    3    0    0  0.48867333820E+00  0.38058537629E+00  0.16317392777E+01  0.17453423533E+01  0.00000000000E+00 0.  1.
</event>
<event>
 7    1  0.5038211E-009  0.4778728E+02  0.7816164E-02  0.1312668E+00
        -11   -1    0    0    0    0  0.00000000000E+00  0.00000000000E+00  0.45593999997E+02  0.45594000000E+02  0.51100000000E-03 0.  1.
         11   -1    0    0    0    0 -0.00000000000E+00 -0.00000000000E+00 -0.45593999997E+02  0.45594000000E+02  0.51100000000E-03 0. -1.
    9900012    2    1    2    0    0  0.18855532044E+02  0.27190517670E+02  0.28085006068E+02  0.47787275287E+02  0.20000019341E+02 0.  0.
         12    1    1    2    0    0 -0.18855532044E+02 -0.27190517670E+02 -0.28085006068E+02  0.43400724713E+02  0.00000000000E+00 0. -1.
         11    1    3    3    0    0  0.31134699678E+01  0.10103730657E+02  0.27336927680E+01  0.10920263039E+02  0.51100000000E-03 0. -1.
        -11    1    3    3    0    0  0.11213167429E+02  0.31767357822E+01  0.14760814636E+02  0.18807137555E+02  0.51100000000E-03 0.  1.
        -12    1    3    3    0    0  0.45288946472E+01  0.13910051231E+02  0.10590498663E+02  0.18059874692E+02  0.00000000000E+00 0.  1.
</event>
<event>
 7    1  0.5038211E-009  0.4778727E+02  0.7816164E-02  0.1312668E+00
        -11   -1    0    0    0    0  0.00000000000E+00  0.00000000000E+00  0.45593999997E+02  0.45594000000E+02  0.51100000000E-03 0.  1.
         11   -1    0    0    0    0 -0.00000000000E+00 -0.00000000000E+00 -0.45593999997E+02  0.45594000000E+02  0.51100000000E-03 0. -1.
    9900012    2    1    2    0    0 -0.38856397777E+02 -0.27869192308E+01  0.19132085900E+02  0.47787270998E+02  0.19999999788E+02 0.  0.
         12    1    1    2    0    0  0.38856397777E+02  0.27869192308E+01 -0.19132085900E+02  0.43400729002E+02  0.00000000000E+00 0. -1.
         11    1    3    3    0    0  0.19505469996E+01 -0.86759080247E+00  0.26290702959E+01  0.33866441030E+01  0.51100000000E-03 0. -1.
        -11    1    3    3    0    0 -0.27298874232E+02  0.13086954085E+01  0.11094772121E+02  0.29496358871E+02  0.51100000000E-03 0.  1.
         12    1    3    3    0    0 -0.13508070545E+02 -0.32280238369E+01  0.54082434830E+01  0.14904268023E+02  0.00000000000E+00 0. -1.
</event>
<event>
 7    1  0.5038211E-009  0.4778727E+02  0.7816164E-02  0.1312668E+00
        -11   -1    0    0    0    0  0.00000000000E+00  0.00000000000E+00  0.45593999997E+02  0.45594000000E+02  0.51100000000E-03 0. -1.
         11   -1    0    0    0    0 -0.00000000000E+00 -0.00000000000E+00 -0.45593999997E+02  0.45594000000E+02  0.51100000000E-03 0.  1.
    9900012    2    1    2    0    0  0.43025749809E+02 -0.17758757164E+01  0.54087274795E+01  0.47787271733E+02  0.20000003138E+02 0.  0.
         12    1    1    2    0    0 -0.43025749809E+02  0.17758757164E+01 -0.54087274795E+01  0.43400728267E+02  0.00000000000E+00 0. -1.
         11    1    3    3    0    0  0.21493530444E+02 -0.68633854572E+01 -0.47904016891E+01  0.23065685758E+02  0.51100000000E-03 0. -1.
        -11    1    3    3    0    0  0.20828832735E+02  0.40094096906E+01  0.93573506191E+01  0.23183521088E+02  0.51100000000E-03 0.  1.
        -12    1    3    3    0    0  0.70338663043E+00  0.10781000502E+01  0.84177854952E+00  0.15380648870E+01  0.00000000000E+00 0.  1.
</event>
<event>
 7    1  0.5038211E-009  0.4778727E+02  0.7816164E-02  0.1312668E+00
        -11   -1    0    0    0    0  0.00000000000E+00  0.00000000000E+00  0.45593999997E+02  0.45594000000E+02  0.51100000000E-03 0.  1.
         11   -1    0    0    0    0 -0.00000000000E+00 -0.00000000000E+00 -0.45593999997E+02  0.45594000000E+02  0.51100000000E-03 0. -1.
    9900012    2    1    2    0    0 -0.23997044061E+02 -0.20740147219E+02  0.29624510025E+02  0.47787269309E+02  0.19999992086E+02 0.  0.
         12    1    1    2    0    0  0.23997044061E+02  0.20740147219E+02 -0.29624510025E+02  0.43400730691E+02  0.00000000000E+00 0. -1.
         11    1    3    3    0    0 -0.13934037480E+02 -0.51597813626E+01  0.51275231137E+01  0.15718531666E+02  0.51100000000E-03 0. -1.
        -11    1    3    3    0    0 -0.84753161481E+01 -0.79955098927E+01  0.89315691809E+01  0.14681011224E+02  0.51100000000E-03 0.  1.
         12    1    3    3    0    0 -0.15876904335E+01 -0.75848559637E+01  0.15565417730E+02  0.17387726419E+02  0.00000000000E+00 0. -1.
</event>
<event>
 7    1  0.5038211E-009  0.4778727E+02  0.7816164E-02  0.1312668E+00
        -11   -1    0    0    0    0  0.00000000000E+00  0.00000000000E+00  0.45593999997E+02  0.45594000000E+02  0.51100000000E-03 0.  1.
         11   -1    0    0    0    0 -0.00000000000E+00 -0.00000000000E+00 -0.45593999997E+02  0.45594000000E+02  0.51100000000E-03 0. -1.
    9900012    2    1    2    0    0 -0.19759659731E+02  0.34374931126E+02 -0.17650582096E+02  0.47787273152E+02  0.20000009609E+02 0.  0.
         12    1    1    2    0    0  0.19759659731E+02 -0.34374931126E+02  0.17650582096E+02  0.43400726848E+02  0.00000000000E+00 0. -1.
         11    1    3    3    0    0 -0.79672090636E+00 -0.10867029293E+01  0.39391134908E+00  0.14038710309E+01  0.51100000000E-03 0. -1.
        -11    1    3    3    0    0 -0.17704407990E+02  0.24209970530E+02 -0.75102792747E+01  0.30918813535E+02  0.51100000000E-03 0.  1.
        -12    1    3    3    0    0 -0.12585308342E+01  0.11251663526E+02 -0.10534214170E+02  0.15464588586E+02  0.00000000000E+00 0.  1.
</event>
<event>
 7    1  0.5038211E-009  0.4778727E+02  0.7816164E-02  0.1312668E+00
        -11   -1    0    0    0    0  0.00000000000E+00  0.00000000000E+00  0.45593999997E+02  0.45594000000E+02  0.51100000000E-03 0. -1.
         11   -1    0    0    0    0 -0.00000000000E+00 -0.00000000000E+00 -0.45593999997E+02  0.45594000000E+02  0.51100000000E-03 0.  1.
    9900012    2    1    2    0    0 -0.45562097197E-01 -0.32697793406E+01 -0.43277360552E+02  0.47787268794E+02  0.19999989742E+02 0.  0.
         12    1    1    2    0    0  0.45562097197E-01  0.32697793406E+01  0.43277360552E+02  0.43400731206E+02  0.00000000000E+00 0. -1.
         11    1    3    3    0    0 -0.94519328637E+00  0.39492904717E+01 -0.65231509733E+01  0.76838652032E+01  0.51100000000E-03 0.  1.
        -11    1    3    3    0    0 -0.30369928231E+01 -0.26414042001E+00 -0.28322546089E+02  0.28486131938E+02  0.51100000000E-03 0. -1.
        -12    1    3    3    0    0  0.39366240123E+01 -0.69549293923E+01 -0.84316634899E+01  0.11617271654E+02  0.00000000000E+00 0.  1.
</event>
<event>
 7    1  0.5038211E-009  0.4778727E+02  0.7816164E-02  0.1312668E+00
        -11   -1    0    0    0    0  0.00000000000E+00  0.00000000000E+00  0.45593999997E+02  0.45594000000E+02  0.51100000000E-03 0.  1.
         11   -1    0    0    0    0 -0.00000000000E+00 -0.00000000000E+00 -0.45593999997E+02  0.45594000000E+02  0.51100000000E-03 0. -1.
    9900012    2    1    2    0    0 -0.40780277531E+02 -0.92295436266E+01  0.11636482364E+02  0.47787271517E+02  0.20000002155E+02 0.  0.
         12    1    1    2    0    0  0.40780277531E+02  0.92295436266E+01 -0.11636482364E+02  0.43400728483E+02  0.00000000000E+00 0. -1.
         11    1    3    3    0    0 -0.23175267059E+02 -0.76737789326E+01  0.22833466751E+01  0.24519248737E+02  0.51100000000E-03 0. -1.
        -11    1    3    3    0    0 -0.12780352539E+02 -0.17131951551E+01  0.17269991648E+00  0.12895823905E+02  0.51100000000E-03 0.  1.
        -12    1    3    3    0    0 -0.48246579326E+01  0.15743046109E+00  0.91804357728E+01  0.10372198875E+02  0.00000000000E+00 0.  1.
</event>
<event>
 7    1  0.5038211E-009  0.4778726E+02  0.7816164E-02  0.1312668E+00
        -11   -1    0    0    0    0  0.00000000000E+00  0.00000000000E+00  0.45593999997E+02  0.45594000000E+02  0.51100000000E-03 0.  1.
         11   -1    0    0    0    0 -0.00000000000E+00 -0.00000000000E+00 -0.45593999997E+02  0.45594000000E+02  0.51100000000E-03 0. -1.
    9900012    2    1    2    0    0  0.12168376612E+02  0.23059077213E+02  0.34696306443E+02  0.47787261388E+02  0.19999955971E+02 0.  0.
         12    1    1    2    0    0 -0.12168376612E+02 -0.23059077213E+02 -0.34696306443E+02  0.43400738612E+02  0.00000000000E+00 0. -1.
         11    1    3    3    0    0 -0.22022352625E+01  0.11770676931E+02  0.12421773595E+02  0.17253959982E+02  0.51100000000E-03 0. -1.
        -11    1    3    3    0    0  0.15135597792E+02  0.74659204299E+01  0.19240883121E+02  0.25593707663E+02  0.51100000000E-03 0.  1.
        -12    1    3    3    0    0 -0.76498591721E+00  0.38224798525E+01  0.30336497269E+01  0.49395937425E+01  0.00000000000E+00 0.  1.
</event>
<event>
 7    1  0.5038211E-009  0.4778727E+02  0.7816164E-02  0.1312668E+00
        -11   -1    0    0    0    0  0.00000000000E+00  0.00000000000E+00  0.45593999997E+02  0.45594000000E+02  0.51100000000E-03 0.  1.
         11   -1    0    0    0    0 -0.00000000000E+00 -0.00000000000E+00 -0.45593999997E+02  0.45594000000E+02  0.51100000000E-03 0. -1.
    9900012    2    1    2    0    0  0.18391388405E+02 -0.19499302930E+02  0.34134399199E+02  0.47787272000E+02  0.20000004359E+02 0.  0.
         12    1    1    2    0    0 -0.18391388405E+02  0.19499302930E+02 -0.34134399199E+02  0.43400728000E+02  0.00000000000E+00 0. -1.
         11    1    3    3    0    0  0.94811997269E+00 -0.42453188113E+01  0.48069969950E+01  0.64829687384E+01  0.51100000000E-03 0. -1.
        -11    1    3    3    0    0  0.43313504657E+01 -0.13075440543E+02  0.22450033982E+02  0.26338788284E+02  0.51100000000E-03 0.  1.
        -12    1    3    3    0    0  0.13111917967E+02 -0.21785435758E+01  0.68773682219E+01  0.14965514978E+02  0.00000000000E+00 0.  1.
</event>
<event>
 7    1  0.5038211E-009  0.4778727E+02  0.7816164E-02  0.1312668E+00
        -11   -1    0    0    0    0  0.00000000000E+00  0.00000000000E+00  0.45593999997E+02  0.45594000000E+02  0.51100000000E-03 0.  1.
         11   -1    0    0    0    0 -0.00000000000E+00 -0.00000000000E+00 -0.45593999997E+02  0.45594000000E+02  0.51100000000E-03 0. -1.
    9900012    2    1    2    0    0 -0.86080023280E+01  0.11095206096E+02  0.41066068138E+02  0.47787271265E+02  0.20000001007E+02 0.  0.
         12    1    1    2    0    0  0.86080023280E+01 -0.11095206096E+02 -0.41066068138E+02  0.43400728735E+02  0.00000000000E+00 0. -1.
         11    1    3    3    0    0  0.58182327165E+01  0.42092339718E+00  0.13338358970E+02  0.14558187687E+02  0.51100000000E-03 0. -1.
        -11    1    3    3    0    0 -0.11118802959E+02  0.99566677026E+01  0.22826299089E+02  0.27272750894E+02  0.51100000000E-03 0.  1.
        -12    1    3    3    0    0 -0.33074320852E+01  0.71761499655E+00  0.49014100791E+01  0.59563326842E+01  0.00000000000E+00 0.  1.
</event>
<event>
 7    1  0.5038211E-009  0.4778726E+02  0.7816164E-02  0.1312668E+00
        -11   -1    0    0    0    0  0.00000000000E+00  0.00000000000E+00  0.45593999997E+02  0.45594000000E+02  0.51100000000E-03 0.  1.
         11   -1    0    0    0    0 -0.00000000000E+00 -0.00000000000E+00 -0.45593999997E+02  0.45594000000E+02  0.51100000000E-03 0. -1.
    9900012    2    1    2    0    0  0.31044273518E+02 -0.23644761122E+02  0.18994793761E+02  0.47787264560E+02  0.19999970433E+02 0.  0.
         12    1    1    2    0    0 -0.31044273518E+02  0.23644761122E+02 -0.18994793761E+02  0.43400735440E+02  0.00000000000E+00 0. -1.
         11    1    3    3    0    0  0.13412967693E+02 -0.98533633636E+01  0.23226899119E+01  0.16804504176E+02  0.51100000000E-03 0. -1.
        -11    1    3    3    0    0  0.10436546707E+02 -0.53678006471E+01  0.16055642532E+02  0.19887645620E+02  0.51100000000E-03 0.  1.
        -12    1    3    3    0    0  0.71947591182E+01 -0.84235971109E+01  0.61646131719E+00  0.11095114763E+02  0.00000000000E+00 0.  1.
</event>
<event>
 7    1  0.5038211E-009  0.4778727E+02  0.7816164E-02  0.1312668E+00
        -11   -1    0    0    0    0  0.00000000000E+00  0.00000000000E+00  0.45593999997E+02  0.45594000000E+02  0.51100000000E-03 0. -1.
         11   -1    0    0    0    0 -0.00000000000E+00 -0.00000000000E+00 -0.45593999997E+02  0.45594000000E+02  0.51100000000E-03 0.  1.
    9900012    2    1    2    0    0 -0.82466347686E+01  0.42560805794E+02  0.20479404063E+01  0.47787271495E+02  0.20000002054E+02 0.  0.
         12    1    1    2    0    0  0.82466347686E+01 -0.42560805794E+02 -0.20479404063E+01  0.43400728505E+02  0.00000000000E+00 0. -1.
         11    1    3    3    0    0 -0.18490199979E+01  0.86134595705E+01 -0.52129132297E+01  0.10236455701E+02  0.51100000000E-03 0.  1.
        -11    1    3    3    0    0 -0.10288749755E+02  0.22300696725E+02  0.46158454205E+01  0.24989707384E+02  0.51100000000E-03 0. -1.
         12    1    3    3    0    0  0.38911349844E+01  0.11646649499E+02  0.26450082154E+01  0.12561108410E+02  0.00000000000E+00 0. -1.
</event>
<event>
 7    1  0.5038211E-009  0.4778727E+02  0.7816164E-02  0.1312668E+00
        -11   -1    0    0    0    0  0.00000000000E+00  0.00000000000E+00  0.45593999997E+02  0.45594000000E+02  0.51100000000E-03 0.  1.
         11   -1    0    0    0    0 -0.00000000000E+00 -0.00000000000E+00 -0.45593999997E+02  0.45594000000E+02  0.51100000000E-03 0. -1.
    9900012    2    1    2    0    0 -0.26636522208E+02  0.33661669683E+02  0.64039863257E+01  0.47787270029E+02  0.19999995369E+02 0.  0.
         12    1    1    2    0    0  0.26636522208E+02 -0.33661669683E+02 -0.64039863257E+01  0.43400729971E+02  0.00000000000E+00 0. -1.
         11    1    3    3    0    0 -0.48848857303E+01  0.10562637262E+02 -0.42286402072E+01  0.12381955128E+02  0.51100000000E-03 0. -1.
        -11    1    3    3    0    0 -0.58249709271E+01  0.58602919830E+01  0.84752853551E+01  0.11836543860E+02  0.51100000000E-03 0.  1.
        -12    1    3    3    0    0 -0.15926665551E+02  0.17238740438E+02  0.21573411779E+01  0.23568771041E+02  0.00000000000E+00 0.  1.
</event>
<event>
 7    1  0.5038211E-009  0.4778728E+02  0.7816164E-02  0.1312668E+00
        -11   -1    0    0    0    0  0.00000000000E+00  0.00000000000E+00  0.45593999997E+02  0.45594000000E+02  0.51100000000E-03 0.  1.
         11   -1    0    0    0    0 -0.00000000000E+00 -0.00000000000E+00 -0.45593999997E+02  0.45594000000E+02  0.51100000000E-03 0. -1.
    9900012    2    1    2    0    0  0.41750824502E+02 -0.11816101369E+02 -0.93341859832E+00  0.47787275715E+02  0.20000021295E+02 0.  0.
         12    1    1    2    0    0 -0.41750824502E+02  0.11816101369E+02  0.93341859832E+00  0.43400724285E+02  0.00000000000E+00 0. -1.
         11    1    3    3    0    0  0.73695982979E+01  0.16402504329E+01 -0.12812335282E+01  0.76578691664E+01  0.51100000000E-03 0. -1.
        -11    1    3    3    0    0  0.14178984063E+02 -0.77042525617E+01 -0.73844729696E+01  0.17746254194E+02  0.51100000000E-03 0.  1.
        -12    1    3    3    0    0  0.20202242141E+02 -0.57520992398E+01  0.77322878995E+01  0.22383152355E+02  0.00000000000E+00 0.  1.
</event>
<event>
 7    1  0.5038211E-009  0.4778727E+02  0.7816164E-02  0.1312668E+00
        -11   -1    0    0    0    0  0.00000000000E+00  0.00000000000E+00  0.45593999997E+02  0.45594000000E+02  0.51100000000E-03 0.  1.
         11   -1    0    0    0    0 -0.00000000000E+00 -0.00000000000E+00 -0.45593999997E+02  0.45594000000E+02  0.51100000000E-03 0. -1.
    9900012    2    1    2    0    0  0.22646995248E+02  0.18707774144E+02  0.31949274678E+02  0.47787270057E+02  0.19999995496E+02 0.  0.
         12    1    1    2    0    0 -0.22646995248E+02 -0.18707774144E+02 -0.31949274678E+02  0.43400729943E+02  0.00000000000E+00 0. -1.
         11    1    3    3    0    0  0.85170504306E+01  0.49964622402E+01  0.55078027746E+01  0.11306665053E+02  0.51100000000E-03 0. -1.
        -11    1    3    3    0    0  0.13529837399E+02  0.32704791755E+01  0.19383828420E+02  0.23863891941E+02  0.51100000000E-03 0.  1.
        -12    1    3    3    0    0  0.60010741857E+00  0.10440832728E+02  0.70576434826E+01  0.12616713062E+02  0.00000000000E+00 0.  1.
</event>
<event>
 7    1  0.5038211E-009  0.4778727E+02  0.7816164E-02  0.1312668E+00
        -11   -1    0    0    0    0  0.00000000000E+00  0.00000000000E+00  0.45593999997E+02  0.45594000000E+02  0.51100000000E-03 0. -1.
         11   -1    0    0    0    0 -0.00000000000E+00 -0.00000000000E+00 -0.45593999997E+02  0.45594000000E+02  0.51100000000E-03 0.  1.
    9900012    2    1    2    0    0 -0.14223543045E+02  0.27767897837E+02 -0.30170484636E+02  0.47787268783E+02  0.19999989687E+02 0.  0.
         12    1    1    2    0    0  0.14223543045E+02 -0.27767897837E+02  0.30170484636E+02  0.43400731217E+02  0.00000000000E+00 0. -1.
         11    1    3    3    0    0 -0.38726626065E+01  0.19059739175E+02 -0.13796363391E+02  0.23845561771E+02  0.51100000000E-03 0. -1.
        -11    1    3    3    0    0 -0.25291141220E+01 -0.24788073162E+01 -0.17968158448E+01  0.39710768557E+01  0.51100000000E-03 0.  1.
        -12    1    3    3    0    0 -0.78217663167E+01  0.11186965978E+02 -0.14577305400E+02  0.19970630156E+02  0.00000000000E+00 0.  1.
</event>
<event>
 7    1  0.5038211E-009  0.4778727E+02  0.7816164E-02  0.1312668E+00
        -11   -1    0    0    0    0  0.00000000000E+00  0.00000000000E+00  0.45593999997E+02  0.45594000000E+02  0.51100000000E-03 0. -1.
         11   -1    0    0    0    0 -0.00000000000E+00 -0.00000000000E+00 -0.45593999997E+02  0.45594000000E+02  0.51100000000E-03 0.  1.
    9900012    2    1    2    0    0  0.14317164993E+02 -0.11797107326E+02 -0.39236087024E+02  0.47787268673E+02  0.19999989190E+02 0.  0.
         12    1    1    2    0    0 -0.14317164993E+02  0.11797107326E+02  0.39236087024E+02  0.43400731327E+02  0.00000000000E+00 0. -1.
         11    1    3    3    0    0  0.12308522856E+01  0.21437388903E+01  0.12884672945E+00  0.24753212963E+01  0.51100000000E-03 0. -1.
        -11    1    3    3    0    0  0.97508069520E+01 -0.40748667005E+01 -0.27841053107E+02  0.29779305116E+02  0.51100000000E-03 0.  1.
        -12    1    3    3    0    0  0.33355057558E+01 -0.98659795154E+01 -0.11523880647E+02  0.15532642261E+02  0.00000000000E+00 0.  1.
</event>
<event>
 7    1  0.5038211E-009  0.4778727E+02  0.7816164E-02  0.1312668E+00
        -11   -1    0    0    0    0  0.00000000000E+00  0.00000000000E+00  0.45593999997E+02  0.45594000000E+02  0.51100000000E-03 0. -1.
         11   -1    0    0    0    0 -0.00000000000E+00 -0.00000000000E+00 -0.45593999997E+02  0.45594000000E+02  0.51100000000E-03 0.  1.
    9900012    2    1    2    0    0 -0.41420653661E+02 -0.52097322081E+01 -0.11866414863E+02  0.47787266583E+02  0.19999979660E+02 0.  0.
         12    1    1    2    0    0  0.41420653661E+02  0.52097322081E+01  0.11866414863E+02  0.43400733417E+02  0.00000000000E+00 0. -1.
         11    1    3    3    0    0 -0.24798906817E+02 -0.73352443179E+01 -0.14260682686E+02  0.29532332442E+02  0.51100000000E-03 0. -1.
        -11    1    3    3    0    0 -0.17220563000E+02  0.17060382111E+01  0.19884441542E+01  0.17418733215E+02  0.51100000000E-03 0.  1.
         12    1    3    3    0    0  0.59881615512E+00  0.41947389868E+00  0.40582366891E+00  0.83620092655E+00  0.00000000000E+00 0. -1.
</event>
<event>
 7    1  0.5038211E-009  0.4778726E+02  0.7816164E-02  0.1312668E+00
        -11   -1    0    0    0    0  0.00000000000E+00  0.00000000000E+00  0.45593999997E+02  0.45594000000E+02  0.51100000000E-03 0.  1.
         11   -1    0    0    0    0 -0.00000000000E+00 -0.00000000000E+00 -0.45593999997E+02  0.45594000000E+02  0.51100000000E-03 0. -1.
    9900012    2    1    2    0    0 -0.30949948948E+00  0.43381103429E+02 -0.12681380533E+01  0.47787261541E+02  0.19999956669E+02 0.  0.
         12    1    1    2    0    0  0.30949948948E+00 -0.43381103429E+02  0.12681380533E+01  0.43400738459E+02  0.00000000000E+00 0. -1.
         11    1    3    3    0    0 -0.48452436794E+01  0.92365094480E+01 -0.51546233142E-01  0.10430347567E+02  0.51100000000E-03 0. -1.
        -11    1    3    3    0    0  0.83733323889E+01  0.31621464153E+02 -0.54906301630E+00  0.32715916018E+02  0.51100000000E-03 0.  1.
        -12    1    3    3    0    0 -0.38375881991E+01  0.25231298289E+01 -0.66752880390E+00  0.46409979555E+01  0.00000000000E+00 0.  1.
</event>
<event>
 7    1  0.5038211E-009  0.4778722E+02  0.7816164E-02  0.1312668E+00
        -11   -1    0    0    0    0  0.00000000000E+00  0.00000000000E+00  0.45593999997E+02  0.45594000000E+02  0.51100000000E-03 0. -1.
         11   -1    0    0    0    0 -0.00000000000E+00 -0.00000000000E+00 -0.45593999997E+02  0.45594000000E+02  0.51100000000E-03 0.  1.
    9900012    2    1    2    0    0 -0.30045454693E+02 -0.27096204290E+02  0.15706507652E+02  0.47787216398E+02  0.19999750844E+02 0.  0.
         12    1    1    2    0    0  0.30045454693E+02  0.27096204290E+02 -0.15706507652E+02  0.43400783602E+02  0.00000000000E+00 0. -1.
         11    1    3    3    0    0 -0.16240305750E+02 -0.11687352088E+02  0.15286197412E+02  0.25179546487E+02  0.51100000000E-03 0. -1.
        -11    1    3    3    0    0 -0.12393002444E+02 -0.73268318220E+01  0.10731791035E+00  0.14397239024E+02  0.51100000000E-03 0.  1.
         12    1    3    3    0    0 -0.14121464985E+01 -0.80820203804E+01  0.31299233003E+00  0.82104308877E+01  0.00000000000E+00 0. -1.
</event>
<event>
 7    1  0.5038211E-009  0.4778727E+02  0.7816164E-02  0.1312668E+00
        -11   -1    0    0    0    0  0.00000000000E+00  0.00000000000E+00  0.45593999997E+02  0.45594000000E+02  0.51100000000E-03 0.  1.
         11   -1    0    0    0    0 -0.00000000000E+00 -0.00000000000E+00 -0.45593999997E+02  0.45594000000E+02  0.51100000000E-03 0. -1.
    9900012    2    1    2    0    0  0.34761011474E+02  0.74321919465E+01  0.24900957237E+02  0.47787273426E+02  0.20000010859E+02 0.  0.
         12    1    1    2    0    0 -0.34761011474E+02 -0.74321919465E+01 -0.24900957237E+02  0.43400726574E+02  0.00000000000E+00 0. -1.
         11    1    3    3    0    0  0.39164907127E+01  0.25421888200E+01 -0.18976708955E+01  0.50401169221E+01  0.51100000000E-03 0. -1.
        -11    1    3    3    0    0  0.18526532135E+02 -0.10351545981E+01  0.20641004347E+02  0.27755269747E+02  0.51100000000E-03 0.  1.
        -12    1    3    3    0    0  0.12317988627E+02  0.59251577245E+01  0.61576237851E+01  0.14991886757E+02  0.00000000000E+00 0.  1.
</event>
<event>
 7    1  0.5038211E-009  0.4778727E+02  0.7816164E-02  0.1312668E+00
        -11   -1    0    0    0    0  0.00000000000E+00  0.00000000000E+00  0.45593999997E+02  0.45594000000E+02  0.51100000000E-03 0.  1.
         11   -1    0    0    0    0 -0.00000000000E+00 -0.00000000000E+00 -0.45593999997E+02  0.45594000000E+02  0.51100000000E-03 0. -1.
    9900012    2    1    2    0    0  0.28603941679E+02 -0.25575975003E+02  0.20280710860E+02  0.47787271782E+02  0.20000003361E+02 0.  0.
         12    1    1    2    0    0 -0.28603941679E+02  0.25575975003E+02 -0.20280710860E+02  0.43400728218E+02  0.00000000000E+00 0. -1.
         11    1    3    3    0    0  0.10272796016E+02 -0.17321658341E+02  0.84412017192E+01  0.21836301711E+02  0.51100000000E-03 0. -1.
        -11    1    3    3    0    0  0.13585540478E+02 -0.62816566879E+00  0.44186121869E+01  0.14299847415E+02  0.51100000000E-03 0.  1.
        -12    1    3    3    0    0  0.47456051850E+01 -0.76261509928E+01  0.74208969538E+01  0.11651122656E+02  0.00000000000E+00 0.  1.
</event>
<event>
 7    1  0.5038211E-009  0.4778727E+02  0.7816164E-02  0.1312668E+00
        -11   -1    0    0    0    0  0.00000000000E+00  0.00000000000E+00  0.45593999997E+02  0.45594000000E+02  0.51100000000E-03 0. -1.
         11   -1    0    0    0    0 -0.00000000000E+00 -0.00000000000E+00 -0.45593999997E+02  0.45594000000E+02  0.51100000000E-03 0.  1.
    9900012    2    1    2    0    0 -0.19732868869E+02 -0.69887259235E+01 -0.38018348607E+02  0.47787271496E+02  0.20000002060E+02 0.  0.
         12    1    1    2    0    0  0.19732868869E+02  0.69887259235E+01  0.38018348607E+02  0.43400728504E+02  0.00000000000E+00 0. -1.
         11    1    3    3    0    0  0.25567679054E+01  0.64078055155E+00 -0.41832378996E+01  0.49444050626E+01  0.51100000000E-03 0. -1.
        -11    1    3    3    0    0 -0.20348631923E+02 -0.24050950799E+01 -0.28704682201E+02  0.35267691787E+02  0.51100000000E-03 0.  1.
        -12    1    3    3    0    0 -0.19410048511E+01 -0.52244113951E+01 -0.51304285069E+01  0.75751746463E+01  0.00000000000E+00 0.  1.
</event>
<event>
 7    1  0.5038211E-009  0.4778727E+02  0.7816164E-02  0.1312668E+00
        -11   -1    0    0    0    0  0.00000000000E+00  0.00000000000E+00  0.45593999997E+02  0.45594000000E+02  0.51100000000E-03 0.  1.
         11   -1    0    0    0    0 -0.00000000000E+00 -0.00000000000E+00 -0.45593999997E+02  0.45594000000E+02  0.51100000000E-03 0. -1.
    9900012    2    1    2    0    0  0.40837369416E+02  0.11602448449E+02  0.90175425765E+01  0.47787267000E+02  0.19999981561E+02 0.  0.
         12    1    1    2    0    0 -0.40837369416E+02 -0.11602448449E+02 -0.90175425765E+01  0.43400733000E+02  0.00000000000E+00 0. -1.
         11    1    3    3    0    0  0.71233918105E+00 -0.23394078983E+01 -0.56042393357E+00  0.25088506672E+01  0.51100000000E-03 0. -1.
        -11    1    3    3    0    0  0.23290371571E+02  0.11842602961E+02  0.10793427216E+02  0.28269890770E+02  0.51100000000E-03 0.  1.
        -12    1    3    3    0    0  0.16834658663E+02  0.20992533859E+01 -0.12154607063E+01  0.17008525563E+02  0.00000000000E+00 0.  1.
</event>
<event>
 7    1  0.5038211E-009  0.4778727E+02  0.7816164E-02  0.1312668E+00
        -11   -1    0    0    0    0  0.00000000000E+00  0.00000000000E+00  0.45593999997E+02  0.45594000000E+02  0.51100000000E-03 0.  1.
         11   -1    0    0    0    0 -0.00000000000E+00 -0.00000000000E+00 -0.45593999997E+02  0.45594000000E+02  0.51100000000E-03 0. -1.
    9900012    2    1    2    0    0  0.43206803699E+02  0.75940865594E-01  0.40975564998E+01  0.47787267032E+02  0.19999981706E+02 0.  0.
         12    1    1    2    0    0 -0.43206803699E+02 -0.75940865594E-01 -0.40975564998E+01  0.43400732968E+02  0.00000000000E+00 0. -1.
         11    1    3    3    0    0  0.26657580887E+02 -0.16631887096E+01  0.30920168629E+00  0.26711204042E+02  0.51100000000E-03 0. -1.
        -11    1    3    3    0    0  0.16935319035E+02  0.38508461761E+01  0.78626397085E+00  0.17385403601E+02  0.51100000000E-03 0.  1.
         12    1    3    3    0    0 -0.38609622290E+00 -0.21117166009E+01  0.30020908427E+01  0.36906593887E+01  0.00000000000E+00 0. -1.
</event>
<event>
 7    1  0.5038211E-009  0.4778728E+02  0.7816164E-02  0.1312668E+00
        -11   -1    0    0    0    0  0.00000000000E+00  0.00000000000E+00  0.45593999997E+02  0.45594000000E+02  0.51100000000E-03 0.  1.
         11   -1    0    0    0    0 -0.00000000000E+00 -0.00000000000E+00 -0.45593999997E+02  0.45594000000E+02  0.51100000000E-03 0. -1.
    9900012    2    1    2    0    0 -0.11639097873E+02 -0.26650508970E+02  0.32216527854E+02  0.47787275413E+02  0.20000019919E+02 0.  0.
         12    1    1    2    0    0  0.11639097873E+02  0.26650508970E+02 -0.32216527854E+02  0.43400724587E+02  0.00000000000E+00 0. -1.
         11    1    3    3    0    0 -0.22485561070E+01 -0.69407845934E+01  0.35503637649E+01  0.81139126482E+01  0.51100000000E-03 0. -1.
        -11    1    3    3    0    0 -0.13744919381E+02 -0.11901742150E+02  0.16331599506E+02  0.24439628019E+02  0.51100000000E-03 0.  1.
        -12    1    3    3    0    0  0.43543776149E+01 -0.78079822259E+01  0.12334564584E+02  0.15233734747E+02  0.00000000000E+00 0.  1.
</event>
<event>
 7    1  0.5038211E-009  0.4778727E+02  0.7816164E-02  0.1312668E+00
        -11   -1    0    0    0    0  0.00000000000E+00  0.00000000000E+00  0.45593999997E+02  0.45594000000E+02  0.51100000000E-03 0.  1.
         11   -1    0    0    0    0 -0.00000000000E+00 -0.00000000000E+00 -0.45593999997E+02  0.45594000000E+02  0.51100000000E-03 0. -1.
    9900012    2    1    2    0    0 -0.36681941576E+02  0.23094219250E+02  0.21714449813E+01  0.47787274501E+02  0.20000015759E+02 0.  0.
         12    1    1    2    0    0  0.36681941576E+02 -0.23094219250E+02 -0.21714449813E+01  0.43400725499E+02  0.00000000000E+00 0. -1.
         11    1    3    3    0    0 -0.11423546902E+02  0.67561926667E+01  0.79376320965E+01  0.15464461411E+02  0.51100000000E-03 0. -1.
        -11    1    3    3    0    0 -0.92656837479E+01  0.48637074442E+01  0.28358592365E+01  0.10842077443E+02  0.51100000000E-03 0.  1.
         12    1    3    3    0    0 -0.15992710926E+02  0.11474319139E+02 -0.86020463517E+01  0.21480735646E+02  0.00000000000E+00 0. -1.
</event>
<event>
 7    1  0.5038211E-009  0.4778727E+02  0.7816164E-02  0.1312668E+00
        -11   -1    0    0    0    0  0.00000000000E+00  0.00000000000E+00  0.45593999997E+02  0.45594000000E+02  0.51100000000E-03 0.  1.
         11   -1    0    0    0    0 -0.00000000000E+00 -0.00000000000E+00 -0.45593999997E+02  0.45594000000E+02  0.51100000000E-03 0. -1.
    9900012    2    1    2    0    0 -0.27011234456E+02  0.49521856177E+01  0.33607921413E+02  0.47787270618E+02  0.19999998055E+02 0.  0.
         12    1    1    2    0    0  0.27011234456E+02 -0.49521856177E+01 -0.33607921413E+02  0.43400729382E+02  0.00000000000E+00 0. -1.
         11    1    3    3    0    0 -0.23498900573E+02  0.60294103581E+01  0.21896477781E+02  0.32680389485E+02  0.51100000000E-03 0.  1.
        -11    1    3    3    0    0 -0.94927507627E+00 -0.48702245499E+01  0.59061742088E+01  0.77138255348E+01  0.51100000000E-03 0. -1.
        -12    1    3    3    0    0 -0.25630588064E+01  0.37929998095E+01  0.58052694234E+01  0.73930555982E+01  0.00000000000E+00 0.  1.
</event>
<event>
 7    1  0.5038211E-009  0.4778728E+02  0.7816164E-02  0.1312668E+00
        -11   -1    0    0    0    0  0.00000000000E+00  0.00000000000E+00  0.45593999997E+02  0.45594000000E+02  0.51100000000E-03 0. -1.
         11   -1    0    0    0    0 -0.00000000000E+00 -0.00000000000E+00 -0.45593999997E+02  0.45594000000E+02  0.51100000000E-03 0.  1.
    9900012    2    1    2    0    0 -0.30411242802E+02 -0.36002442010E+01 -0.30754136248E+02  0.47787281764E+02  0.20000048873E+02 0.  0.
         12    1    1    2    0    0  0.30411242802E+02  0.36002442010E+01  0.30754136248E+02  0.43400718236E+02  0.00000000000E+00 0. -1.
         11    1    3    3    0    0  0.10423691776E+00  0.14336076727E+01 -0.82808984729E+01  0.84047234382E+01  0.51100000000E-03 0. -1.
        -11    1    3    3    0    0 -0.27439944673E+02 -0.73593222447E+01 -0.18872203901E+02  0.34106748129E+02  0.51100000000E-03 0.  1.
        -12    1    3    3    0    0 -0.30755350465E+01  0.23254703710E+01 -0.36010338740E+01  0.52758101966E+01  0.00000000000E+00 0.  1.
</event>
<event>
 7    1  0.5038211E-009  0.4778727E+02  0.7816164E-02  0.1312668E+00
        -11   -1    0    0    0    0  0.00000000000E+00  0.00000000000E+00  0.45593999997E+02  0.45594000000E+02  0.51100000000E-03 0. -1.
         11   -1    0    0    0    0 -0.00000000000E+00 -0.00000000000E+00 -0.45593999997E+02  0.45594000000E+02  0.51100000000E-03 0.  1.
    9900012    2    1    2    0    0 -0.18081694539E+02  0.34381472674E+02  0.19354325877E+02  0.47787271080E+02  0.20000000163E+02 0.  0.
         12    1    1    2    0    0  0.18081694539E+02 -0.34381472674E+02 -0.19354325877E+02  0.43400728920E+02  0.00000000000E+00 0. -1.
         11    1    3    3    0    0 -0.11574187711E+02  0.18769110987E+02  0.14128800770E+02  0.26189012197E+02  0.51100000000E-03 0. -1.
        -11    1    3    3    0    0  0.24095250396E+01  0.68652891411E+00 -0.15409608801E+01  0.29413761340E+01  0.51100000000E-03 0.  1.
        -12    1    3    3    0    0 -0.89170318684E+01  0.14925832773E+02  0.67664859876E+01  0.18656882749E+02  0.00000000000E+00 0.  1.
</event>
<event>
 7    1  0.5038211E-009  0.4778727E+02  0.7816164E-02  0.1312668E+00
        -11   -1    0    0    0    0  0.00000000000E+00  0.00000000000E+00  0.45593999997E+02  0.45594000000E+02  0.51100000000E-03 0.  1.
         11   -1    0    0    0    0 -0.00000000000E+00 -0.00000000000E+00 -0.45593999997E+02  0.45594000000E+02  0.51100000000E-03 0. -1.
    9900012    2    1    2    0    0  0.25041566733E+01  0.13840261023E+02  0.41058488419E+02  0.47787273081E+02  0.20000009287E+02 0.  0.
         12    1    1    2    0    0 -0.25041566733E+01 -0.13840261023E+02 -0.41058488419E+02  0.43400726919E+02  0.00000000000E+00 0. -1.
         11    1    3    3    0    0  0.25638905339E+01 -0.17162581963E+01  0.43996258634E+01  0.53736193450E+01  0.51100000000E-03 0. -1.
        -11    1    3    3    0    0 -0.59602916996E+01  0.12480302520E+02  0.18679152566E+02  0.23242068948E+02  0.51100000000E-03 0.  1.
        -12    1    3    3    0    0  0.59005578390E+01  0.30762166989E+01  0.17979709990E+02  0.19171584789E+02  0.00000000000E+00 0.  1.
</event>
<event>
 7    1  0.5038211E-009  0.4778730E+02  0.7816164E-02  0.1312668E+00
        -11   -1    0    0    0    0  0.00000000000E+00  0.00000000000E+00  0.45593999997E+02  0.45594000000E+02  0.51100000000E-03 0.  1.
         11   -1    0    0    0    0 -0.00000000000E+00 -0.00000000000E+00 -0.45593999997E+02  0.45594000000E+02  0.51100000000E-03 0. -1.
    9900012    2    1    2    0    0  0.53243708079E+01 -0.10858038253E+02  0.41681829934E+02  0.47787298787E+02  0.20000126487E+02 0.  0.
         12    1    1    2    0    0 -0.53243708079E+01  0.10858038253E+02 -0.41681829934E+02  0.43400701213E+02  0.00000000000E+00 0. -1.
         11    1    3    3    0    0  0.60963919844E+00 -0.13468509992E+00 -0.28410392366E+00  0.68594119936E+00  0.51100000000E-03 0. -1.
        -11    1    3    3    0    0  0.70980138157E+01 -0.14941178397E+02  0.32628726005E+02  0.36582159218E+02  0.51100000000E-03 0.  1.
        -12    1    3    3    0    0 -0.23832822063E+01  0.42178252444E+01  0.93372078519E+01  0.10519198370E+02  0.00000000000E+00 0.  1.
</event>
<event>
 7    1  0.5038211E-009  0.4778727E+02  0.7816164E-02  0.1312668E+00
        -11   -1    0    0    0    0  0.00000000000E+00  0.00000000000E+00  0.45593999997E+02  0.45594000000E+02  0.51100000000E-03 0.  1.
         11   -1    0    0    0    0 -0.00000000000E+00 -0.00000000000E+00 -0.45593999997E+02  0.45594000000E+02  0.51100000000E-03 0. -1.
    9900012    2    1    2    0    0 -0.15593731366E+02 -0.14214665963E+02  0.37926272874E+02  0.47787270047E+02  0.19999995451E+02 0.  0.
         12    1    1    2    0    0  0.15593731366E+02  0.14214665963E+02 -0.37926272874E+02  0.43400729953E+02  0.00000000000E+00 0. -1.
         11    1    3    3    0    0  0.12915361700E+01  0.24141024781E+01  0.72326546343E+01  0.77335147103E+01  0.51100000000E-03 0. -1.
        -11    1    3    3    0    0 -0.14278716384E+02 -0.10900240715E+02  0.15949504658E+02  0.24022566231E+02  0.51100000000E-03 0.  1.
        -12    1    3    3    0    0 -0.26065511518E+01 -0.57285277261E+01  0.14744113582E+02  0.16031189105E+02  0.00000000000E+00 0.  1.
</event>
<event>
 7    1  0.5038211E-009  0.4778727E+02  0.7816164E-02  0.1312668E+00
        -11   -1    0    0    0    0  0.00000000000E+00  0.00000000000E+00  0.45593999997E+02  0.45594000000E+02  0.51100000000E-03 0.  1.
         11   -1    0    0    0    0 -0.00000000000E+00 -0.00000000000E+00 -0.45593999997E+02  0.45594000000E+02  0.51100000000E-03 0. -1.
    9900012    2    1    2    0    0 -0.21880470104E+01  0.29425929161E+02  0.31826882974E+02  0.47787270322E+02  0.19999996705E+02 0.  0.
         12    1    1    2    0    0  0.21880470104E+01 -0.29425929161E+02 -0.31826882974E+02  0.43400729678E+02  0.00000000000E+00 0. -1.
         11    1    3    3    0    0  0.37837786167E+01  0.13150574689E+02  0.21132760406E+02  0.25176341234E+02  0.51100000000E-03 0.  1.
        -11    1    3    3    0    0 -0.25059654367E+01  0.12610969426E+02  0.26678178183E+01  0.13131399956E+02  0.51100000000E-03 0. -1.
         12    1    3    3    0    0 -0.34658601904E+01  0.36643850468E+01  0.80263047498E+01  0.94795291321E+01  0.00000000000E+00 0. -1.
</event>
<event>
 7    1  0.5038211E-009  0.4778727E+02  0.7816164E-02  0.1312668E+00
        -11   -1    0    0    0    0  0.00000000000E+00  0.00000000000E+00  0.45593999997E+02  0.45594000000E+02  0.51100000000E-03 0.  1.
         11   -1    0    0    0    0 -0.00000000000E+00 -0.00000000000E+00 -0.45593999997E+02  0.45594000000E+02  0.51100000000E-03 0. -1.
    9900012    2    1    2    0    0 -0.38659770756E+02 -0.15652333571E+02  0.12002070562E+02  0.47787272830E+02  0.20000008139E+02 0.  0.
         12    1    1    2    0    0  0.38659770756E+02  0.15652333571E+02 -0.12002070562E+02  0.43400727170E+02  0.00000000000E+00 0. -1.
         11    1    3    3    0    0 -0.29489259759E+02 -0.11506627798E+02  0.23945571423E+01  0.31745122910E+02  0.51100000000E-03 0. -1.
        -11    1    3    3    0    0 -0.73136223695E+01 -0.57910455910E+01  0.98291697060E+01  0.13551304682E+02  0.51100000000E-03 0.  1.
        -12    1    3    3    0    0 -0.18568886281E+01  0.16453398176E+01 -0.22165628615E+00  0.24908452385E+01  0.00000000000E+00 0.  1.
</event>
<event>
 7    1  0.5038211E-009  0.4778727E+02  0.7816164E-02  0.1312668E+00
        -11   -1    0    0    0    0  0.00000000000E+00  0.00000000000E+00  0.45593999997E+02  0.45594000000E+02  0.51100000000E-03 0.  1.
         11   -1    0    0    0    0 -0.00000000000E+00 -0.00000000000E+00 -0.45593999997E+02  0.45594000000E+02  0.51100000000E-03 0. -1.
    9900012    2    1    2    0    0 -0.32251892587E+02  0.16515745349E+02  0.23888679987E+02  0.47787268999E+02  0.19999990675E+02 0.  0.
         12    1    1    2    0    0  0.32251892587E+02 -0.16515745349E+02 -0.23888679987E+02  0.43400731001E+02  0.00000000000E+00 0. -1.
         11    1    3    3    0    0  0.24005399457E+01  0.33081326909E+00  0.54283510609E+00  0.24832840480E+01  0.51100000000E-03 0. -1.
        -11    1    3    3    0    0 -0.30089241416E+02  0.12746469799E+02  0.17258542833E+02  0.36955273539E+02  0.51100000000E-03 0.  1.
         12    1    3    3    0    0 -0.45631911165E+01  0.34384622804E+01  0.60873020483E+01  0.83487114123E+01  0.00000000000E+00 0. -1.
</event>
<event>
 7    1  0.5038211E-009  0.4778727E+02  0.7816164E-02  0.1312668E+00
        -11   -1    0    0    0    0  0.00000000000E+00  0.00000000000E+00  0.45593999997E+02  0.45594000000E+02  0.51100000000E-03 0.  1.
         11   -1    0    0    0    0 -0.00000000000E+00 -0.00000000000E+00 -0.45593999997E+02  0.45594000000E+02  0.51100000000E-03 0. -1.
    9900012    2    1    2    0    0 -0.16120207647E+01 -0.31370972236E+02  0.29948067325E+02  0.47787271360E+02  0.20000001439E+02 0.  0.
         12    1    1    2    0    0  0.16120207647E+01  0.31370972236E+02 -0.29948067325E+02  0.43400728640E+02  0.00000000000E+00 0. -1.
         11    1    3    3    0    0  0.27105209050E+01 -0.25050054143E+02  0.13771942061E+02  0.28714430598E+02  0.51100000000E-03 0.  1.
        -11    1    3    3    0    0 -0.17500485808E+01  0.91647124615E+00  0.60421991682E+01  0.63569458571E+01  0.51100000000E-03 0. -1.
        -12    1    3    3    0    0 -0.25724930890E+01 -0.72373893392E+01  0.10133926095E+02  0.12715894905E+02  0.00000000000E+00 0.  1.
</event>
<event>
 7    1  0.5038211E-009  0.4778727E+02  0.7816164E-02  0.1312668E+00
        -11   -1    0    0    0    0  0.00000000000E+00  0.00000000000E+00  0.45593999997E+02  0.45594000000E+02  0.51100000000E-03 0. -1.
         11   -1    0    0    0    0 -0.00000000000E+00 -0.00000000000E+00 -0.45593999997E+02  0.45594000000E+02  0.51100000000E-03 0.  1.
    9900012    2    1    2    0    0  0.31266805735E+02 -0.29379505298E+02 -0.65463555040E+01  0.47787271402E+02  0.20000001632E+02 0.  0.
         12    1    1    2    0    0 -0.31266805735E+02  0.29379505298E+02  0.65463555040E+01  0.43400728598E+02  0.00000000000E+00 0. -1.
         11    1    3    3    0    0  0.10380001012E+02 -0.17892315072E+02  0.22321733482E+01  0.20805334839E+02  0.51100000000E-03 0. -1.
        -11    1    3    3    0    0  0.11213715814E+02 -0.61889661911E+01 -0.94734709609E+01  0.15931019339E+02  0.51100000000E-03 0.  1.
        -12    1    3    3    0    0  0.96730889091E+01 -0.52982240349E+01  0.69494210872E+00  0.11050917224E+02  0.00000000000E+00 0.  1.
</event>
<event>
 7    1  0.5038211E-009  0.4778727E+02  0.7816164E-02  0.1312668E+00
        -11   -1    0    0    0    0  0.00000000000E+00  0.00000000000E+00  0.45593999997E+02  0.45594000000E+02  0.51100000000E-03 0. -1.
         11   -1    0    0    0    0 -0.00000000000E+00 -0.00000000000E+00 -0.45593999997E+02  0.45594000000E+02  0.51100000000E-03 0.  1.
    9900012    2    1    2    0    0 -0.11949978607E+02 -0.96265099124E+01 -0.40597430507E+02  0.47787273674E+02  0.20000011990E+02 0.  0.
         12    1    1    2    0    0  0.11949978607E+02  0.96265099124E+01  0.40597430507E+02  0.43400726326E+02  0.00000000000E+00 0. -1.
         11    1    3    3    0    0 -0.13324377371E+02 -0.10467099277E+02 -0.30176125575E+02  0.34607770147E+02  0.51100000000E-03 0. -1.
        -11    1    3    3    0    0 -0.21860984619E+01  0.27733240469E+01 -0.71420707772E+01  0.79674040943E+01  0.51100000000E-03 0.  1.
         12    1    3    3    0    0  0.35604972262E+01 -0.19327346822E+01 -0.32792341555E+01  0.52120994327E+01  0.00000000000E+00 0. -1.
</event>
<event>
 7    1  0.5038211E-009  0.4778727E+02  0.7816164E-02  0.1312668E+00
        -11   -1    0    0    0    0  0.00000000000E+00  0.00000000000E+00  0.45593999997E+02  0.45594000000E+02  0.51100000000E-03 0. -1.
         11   -1    0    0    0    0 -0.00000000000E+00 -0.00000000000E+00 -0.45593999997E+02  0.45594000000E+02  0.51100000000E-03 0.  1.
    9900012    2    1    2    0    0 -0.11679851457E+02 -0.37694183478E+02  0.18065236473E+02  0.47787272276E+02  0.20000005615E+02 0.  0.
         12    1    1    2    0    0  0.11679851457E+02  0.37694183478E+02 -0.18065236473E+02  0.43400727724E+02  0.00000000000E+00 0. -1.
         11    1    3    3    0    0 -0.52479837538E+01  0.54385698790E+00  0.28568469442E+01  0.59998907180E+01  0.51100000000E-03 0. -1.
        -11    1    3    3    0    0 -0.49775355052E+01 -0.19470633006E+02  0.80110389204E+01  0.21634651701E+02  0.51100000000E-03 0.  1.
         12    1    3    3    0    0 -0.14543321979E+01 -0.18767407460E+02  0.71973506082E+01  0.20152729857E+02  0.00000000000E+00 0. -1.
</event>
<event>
 7    1  0.5038211E-009  0.4778727E+02  0.7816164E-02  0.1312668E+00
        -11   -1    0    0    0    0  0.00000000000E+00  0.00000000000E+00  0.45593999997E+02  0.45594000000E+02  0.51100000000E-03 0.  1.
         11   -1    0    0    0    0 -0.00000000000E+00 -0.00000000000E+00 -0.45593999997E+02  0.45594000000E+02  0.51100000000E-03 0. -1.
    9900012    2    1    2    0    0 -0.34702670806E+02 -0.24082102981E+02  0.99699914505E+01  0.47787265276E+02  0.19999973698E+02 0.  0.
         12    1    1    2    0    0  0.34702670806E+02  0.24082102981E+02 -0.99699914505E+01  0.43400734724E+02  0.00000000000E+00 0. -1.
         11    1    3    3    0    0 -0.67847881879E+00  0.23966757452E+01  0.60840974428E+00  0.25640886906E+01  0.51100000000E-03 0. -1.
        -11    1    3    3    0    0 -0.19523675765E+02 -0.13771425771E+02  0.23865077768E+00  0.23893158803E+02  0.51100000000E-03 0.  1.
        -12    1    3    3    0    0 -0.14500516223E+02 -0.12707352955E+02  0.91229309285E+01  0.21330017782E+02  0.00000000000E+00 0.  1.
</event>
<event>
 7    1  0.5038211E-009  0.4778727E+02  0.7816164E-02  0.1312668E+00
        -11   -1    0    0    0    0  0.00000000000E+00  0.00000000000E+00  0.45593999997E+02  0.45594000000E+02  0.51100000000E-03 0. -1.
         11   -1    0    0    0    0 -0.00000000000E+00 -0.00000000000E+00 -0.45593999997E+02  0.45594000000E+02  0.51100000000E-03 0.  1.
    9900012    2    1    2    0    0  0.34070630668E+02 -0.51131351447E+01 -0.26394540002E+02  0.47787265363E+02  0.19999974098E+02 0.  0.
         12    1    1    2    0    0 -0.34070630668E+02  0.51131351447E+01  0.26394540002E+02  0.43400734637E+02  0.00000000000E+00 0. -1.
         11    1    3    3    0    0  0.34118043385E+01  0.14260714482E+01 -0.10302784848E+02  0.10946299124E+02  0.51100000000E-03 0. -1.
        -11    1    3    3    0    0  0.59616167038E+01 -0.22775869448E+01 -0.85489685655E+01  0.10668324133E+02  0.51100000000E-03 0.  1.
         12    1    3    3    0    0  0.24697209626E+02 -0.42616196481E+01 -0.75427865876E+01  0.26172642106E+02  0.00000000000E+00 0. -1.
</event>
<event>
 7    1  0.5038211E-009  0.4778727E+02  0.7816164E-02  0.1312668E+00
        -11   -1    0    0    0    0  0.00000000000E+00  0.00000000000E+00  0.45593999997E+02  0.45594000000E+02  0.51100000000E-03 0.  1.
         11   -1    0    0    0    0 -0.00000000000E+00 -0.00000000000E+00 -0.45593999997E+02  0.45594000000E+02  0.51100000000E-03 0. -1.
    9900012    2    1    2    0    0  0.54871845756E+01  0.72839766580E+01  0.42431803051E+02  0.47787269353E+02  0.19999992287E+02 0.  0.
         12    1    1    2    0    0 -0.54871845756E+01 -0.72839766580E+01 -0.42431803051E+02  0.43400730647E+02  0.00000000000E+00 0. -1.
         11    1    3    3    0    0  0.90047334798E+01  0.55440751409E+00  0.10979557774E+02  0.14210674928E+02  0.51100000000E-03 0. -1.
        -11    1    3    3    0    0  0.22259565981E+01  0.45753269755E+01  0.19359767737E+02  0.20017220256E+02  0.51100000000E-03 0.  1.
         12    1    3    3    0    0 -0.57435055023E+01  0.21542421684E+01  0.12092477540E+02  0.13559374168E+02  0.00000000000E+00 0. -1.
</event>
<event>
 7    1  0.5038211E-009  0.4778727E+02  0.7816164E-02  0.1312668E+00
        -11   -1    0    0    0    0  0.00000000000E+00  0.00000000000E+00  0.45593999997E+02  0.45594000000E+02  0.51100000000E-03 0.  1.
         11   -1    0    0    0    0 -0.00000000000E+00 -0.00000000000E+00 -0.45593999997E+02  0.45594000000E+02  0.51100000000E-03 0. -1.
    9900012    2    1    2    0    0 -0.76752547099E+01  0.39105027037E+02 -0.17190414348E+02  0.47787273970E+02  0.20000013341E+02 0.  0.
         12    1    1    2    0    0  0.76752547099E+01 -0.39105027037E+02  0.17190414348E+02  0.43400726030E+02  0.00000000000E+00 0. -1.
         11    1    3    3    0    0 -0.52699684683E+01  0.25711189409E+00 -0.24424298834E+01  0.58141326248E+01  0.51100000000E-03 0. -1.
        -11    1    3    3    0    0 -0.36195162961E+01  0.35928353282E+02 -0.13957711964E+02  0.38713888868E+02  0.51100000000E-03 0.  1.
         12    1    3    3    0    0  0.12142300544E+01  0.29195618607E+01 -0.79027250134E+00  0.32592524771E+01  0.00000000000E+00 0. -1.
</event>
<event>
 7    1  0.5038211E-009  0.4778727E+02  0.7816164E-02  0.1312668E+00
        -11   -1    0    0    0    0  0.00000000000E+00  0.00000000000E+00  0.45593999997E+02  0.45594000000E+02  0.51100000000E-03 0.  1.
         11   -1    0    0    0    0 -0.00000000000E+00 -0.00000000000E+00 -0.45593999997E+02  0.45594000000E+02  0.51100000000E-03 0. -1.
    9900012    2    1    2    0    0 -0.29574018157E+02  0.31515263678E+02 -0.39735308154E+01  0.47787270262E+02  0.19999996434E+02 0.  0.
         12    1    1    2    0    0  0.29574018157E+02 -0.31515263678E+02  0.39735308154E+01  0.43400729738E+02  0.00000000000E+00 0. -1.
         11    1    3    3    0    0 -0.24425508250E+02  0.12381418409E+02 -0.28214567326E+01  0.27529358755E+02  0.51100000000E-03 0. -1.
        -11    1    3    3    0    0 -0.55289745299E+00  0.98234395673E+01 -0.74349521302E+00  0.98670383560E+01  0.51100000000E-03 0.  1.
         12    1    3    3    0    0 -0.45956124535E+01  0.93104057017E+01 -0.40857886976E+00  0.10390873151E+02  0.00000000000E+00 0. -1.
</event>
<event>
 7    1  0.5038211E-009  0.4778727E+02  0.7816164E-02  0.1312668E+00
        -11   -1    0    0    0    0  0.00000000000E+00  0.00000000000E+00  0.45593999997E+02  0.45594000000E+02  0.51100000000E-03 0.  1.
         11   -1    0    0    0    0 -0.00000000000E+00 -0.00000000000E+00 -0.45593999997E+02  0.45594000000E+02  0.51100000000E-03 0. -1.
    9900012    2    1    2    0    0 -0.17777566671E+02 -0.25460250780E+02  0.30320903889E+02  0.47787268910E+02  0.19999990269E+02 0.  0.
         12    1    1    2    0    0  0.17777566671E+02  0.25460250780E+02 -0.30320903889E+02  0.43400731090E+02  0.00000000000E+00 0. -1.
         11    1    3    3    0    0  0.14500630215E+01 -0.10167921618E+02  0.10511733094E+02  0.14696456910E+02  0.51100000000E-03 0. -1.
        -11    1    3    3    0    0 -0.13935189899E+02 -0.15940965638E+02  0.15957368912E+02  0.26513044447E+02  0.51100000000E-03 0.  1.
         12    1    3    3    0    0 -0.52924397934E+01  0.64863647630E+00  0.38518018824E+01  0.65777675533E+01  0.00000000000E+00 0. -1.
</event>
<event>
 7    1  0.5038211E-009  0.4778727E+02  0.7816164E-02  0.1312668E+00
        -11   -1    0    0    0    0  0.00000000000E+00  0.00000000000E+00  0.45593999997E+02  0.45594000000E+02  0.51100000000E-03 0.  1.
         11   -1    0    0    0    0 -0.00000000000E+00 -0.00000000000E+00 -0.45593999997E+02  0.45594000000E+02  0.51100000000E-03 0. -1.
    9900012    2    1    2    0    0  0.95736836788E+01 -0.25016164760E+02  0.34149072813E+02  0.47787273134E+02  0.20000009529E+02 0.  0.
         12    1    1    2    0    0 -0.95736836788E+01  0.25016164760E+02 -0.34149072813E+02  0.43400726866E+02  0.00000000000E+00 0. -1.
         11    1    3    3    0    0  0.26487469666E+01 -0.14506937924E+02  0.59095402781E+01  0.15886779881E+02  0.51100000000E-03 0. -1.
        -11    1    3    3    0    0  0.58267415434E+01 -0.11233452289E+02  0.27745747270E+02  0.30495374390E+02  0.51100000000E-03 0.  1.
         12    1    3    3    0    0  0.10981951689E+01  0.72422545204E+00  0.49378526438E+00  0.14051188639E+01  0.00000000000E+00 0. -1.
</event>
<event>
 7    1  0.5038211E-009  0.4778729E+02  0.7816164E-02  0.1312668E+00
        -11   -1    0    0    0    0  0.00000000000E+00  0.00000000000E+00  0.45593999997E+02  0.45594000000E+02  0.51100000000E-03 0.  1.
         11   -1    0    0    0    0 -0.00000000000E+00 -0.00000000000E+00 -0.45593999997E+02  0.45594000000E+02  0.51100000000E-03 0. -1.
    9900012    2    1    2    0    0  0.25544871828E+02 -0.32169407200E+02  0.14007515670E+02  0.47787288813E+02  0.20000081013E+02 0.  0.
         12    1    1    2    0    0 -0.25544871828E+02  0.32169407200E+02 -0.14007515670E+02  0.43400711187E+02  0.00000000000E+00 0. -1.
         11    1    3    3    0    0 -0.66435272035E-01 -0.11440734634E+02  0.16812971087E+01  0.11563804860E+02  0.51100000000E-03 0. -1.
        -11    1    3    3    0    0  0.95014139988E+01 -0.70367339595E+01  0.14746697689E+00  0.11824307149E+02  0.51100000000E-03 0.  1.
         12    1    3    3    0    0  0.16109893101E+02 -0.13691938607E+02  0.12178751585E+02  0.24399176804E+02  0.00000000000E+00 0. -1.
</event>
<event>
 7    1  0.5038211E-009  0.4778726E+02  0.7816164E-02  0.1312668E+00
        -11   -1    0    0    0    0  0.00000000000E+00  0.00000000000E+00  0.45593999997E+02  0.45594000000E+02  0.51100000000E-03 0.  1.
         11   -1    0    0    0    0 -0.00000000000E+00 -0.00000000000E+00 -0.45593999997E+02  0.45594000000E+02  0.51100000000E-03 0. -1.
    9900012    2    1    2    0    0 -0.34769853056E+02 -0.25374370392E+02  0.55518068143E+01  0.47787263679E+02  0.19999966417E+02 0.  0.
         12    1    1    2    0    0  0.34769853056E+02  0.25374370392E+02 -0.55518068143E+01  0.43400736321E+02  0.00000000000E+00 0. -1.
         11    1    3    3    0    0 -0.46257732484E+01 -0.33891188232E+01 -0.11893528937E+01  0.58564891454E+01  0.51100000000E-03 0. -1.
        -11    1    3    3    0    0 -0.14842148756E+02 -0.21434375148E+02  0.44470638196E+01  0.26448028179E+02  0.51100000000E-03 0.  1.
        -12    1    3    3    0    0 -0.15301931051E+02 -0.55087642117E+00  0.22940958884E+01  0.15482746354E+02  0.00000000000E+00 0.  1.
</event>
<event>
 7    1  0.5038211E-009  0.4778723E+02  0.7816164E-02  0.1312668E+00
        -11   -1    0    0    0    0  0.00000000000E+00  0.00000000000E+00  0.45593999997E+02  0.45594000000E+02  0.51100000000E-03 0.  1.
         11   -1    0    0    0    0 -0.00000000000E+00 -0.00000000000E+00 -0.45593999997E+02  0.45594000000E+02  0.51100000000E-03 0. -1.
    9900012    2    1    2    0    0  0.33690854818E+02 -0.26071030569E+02  0.82978668744E+01  0.47787228948E+02  0.19999808063E+02 0.  0.
         12    1    1    2    0    0 -0.33690854818E+02  0.26071030569E+02 -0.82978668744E+01  0.43400771052E+02  0.00000000000E+00 0. -1.
         11    1    3    3    0    0  0.12703197017E+02 -0.29770351230E+01  0.52226717099E+01  0.14053834090E+02  0.51100000000E-03 0. -1.
        -11    1    3    3    0    0  0.40797298998E+00 -0.75847088047E+01 -0.93803389887E+00  0.76533755605E+01  0.51100000000E-03 0.  1.
         12    1    3    3    0    0  0.20579684811E+02 -0.15509286641E+02  0.40132290634E+01  0.26080019297E+02  0.00000000000E+00 0. -1.
</event>
<event>
 7    1  0.5038211E-009  0.4778727E+02  0.7816164E-02  0.1312668E+00
        -11   -1    0    0    0    0  0.00000000000E+00  0.00000000000E+00  0.45593999997E+02  0.45594000000E+02  0.51100000000E-03 0.  1.
         11   -1    0    0    0    0 -0.00000000000E+00 -0.00000000000E+00 -0.45593999997E+02  0.45594000000E+02  0.51100000000E-03 0. -1.
    9900012    2    1    2    0    0 -0.20692274914E+02 -0.37556101101E+02 -0.67076261551E+01  0.47787271669E+02  0.20000002848E+02 0.  0.
         12    1    1    2    0    0  0.20692274914E+02  0.37556101101E+02  0.67076261551E+01  0.43400728331E+02  0.00000000000E+00 0. -1.
         11    1    3    3    0    0  0.56835141191E+00 -0.64252977585E+01  0.34084409644E+01  0.72955427956E+01  0.51100000000E-03 0.  1.
        -11    1    3    3    0    0 -0.15852147437E+02 -0.15172151506E+02 -0.86201239242E+01  0.23575226329E+02  0.51100000000E-03 0. -1.
        -12    1    3    3    0    0 -0.54084788885E+01 -0.15958651836E+02 -0.14959431953E+01  0.16916502545E+02  0.00000000000E+00 0.  1.
</event>
<event>
 7    1  0.5038211E-009  0.4778727E+02  0.7816164E-02  0.1312668E+00
        -11   -1    0    0    0    0  0.00000000000E+00  0.00000000000E+00  0.45593999997E+02  0.45594000000E+02  0.51100000000E-03 0.  1.
         11   -1    0    0    0    0 -0.00000000000E+00 -0.00000000000E+00 -0.45593999997E+02  0.45594000000E+02  0.51100000000E-03 0. -1.
    9900012    2    1    2    0    0  0.34032185562E+02 -0.12808063679E+02  0.23693608265E+02  0.47787271643E+02  0.20000002729E+02 0.  0.
         12    1    1    2    0    0 -0.34032185562E+02  0.12808063679E+02 -0.23693608265E+02  0.43400728357E+02  0.00000000000E+00 0. -1.
         11    1    3    3    0    0  0.21272954306E+01 -0.12851775911E+01 -0.34300542479E+00  0.25089281122E+01  0.51100000000E-03 0. -1.
        -11    1    3    3    0    0  0.46958226863E+01 -0.63616037530E+01 -0.96808763770E+00  0.79660496450E+01  0.51100000000E-03 0.  1.
        -12    1    3    3    0    0  0.27209067445E+02 -0.51612823346E+01  0.25004701327E+02  0.37312293886E+02  0.00000000000E+00 0.  1.
</event>
<event>
 7    1  0.5079938E-009  0.4778727E+02  0.7816164E-02  0.1312668E+00
        -11   -1    0    0    0    0  0.00000000000E+00  0.00000000000E+00  0.45593999997E+02  0.45594000000E+02  0.51100000000E-03 0.  1.
         11   -1    0    0    0    0 -0.00000000000E+00 -0.00000000000E+00 -0.45593999997E+02  0.45594000000E+02  0.51100000000E-03 0. -1.
    9900012    2    1    2    0    0  0.33159099748E+02  0.13831969861E+02  0.24346948623E+02  0.47787271970E+02  0.20000004219E+02 0.  0.
         12    1    1    2    0    0 -0.33159099748E+02 -0.13831969861E+02 -0.24346948623E+02  0.43400728030E+02  0.00000000000E+00 0. -1.
         11    1    3    3    0    0  0.49644269383E+01 -0.15567168279E+01  0.67807871092E+00  0.52467793080E+01  0.51100000000E-03 0. -1.
        -11    1    3    3    0    0  0.97416732546E+01  0.38235338487E+01  0.16638777050E+02  0.19656258822E+02  0.51100000000E-03 0.  1.
        -12    1    3    3    0    0  0.18452999555E+02  0.11565152840E+02  0.70300928620E+01  0.22884233840E+02  0.00000000000E+00 0.  1.
</event>
<event>
 7    1  0.5038211E-009  0.4778724E+02  0.7816164E-02  0.1312668E+00
        -11   -1    0    0    0    0  0.00000000000E+00  0.00000000000E+00  0.45593999997E+02  0.45594000000E+02  0.51100000000E-03 0. -1.
         11   -1    0    0    0    0 -0.00000000000E+00 -0.00000000000E+00 -0.45593999997E+02  0.45594000000E+02  0.51100000000E-03 0.  1.
    9900012    2    1    2    0    0  0.17341025645E+02 -0.38486030405E+02  0.10086625557E+02  0.47787242842E+02  0.19999871413E+02 0.  0.
         12    1    1    2    0    0 -0.17341025645E+02  0.38486030405E+02 -0.10086625557E+02  0.43400757158E+02  0.00000000000E+00 0. -1.
         11    1    3    3    0    0  0.90989380016E+00 -0.21879360412E+02  0.68760178827E+01  0.22952427779E+02  0.51100000000E-03 0. -1.
        -11    1    3    3    0    0  0.96408889675E+01 -0.67204166887E+01  0.48812517300E+01  0.12725461063E+02  0.51100000000E-03 0.  1.
         12    1    3    3    0    0  0.67902428777E+01 -0.98862533037E+01 -0.16706440555E+01  0.12109353999E+02  0.00000000000E+00 0. -1.
</event>
<event>
 7    1  0.5038211E-009  0.4778727E+02  0.7816164E-02  0.1312668E+00
        -11   -1    0    0    0    0  0.00000000000E+00  0.00000000000E+00  0.45593999997E+02  0.45594000000E+02  0.51100000000E-03 0.  1.
         11   -1    0    0    0    0 -0.00000000000E+00 -0.00000000000E+00 -0.45593999997E+02  0.45594000000E+02  0.51100000000E-03 0. -1.
    9900012    2    1    2    0    0  0.13397654534E+02 -0.37048271885E+02  0.18208570537E+02  0.47787266854E+02  0.19999980892E+02 0.  0.
         12    1    1    2    0    0 -0.13397654534E+02  0.37048271885E+02 -0.18208570537E+02  0.43400733146E+02  0.00000000000E+00 0. -1.
         11    1    3    3    0    0  0.16610342507E+01 -0.31876580517E+01 -0.13413559137E+01  0.38365915322E+01  0.51100000000E-03 0. -1.
        -11    1    3    3    0    0  0.18647385653E+01 -0.22536693739E+02  0.52609532040E+01  0.23217610633E+02  0.51100000000E-03 0.  1.
        -12    1    3    3    0    0  0.98718817178E+01 -0.11323920094E+02  0.14288973247E+02  0.20733064689E+02  0.00000000000E+00 0.  1.
</event>
<event>
 7    1  0.5038211E-009  0.4778728E+02  0.7816164E-02  0.1312668E+00
        -11   -1    0    0    0    0  0.00000000000E+00  0.00000000000E+00  0.45593999997E+02  0.45594000000E+02  0.51100000000E-03 0.  1.
         11   -1    0    0    0    0 -0.00000000000E+00 -0.00000000000E+00 -0.45593999997E+02  0.45594000000E+02  0.51100000000E-03 0. -1.
    9900012    2    1    2    0    0 -0.14652743489E+01 -0.30320042814E+02  0.31018874627E+02  0.47787278712E+02  0.20000034959E+02 0.  0.
         12    1    1    2    0    0  0.14652743489E+01  0.30320042814E+02 -0.31018874627E+02  0.43400721288E+02  0.00000000000E+00 0. -1.
         11    1    3    3    0    0 -0.14619551116E+01 -0.79629014775E+01  0.43566572887E+01  0.91937791838E+01  0.51100000000E-03 0. -1.
        -11    1    3    3    0    0 -0.51624066811E+01 -0.21005592030E+02  0.16825573537E+02  0.27404110355E+02  0.51100000000E-03 0.  1.
        -12    1    3    3    0    0  0.51590874438E+01 -0.13515493071E+01  0.98366438014E+01  0.11189389173E+02  0.00000000000E+00 0.  1.
</event>
<event>
 7    1  0.5038211E-009  0.4778726E+02  0.7816164E-02  0.1312668E+00
        -11   -1    0    0    0    0  0.00000000000E+00  0.00000000000E+00  0.45593999997E+02  0.45594000000E+02  0.51100000000E-03 0.  1.
         11   -1    0    0    0    0 -0.00000000000E+00 -0.00000000000E+00 -0.45593999997E+02  0.45594000000E+02  0.51100000000E-03 0. -1.
    9900012    2    1    2    0    0 -0.11856626214E+02  0.19327601467E+02  0.37006601579E+02  0.47787258946E+02  0.19999944836E+02 0.  0.
         12    1    1    2    0    0  0.11856626214E+02 -0.19327601467E+02 -0.37006601579E+02  0.43400741054E+02  0.00000000000E+00 0. -1.
         11    1    3    3    0    0  0.27688304833E+01  0.17747427773E+01  0.11582372403E+02  0.12040244387E+02  0.51100000000E-03 0. -1.
        -11    1    3    3    0    0 -0.15220280703E+02  0.18456359055E+02  0.24950230014E+02  0.34565996474E+02  0.51100000000E-03 0.  1.
        -12    1    3    3    0    0  0.59482400558E+00 -0.90350036571E+00  0.47399916223E+00  0.11810180838E+01  0.00000000000E+00 0.  1.
</event>
<event>
 7    1  0.5038211E-009  0.4778727E+02  0.7816164E-02  0.1312668E+00
        -11   -1    0    0    0    0  0.00000000000E+00  0.00000000000E+00  0.45593999997E+02  0.45594000000E+02  0.51100000000E-03 0.  1.
         11   -1    0    0    0    0 -0.00000000000E+00 -0.00000000000E+00 -0.45593999997E+02  0.45594000000E+02  0.51100000000E-03 0. -1.
    9900012    2    1    2    0    0 -0.14239752219E+02  0.83226026244E+01  0.40144577989E+02  0.47787269595E+02  0.19999993393E+02 0.  0.
         12    1    1    2    0    0  0.14239752219E+02 -0.83226026244E+01 -0.40144577989E+02  0.43400730405E+02  0.00000000000E+00 0. -1.
         11    1    3    3    0    0 -0.44062752258E+00  0.56165808757E+01  0.37900073119E+01  0.67900139198E+01  0.51100000000E-03 0. -1.
        -11    1    3    3    0    0 -0.42400365359E+01 -0.33601298943E+01  0.22315979415E+02  0.22962389253E+02  0.51100000000E-03 0.  1.
        -12    1    3    3    0    0 -0.95590881607E+01  0.60661516430E+01  0.14038591263E+02  0.18034866422E+02  0.00000000000E+00 0.  1.
</event>
<event>
 7    1  0.5038211E-009  0.4778729E+02  0.7816164E-02  0.1312668E+00
        -11   -1    0    0    0    0  0.00000000000E+00  0.00000000000E+00  0.45593999997E+02  0.45594000000E+02  0.51100000000E-03 0.  1.
         11   -1    0    0    0    0 -0.00000000000E+00 -0.00000000000E+00 -0.45593999997E+02  0.45594000000E+02  0.51100000000E-03 0. -1.
    9900012    2    1    2    0    0 -0.28262754556E+02  0.27218078534E+02  0.18547640117E+02  0.47787285166E+02  0.20000064388E+02 0.  0.
         12    1    1    2    0    0  0.28262754556E+02 -0.27218078534E+02 -0.18547640117E+02  0.43400714834E+02  0.00000000000E+00 0. -1.
         11    1    3    3    0    0 -0.15744853043E+02  0.32654191956E+01  0.10311951479E+02  0.19102348113E+02  0.51100000000E-03 0. -1.
        -11    1    3    3    0    0 -0.90439884176E+01  0.19585484334E+02  0.82723350546E+01  0.23104468196E+02  0.51100000000E-03 0.  1.
         12    1    3    3    0    0 -0.34739130956E+01  0.43671750043E+01 -0.36646416616E-01  0.55804688579E+01  0.00000000000E+00 0. -1.
</event>
<event>
 7    1  0.5038211E-009  0.4778727E+02  0.7816164E-02  0.1312668E+00
        -11   -1    0    0    0    0  0.00000000000E+00  0.00000000000E+00  0.45593999997E+02  0.45594000000E+02  0.51100000000E-03 0.  1.
         11   -1    0    0    0    0 -0.00000000000E+00 -0.00000000000E+00 -0.45593999997E+02  0.45594000000E+02  0.51100000000E-03 0. -1.
    9900012    2    1    2    0    0  0.18629390862E+02 -0.23998723158E+02  0.30994033773E+02  0.47787273663E+02  0.20000011937E+02 0.  0.
         12    1    1    2    0    0 -0.18629390862E+02  0.23998723158E+02 -0.30994033773E+02  0.43400726337E+02  0.00000000000E+00 0. -1.
         11    1    3    3    0    0  0.28785383011E+01 -0.39895855770E+00  0.17001318163E+01  0.33668381511E+01  0.51100000000E-03 0. -1.
        -11    1    3    3    0    0  0.15926176968E+02 -0.18473187517E+02  0.30595966688E+02  0.39128186103E+02  0.51100000000E-03 0.  1.
        -12    1    3    3    0    0 -0.17532440728E+00 -0.51265770831E+01 -0.13020647316E+01  0.52922494085E+01  0.00000000000E+00 0.  1.
</event>
<event>
 7    1  0.5038211E-009  0.4778727E+02  0.7816164E-02  0.1312668E+00
        -11   -1    0    0    0    0  0.00000000000E+00  0.00000000000E+00  0.45593999997E+02  0.45594000000E+02  0.51100000000E-03 0.  1.
         11   -1    0    0    0    0 -0.00000000000E+00 -0.00000000000E+00 -0.45593999997E+02  0.45594000000E+02  0.51100000000E-03 0. -1.
    9900012    2    1    2    0    0  0.21513588027E+02  0.23655229846E+02  0.29346526327E+02  0.47787274473E+02  0.20000015631E+02 0.  0.
         12    1    1    2    0    0 -0.21513588027E+02 -0.23655229846E+02 -0.29346526327E+02  0.43400725527E+02  0.00000000000E+00 0. -1.
         11    1    3    3    0    0  0.11593924649E+02  0.66980604736E+01  0.60112171715E+01  0.14677119439E+02  0.51100000000E-03 0. -1.
        -11    1    3    3    0    0  0.32961525397E+01  0.44586494929E+01  0.16487096118E+02  0.17394496702E+02  0.51100000000E-03 0.  1.
        -12    1    3    3    0    0  0.66235108379E+01  0.12498519879E+02  0.68482130373E+01  0.15715658332E+02  0.00000000000E+00 0.  1.
</event>
<event>
 7    1  0.5038211E-009  0.4778727E+02  0.7816164E-02  0.1312668E+00
        -11   -1    0    0    0    0  0.00000000000E+00  0.00000000000E+00  0.45593999997E+02  0.45594000000E+02  0.51100000000E-03 0. -1.
         11   -1    0    0    0    0 -0.00000000000E+00 -0.00000000000E+00 -0.45593999997E+02  0.45594000000E+02  0.51100000000E-03 0.  1.
    9900012    2    1    2    0    0  0.55964438230E+01  0.17824474310E+02 -0.39173857995E+02  0.47787271687E+02  0.20000002929E+02 0.  0.
         12    1    1    2    0    0 -0.55964438230E+01 -0.17824474310E+02  0.39173857995E+02  0.43400728313E+02  0.00000000000E+00 0. -1.
         11    1    3    3    0    0  0.60205866746E+01  0.12912414006E+02 -0.27070791630E+02  0.30590940801E+02  0.51100000000E-03 0.  1.
        -11    1    3    3    0    0  0.29256858252E+01 -0.26332292258E+01 -0.44232065230E+01  0.59210041302E+01  0.51100000000E-03 0. -1.
         12    1    3    3    0    0 -0.33498286768E+01  0.75452895296E+01 -0.76798598423E+01  0.11275326756E+02  0.00000000000E+00 0. -1.
</event>
<event>
 7    1  0.5038211E-009  0.4778727E+02  0.7816164E-02  0.1312668E+00
        -11   -1    0    0    0    0  0.00000000000E+00  0.00000000000E+00  0.45593999997E+02  0.45594000000E+02  0.51100000000E-03 0. -1.
         11   -1    0    0    0    0 -0.00000000000E+00 -0.00000000000E+00 -0.45593999997E+02  0.45594000000E+02  0.51100000000E-03 0.  1.
    9900012    2    1    2    0    0 -0.38380357140E+02  0.18781204987E+02  0.76051144714E+01  0.47787271422E+02  0.20000001722E+02 0.  0.
         12    1    1    2    0    0  0.38380357140E+02 -0.18781204987E+02 -0.76051144714E+01  0.43400728578E+02  0.00000000000E+00 0. -1.
         11    1    3    3    0    0 -0.95009687602E+01  0.89820984967E+01  0.93129447828E+01  0.16052334459E+02  0.51100000000E-03 0. -1.
        -11    1    3    3    0    0 -0.26122115589E+02  0.72505304736E+01  0.96369380710E+00  0.27126810004E+02  0.51100000000E-03 0.  1.
         12    1    3    3    0    0 -0.27572727913E+01  0.25485760169E+01 -0.26715241186E+01  0.46081269596E+01  0.00000000000E+00 0. -1.
</event>
<event>
 7    1  0.5038211E-009  0.4778727E+02  0.7816164E-02  0.1312668E+00
        -11   -1    0    0    0    0  0.00000000000E+00  0.00000000000E+00  0.45593999997E+02  0.45594000000E+02  0.51100000000E-03 0.  1.
         11   -1    0    0    0    0 -0.00000000000E+00 -0.00000000000E+00 -0.45593999997E+02  0.45594000000E+02  0.51100000000E-03 0. -1.
    9900012    2    1    2    0    0 -0.10417094812E+01 -0.36915628724E+02 -0.22798568692E+02  0.47787268012E+02  0.19999986172E+02 0.  0.
         12    1    1    2    0    0  0.10417094812E+01  0.36915628724E+02  0.22798568692E+02  0.43400731988E+02  0.00000000000E+00 0. -1.
         11    1    3    3    0    0  0.10553670125E+01 -0.12304065428E+02  0.13561264737E+01  0.12423481994E+02  0.51100000000E-03 0. -1.
        -11    1    3    3    0    0 -0.10341764283E+01 -0.22415364003E+02 -0.18077750990E+02  0.28815328306E+02  0.51100000000E-03 0.  1.
         12    1    3    3    0    0 -0.10629000654E+01 -0.21961992929E+01 -0.60769441755E+01  0.65484577112E+01  0.00000000000E+00 0. -1.
</event>
<event>
 7    1  0.5038211E-009  0.4778727E+02  0.7816164E-02  0.1312668E+00
        -11   -1    0    0    0    0  0.00000000000E+00  0.00000000000E+00  0.45593999997E+02  0.45594000000E+02  0.51100000000E-03 0.  1.
         11   -1    0    0    0    0 -0.00000000000E+00 -0.00000000000E+00 -0.45593999997E+02  0.45594000000E+02  0.51100000000E-03 0. -1.
    9900012    2    1    2    0    0  0.13518875676E+02  0.32131906031E+02  0.25853506626E+02  0.47787272015E+02  0.20000004427E+02 0.  0.
         12    1    1    2    0    0 -0.13518875676E+02 -0.32131906031E+02 -0.25853506626E+02  0.43400727985E+02  0.00000000000E+00 0. -1.
         11    1    3    3    0    0  0.78776366445E+01  0.14189817968E+02  0.65103421019E+01  0.17486927907E+02  0.51100000000E-03 0. -1.
        -11    1    3    3    0    0 -0.44067393004E+01  0.38155276608E+01  0.34000594682E+01  0.67481854776E+01  0.51100000000E-03 0.  1.
        -12    1    3    3    0    0  0.10047978332E+02  0.14126560402E+02  0.15943105056E+02  0.23552158631E+02  0.00000000000E+00 0.  1.
</event>
<event>
 7    1  0.5038211E-009  0.4778727E+02  0.7816164E-02  0.1312668E+00
        -11   -1    0    0    0    0  0.00000000000E+00  0.00000000000E+00  0.45593999997E+02  0.45594000000E+02  0.51100000000E-03 0.  1.
         11   -1    0    0    0    0 -0.00000000000E+00 -0.00000000000E+00 -0.45593999997E+02  0.45594000000E+02  0.51100000000E-03 0. -1.
    9900012    2    1    2    0    0 -0.42647874266E+02  0.34496097828E+01 -0.72720256376E+01  0.47787270237E+02  0.19999996318E+02 0.  0.
         12    1    1    2    0    0  0.42647874266E+02 -0.34496097828E+01  0.72720256376E+01  0.43400729763E+02  0.00000000000E+00 0. -1.
         11    1    3    3    0    0 -0.22869555698E+02 -0.10660226126E+01 -0.12006007598E+02  0.25851444848E+02  0.51100000000E-03 0. -1.
        -11    1    3    3    0    0 -0.17671250755E+02  0.46011784861E+01  0.18370331390E+01  0.18352619370E+02  0.51100000000E-03 0.  1.
         12    1    3    3    0    0 -0.21070678128E+01 -0.85546090767E-01  0.28969488210E+01  0.35832060188E+01  0.00000000000E+00 0. -1.
</event>
<event>
 7    1  0.5038211E-009  0.4778729E+02  0.7816164E-02  0.1312668E+00
        -11   -1    0    0    0    0  0.00000000000E+00  0.00000000000E+00  0.45593999997E+02  0.45594000000E+02  0.51100000000E-03 0.  1.
         11   -1    0    0    0    0 -0.00000000000E+00 -0.00000000000E+00 -0.45593999997E+02  0.45594000000E+02  0.51100000000E-03 0. -1.
    9900012    2    1    2    0    0 -0.25581652716E+02  0.30922915486E+02 -0.16521915136E+02  0.47787293352E+02  0.20000101709E+02 0.  0.
         12    1    1    2    0    0  0.25581652716E+02 -0.30922915486E+02  0.16521915136E+02  0.43400706648E+02  0.00000000000E+00 0. -1.
         11    1    3    3    0    0 -0.51867475453E+01  0.29267887494E+00 -0.48102393553E+01  0.70800009844E+01  0.51100000000E-03 0. -1.
        -11    1    3    3    0    0 -0.16429596027E+02  0.29891283168E+02 -0.12955167422E+02  0.36486391960E+02  0.51100000000E-03 0.  1.
        -12    1    3    3    0    0 -0.39653091431E+01  0.73895344260E+00  0.12434916414E+01  0.42209004079E+01  0.00000000000E+00 0.  1.
</event>
<event>
 7    1  0.5038211E-009  0.4778727E+02  0.7816164E-02  0.1312668E+00
        -11   -1    0    0    0    0  0.00000000000E+00  0.00000000000E+00  0.45593999997E+02  0.45594000000E+02  0.51100000000E-03 0. -1.
         11   -1    0    0    0    0 -0.00000000000E+00 -0.00000000000E+00 -0.45593999997E+02  0.45594000000E+02  0.51100000000E-03 0.  1.
    9900012    2    1    2    0    0  0.42639114788E+00 -0.43052559168E+02 -0.54697737182E+01  0.47787273222E+02  0.20000009929E+02 0.  0.
         12    1    1    2    0    0 -0.42639114788E+00  0.43052559168E+02  0.54697737182E+01  0.43400726778E+02  0.00000000000E+00 0. -1.
         11    1    3    3    0    0  0.12870715366E+01  0.82403064426E+00  0.11303052728E+01  0.19008340048E+01  0.51100000000E-03 0. -1.
        -11    1    3    3    0    0  0.14038350465E+00 -0.41239413409E+02 -0.89680461299E+01  0.42203492480E+02  0.51100000000E-03 0.  1.
        -12    1    3    3    0    0 -0.10010638934E+01 -0.26371764034E+01  0.23679671388E+01  0.36829467376E+01  0.00000000000E+00 0.  1.
</event>
<event>
 7    1  0.5038211E-009  0.4778727E+02  0.7816164E-02  0.1312668E+00
        -11   -1    0    0    0    0  0.00000000000E+00  0.00000000000E+00  0.45593999997E+02  0.45594000000E+02  0.51100000000E-03 0.  1.
         11   -1    0    0    0    0 -0.00000000000E+00 -0.00000000000E+00 -0.45593999997E+02  0.45594000000E+02  0.51100000000E-03 0. -1.
    9900012    2    1    2    0    0 -0.11265975023E+02 -0.25740643009E+02 -0.33077491376E+02  0.47787270381E+02  0.19999996975E+02 0.  0.
         12    1    1    2    0    0  0.11265975023E+02  0.25740643009E+02  0.33077491376E+02  0.43400729619E+02  0.00000000000E+00 0. -1.
         11    1    3    3    0    0  0.29932448154E+01 -0.89532092774E+01 -0.17076475552E+02  0.19512188202E+02  0.51100000000E-03 0. -1.
        -11    1    3    3    0    0 -0.44964411833E+01 -0.77921472529E+01 -0.10703258661E+02  0.13981962965E+02  0.51100000000E-03 0.  1.
         12    1    3    3    0    0 -0.97627786554E+01 -0.89952864791E+01 -0.52977571629E+01  0.14293119214E+02  0.00000000000E+00 0. -1.
</event>
<event>
 7    1  0.5038211E-009  0.4778728E+02  0.7816164E-02  0.1312668E+00
        -11   -1    0    0    0    0  0.00000000000E+00  0.00000000000E+00  0.45593999997E+02  0.45594000000E+02  0.51100000000E-03 0.  1.
         11   -1    0    0    0    0 -0.00000000000E+00 -0.00000000000E+00 -0.45593999997E+02  0.45594000000E+02  0.51100000000E-03 0. -1.
    9900012    2    1    2    0    0  0.26095212018E+02 -0.34418960635E+02  0.42423680228E+01  0.47787278486E+02  0.20000033929E+02 0.  0.
         12    1    1    2    0    0 -0.26095212018E+02  0.34418960635E+02 -0.42423680228E+01  0.43400721514E+02  0.00000000000E+00 0. -1.
         11    1    3    3    0    0  0.80298554496E+00  0.16237772484E+01 -0.69440234929E-02  0.18114874602E+01  0.51100000000E-03 0. -1.
        -11    1    3    3    0    0  0.23577864247E+02 -0.33359239981E+02  0.23401130722E+00  0.40851062851E+02  0.51100000000E-03 0.  1.
        -12    1    3    3    0    0  0.17143622264E+01 -0.26834979031E+01  0.40153007391E+01  0.51247281747E+01  0.00000000000E+00 0.  1.
</event>
<event>
 7    1  0.5038211E-009  0.4778727E+02  0.7816164E-02  0.1312668E+00
        -11   -1    0    0    0    0  0.00000000000E+00  0.00000000000E+00  0.45593999997E+02  0.45594000000E+02  0.51100000000E-03 0.  1.
         11   -1    0    0    0    0 -0.00000000000E+00 -0.00000000000E+00 -0.45593999997E+02  0.45594000000E+02  0.51100000000E-03 0. -1.
    9900012    2    1    2    0    0 -0.14835119592E+01 -0.41370705458E+02  0.13034076565E+02  0.47787271553E+02  0.20000002320E+02 0.  0.
         12    1    1    2    0    0  0.14835119592E+01  0.41370705458E+02 -0.13034076565E+02  0.43400728447E+02  0.00000000000E+00 0. -1.
         11    1    3    3    0    0  0.63149121691E+01 -0.57507002966E+01  0.21145884742E+01  0.87988723301E+01  0.51100000000E-03 0. -1.
        -11    1    3    3    0    0 -0.95734707052E+01 -0.27699005172E+02  0.83198344832E+01  0.30464830132E+02  0.51100000000E-03 0.  1.
         12    1    3    3    0    0  0.17750465769E+01 -0.79209999889E+01  0.25996536077E+01  0.85235690913E+01  0.00000000000E+00 0. -1.
</event>
<event>
 7    1  0.5038211E-009  0.4778727E+02  0.7816164E-02  0.1312668E+00
        -11   -1    0    0    0    0  0.00000000000E+00  0.00000000000E+00  0.45593999997E+02  0.45594000000E+02  0.51100000000E-03 0.  1.
         11   -1    0    0    0    0 -0.00000000000E+00 -0.00000000000E+00 -0.45593999997E+02  0.45594000000E+02  0.51100000000E-03 0. -1.
    9900012    2    1    2    0    0  0.26349581999E+02  0.92515710272E+01  0.33222447130E+02  0.47787273839E+02  0.20000012743E+02 0.  0.
         12    1    1    2    0    0 -0.26349581999E+02 -0.92515710272E+01 -0.33222447130E+02  0.43400726161E+02  0.00000000000E+00 0. -1.
         11    1    3    3    0    0  0.19063376185E+02  0.15419698321E+00  0.26144084957E+02  0.32356595414E+02  0.51100000000E-03 0. -1.
        -11    1    3    3    0    0  0.33029583591E+01  0.64511469212E+01  0.77394037265E+01  0.10603075065E+02  0.51100000000E-03 0.  1.
         12    1    3    3    0    0  0.39832474544E+01  0.26462271228E+01 -0.66104155390E+00  0.48276033603E+01  0.00000000000E+00 0. -1.
</event>
<event>
 7    1  0.5038211E-009  0.4778727E+02  0.7816164E-02  0.1312668E+00
        -11   -1    0    0    0    0  0.00000000000E+00  0.00000000000E+00  0.45593999997E+02  0.45594000000E+02  0.51100000000E-03 0.  1.
         11   -1    0    0    0    0 -0.00000000000E+00 -0.00000000000E+00 -0.45593999997E+02  0.45594000000E+02  0.51100000000E-03 0. -1.
    9900012    2    1    2    0    0  0.27795664105E+01  0.19680144610E+02  0.38582239678E+02  0.47787270745E+02  0.19999998635E+02 0.  0.
         12    1    1    2    0    0 -0.27795664105E+01 -0.19680144610E+02 -0.38582239678E+02  0.43400729255E+02  0.00000000000E+00 0. -1.
         11    1    3    3    0    0  0.23939868506E+01  0.42165734402E+01  0.83062313908E-01  0.48494911307E+01  0.51100000000E-03 0. -1.
        -11    1    3    3    0    0 -0.27079409605E+01  0.15677027138E+02  0.32457974896E+02  0.36147230305E+02  0.51100000000E-03 0.  1.
        -12    1    3    3    0    0  0.30935205204E+01 -0.21345596827E+00  0.60412024678E+01  0.67905493089E+01  0.00000000000E+00 0.  1.
</event>
<event>
 7    1 -0.5038211E-009  0.4778727E+02  0.7816164E-02  0.1312668E+00
        -11   -1    0    0    0    0  0.00000000000E+00  0.00000000000E+00  0.45593999997E+02  0.45594000000E+02  0.51100000000E-03 0. -1.
         11   -1    0    0    0    0 -0.00000000000E+00 -0.00000000000E+00 -0.45593999997E+02  0.45594000000E+02  0.51100000000E-03 0.  1.
    9900012    2    1    2    0    0 -0.34681359065E+02 -0.25972963880E+02  0.24963353306E+01  0.47787271788E+02  0.20000003388E+02 0.  0.
         12    1    1    2    0    0  0.34681359065E+02  0.25972963880E+02 -0.24963353306E+01  0.43400728212E+02  0.00000000000E+00 0. -1.
         11    1    3    3    0    0 -0.11314350266E+01 -0.65536359970E+01 -0.38704215258E+01  0.76948328798E+01  0.51100000000E-03 0. -1.
        -11    1    3    3    0    0 -0.65284896796E+01 -0.59328655815E+01  0.43215277966E+01  0.98232211755E+01  0.51100000000E-03 0.  1.
         12    1    3    3    0    0 -0.27021434359E+02 -0.13486462301E+02  0.20452290598E+01  0.30269217732E+02  0.00000000000E+00 0. -1.
</event>
<event>
 7    1  0.5038211E-009  0.4778727E+02  0.7816164E-02  0.1312668E+00
        -11   -1    0    0    0    0  0.00000000000E+00  0.00000000000E+00  0.45593999997E+02  0.45594000000E+02  0.51100000000E-03 0.  1.
         11   -1    0    0    0    0 -0.00000000000E+00 -0.00000000000E+00 -0.45593999997E+02  0.45594000000E+02  0.51100000000E-03 0. -1.
    9900012    2    1    2    0    0 -0.14130074453E+02  0.15642934800E+02  0.37937614991E+02  0.47787273688E+02  0.20000012052E+02 0.  0.
         12    1    1    2    0    0  0.14130074453E+02 -0.15642934800E+02 -0.37937614991E+02  0.43400726312E+02  0.00000000000E+00 0. -1.
         11    1    3    3    0    0  0.25084384176E+01  0.34313316669E+01  0.14727657010E+02  0.15328737116E+02  0.51100000000E-03 0. -1.
        -11    1    3    3    0    0 -0.88667334892E+01  0.11027439548E+02  0.18510906756E+02  0.23299722207E+02  0.51100000000E-03 0.  1.
         12    1    3    3    0    0 -0.77717793814E+01  0.11841635851E+01  0.46990512259E+01  0.91588143651E+01  0.00000000000E+00 0. -1.
</event>
<event>
 7    1  0.5038211E-009  0.4778727E+02  0.7816164E-02  0.1312668E+00
        -11   -1    0    0    0    0  0.00000000000E+00  0.00000000000E+00  0.45593999997E+02  0.45594000000E+02  0.51100000000E-03 0. -1.
         11   -1    0    0    0    0 -0.00000000000E+00 -0.00000000000E+00 -0.45593999997E+02  0.45594000000E+02  0.51100000000E-03 0.  1.
    9900012    2    1    2    0    0  0.26235947172E+02  0.33585824953E+02 -0.82031137154E+01  0.47787266868E+02  0.19999980957E+02 0.  0.
         12    1    1    2    0    0 -0.26235947172E+02 -0.33585824953E+02  0.82031137154E+01  0.43400733132E+02  0.00000000000E+00 0. -1.
         11    1    3    3    0    0  0.13118931268E+02  0.24248117871E+02 -0.18023941510E+01  0.27628358671E+02  0.51100000000E-03 0. -1.
        -11    1    3    3    0    0  0.85191599128E+01  0.80304592209E+01  0.55322473241E+00  0.11720512736E+02  0.51100000000E-03 0.  1.
         12    1    3    3    0    0  0.45978559913E+01  0.13072478610E+01 -0.69539442968E+01  0.84383954618E+01  0.00000000000E+00 0. -1.
</event>
<event>
 7    1  0.5038211E-009  0.4778732E+02  0.7816164E-02  0.1312668E+00
        -11   -1    0    0    0    0  0.00000000000E+00  0.00000000000E+00  0.45593999997E+02  0.45594000000E+02  0.51100000000E-03 0.  1.
         11   -1    0    0    0    0 -0.00000000000E+00 -0.00000000000E+00 -0.45593999997E+02  0.45594000000E+02  0.51100000000E-03 0. -1.
    9900012    2    1    2    0    0 -0.31786669220E+02  0.12272715520E+02  0.26881349906E+02  0.47787321905E+02  0.20000231892E+02 0.  0.
         12    1    1    2    0    0  0.31786669220E+02 -0.12272715520E+02 -0.26881349906E+02  0.43400678095E+02  0.00000000000E+00 0. -1.
         11    1    3    3    0    0 -0.38163678912E+01  0.87622413080E+01  0.13254605306E+02  0.16340933226E+02  0.51100000000E-03 0. -1.
        -11    1    3    3    0    0 -0.25785236305E+02  0.38930056558E+01  0.13017234405E+02  0.29145879574E+02  0.51100000000E-03 0.  1.
         12    1    3    3    0    0 -0.21850650238E+01 -0.38253144369E+00  0.60951019520E+00  0.23005091049E+01  0.00000000000E+00 0. -1.
</event>
<event>
 7    1  0.5038211E-009  0.4778727E+02  0.7816164E-02  0.1312668E+00
        -11   -1    0    0    0    0  0.00000000000E+00  0.00000000000E+00  0.45593999997E+02  0.45594000000E+02  0.51100000000E-03 0.  1.
         11   -1    0    0    0    0 -0.00000000000E+00 -0.00000000000E+00 -0.45593999997E+02  0.45594000000E+02  0.51100000000E-03 0. -1.
    9900012    2    1    2    0    0 -0.27909882072E+01  0.27926614106E+02  0.33104952399E+02  0.47787271159E+02  0.20000000521E+02 0.  0.
         12    1    1    2    0    0  0.27909882072E+01 -0.27926614106E+02 -0.33104952399E+02  0.43400728841E+02  0.00000000000E+00 0. -1.
         11    1    3    3    0    0  0.83637539132E+00 -0.78481256513E+00 -0.50849686567E+00  0.12546010845E+01  0.51100000000E-03 0. -1.
        -11    1    3    3    0    0 -0.35485523046E+01  0.17579329380E+02  0.29771799635E+02  0.34756080025E+02  0.51100000000E-03 0.  1.
        -12    1    3    3    0    0 -0.78811294003E-01  0.11132097291E+02  0.38416496300E+01  0.11776590049E+02  0.00000000000E+00 0.  1.
</event>
<event>
 7    1  0.5038211E-009  0.4778727E+02  0.7816164E-02  0.1312668E+00
        -11   -1    0    0    0    0  0.00000000000E+00  0.00000000000E+00  0.45593999997E+02  0.45594000000E+02  0.51100000000E-03 0.  1.
         11   -1    0    0    0    0 -0.00000000000E+00 -0.00000000000E+00 -0.45593999997E+02  0.45594000000E+02  0.51100000000E-03 0. -1.
    9900012    2    1    2    0    0 -0.54340614807E+01  0.39842385710E+02  0.16330301926E+02  0.47787268621E+02  0.19999988952E+02 0.  0.
         12    1    1    2    0    0  0.54340614807E+01 -0.39842385710E+02 -0.16330301926E+02  0.43400731379E+02  0.00000000000E+00 0. -1.
         11    1    3    3    0    0 -0.68845811324E+01  0.18748637342E+02  0.14172741224E+02  0.24490313465E+02  0.51100000000E-03 0. -1.
        -11    1    3    3    0    0 -0.14669513648E+01  0.22576589482E+01  0.32313795254E+01  0.42060413849E+01  0.51100000000E-03 0.  1.
         12    1    3    3    0    0  0.29174710165E+01  0.18836089420E+02 -0.10738188235E+01  0.19090913772E+02  0.00000000000E+00 0. -1.
</event>
<event>
 7    1  0.5038211E-009  0.4778727E+02  0.7816164E-02  0.1312668E+00
        -11   -1    0    0    0    0  0.00000000000E+00  0.00000000000E+00  0.45593999997E+02  0.45594000000E+02  0.51100000000E-03 0. -1.
         11   -1    0    0    0    0 -0.00000000000E+00 -0.00000000000E+00 -0.45593999997E+02  0.45594000000E+02  0.51100000000E-03 0.  1.
    9900012    2    1    2    0    0 -0.32386147453E+02 -0.24408122908E+02 -0.15459768004E+02  0.47787269160E+02  0.19999991406E+02 0.  0.
         12    1    1    2    0    0  0.32386147453E+02  0.24408122908E+02  0.15459768004E+02  0.43400730840E+02  0.00000000000E+00 0. -1.
         11    1    3    3    0    0 -0.10310570984E+02 -0.98594774857E+01 -0.36380421046E+01  0.14722517479E+02  0.51100000000E-03 0. -1.
        -11    1    3    3    0    0 -0.12123159989E+02 -0.93959336208E+01 -0.14960893922E+02  0.21426220477E+02  0.51100000000E-03 0.  1.
        -12    1    3    3    0    0 -0.99524164800E+01 -0.51527118019E+01  0.31391680226E+01  0.11638531204E+02  0.00000000000E+00 0.  1.
</event>
<event>
 7    1  0.5038211E-009  0.4778727E+02  0.7816164E-02  0.1312668E+00
        -11   -1    0    0    0    0  0.00000000000E+00  0.00000000000E+00  0.45593999997E+02  0.45594000000E+02  0.51100000000E-03 0. -1.
         11   -1    0    0    0    0 -0.00000000000E+00 -0.00000000000E+00 -0.45593999997E+02  0.45594000000E+02  0.51100000000E-03 0.  1.
    9900012    2    1    2    0    0  0.86244920259E+01 -0.33791117082E+02 -0.25834123634E+02  0.47787269588E+02  0.19999993361E+02 0.  0.
         12    1    1    2    0    0 -0.86244920259E+01  0.33791117082E+02  0.25834123634E+02  0.43400730412E+02  0.00000000000E+00 0. -1.
         11    1    3    3    0    0  0.13542600662E+02 -0.14920870481E+02 -0.14030466263E+02  0.24553785705E+02  0.51100000000E-03 0. -1.
        -11    1    3    3    0    0 -0.12247149922E+01 -0.12341803541E+02 -0.85108495214E+01  0.15041761908E+02  0.51100000000E-03 0.  1.
         12    1    3    3    0    0 -0.36933936444E+01 -0.65284430597E+01 -0.32928078493E+01  0.81917219758E+01  0.00000000000E+00 0. -1.
</event>
<event>
 7    1  0.5038211E-009  0.4778727E+02  0.7816164E-02  0.1312668E+00
        -11   -1    0    0    0    0  0.00000000000E+00  0.00000000000E+00  0.45593999997E+02  0.45594000000E+02  0.51100000000E-03 0. -1.
         11   -1    0    0    0    0 -0.00000000000E+00 -0.00000000000E+00 -0.45593999997E+02  0.45594000000E+02  0.51100000000E-03 0.  1.
    9900012    2    1    2    0    0 -0.15758945979E+02 -0.18491296444E+02 -0.35963187590E+02  0.47787270926E+02  0.19999999458E+02 0.  0.
         12    1    1    2    0    0  0.15758945979E+02  0.18491296444E+02  0.35963187590E+02  0.43400729074E+02  0.00000000000E+00 0. -1.
         11    1    3    3    0    0 -0.12620707994E+00 -0.37402188208E+01 -0.17441125033E+02  0.17838105497E+02  0.51100000000E-03 0. -1.
        -11    1    3    3    0    0 -0.34938618655E+01 -0.58746378336E+01 -0.11441274284E+02  0.13327460295E+02  0.51100000000E-03 0.  1.
         12    1    3    3    0    0 -0.12138877034E+02 -0.88764397897E+01 -0.70807882732E+01  0.16621705134E+02  0.00000000000E+00 0. -1.
</event>
<event>
 7    1  0.5038211E-009  0.4778727E+02  0.7816164E-02  0.1312668E+00
        -11   -1    0    0    0    0  0.00000000000E+00  0.00000000000E+00  0.45593999997E+02  0.45594000000E+02  0.51100000000E-03 0.  1.
         11   -1    0    0    0    0 -0.00000000000E+00 -0.00000000000E+00 -0.45593999997E+02  0.45594000000E+02  0.51100000000E-03 0. -1.
    9900012    2    1    2    0    0  0.10153896710E+02  0.25549051115E+02  0.33582258552E+02  0.47787265896E+02  0.19999976526E+02 0.  0.
         12    1    1    2    0    0 -0.10153896710E+02 -0.25549051115E+02 -0.33582258552E+02  0.43400734104E+02  0.00000000000E+00 0. -1.
         11    1    3    3    0    0  0.11352542952E+02  0.64312923166E+01  0.11660265003E+02  0.17498672308E+02  0.51100000000E-03 0. -1.
        -11    1    3    3    0    0  0.11077732522E+00  0.28909047897E+01 -0.10931595755E+00  0.28950910795E+01  0.51100000000E-03 0.  1.
         12    1    3    3    0    0 -0.13094235670E+01  0.16226854009E+02  0.22031309507E+02  0.27393502508E+02  0.00000000000E+00 0. -1.
</event>
<event>
 7    1  0.5038211E-009  0.4778727E+02  0.7816164E-02  0.1312668E+00
        -11   -1    0    0    0    0  0.00000000000E+00  0.00000000000E+00  0.45593999997E+02  0.45594000000E+02  0.51100000000E-03 0.  1.
         11   -1    0    0    0    0 -0.00000000000E+00 -0.00000000000E+00 -0.45593999997E+02  0.45594000000E+02  0.51100000000E-03 0. -1.
    9900012    2    1    2    0    0 -0.29759740269E+02 -0.19132339784E+02  0.25138312460E+02  0.47787270515E+02  0.19999997588E+02 0.  0.
         12    1    1    2    0    0  0.29759740269E+02  0.19132339784E+02 -0.25138312460E+02  0.43400729485E+02  0.00000000000E+00 0. -1.
         11    1    3    3    0    0 -0.11480079790E+02 -0.18111329721E+02  0.97933529502E+01  0.23573762078E+02  0.51100000000E-03 0. -1.
        -11    1    3    3    0    0 -0.16049786391E+02  0.14970399456E+00  0.12071419203E+02  0.20083257114E+02  0.51100000000E-03 0.  1.
        -12    1    3    3    0    0 -0.22298740871E+01 -0.11707140582E+01  0.32735403070E+01  0.41302513231E+01  0.00000000000E+00 0.  1.
</event>
<event>
 7    1  0.5038211E-009  0.4778727E+02  0.7816164E-02  0.1312668E+00
        -11   -1    0    0    0    0  0.00000000000E+00  0.00000000000E+00  0.45593999997E+02  0.45594000000E+02  0.51100000000E-03 0. -1.
         11   -1    0    0    0    0 -0.00000000000E+00 -0.00000000000E+00 -0.45593999997E+02  0.45594000000E+02  0.51100000000E-03 0.  1.
    9900012    2    1    2    0    0 -0.30603133768E+02 -0.24309269282E+02  0.18871439084E+02  0.47787267488E+02  0.19999983785E+02 0.  0.
         12    1    1    2    0    0  0.30603133768E+02  0.24309269282E+02 -0.18871439084E+02  0.43400732512E+02  0.00000000000E+00 0. -1.
         11    1    3    3    0    0 -0.79194426398E+01 -0.14999491532E+02  0.13429667017E+02  0.21634654478E+02  0.51100000000E-03 0. -1.
        -11    1    3    3    0    0 -0.17789973023E+02 -0.64378831642E+01  0.99780564485E+00  0.18945318582E+02  0.51100000000E-03 0.  1.
         12    1    3    3    0    0 -0.48937181046E+01 -0.28718945862E+01  0.44439664225E+01  0.72072944276E+01  0.00000000000E+00 0. -1.
</event>
<event>
 7    1  0.5038211E-009  0.4778728E+02  0.7816164E-02  0.1312668E+00
        -11   -1    0    0    0    0  0.00000000000E+00  0.00000000000E+00  0.45593999997E+02  0.45594000000E+02  0.51100000000E-03 0.  1.
         11   -1    0    0    0    0 -0.00000000000E+00 -0.00000000000E+00 -0.45593999997E+02  0.45594000000E+02  0.51100000000E-03 0. -1.
    9900012    2    1    2    0    0  0.10394129118E+02 -0.42016172318E+02  0.31978395358E+01  0.47787276111E+02  0.20000023103E+02 0.  0.
         12    1    1    2    0    0 -0.10394129118E+02  0.42016172318E+02 -0.31978395358E+01  0.43400723889E+02  0.00000000000E+00 0. -1.
         11    1    3    3    0    0 -0.96891567930E+00 -0.20748389753E+02 -0.74082004051E+00  0.20784207695E+02  0.51100000000E-03 0. -1.
        -11    1    3    3    0    0  0.11982788983E+02 -0.10511431214E+02  0.24109780568E+01  0.16121111420E+02  0.51100000000E-03 0.  1.
        -12    1    3    3    0    0 -0.61974418508E+00 -0.10756351351E+02  0.15276815195E+01  0.10881956996E+02  0.00000000000E+00 0.  1.
</event>
<event>
 7    1  0.5038211E-009  0.4778727E+02  0.7816164E-02  0.1312668E+00
        -11   -1    0    0    0    0  0.00000000000E+00  0.00000000000E+00  0.45593999997E+02  0.45594000000E+02  0.51100000000E-03 0. -1.
         11   -1    0    0    0    0 -0.00000000000E+00 -0.00000000000E+00 -0.45593999997E+02  0.45594000000E+02  0.51100000000E-03 0.  1.
    9900012    2    1    2    0    0  0.36524991728E+00  0.24540950425E+02 -0.35794296141E+02  0.47787270841E+02  0.19999999073E+02 0.  0.
         12    1    1    2    0    0 -0.36524991728E+00 -0.24540950425E+02  0.35794296141E+02  0.43400729159E+02  0.00000000000E+00 0. -1.
         11    1    3    3    0    0  0.49812303766E+01  0.11785205952E+02 -0.24757354379E+02  0.27868088049E+02  0.51100000000E-03 0. -1.
        -11    1    3    3    0    0 -0.68813473036E+00  0.95750899371E+01 -0.11337857543E+02  0.14856072517E+02  0.51100000000E-03 0.  1.
         12    1    3    3    0    0 -0.39278457289E+01  0.31806545357E+01  0.30091578098E+00  0.50631102746E+01  0.00000000000E+00 0. -1.
</event>
<event>
 7    1  0.5038211E-009  0.4778729E+02  0.7816164E-02  0.1312668E+00
        -11   -1    0    0    0    0  0.00000000000E+00  0.00000000000E+00  0.45593999997E+02  0.45594000000E+02  0.51100000000E-03 0.  1.
         11   -1    0    0    0    0 -0.00000000000E+00 -0.00000000000E+00 -0.45593999997E+02  0.45594000000E+02  0.51100000000E-03 0. -1.
    9900012    2    1    2    0    0 -0.34733293035E+02 -0.13000890754E+02  0.22543230775E+02  0.47787285038E+02  0.20000063801E+02 0.  0.
         12    1    1    2    0    0  0.34733293035E+02  0.13000890754E+02 -0.22543230775E+02  0.43400714962E+02  0.00000000000E+00 0. -1.
         11    1    3    3    0    0 -0.13815270529E+02 -0.12854580855E+01  0.17306198050E+02  0.22181492138E+02  0.51100000000E-03 0. -1.
        -11    1    3    3    0    0 -0.11344007917E+02 -0.98083397221E+01  0.51093889888E+01  0.15842850117E+02  0.51100000000E-03 0.  1.
         12    1    3    3    0    0 -0.95740145894E+01 -0.19070929465E+01  0.12764373682E+00  0.97629427832E+01  0.00000000000E+00 0. -1.
</event>
<event>
 7    1  0.5038211E-009  0.4778727E+02  0.7816164E-02  0.1312668E+00
        -11   -1    0    0    0    0  0.00000000000E+00  0.00000000000E+00  0.45593999997E+02  0.45594000000E+02  0.51100000000E-03 0.  1.
         11   -1    0    0    0    0 -0.00000000000E+00 -0.00000000000E+00 -0.45593999997E+02  0.45594000000E+02  0.51100000000E-03 0. -1.
    9900012    2    1    2    0    0 -0.28149116918E+02 -0.32802932719E+02  0.39010310622E+01  0.47787271647E+02  0.20000002746E+02 0.  0.
         12    1    1    2    0    0  0.28149116918E+02  0.32802932719E+02 -0.39010310622E+01  0.43400728353E+02  0.00000000000E+00 0. -1.
         11    1    3    3    0    0 -0.68710382949E+01 -0.75567353139E+01 -0.40945168481E+01  0.11003657771E+02  0.51100000000E-03 0. -1.
        -11    1    3    3    0    0 -0.18488540419E+02 -0.15125709817E+02  0.10336312162E+02  0.26027919119E+02  0.51100000000E-03 0.  1.
        -12    1    3    3    0    0 -0.27895382044E+01 -0.10120487589E+02 -0.23407642518E+01  0.10755694757E+02  0.00000000000E+00 0.  1.
</event>
<event>
 7    1  0.5038211E-009  0.4778727E+02  0.7816164E-02  0.1312668E+00
        -11   -1    0    0    0    0  0.00000000000E+00  0.00000000000E+00  0.45593999997E+02  0.45594000000E+02  0.51100000000E-03 0.  1.
         11   -1    0    0    0    0 -0.00000000000E+00 -0.00000000000E+00 -0.45593999997E+02  0.45594000000E+02  0.51100000000E-03 0. -1.
    9900012    2    1    2    0    0 -0.16537960052E+02  0.39870081314E+02  0.45272452636E+01  0.47787268942E+02  0.19999990415E+02 0.  0.
         12    1    1    2    0    0  0.16537960052E+02 -0.39870081314E+02 -0.45272452636E+01  0.43400731058E+02  0.00000000000E+00 0. -1.
         11    1    3    3    0    0  0.78569800745E+00  0.15546879919E+02  0.56964460250E+01  0.16576256940E+02  0.51100000000E-03 0. -1.
        -11    1    3    3    0    0 -0.15074777908E+02  0.19127668664E+02  0.24730384363E+01  0.24479227048E+02  0.51100000000E-03 0.  1.
         12    1    3    3    0    0 -0.22488801511E+01  0.51955327316E+01 -0.36422391977E+01  0.67317849545E+01  0.00000000000E+00 0. -1.
</event>
<event>
 7    1  0.5038211E-009  0.4778727E+02  0.7816164E-02  0.1312668E+00
        -11   -1    0    0    0    0  0.00000000000E+00  0.00000000000E+00  0.45593999997E+02  0.45594000000E+02  0.51100000000E-03 0. -1.
         11   -1    0    0    0    0 -0.00000000000E+00 -0.00000000000E+00 -0.45593999997E+02  0.45594000000E+02  0.51100000000E-03 0.  1.
    9900012    2    1    2    0    0  0.94502435237E+01  0.40519843427E+02 -0.12347419486E+02  0.47787267495E+02  0.19999983815E+02 0.  0.
         12    1    1    2    0    0 -0.94502435237E+01 -0.40519843427E+02  0.12347419486E+02  0.43400732505E+02  0.00000000000E+00 0. -1.
         11    1    3    3    0    0  0.10222733511E+02  0.13744535980E+02 -0.56536876713E+00  0.17138733672E+02  0.51100000000E-03 0. -1.
        -11    1    3    3    0    0 -0.66631956171E+00  0.22169937802E+02 -0.54880153341E+01  0.22848816960E+02  0.51100000000E-03 0.  1.
        -12    1    3    3    0    0 -0.10617042584E+00  0.46053696453E+01 -0.62940353844E+01  0.77997168634E+01  0.00000000000E+00 0.  1.
</event>
<event>
 7    1  0.5038211E-009  0.4778727E+02  0.7816164E-02  0.1312668E+00
        -11   -1    0    0    0    0  0.00000000000E+00  0.00000000000E+00  0.45593999997E+02  0.45594000000E+02  0.51100000000E-03 0. -1.
         11   -1    0    0    0    0 -0.00000000000E+00 -0.00000000000E+00 -0.45593999997E+02  0.45594000000E+02  0.51100000000E-03 0.  1.
    9900012    2    1    2    0    0  0.64107393340E+00 -0.43025760124E+02  0.56565537319E+01  0.47787267170E+02  0.19999982337E+02 0.  0.
         12    1    1    2    0    0 -0.64107393340E+00  0.43025760124E+02 -0.56565537319E+01  0.43400732830E+02  0.00000000000E+00 0. -1.
         11    1    3    3    0    0  0.61726737386E+01 -0.97747853811E+01  0.71708975615E+01  0.13604047281E+02  0.51100000000E-03 0. -1.
        -11    1    3    3    0    0 -0.65347611617E+01 -0.30997880935E+02 -0.12670796147E+01  0.31704529911E+02  0.51100000000E-03 0.  1.
        -12    1    3    3    0    0  0.10031613565E+01 -0.22530938078E+01 -0.24726421483E+00  0.24786899778E+01  0.00000000000E+00 0.  1.
</event>
<event>
 7    1  0.5038211E-009  0.4778727E+02  0.7816164E-02  0.1312668E+00
        -11   -1    0    0    0    0  0.00000000000E+00  0.00000000000E+00  0.45593999997E+02  0.45594000000E+02  0.51100000000E-03 0. -1.
         11   -1    0    0    0    0 -0.00000000000E+00 -0.00000000000E+00 -0.45593999997E+02  0.45594000000E+02  0.51100000000E-03 0.  1.
    9900012    2    1    2    0    0  0.36096423398E+02 -0.23156707467E+02 -0.66661959831E+01  0.47787273604E+02  0.20000011668E+02 0.  0.
         12    1    1    2    0    0 -0.36096423398E+02  0.23156707467E+02  0.66661959831E+01  0.43400726396E+02  0.00000000000E+00 0. -1.
         11    1    3    3    0    0  0.21718997723E+02 -0.19095350143E+02 -0.10141822627E+02  0.30646432511E+02  0.51100000000E-03 0. -1.
        -11    1    3    3    0    0  0.64409159713E+01  0.17277899593E+00  0.48186688670E+01  0.80457952399E+01  0.51100000000E-03 0.  1.
        -12    1    3    3    0    0  0.79365097033E+01 -0.42341363198E+01 -0.13430422228E+01  0.90950458524E+01  0.00000000000E+00 0.  1.
</event>
<event>
 7    1  0.5038211E-009  0.4778727E+02  0.7816164E-02  0.1312668E+00
        -11   -1    0    0    0    0  0.00000000000E+00  0.00000000000E+00  0.45593999997E+02  0.45594000000E+02  0.51100000000E-03 0.  1.
         11   -1    0    0    0    0 -0.00000000000E+00 -0.00000000000E+00 -0.45593999997E+02  0.45594000000E+02  0.51100000000E-03 0. -1.
    9900012    2    1    2    0    0  0.36848769702E+02 -0.20236142277E+02 -0.10783798845E+02  0.47787267284E+02  0.19999982853E+02 0.  0.
         12    1    1    2    0    0 -0.36848769702E+02  0.20236142277E+02  0.10783798845E+02  0.43400732716E+02  0.00000000000E+00 0. -1.
         11    1    3    3    0    0  0.11382559149E+02 -0.63640897275E+01 -0.92712464662E+01  0.16000634429E+02  0.51100000000E-03 0. -1.
        -11    1    3    3    0    0  0.25524335083E+02 -0.13036604169E+02  0.14603373350E+01  0.28698036781E+02  0.51100000000E-03 0.  1.
        -12    1    3    3    0    0 -0.58124529813E-01 -0.83544838000E+00 -0.29728897136E+01  0.30885960736E+01  0.00000000000E+00 0.  1.
</event>
<event>
 7    1  0.5038211E-009  0.4778727E+02  0.7816164E-02  0.1312668E+00
        -11   -1    0    0    0    0  0.00000000000E+00  0.00000000000E+00  0.45593999997E+02  0.45594000000E+02  0.51100000000E-03 0.  1.
         11   -1    0    0    0    0 -0.00000000000E+00 -0.00000000000E+00 -0.45593999997E+02  0.45594000000E+02  0.51100000000E-03 0. -1.
    9900012    2    1    2    0    0 -0.33512597384E+02  0.25554851846E+02 -0.10367174205E+02  0.47787274922E+02  0.20000017679E+02 0.  0.
         12    1    1    2    0    0  0.33512597384E+02 -0.25554851846E+02  0.10367174205E+02  0.43400725078E+02  0.00000000000E+00 0. -1.
         11    1    3    3    0    0 -0.11215598957E+02  0.90496714612E+01 -0.11680320527E+02  0.18550366611E+02  0.51100000000E-03 0. -1.
        -11    1    3    3    0    0 -0.17595014372E+02  0.93364897531E+01  0.38688270628E+01  0.20290943663E+02  0.51100000000E-03 0.  1.
        -12    1    3    3    0    0 -0.47019840557E+01  0.71686906315E+01 -0.25556807410E+01  0.89459646478E+01  0.00000000000E+00 0.  1.
</event>
<event>
 7    1  0.5038211E-009  0.4778727E+02  0.7816164E-02  0.1312668E+00
        -11   -1    0    0    0    0  0.00000000000E+00  0.00000000000E+00  0.45593999997E+02  0.45594000000E+02  0.51100000000E-03 0. -1.
         11   -1    0    0    0    0 -0.00000000000E+00 -0.00000000000E+00 -0.45593999997E+02  0.45594000000E+02  0.51100000000E-03 0.  1.
    9900012    2    1    2    0    0 -0.54244659282E+01 -0.36474449133E+02 -0.22886964806E+02  0.47787269266E+02  0.19999991892E+02 0.  0.
         12    1    1    2    0    0  0.54244659282E+01  0.36474449133E+02  0.22886964806E+02  0.43400730734E+02  0.00000000000E+00 0. -1.
         11    1    3    3    0    0 -0.28780067941E+00 -0.20756421347E+02 -0.18991787585E+02  0.28135384346E+02  0.51100000000E-03 0. -1.
        -11    1    3    3    0    0 -0.29278938627E+01 -0.68562253437E+01  0.31739518916E+01  0.81027377661E+01  0.51100000000E-03 0.  1.
        -12    1    3    3    0    0 -0.22087713860E+01 -0.88618024423E+01 -0.70691291129E+01  0.11549147154E+02  0.00000000000E+00 0.  1.
</event>
<event>
 7    1  0.5038211E-009  0.4778726E+02  0.7816164E-02  0.1312668E+00
        -11   -1    0    0    0    0  0.00000000000E+00  0.00000000000E+00  0.45593999997E+02  0.45594000000E+02  0.51100000000E-03 0. -1.
         11   -1    0    0    0    0 -0.00000000000E+00 -0.00000000000E+00 -0.45593999997E+02  0.45594000000E+02  0.51100000000E-03 0.  1.
    9900012    2    1    2    0    0 -0.20529571547E+02  0.17716494050E+02 -0.33886375394E+02  0.47787263754E+02  0.19999966761E+02 0.  0.
         12    1    1    2    0    0  0.20529571547E+02 -0.17716494050E+02  0.33886375394E+02  0.43400736246E+02  0.00000000000E+00 0. -1.
         11    1    3    3    0    0 -0.40416553400E+01  0.32971422990E+01 -0.18493671009E+02  0.19215150087E+02  0.51100000000E-03 0.  1.
        -11    1    3    3    0    0 -0.11635000191E+02  0.14795991973E+02 -0.14150808869E+02  0.23548672995E+02  0.51100000000E-03 0. -1.
         12    1    3    3    0    0 -0.48529160160E+01 -0.37664022228E+00 -0.12418955167E+01  0.50234406724E+01  0.00000000000E+00 0. -1.
</event>
<event>
 7    1  0.5038211E-009  0.4778728E+02  0.7816164E-02  0.1312668E+00
        -11   -1    0    0    0    0  0.00000000000E+00  0.00000000000E+00  0.45593999997E+02  0.45594000000E+02  0.51100000000E-03 0.  1.
         11   -1    0    0    0    0 -0.00000000000E+00 -0.00000000000E+00 -0.45593999997E+02  0.45594000000E+02  0.51100000000E-03 0. -1.
    9900012    2    1    2    0    0 -0.26385329237E+02 -0.33770623467E+02 -0.68543643767E+01  0.47787275129E+02  0.20000018625E+02 0.  0.
         12    1    1    2    0    0  0.26385329237E+02  0.33770623467E+02  0.68543643767E+01  0.43400724871E+02  0.00000000000E+00 0. -1.
         11    1    3    3    0    0 -0.13885343806E+02 -0.42979556655E+01 -0.59009390657E+01  0.15687456060E+02  0.51100000000E-03 0. -1.
        -11    1    3    3    0    0 -0.63989119251E+01 -0.12385197994E+02 -0.54586097253E+00  0.13951242512E+02  0.51100000000E-03 0.  1.
         12    1    3    3    0    0 -0.61010735051E+01 -0.17087469808E+02 -0.40756433853E+00  0.18148576557E+02  0.00000000000E+00 0. -1.
</event>
<event>
 7    1  0.5038211E-009  0.4778727E+02  0.7816164E-02  0.1312668E+00
        -11   -1    0    0    0    0  0.00000000000E+00  0.00000000000E+00  0.45593999997E+02  0.45594000000E+02  0.51100000000E-03 0. -1.
         11   -1    0    0    0    0 -0.00000000000E+00 -0.00000000000E+00 -0.45593999997E+02  0.45594000000E+02  0.51100000000E-03 0.  1.
    9900012    2    1    2    0    0 -0.11888591890E+02 -0.41537607794E+02  0.41124245262E+01  0.47787268279E+02  0.19999987393E+02 0.  0.
         12    1    1    2    0    0  0.11888591890E+02  0.41537607794E+02 -0.41124245262E+01  0.43400731721E+02  0.00000000000E+00 0. -1.
         11    1    3    3    0    0 -0.63364693993E+01 -0.22172661106E+02  0.82348945894E+01  0.24486552107E+02  0.51100000000E-03 0. -1.
        -11    1    3    3    0    0  0.22664784485E+01 -0.22369292336E+01 -0.31009822480E+01  0.44448698650E+01  0.51100000000E-03 0.  1.
        -12    1    3    3    0    0 -0.78186009394E+01 -0.17128017455E+02 -0.10214878152E+01  0.18855846307E+02  0.00000000000E+00 0.  1.
</event>
<event>
 7    1  0.5038211E-009  0.4778727E+02  0.7816164E-02  0.1312668E+00
        -11   -1    0    0    0    0  0.00000000000E+00  0.00000000000E+00  0.45593999997E+02  0.45594000000E+02  0.51100000000E-03 0.  1.
         11   -1    0    0    0    0 -0.00000000000E+00 -0.00000000000E+00 -0.45593999997E+02  0.45594000000E+02  0.51100000000E-03 0. -1.
    9900012    2    1    2    0    0 -0.38196690256E+02 -0.54013887039E+01  0.19886203769E+02  0.47787271356E+02  0.20000001422E+02 0.  0.
         12    1    1    2    0    0  0.38196690256E+02  0.54013887039E+01 -0.19886203769E+02  0.43400728644E+02  0.00000000000E+00 0. -1.
         11    1    3    3    0    0 -0.96760992962E+01 -0.35377206323E+01  0.15757563860E+02  0.18826661518E+02  0.51100000000E-03 0. -1.
        -11    1    3    3    0    0 -0.13969907383E+02 -0.11938853757E+01  0.30917040622E+01  0.14357656802E+02  0.51100000000E-03 0.  1.
         12    1    3    3    0    0 -0.14550683577E+02 -0.66978269589E+00  0.10369358469E+01  0.14602953036E+02  0.00000000000E+00 0. -1.
</event>
<event>
 7    1  0.5038211E-009  0.4778727E+02  0.7816164E-02  0.1312668E+00
        -11   -1    0    0    0    0  0.00000000000E+00  0.00000000000E+00  0.45593999997E+02  0.45594000000E+02  0.51100000000E-03 0.  1.
         11   -1    0    0    0    0 -0.00000000000E+00 -0.00000000000E+00 -0.45593999997E+02  0.45594000000E+02  0.51100000000E-03 0. -1.
    9900012    2    1    2    0    0  0.15495427728E+02  0.33269289064E+02 -0.23166123257E+02  0.47787272564E+02  0.20000006926E+02 0.  0.
         12    1    1    2    0    0 -0.15495427728E+02 -0.33269289064E+02  0.23166123257E+02  0.43400727436E+02  0.00000000000E+00 0. -1.
         11    1    3    3    0    0  0.83980277536E+01  0.35576950537E+01 -0.67677578829E+01  0.11357227270E+02  0.51100000000E-03 0. -1.
        -11    1    3    3    0    0  0.66941021477E+01  0.24753261073E+02 -0.83488406433E+01  0.26967352070E+02  0.51100000000E-03 0.  1.
         12    1    3    3    0    0  0.40329782652E+00  0.49583329368E+01 -0.80495247307E+01  0.94626932233E+01  0.00000000000E+00 0. -1.
</event>
<event>
 7    1  0.5038211E-009  0.4778727E+02  0.7816164E-02  0.1312668E+00
        -11   -1    0    0    0    0  0.00000000000E+00  0.00000000000E+00  0.45593999997E+02  0.45594000000E+02  0.51100000000E-03 0. -1.
         11   -1    0    0    0    0 -0.00000000000E+00 -0.00000000000E+00 -0.45593999997E+02  0.45594000000E+02  0.51100000000E-03 0.  1.
    9900012    2    1    2    0    0  0.23952588687E+02 -0.33818801941E+02 -0.12891289204E+02  0.47787271816E+02  0.20000003518E+02 0.  0.
         12    1    1    2    0    0 -0.23952588687E+02  0.33818801941E+02  0.12891289204E+02  0.43400728184E+02  0.00000000000E+00 0. -1.
         11    1    3    3    0    0 -0.63524236444E+00 -0.24356565106E+01 -0.44109720939E+01  0.50786445606E+01  0.51100000000E-03 0. -1.
        -11    1    3    3    0    0  0.17186734130E+02 -0.16347740276E+02  0.44032774679E+00  0.23723961115E+02  0.51100000000E-03 0.  1.
        -12    1    3    3    0    0  0.74010969216E+01 -0.15035405155E+02 -0.89206448571E+01  0.18984666141E+02  0.00000000000E+00 0.  1.
</event>
<event>
 7    1  0.5038211E-009  0.4778727E+02  0.7816164E-02  0.1312668E+00
        -11   -1    0    0    0    0  0.00000000000E+00  0.00000000000E+00  0.45593999997E+02  0.45594000000E+02  0.51100000000E-03 0.  1.
         11   -1    0    0    0    0 -0.00000000000E+00 -0.00000000000E+00 -0.45593999997E+02  0.45594000000E+02  0.51100000000E-03 0. -1.
    9900012    2    1    2    0    0 -0.10729300213E+02  0.32561285545E+02  0.26613309603E+02  0.47787269045E+02  0.19999990883E+02 0.  0.
         12    1    1    2    0    0  0.10729300213E+02 -0.32561285545E+02 -0.26613309603E+02  0.43400730955E+02  0.00000000000E+00 0. -1.
         11    1    3    3    0    0  0.42328214921E+01  0.41853085368E+01  0.71153031991E+01  0.92769135605E+01  0.51100000000E-03 0. -1.
        -11    1    3    3    0    0 -0.98746065781E+01  0.96903602121E+01  0.76935599289E+01  0.15830407473E+02  0.51100000000E-03 0.  1.
        -12    1    3    3    0    0 -0.50875151267E+01  0.18685616796E+02  0.11804446475E+02  0.22679948012E+02  0.00000000000E+00 0.  1.
</event>
<event>
 7    1  0.5038211E-009  0.4778727E+02  0.7816164E-02  0.1312668E+00
        -11   -1    0    0    0    0  0.00000000000E+00  0.00000000000E+00  0.45593999997E+02  0.45594000000E+02  0.51100000000E-03 0.  1.
         11   -1    0    0    0    0 -0.00000000000E+00 -0.00000000000E+00 -0.45593999997E+02  0.45594000000E+02  0.51100000000E-03 0. -1.
    9900012    2    1    2    0    0 -0.35682637400E+02  0.24460273896E+02 -0.34738521379E+01  0.47787271209E+02  0.20000000752E+02 0.  0.
         12    1    1    2    0    0  0.35682637400E+02 -0.24460273896E+02  0.34738521379E+01  0.43400728791E+02  0.00000000000E+00 0. -1.
         11    1    3    3    0    0  0.12134199901E+00  0.12673560260E+01  0.25492475407E+01  0.28494874035E+01  0.51100000000E-03 0. -1.
        -11    1    3    3    0    0 -0.26878412465E+02  0.17476898147E+02 -0.10050891007E+02  0.33599277310E+02  0.51100000000E-03 0.  1.
        -12    1    3    3    0    0 -0.89255669342E+01  0.57160197235E+01  0.40277913287E+01  0.11338506496E+02  0.00000000000E+00 0.  1.
</event>
<event>
 7    1  0.5038211E-009  0.4778727E+02  0.7816164E-02  0.1312668E+00
        -11   -1    0    0    0    0  0.00000000000E+00  0.00000000000E+00  0.45593999997E+02  0.45594000000E+02  0.51100000000E-03 0.  1.
         11   -1    0    0    0    0 -0.00000000000E+00 -0.00000000000E+00 -0.45593999997E+02  0.45594000000E+02  0.51100000000E-03 0. -1.
    9900012    2    1    2    0    0  0.14263402873E+02  0.25067800743E+02  0.32431220286E+02  0.47787270226E+02  0.19999996270E+02 0.  0.
         12    1    1    2    0    0 -0.14263402873E+02 -0.25067800743E+02 -0.32431220286E+02  0.43400729774E+02  0.00000000000E+00 0. -1.
         11    1    3    3    0    0 -0.33825567043E+01  0.49587505869E+01  0.10431289717E+02  0.12035061390E+02  0.51100000000E-03 0. -1.
        -11    1    3    3    0    0  0.13881547328E+02  0.17360799082E+02  0.21727448755E+02  0.31083383514E+02  0.51100000000E-03 0.  1.
         12    1    3    3    0    0  0.37644122493E+01  0.27482510740E+01  0.27248181385E+00  0.46688253220E+01  0.00000000000E+00 0. -1.
</event>
<event>
 7    1  0.5038211E-009  0.4778727E+02  0.7816164E-02  0.1312668E+00
        -11   -1    0    0    0    0  0.00000000000E+00  0.00000000000E+00  0.45593999997E+02  0.45594000000E+02  0.51100000000E-03 0. -1.
         11   -1    0    0    0    0 -0.00000000000E+00 -0.00000000000E+00 -0.45593999997E+02  0.45594000000E+02  0.51100000000E-03 0.  1.
    9900012    2    1    2    0    0 -0.16802220758E+02  0.39242951781E+02  0.78293904038E+01  0.47787271424E+02  0.20000001730E+02 0.  0.
         12    1    1    2    0    0  0.16802220758E+02 -0.39242951781E+02 -0.78293904038E+01  0.43400728576E+02  0.00000000000E+00 0. -1.
         11    1    3    3    0    0 -0.27417594826E+01  0.10442587672E+02 -0.47178791780E+01  0.11782328570E+02  0.51100000000E-03 0. -1.
        -11    1    3    3    0    0  0.13286499330E+01  0.47356488804E+00 -0.42702740515E-02  0.14105292780E+01  0.51100000000E-03 0.  1.
         12    1    3    3    0    0 -0.15389111208E+02  0.28326799221E+02  0.12551539856E+02  0.34594413576E+02  0.00000000000E+00 0. -1.
</event>
<event>
 7    1  0.5038211E-009  0.4778726E+02  0.7816164E-02  0.1312668E+00
        -11   -1    0    0    0    0  0.00000000000E+00  0.00000000000E+00  0.45593999997E+02  0.45594000000E+02  0.51100000000E-03 0. -1.
         11   -1    0    0    0    0 -0.00000000000E+00 -0.00000000000E+00 -0.45593999997E+02  0.45594000000E+02  0.51100000000E-03 0.  1.
    9900012    2    1    2    0    0 -0.30712429489E+02 -0.51224104122E+01 -0.30234613368E+02  0.47787259695E+02  0.19999948251E+02 0.  0.
         12    1    1    2    0    0  0.30712429489E+02  0.51224104122E+01  0.30234613368E+02  0.43400740305E+02  0.00000000000E+00 0. -1.
         11    1    3    3    0    0 -0.33997293829E+01 -0.60486229216E+01 -0.61992381800E+01  0.93045447712E+01  0.51100000000E-03 0. -1.
        -11    1    3    3    0    0 -0.18923830834E+02  0.54652523037E+01 -0.20166314577E+02  0.28189725079E+02  0.51100000000E-03 0.  1.
        -12    1    3    3    0    0 -0.83888692722E+01 -0.45390397943E+01 -0.38690606116E+01  0.10292989844E+02  0.00000000000E+00 0.  1.
</event>
<event>
 7    1  0.5038211E-009  0.4778727E+02  0.7816164E-02  0.1312668E+00
        -11   -1    0    0    0    0  0.00000000000E+00  0.00000000000E+00  0.45593999997E+02  0.45594000000E+02  0.51100000000E-03 0.  1.
         11   -1    0    0    0    0 -0.00000000000E+00 -0.00000000000E+00 -0.45593999997E+02  0.45594000000E+02  0.51100000000E-03 0. -1.
    9900012    2    1    2    0    0 -0.39160297758E+02  0.15372565299E+02  0.10666723885E+02  0.47787266334E+02  0.19999978521E+02 0.  0.
         12    1    1    2    0    0  0.39160297758E+02 -0.15372565299E+02 -0.10666723885E+02  0.43400733666E+02  0.00000000000E+00 0. -1.
         11    1    3    3    0    0 -0.24867126232E+02  0.69662675260E+01  0.12925981960E+02  0.28878778717E+02  0.51100000000E-03 0. -1.
        -11    1    3    3    0    0 -0.13253544827E+02  0.41531743363E+01  0.19260101907E+00  0.13890370872E+02  0.51100000000E-03 0.  1.
         12    1    3    3    0    0 -0.10396266984E+01  0.42531234371E+01 -0.24518590943E+01  0.50181167445E+01  0.00000000000E+00 0. -1.
</event>
<event>
 7    1  0.5038211E-009  0.4778727E+02  0.7816164E-02  0.1312668E+00
        -11   -1    0    0    0    0  0.00000000000E+00  0.00000000000E+00  0.45593999997E+02  0.45594000000E+02  0.51100000000E-03 0.  1.
         11   -1    0    0    0    0 -0.00000000000E+00 -0.00000000000E+00 -0.45593999997E+02  0.45594000000E+02  0.51100000000E-03 0. -1.
    9900012    2    1    2    0    0  0.53171127905E+01 -0.26027865589E+02  0.34320573868E+02  0.47787271133E+02  0.20000000403E+02 0.  0.
         12    1    1    2    0    0 -0.53171127905E+01  0.26027865589E+02 -0.34320573868E+02  0.43400728867E+02  0.00000000000E+00 0. -1.
         11    1    3    3    0    0  0.57198339848E+01 -0.37606965113E+00  0.37651661611E+01  0.68581634333E+01  0.51100000000E-03 0. -1.
        -11    1    3    3    0    0  0.17467918337E+01 -0.24268194661E+02  0.25391476626E+02  0.35167081757E+02  0.51100000000E-03 0.  1.
        -12    1    3    3    0    0 -0.21495130279E+01 -0.13836012777E+01  0.51639310807E+01  0.57620259423E+01  0.00000000000E+00 0.  1.
</event>
<event>
 7    1  0.5038211E-009  0.4778727E+02  0.7816164E-02  0.1312668E+00
        -11   -1    0    0    0    0  0.00000000000E+00  0.00000000000E+00  0.45593999997E+02  0.45594000000E+02  0.51100000000E-03 0. -1.
         11   -1    0    0    0    0 -0.00000000000E+00 -0.00000000000E+00 -0.45593999997E+02  0.45594000000E+02  0.51100000000E-03 0.  1.
    9900012    2    1    2    0    0  0.37957999274E+02  0.19571294550E+02  0.77316182353E+01  0.47787271898E+02  0.20000003891E+02 0.  0.
         12    1    1    2    0    0 -0.37957999274E+02 -0.19571294550E+02 -0.77316182353E+01  0.43400728102E+02  0.00000000000E+00 0. -1.
         11    1    3    3    0    0  0.56179627831E+01  0.69702871973E+01  0.91635262826E+01  0.12810801054E+02  0.51100000000E-03 0. -1.
        -11    1    3    3    0    0  0.13839761780E+02  0.72604444364E+01  0.40097109820E+00  0.15633740360E+02  0.51100000000E-03 0.  1.
         12    1    3    3    0    0  0.18500274711E+02  0.53405629163E+01 -0.18328791455E+01  0.19342730484E+02  0.00000000000E+00 0. -1.
</event>
<event>
 7    1  0.5038211E-009  0.4778726E+02  0.7816164E-02  0.1312668E+00
        -11   -1    0    0    0    0  0.00000000000E+00  0.00000000000E+00  0.45593999997E+02  0.45594000000E+02  0.51100000000E-03 0.  1.
         11   -1    0    0    0    0 -0.00000000000E+00 -0.00000000000E+00 -0.45593999997E+02  0.45594000000E+02  0.51100000000E-03 0. -1.
    9900012    2    1    2    0    0 -0.14550066074E+01 -0.31253950646E+01  0.43263595978E+02  0.47787264114E+02  0.19999968400E+02 0.  0.
         12    1    1    2    0    0  0.14550066074E+01  0.31253950646E+01 -0.43263595978E+02  0.43400735886E+02  0.00000000000E+00 0. -1.
         11    1    3    3    0    0 -0.49740273981E+01 -0.43438854688E+01  0.89196320834E+01  0.11098203741E+02  0.51100000000E-03 0. -1.
        -11    1    3    3    0    0  0.64800282850E+01  0.48389441249E+01  0.19041642688E+02  0.20687926511E+02  0.51100000000E-03 0.  1.
        -12    1    3    3    0    0 -0.29610074943E+01 -0.36204537207E+01  0.15302321207E+02  0.16001133861E+02  0.00000000000E+00 0.  1.
</event>
<event>
 7    1  0.5038211E-009  0.4778730E+02  0.7816164E-02  0.1312668E+00
        -11   -1    0    0    0    0  0.00000000000E+00  0.00000000000E+00  0.45593999997E+02  0.45594000000E+02  0.51100000000E-03 0. -1.
         11   -1    0    0    0    0 -0.00000000000E+00 -0.00000000000E+00 -0.45593999997E+02  0.45594000000E+02  0.51100000000E-03 0.  1.
    9900012    2    1    2    0    0 -0.21816444825E+01 -0.21839373584E+02 -0.37441995271E+02  0.47787299302E+02  0.20000128838E+02 0.  0.
         12    1    1    2    0    0  0.21816444825E+01  0.21839373584E+02  0.37441995271E+02  0.43400700698E+02  0.00000000000E+00 0. -1.
         11    1    3    3    0    0  0.11700252685E+01 -0.11352402987E+02 -0.41816437757E+01  0.12154511822E+02  0.51100000000E-03 0. -1.
        -11    1    3    3    0    0 -0.34910627386E+01 -0.10761816964E+02 -0.25867580294E+02  0.28233595838E+02  0.51100000000E-03 0.  1.
         12    1    3    3    0    0  0.13939298759E+00  0.27484636617E+00 -0.73927712011E+01  0.73991916425E+01  0.00000000000E+00 0. -1.
</event>
<event>
 7    1  0.5038211E-009  0.4778726E+02  0.7816164E-02  0.1312668E+00
        -11   -1    0    0    0    0  0.00000000000E+00  0.00000000000E+00  0.45593999997E+02  0.45594000000E+02  0.51100000000E-03 0. -1.
         11   -1    0    0    0    0 -0.00000000000E+00 -0.00000000000E+00 -0.45593999997E+02  0.45594000000E+02  0.51100000000E-03 0.  1.
    9900012    2    1    2    0    0 -0.24734739544E+02 -0.33287722548E+02 -0.12796258676E+02  0.47787262117E+02  0.19999959294E+02 0.  0.
         12    1    1    2    0    0  0.24734739544E+02  0.33287722548E+02  0.12796258676E+02  0.43400737883E+02  0.00000000000E+00 0. -1.
         11    1    3    3    0    0 -0.91766346085E+01 -0.19066636611E+02 -0.13604480093E+02  0.25156095350E+02  0.51100000000E-03 0. -1.
        -11    1    3    3    0    0 -0.90816789398E+01 -0.11180918944E+02  0.37671225969E+01  0.14888957443E+02  0.51100000000E-03 0.  1.
         12    1    3    3    0    0 -0.64764259962E+01 -0.30401669919E+01 -0.29589011791E+01  0.77422093236E+01  0.00000000000E+00 0. -1.
</event>
<event>
 7    1  0.5038211E-009  0.4778726E+02  0.7816164E-02  0.1312668E+00
        -11   -1    0    0    0    0  0.00000000000E+00  0.00000000000E+00  0.45593999997E+02  0.45594000000E+02  0.51100000000E-03 0. -1.
         11   -1    0    0    0    0 -0.00000000000E+00 -0.00000000000E+00 -0.45593999997E+02  0.45594000000E+02  0.51100000000E-03 0.  1.
    9900012    2    1    2    0    0 -0.16753885404E+02  0.10163600217E+02 -0.38725087081E+02  0.47787264811E+02  0.19999971581E+02 0.  0.
         12    1    1    2    0    0  0.16753885404E+02 -0.10163600217E+02  0.38725087081E+02  0.43400735189E+02  0.00000000000E+00 0. -1.
         11    1    3    3    0    0 -0.70655752233E+00  0.27169872503E+01 -0.81814233138E+00  0.29241409655E+01  0.51100000000E-03 0. -1.
        -11    1    3    3    0    0 -0.15632120106E+02  0.74017233547E+01 -0.18040051628E+02  0.24991841681E+02  0.51100000000E-03 0.  1.
        -12    1    3    3    0    0 -0.41520777597E+00  0.44889611946E-01 -0.19866893121E+02  0.19871282165E+02  0.00000000000E+00 0.  1.
</event>
<event>
 7    1  0.5038211E-009  0.4778727E+02  0.7816164E-02  0.1312668E+00
        -11   -1    0    0    0    0  0.00000000000E+00  0.00000000000E+00  0.45593999997E+02  0.45594000000E+02  0.51100000000E-03 0.  1.
         11   -1    0    0    0    0 -0.00000000000E+00 -0.00000000000E+00 -0.45593999997E+02  0.45594000000E+02  0.51100000000E-03 0. -1.
    9900012    2    1    2    0    0  0.25881502335E+01 -0.39916295323E+01  0.43139211944E+02  0.47787271491E+02  0.20000002038E+02 0.  0.
         12    1    1    2    0    0 -0.25881502335E+01  0.39916295323E+01 -0.43139211944E+02  0.43400728509E+02  0.00000000000E+00 0. -1.
         11    1    3    3    0    0  0.39703326143E+01 -0.74225977997E+01  0.11730624931E+02  0.14438353808E+02  0.51100000000E-03 0. -1.
        -11    1    3    3    0    0  0.33414336641E+01  0.51024637997E+01  0.15008705861E+02  0.16200665654E+02  0.51100000000E-03 0.  1.
        -12    1    3    3    0    0 -0.47236160449E+01 -0.16714955323E+01  0.16399881152E+02  0.17148252029E+02  0.00000000000E+00 0.  1.
</event>
<event>
 7    1  0.5038211E-009  0.4778726E+02  0.7816164E-02  0.1312668E+00
        -11   -1    0    0    0    0  0.00000000000E+00  0.00000000000E+00  0.45593999997E+02  0.45594000000E+02  0.51100000000E-03 0.  1.
         11   -1    0    0    0    0 -0.00000000000E+00 -0.00000000000E+00 -0.45593999997E+02  0.45594000000E+02  0.51100000000E-03 0. -1.
    9900012    2    1    2    0    0  0.32900006771E+02 -0.27760339684E+02  0.55296562904E+01  0.47787262638E+02  0.19999961670E+02 0.  0.
         12    1    1    2    0    0 -0.32900006771E+02  0.27760339684E+02 -0.55296562904E+01  0.43400737362E+02  0.00000000000E+00 0. -1.
         11    1    3    3    0    0  0.19062141462E+02 -0.21857335725E+02 -0.47589667007E+01  0.29389728247E+02  0.51100000000E-03 0. -1.
        -11    1    3    3    0    0  0.10829743192E+02 -0.34596728145E+01  0.74220015661E+01  0.13577141860E+02  0.51100000000E-03 0.  1.
         12    1    3    3    0    0  0.30081221172E+01 -0.24433311448E+01  0.28666214251E+01  0.48203925307E+01  0.00000000000E+00 0. -1.
</event>
<event>
 7    1  0.5038211E-009  0.4778727E+02  0.7816164E-02  0.1312668E+00
        -11   -1    0    0    0    0  0.00000000000E+00  0.00000000000E+00  0.45593999997E+02  0.45594000000E+02  0.51100000000E-03 0.  1.
         11   -1    0    0    0    0 -0.00000000000E+00 -0.00000000000E+00 -0.45593999997E+02  0.45594000000E+02  0.51100000000E-03 0. -1.
    9900012    2    1    2    0    0 -0.41649971785E+02 -0.41972573500E+01  0.11458022876E+02  0.47787269509E+02  0.19999992998E+02 0.  0.
         12    1    1    2    0    0  0.41649971785E+02  0.41972573500E+01 -0.11458022876E+02  0.43400730491E+02  0.00000000000E+00 0. -1.
         11    1    3    3    0    0 -0.17308833727E+02 -0.67949885573E+01  0.38246320848E+01  0.18984082947E+02  0.51100000000E-03 0. -1.
        -11    1    3    3    0    0 -0.23164368011E+02  0.62013982644E+01  0.64653918940E+01  0.24836396244E+02  0.51100000000E-03 0.  1.
         12    1    3    3    0    0 -0.11767700466E+01 -0.36036670572E+01  0.11679988971E+01  0.39667903178E+01  0.00000000000E+00 0. -1.
</event>
<event>
 7    1  0.5038211E-009  0.4778727E+02  0.7816164E-02  0.1312668E+00
        -11   -1    0    0    0    0  0.00000000000E+00  0.00000000000E+00  0.45593999997E+02  0.45594000000E+02  0.51100000000E-03 0.  1.
         11   -1    0    0    0    0 -0.00000000000E+00 -0.00000000000E+00 -0.45593999997E+02  0.45594000000E+02  0.51100000000E-03 0. -1.
    9900012    2    1    2    0    0  0.28740339360E+02  0.24405703356E+02  0.21493675539E+02  0.47787267852E+02  0.19999985444E+02 0.  0.
         12    1    1    2    0    0 -0.28740339360E+02 -0.24405703356E+02 -0.21493675539E+02  0.43400732148E+02  0.00000000000E+00 0. -1.
         11    1    3    3    0    0  0.66477806252E+01  0.49791708689E-01  0.34319310081E+01  0.74815517883E+01  0.51100000000E-03 0. -1.
        -11    1    3    3    0    0  0.18247929994E+02  0.25506266200E+02  0.18255480964E+02  0.36288002839E+02  0.51100000000E-03 0.  1.
        -12    1    3    3    0    0  0.38446287410E+01 -0.11503545528E+01 -0.19373643348E+00  0.40177132251E+01  0.00000000000E+00 0.  1.
</event>
<event>
 7    1  0.5038211E-009  0.4778727E+02  0.7816164E-02  0.1312668E+00
        -11   -1    0    0    0    0  0.00000000000E+00  0.00000000000E+00  0.45593999997E+02  0.45594000000E+02  0.51100000000E-03 0.  1.
         11   -1    0    0    0    0 -0.00000000000E+00 -0.00000000000E+00 -0.45593999997E+02  0.45594000000E+02  0.51100000000E-03 0. -1.
    9900012    2    1    2    0    0 -0.17524180742E+02  0.12689885965E+02  0.37623040352E+02  0.47787270953E+02  0.19999999584E+02 0.  0.
         12    1    1    2    0    0  0.17524180742E+02 -0.12689885965E+02 -0.37623040352E+02  0.43400729047E+02  0.00000000000E+00 0. -1.
         11    1    3    3    0    0 -0.36217128689E+01 -0.30601317277E+01  0.14090174270E+01  0.49463664104E+01  0.51100000000E-03 0. -1.
        -11    1    3    3    0    0 -0.14521762532E+02  0.11431894525E+02  0.30307784804E+02  0.35498332629E+02  0.51100000000E-03 0.  1.
        -12    1    3    3    0    0  0.61929465862E+00  0.43181231676E+01  0.59062381212E+01  0.73425719138E+01  0.00000000000E+00 0.  1.
</event>
<event>
 7    1  0.5038211E-009  0.4778727E+02  0.7816164E-02  0.1312668E+00
        -11   -1    0    0    0    0  0.00000000000E+00  0.00000000000E+00  0.45593999997E+02  0.45594000000E+02  0.51100000000E-03 0. -1.
         11   -1    0    0    0    0 -0.00000000000E+00 -0.00000000000E+00 -0.45593999997E+02  0.45594000000E+02  0.51100000000E-03 0.  1.
    9900012    2    1    2    0    0 -0.22420009693E+02  0.31272326504E+02 -0.20075064597E+02  0.47787268921E+02  0.19999990318E+02 0.  0.
         12    1    1    2    0    0  0.22420009693E+02 -0.31272326504E+02  0.20075064597E+02  0.43400731079E+02  0.00000000000E+00 0. -1.
         11    1    3    3    0    0 -0.80613642702E+01  0.16432658385E+02 -0.83218643804E+01  0.20106498515E+02  0.51100000000E-03 0. -1.
        -11    1    3    3    0    0 -0.46991228956E+01  0.79341796721E+00 -0.93108568383E+01  0.10459604361E+02  0.51100000000E-03 0.  1.
        -12    1    3    3    0    0 -0.96595225277E+01  0.14046250152E+02 -0.24423433783E+01  0.17221166045E+02  0.00000000000E+00 0.  1.
</event>
<event>
 7    1  0.5038211E-009  0.4778728E+02  0.7816164E-02  0.1312668E+00
        -11   -1    0    0    0    0  0.00000000000E+00  0.00000000000E+00  0.45593999997E+02  0.45594000000E+02  0.51100000000E-03 0.  1.
         11   -1    0    0    0    0 -0.00000000000E+00 -0.00000000000E+00 -0.45593999997E+02  0.45594000000E+02  0.51100000000E-03 0. -1.
    9900012    2    1    2    0    0 -0.17850331220E+02  0.31476768573E+02  0.23962504886E+02  0.47787275065E+02  0.20000018333E+02 0.  0.
         12    1    1    2    0    0  0.17850331220E+02 -0.31476768573E+02 -0.23962504886E+02  0.43400724935E+02  0.00000000000E+00 0. -1.
         11    1    3    3    0    0 -0.79988984800E+01  0.10703948119E+02 -0.13285324290E+01  0.13428398300E+02  0.51100000000E-03 0. -1.
        -11    1    3    3    0    0 -0.19162002990E+01  0.79084715965E+01  0.91918685333E+01  0.12276245109E+02  0.51100000000E-03 0.  1.
         12    1    3    3    0    0 -0.79352324410E+01  0.12864348857E+02  0.16099168782E+02  0.22082631656E+02  0.00000000000E+00 0. -1.
</event>
<event>
 7    1  0.5038211E-009  0.4778727E+02  0.7816164E-02  0.1312668E+00
        -11   -1    0    0    0    0  0.00000000000E+00  0.00000000000E+00  0.45593999997E+02  0.45594000000E+02  0.51100000000E-03 0.  1.
         11   -1    0    0    0    0 -0.00000000000E+00 -0.00000000000E+00 -0.45593999997E+02  0.45594000000E+02  0.51100000000E-03 0. -1.
    9900012    2    1    2    0    0  0.83514418638E+01 -0.11956021862E+02  0.40877015957E+02  0.47787268745E+02  0.19999989516E+02 0.  0.
         12    1    1    2    0    0 -0.83514418638E+01  0.11956021862E+02 -0.40877015957E+02  0.43400731255E+02  0.00000000000E+00 0. -1.
         11    1    3    3    0    0  0.90937983781E+01 -0.39581002560E+01  0.35085040761E+02  0.36459893199E+02  0.51100000000E-03 0. -1.
        -11    1    3    3    0    0  0.15838427015E+01 -0.65257272962E+01  0.52446760778E+01  0.85205810758E+01  0.51100000000E-03 0.  1.
         12    1    3    3    0    0 -0.23261992158E+01 -0.14721943093E+01  0.54729911750E+00  0.28067944706E+01  0.00000000000E+00 0. -1.
</event>
<event>
 7    1  0.5038211E-009  0.4778722E+02  0.7816164E-02  0.1312668E+00
        -11   -1    0    0    0    0  0.00000000000E+00  0.00000000000E+00  0.45593999997E+02  0.45594000000E+02  0.51100000000E-03 0. -1.
         11   -1    0    0    0    0 -0.00000000000E+00 -0.00000000000E+00 -0.45593999997E+02  0.45594000000E+02  0.51100000000E-03 0.  1.
    9900012    2    1    2    0    0  0.42682643282E+02 -0.66797337292E+01 -0.41474219616E+01  0.47787216722E+02  0.19999752320E+02 0.  0.
         12    1    1    2    0    0 -0.42682643282E+02  0.66797337292E+01  0.41474219616E+01  0.43400783278E+02  0.00000000000E+00 0. -1.
         11    1    3    3    0    0  0.76590635379E+01 -0.49521327693E+01 -0.66317340712E+00  0.91446526709E+01  0.51100000000E-03 0.  1.
        -11    1    3    3    0    0 -0.13889630950E+01 -0.61002650345E+00  0.11713224978E+01  0.19165978893E+01  0.51100000000E-03 0. -1.
        -12    1    3    3    0    0  0.36412542839E+02 -0.11175744565E+01 -0.46555710523E+01  0.36725966162E+02  0.00000000000E+00 0.  1.
</event>
<event>
 7    1  0.5038211E-009  0.4778727E+02  0.7816164E-02  0.1312668E+00
        -11   -1    0    0    0    0  0.00000000000E+00  0.00000000000E+00  0.45593999997E+02  0.45594000000E+02  0.51100000000E-03 0.  1.
         11   -1    0    0    0    0 -0.00000000000E+00 -0.00000000000E+00 -0.45593999997E+02  0.45594000000E+02  0.51100000000E-03 0. -1.
    9900012    2    1    2    0    0 -0.73609777347E+01 -0.31246669466E+02  0.29207616193E+02  0.47787272015E+02  0.20000004426E+02 0.  0.
         12    1    1    2    0    0  0.73609777347E+01  0.31246669466E+02 -0.29207616193E+02  0.43400727985E+02  0.00000000000E+00 0. -1.
         11    1    3    3    0    0 -0.65709282438E+00  0.61464796887E+00  0.92138125665E+00  0.12878302632E+01  0.51100000000E-03 0. -1.
        -11    1    3    3    0    0  0.87712479753E+00 -0.26256874708E+01 -0.22370396988E+01  0.35592034895E+01  0.51100000000E-03 0.  1.
        -12    1    3    3    0    0 -0.75810097079E+01 -0.29235629964E+02  0.30523274635E+02  0.42940238262E+02  0.00000000000E+00 0.  1.
</event>
<event>
 7    1  0.5038211E-009  0.4778728E+02  0.7816164E-02  0.1312668E+00
        -11   -1    0    0    0    0  0.00000000000E+00  0.00000000000E+00  0.45593999997E+02  0.45594000000E+02  0.51100000000E-03 0. -1.
         11   -1    0    0    0    0 -0.00000000000E+00 -0.00000000000E+00 -0.45593999997E+02  0.45594000000E+02  0.51100000000E-03 0.  1.
    9900012    2    1    2    0    0 -0.33480731656E+02 -0.27584012061E+02  0.13362276147E+01  0.47787278602E+02  0.20000034458E+02 0.  0.
         12    1    1    2    0    0  0.33480731656E+02  0.27584012061E+02 -0.13362276147E+01  0.43400721398E+02  0.00000000000E+00 0. -1.
         11    1    3    3    0    0 -0.20469045727E+01 -0.22472555464E+01 -0.48311494636E+01  0.57078876322E+01  0.51100000000E-03 0. -1.
        -11    1    3    3    0    0 -0.26714387485E+02 -0.21026160486E+02  0.88781436383E+01  0.35136581482E+02  0.51100000000E-03 0.  1.
        -12    1    3    3    0    0 -0.47194395986E+01 -0.43105960287E+01 -0.27107665600E+01  0.69428094882E+01  0.00000000000E+00 0.  1.
</event>
<event>
 7    1  0.5038211E-009  0.4778727E+02  0.7816164E-02  0.1312668E+00
        -11   -1    0    0    0    0  0.00000000000E+00  0.00000000000E+00  0.45593999997E+02  0.45594000000E+02  0.51100000000E-03 0. -1.
         11   -1    0    0    0    0 -0.00000000000E+00 -0.00000000000E+00 -0.45593999997E+02  0.45594000000E+02  0.51100000000E-03 0.  1.
    9900012    2    1    2    0    0  0.31775730157E+02  0.62215196215E-01 -0.29562176119E+02  0.47787272418E+02  0.20000006262E+02 0.  0.
         12    1    1    2    0    0 -0.31775730157E+02 -0.62215196215E-01  0.29562176119E+02  0.43400727582E+02  0.00000000000E+00 0. -1.
         11    1    3    3    0    0 -0.10450448573E+00  0.36104347509E+01 -0.28963809648E+01  0.46298146002E+01  0.51100000000E-03 0. -1.
        -11    1    3    3    0    0  0.16989337848E+02 -0.51558906421E+01 -0.20058444853E+02  0.26787348114E+02  0.51100000000E-03 0.  1.
        -12    1    3    3    0    0  0.14890896795E+02  0.16076710874E+01 -0.66073503017E+01  0.16370109704E+02  0.00000000000E+00 0.  1.
</event>
<event>
 7    1  0.5038211E-009  0.4778729E+02  0.7816164E-02  0.1312668E+00
        -11   -1    0    0    0    0  0.00000000000E+00  0.00000000000E+00  0.45593999997E+02  0.45594000000E+02  0.51100000000E-03 0. -1.
         11   -1    0    0    0    0 -0.00000000000E+00 -0.00000000000E+00 -0.45593999997E+02  0.45594000000E+02  0.51100000000E-03 0.  1.
    9900012    2    1    2    0    0 -0.31279056431E+02  0.26176393609E+02 -0.14833699224E+02  0.47787290487E+02  0.20000088646E+02 0.  0.
         12    1    1    2    0    0  0.31279056431E+02 -0.26176393609E+02  0.14833699224E+02  0.43400709513E+02  0.00000000000E+00 0. -1.
         11    1    3    3    0    0 -0.40252111715E+01  0.11017913561E+02  0.87133067005E+00  0.11762481099E+02  0.51100000000E-03 0. -1.
        -11    1    3    3    0    0 -0.24316812212E+02  0.15329316906E+02 -0.11653354113E+02  0.31017671984E+02  0.51100000000E-03 0.  1.
         12    1    3    3    0    0 -0.29370330474E+01 -0.17083685729E+00 -0.40516757808E+01  0.50071374044E+01  0.00000000000E+00 0. -1.
</event>
<event>
 7    1  0.5038211E-009  0.4778727E+02  0.7816164E-02  0.1312668E+00
        -11   -1    0    0    0    0  0.00000000000E+00  0.00000000000E+00  0.45593999997E+02  0.45594000000E+02  0.51100000000E-03 0.  1.
         11   -1    0    0    0    0 -0.00000000000E+00 -0.00000000000E+00 -0.45593999997E+02  0.45594000000E+02  0.51100000000E-03 0. -1.
    9900012    2    1    2    0    0 -0.72175055508E+01  0.25019000131E+02  0.34721466271E+02  0.47787274500E+02  0.20000015755E+02 0.  0.
         12    1    1    2    0    0  0.72175055508E+01 -0.25019000131E+02 -0.34721466271E+02  0.43400725500E+02  0.00000000000E+00 0. -1.
         11    1    3    3    0    0  0.25532417637E+01 -0.90650401342E-02 -0.31313389518E+00  0.25723877577E+01  0.51100000000E-03 0. -1.
        -11    1    3    3    0    0 -0.20450986962E+01  0.12426207704E+02  0.22716023380E+02  0.25973270588E+02  0.51100000000E-03 0.  1.
         12    1    3    3    0    0 -0.77256486183E+01  0.12601857467E+02  0.12318576786E+02  0.19241616154E+02  0.00000000000E+00 0. -1.
</event>
<event>
 7    1  0.5038211E-009  0.4778728E+02  0.7816164E-02  0.1312668E+00
        -11   -1    0    0    0    0  0.00000000000E+00  0.00000000000E+00  0.45593999997E+02  0.45594000000E+02  0.51100000000E-03 0. -1.
         11   -1    0    0    0    0 -0.00000000000E+00 -0.00000000000E+00 -0.45593999997E+02  0.45594000000E+02  0.51100000000E-03 0.  1.
    9900012    2    1    2    0    0  0.17376437703E+02  0.18923390448E+02 -0.34979808329E+02  0.47787282448E+02  0.20000051995E+02 0.  0.
         12    1    1    2    0    0 -0.17376437703E+02 -0.18923390448E+02  0.34979808329E+02  0.43400717552E+02  0.00000000000E+00 0. -1.
         11    1    3    3    0    0  0.14635466808E+02  0.35537432836E+01 -0.18066188439E+02  0.23520483519E+02  0.51100000000E-03 0. -1.
        -11    1    3    3    0    0  0.52094452813E+01  0.11890693047E+02 -0.14048505144E+02  0.19128183351E+02  0.51100000000E-03 0.  1.
         12    1    3    3    0    0 -0.24684743867E+01  0.34789541177E+01 -0.28651147459E+01  0.51386155780E+01  0.00000000000E+00 0. -1.
</event>
<event>
 7    1  0.5038211E-009  0.4778732E+02  0.7816164E-02  0.1312668E+00
        -11   -1    0    0    0    0  0.00000000000E+00  0.00000000000E+00  0.45593999997E+02  0.45594000000E+02  0.51100000000E-03 0.  1.
         11   -1    0    0    0    0 -0.00000000000E+00 -0.00000000000E+00 -0.45593999997E+02  0.45594000000E+02  0.51100000000E-03 0. -1.
    9900012    2    1    2    0    0  0.25023552370E+02 -0.21118487082E+00  0.35459788931E+02  0.47787315636E+02  0.20000203310E+02 0.  0.
         12    1    1    2    0    0 -0.25023552370E+02  0.21118487082E+00 -0.35459788931E+02  0.43400684364E+02  0.00000000000E+00 0. -1.
         11    1    3    3    0    0  0.16682463880E+02  0.39266867638E+01  0.10926579879E+02  0.20325196632E+02  0.51100000000E-03 0. -1.
        -11    1    3    3    0    0 -0.15244926666E+01 -0.14528124429E+01  0.37821512077E+01  0.43289040073E+01  0.51100000000E-03 0.  1.
         12    1    3    3    0    0  0.98655811569E+01 -0.26850591917E+01  0.20751057844E+02  0.23133214996E+02  0.00000000000E+00 0. -1.
</event>
<event>
 7    1  0.5038211E-009  0.4778727E+02  0.7816164E-02  0.1312668E+00
        -11   -1    0    0    0    0  0.00000000000E+00  0.00000000000E+00  0.45593999997E+02  0.45594000000E+02  0.51100000000E-03 0. -1.
         11   -1    0    0    0    0 -0.00000000000E+00 -0.00000000000E+00 -0.45593999997E+02  0.45594000000E+02  0.51100000000E-03 0.  1.
    9900012    2    1    2    0    0  0.14987947096E+02  0.40678697687E+02  0.20563991903E+01  0.47787265199E+02  0.19999973346E+02 0.  0.
         12    1    1    2    0    0 -0.14987947096E+02 -0.40678697687E+02 -0.20563991903E+01  0.43400734801E+02  0.00000000000E+00 0. -1.
         11    1    3    3    0    0  0.62181914907E+01  0.10797903604E+02 -0.19031549871E+01  0.12604865204E+02  0.51100000000E-03 0. -1.
        -11    1    3    3    0    0  0.44833229155E+01  0.11140649621E+00 -0.12556959038E+01  0.46571845826E+01  0.51100000000E-03 0.  1.
        -12    1    3    3    0    0  0.42864326894E+01  0.29769387587E+02  0.52152500813E+01  0.30525215412E+02  0.00000000000E+00 0.  1.
</event>
<event>
 7    1  0.5038211E-009  0.4778726E+02  0.7816164E-02  0.1312668E+00
        -11   -1    0    0    0    0  0.00000000000E+00  0.00000000000E+00  0.45593999997E+02  0.45594000000E+02  0.51100000000E-03 0.  1.
         11   -1    0    0    0    0 -0.00000000000E+00 -0.00000000000E+00 -0.45593999997E+02  0.45594000000E+02  0.51100000000E-03 0. -1.
    9900012    2    1    2    0    0  0.23062242239E+02 -0.14717771661E+02  0.33691900637E+02  0.47787262814E+02  0.19999962475E+02 0.  0.
         12    1    1    2    0    0 -0.23062242239E+02  0.14717771661E+02 -0.33691900637E+02  0.43400737186E+02  0.00000000000E+00 0. -1.
         11    1    3    3    0    0  0.66674182827E+01  0.17869131881E+01  0.18949383086E+01  0.71580944918E+01  0.51100000000E-03 0. -1.
        -11    1    3    3    0    0  0.13464729174E+02 -0.12110669252E+02  0.30015140087E+02  0.35055325931E+02  0.51100000000E-03 0.  1.
        -12    1    3    3    0    0  0.29300947820E+01 -0.43940155973E+01  0.17818222415E+01  0.55738423911E+01  0.00000000000E+00 0.  1.
</event>
<event>
 7    1  0.5038211E-009  0.4778727E+02  0.7816164E-02  0.1312668E+00
        -11   -1    0    0    0    0  0.00000000000E+00  0.00000000000E+00  0.45593999997E+02  0.45594000000E+02  0.51100000000E-03 0. -1.
         11   -1    0    0    0    0 -0.00000000000E+00 -0.00000000000E+00 -0.45593999997E+02  0.45594000000E+02  0.51100000000E-03 0.  1.
    9900012    2    1    2    0    0  0.41229118675E+02  0.11594541570E+02  0.70249260212E+01  0.47787271820E+02  0.20000003536E+02 0.  0.
         12    1    1    2    0    0 -0.41229118675E+02 -0.11594541570E+02 -0.70249260212E+01  0.43400728180E+02  0.00000000000E+00 0. -1.
         11    1    3    3    0    0  0.16830032347E+02 -0.26739653338E+01 -0.25456151771E+01  0.17230212892E+02  0.51100000000E-03 0. -1.
        -11    1    3    3    0    0  0.78142638043E+01  0.22385155045E+01  0.48082914800E+00  0.81427800779E+01  0.51100000000E-03 0.  1.
         12    1    3    3    0    0  0.16584822524E+02  0.12029991399E+02  0.90897120503E+01  0.22414278850E+02  0.00000000000E+00 0. -1.
</event>
<event>
 7    1  0.5038211E-009  0.4778729E+02  0.7816164E-02  0.1312668E+00
        -11   -1    0    0    0    0  0.00000000000E+00  0.00000000000E+00  0.45593999997E+02  0.45594000000E+02  0.51100000000E-03 0.  1.
         11   -1    0    0    0    0 -0.00000000000E+00 -0.00000000000E+00 -0.45593999997E+02  0.45594000000E+02  0.51100000000E-03 0. -1.
    9900012    2    1    2    0    0 -0.42361142274E+01 -0.42146030552E+02 -0.94545773526E+01  0.47787290467E+02  0.20000088556E+02 0.  0.
         12    1    1    2    0    0  0.42361142274E+01  0.42146030552E+02  0.94545773526E+01  0.43400709533E+02  0.00000000000E+00 0. -1.
         11    1    3    3    0    0 -0.34901455697E+01 -0.10452667548E+02 -0.10257358194E+02  0.15054991609E+02  0.51100000000E-03 0. -1.
        -11    1    3    3    0    0  0.32039874166E+01 -0.21860875512E+02 -0.13314602484E+00  0.22094821602E+02  0.51100000000E-03 0.  1.
         12    1    3    3    0    0 -0.39499560744E+01 -0.98324874921E+01  0.93592686621E+00  0.10637477256E+02  0.00000000000E+00 0. -1.
</event>
<event>
 7    1  0.5038211E-009  0.4778728E+02  0.7816164E-02  0.1312668E+00
        -11   -1    0    0    0    0  0.00000000000E+00  0.00000000000E+00  0.45593999997E+02  0.45594000000E+02  0.51100000000E-03 0.  1.
         11   -1    0    0    0    0 -0.00000000000E+00 -0.00000000000E+00 -0.45593999997E+02  0.45594000000E+02  0.51100000000E-03 0. -1.
    9900012    2    1    2    0    0  0.76532391237E+01  0.48013803945E+01  0.42449941868E+02  0.47787275498E+02  0.20000020303E+02 0.  0.
         12    1    1    2    0    0 -0.76532391237E+01 -0.48013803945E+01 -0.42449941868E+02  0.43400724502E+02  0.00000000000E+00 0. -1.
         11    1    3    3    0    0  0.67737457214E+01 -0.36683084898E+01  0.17731116070E+02  0.19332164794E+02  0.51100000000E-03 0. -1.
        -11    1    3    3    0    0  0.17072892438E+01  0.10374218375E+02  0.24091571735E+02  0.26285796020E+02  0.51100000000E-03 0.  1.
         12    1    3    3    0    0 -0.82779584149E+00 -0.19045294911E+01  0.62725406244E+00  0.21693146836E+01  0.00000000000E+00 0. -1.
</event>
<event>
 7    1  0.6396971E-009  0.4778727E+02  0.7816164E-02  0.1312668E+00
        -11   -1    0    0    0    0  0.00000000000E+00  0.00000000000E+00  0.45593999997E+02  0.45594000000E+02  0.51100000000E-03 0.  1.
         11   -1    0    0    0    0 -0.00000000000E+00 -0.00000000000E+00 -0.45593999997E+02  0.45594000000E+02  0.51100000000E-03 0. -1.
    9900012    2    1    2    0    0  0.52977955543E+01  0.42958298868E+02  0.31845333684E+01  0.47787270374E+02  0.19999996941E+02 0.  0.
         12    1    1    2    0    0 -0.52977955543E+01 -0.42958298868E+02 -0.31845333684E+01  0.43400729626E+02  0.00000000000E+00 0. -1.
         11    1    3    3    0    0 -0.39283606257E+00  0.15832633836E+01  0.26312853629E+01  0.30959176404E+01  0.51100000000E-03 0. -1.
        -11    1    3    3    0    0 -0.49348318267E+01  0.19275782451E+02  0.26855285710E+01  0.20077858905E+02  0.51100000000E-03 0.  1.
        -12    1    3    3    0    0  0.10625463444E+02  0.22099253033E+02 -0.21322805656E+01  0.24613493828E+02  0.00000000000E+00 0.  1.
</event>
<event>
 7    1  0.5038211E-009  0.4778727E+02  0.7816164E-02  0.1312668E+00
        -11   -1    0    0    0    0  0.00000000000E+00  0.00000000000E+00  0.45593999997E+02  0.45594000000E+02  0.51100000000E-03 0. -1.
         11   -1    0    0    0    0 -0.00000000000E+00 -0.00000000000E+00 -0.45593999997E+02  0.45594000000E+02  0.51100000000E-03 0.  1.
    9900012    2    1    2    0    0  0.38819168612E+02 -0.19366868216E+02  0.12726798866E+01  0.47787272468E+02  0.20000006491E+02 0.  0.
         12    1    1    2    0    0 -0.38819168612E+02  0.19366868216E+02 -0.12726798866E+01  0.43400727532E+02  0.00000000000E+00 0. -1.
         11    1    3    3    0    0  0.18539946741E+02 -0.53679974037E+01  0.14004088055E+00  0.19301933401E+02  0.51100000000E-03 0. -1.
        -11    1    3    3    0    0  0.62638258942E+01 -0.29049488828E+01  0.68424682580E+01  0.97207826314E+01  0.51100000000E-03 0.  1.
        -12    1    3    3    0    0  0.14015395977E+02 -0.11093921929E+02 -0.57098292519E+01  0.18764556436E+02  0.00000000000E+00 0.  1.
</event>
<event>
 7    1  0.5038211E-009  0.4778727E+02  0.7816164E-02  0.1312668E+00
        -11   -1    0    0    0    0  0.00000000000E+00  0.00000000000E+00  0.45593999997E+02  0.45594000000E+02  0.51100000000E-03 0.  1.
         11   -1    0    0    0    0 -0.00000000000E+00 -0.00000000000E+00 -0.45593999997E+02  0.45594000000E+02  0.51100000000E-03 0. -1.
    9900012    2    1    2    0    0  0.46247080221E+01  0.39779127365E+02  0.16728916365E+02  0.47787267968E+02  0.19999985972E+02 0.  0.
         12    1    1    2    0    0 -0.46247080221E+01 -0.39779127365E+02 -0.16728916365E+02  0.43400732032E+02  0.00000000000E+00 0. -1.
         11    1    3    3    0    0  0.54673847678E+01  0.31407077307E+01 -0.15508131107E+01  0.64931781751E+01  0.51100000000E-03 0. -1.
        -11    1    3    3    0    0 -0.23860641664E+01  0.30300615499E+02  0.13797332721E+02  0.33379439664E+02  0.51100000000E-03 0.  1.
        -12    1    3    3    0    0  0.15433874207E+01  0.63378041346E+01  0.44823967552E+01  0.79146501281E+01  0.00000000000E+00 0.  1.
</event>
<event>
 7    1  0.5038211E-009  0.4778727E+02  0.7816164E-02  0.1312668E+00
        -11   -1    0    0    0    0  0.00000000000E+00  0.00000000000E+00  0.45593999997E+02  0.45594000000E+02  0.51100000000E-03 0.  1.
         11   -1    0    0    0    0 -0.00000000000E+00 -0.00000000000E+00 -0.45593999997E+02  0.45594000000E+02  0.51100000000E-03 0. -1.
    9900012    2    1    2    0    0 -0.36438468355E+02  0.10767499644E+02  0.20974324859E+02  0.47787270422E+02  0.19999997163E+02 0.  0.
         12    1    1    2    0    0  0.36438468355E+02 -0.10767499644E+02 -0.20974324859E+02  0.43400729578E+02  0.00000000000E+00 0. -1.
         11    1    3    3    0    0 -0.42969597438E+01  0.80809320485E+00  0.61069087141E+01  0.75107397752E+01  0.51100000000E-03 0. -1.
        -11    1    3    3    0    0 -0.94367149828E+00 -0.78209546778E+00 -0.26498784048E+01  0.29195967253E+01  0.51100000000E-03 0.  1.
        -12    1    3    3    0    0 -0.31197837112E+02  0.10741501906E+02  0.17517294549E+02  0.37356933922E+02  0.00000000000E+00 0.  1.
</event>
<event>
 7    1  0.5038211E-009  0.4778727E+02  0.7816164E-02  0.1312668E+00
        -11   -1    0    0    0    0  0.00000000000E+00  0.00000000000E+00  0.45593999997E+02  0.45594000000E+02  0.51100000000E-03 0. -1.
         11   -1    0    0    0    0 -0.00000000000E+00 -0.00000000000E+00 -0.45593999997E+02  0.45594000000E+02  0.51100000000E-03 0.  1.
    9900012    2    1    2    0    0  0.25551367215E+02 -0.20490599567E+01 -0.35022172853E+02  0.47787267234E+02  0.19999982627E+02 0.  0.
         12    1    1    2    0    0 -0.25551367215E+02  0.20490599567E+01  0.35022172853E+02  0.43400732766E+02  0.00000000000E+00 0. -1.
         11    1    3    3    0    0  0.56700899865E+01  0.42061519019E+01 -0.12780850734E+02  0.14601088316E+02  0.51100000000E-03 0. -1.
        -11    1    3    3    0    0  0.18254864373E+02 -0.82628574271E+01 -0.22989345324E+02  0.30496309364E+02  0.51100000000E-03 0.  1.
        -12    1    3    3    0    0  0.16264128555E+01  0.20076455685E+01  0.74802320409E+00  0.26898695543E+01  0.00000000000E+00 0.  1.
</event>
<event>
 7    1  0.5038211E-009  0.4778727E+02  0.7816164E-02  0.1312668E+00
        -11   -1    0    0    0    0  0.00000000000E+00  0.00000000000E+00  0.45593999997E+02  0.45594000000E+02  0.51100000000E-03 0.  1.
         11   -1    0    0    0    0 -0.00000000000E+00 -0.00000000000E+00 -0.45593999997E+02  0.45594000000E+02  0.51100000000E-03 0. -1.
    9900012    2    1    2    0    0 -0.29277740544E+02  0.19869335897E+02  0.25132580993E+02  0.47787271576E+02  0.20000002424E+02 0.  0.
         12    1    1    2    0    0  0.29277740544E+02 -0.19869335897E+02 -0.25132580993E+02  0.43400728424E+02  0.00000000000E+00 0. -1.
         11    1    3    3    0    0 -0.75382368639E+01  0.44389494159E+01  0.94831097910E+00  0.87993511640E+01  0.51100000000E-03 0. -1.
        -11    1    3    3    0    0 -0.17057683953E+02  0.18187117135E+02  0.21518548427E+02  0.32936055292E+02  0.51100000000E-03 0.  1.
        -12    1    3    3    0    0 -0.46818197270E+01 -0.27567306537E+01  0.26657215865E+01  0.60518651200E+01  0.00000000000E+00 0.  1.
</event>
<event>
 7    1  0.5038211E-009  0.4778727E+02  0.7816164E-02  0.1312668E+00
        -11   -1    0    0    0    0  0.00000000000E+00  0.00000000000E+00  0.45593999997E+02  0.45594000000E+02  0.51100000000E-03 0. -1.
         11   -1    0    0    0    0 -0.00000000000E+00 -0.00000000000E+00 -0.45593999997E+02  0.45594000000E+02  0.51100000000E-03 0.  1.
    9900012    2    1    2    0    0 -0.27149269739E+02 -0.26349886970E+02 -0.21265552919E+02  0.47787272683E+02  0.20000007472E+02 0.  0.
         12    1    1    2    0    0  0.27149269739E+02  0.26349886970E+02  0.21265552919E+02  0.43400727317E+02  0.00000000000E+00 0. -1.
         11    1    3    3    0    0 -0.24206421283E+01  0.29696654399E+00 -0.15594384895E+01  0.28947445665E+01  0.51100000000E-03 0. -1.
        -11    1    3    3    0    0 -0.17548375401E+02 -0.11250867000E+02 -0.18484856859E+02  0.27860678758E+02  0.51100000000E-03 0.  1.
        -12    1    3    3    0    0 -0.71802522095E+01 -0.15395986514E+02 -0.12212575699E+01  0.17031849359E+02  0.00000000000E+00 0.  1.
</event>
<event>
 7    1  0.5038211E-009  0.4778727E+02  0.7816164E-02  0.1312668E+00
        -11   -1    0    0    0    0  0.00000000000E+00  0.00000000000E+00  0.45593999997E+02  0.45594000000E+02  0.51100000000E-03 0. -1.
         11   -1    0    0    0    0 -0.00000000000E+00 -0.00000000000E+00 -0.45593999997E+02  0.45594000000E+02  0.51100000000E-03 0.  1.
    9900012    2    1    2    0    0 -0.31701053961E+02  0.29635137867E+02  0.65198542785E+00  0.47787270702E+02  0.19999998438E+02 0.  0.
         12    1    1    2    0    0  0.31701053961E+02 -0.29635137867E+02 -0.65198542785E+00  0.43400729298E+02  0.00000000000E+00 0. -1.
         11    1    3    3    0    0  0.17641248407E+01  0.22333616280E+01 -0.21741099959E+01  0.35814515423E+01  0.51100000000E-03 0. -1.
        -11    1    3    3    0    0 -0.15870688669E+01  0.32853656979E+01 -0.16093985654E+01  0.39878038268E+01  0.51100000000E-03 0.  1.
         12    1    3    3    0    0 -0.31878109935E+02  0.24116410541E+02  0.44354939891E+01  0.40218015333E+02  0.00000000000E+00 0. -1.
</event>
<event>
 7    1  0.5038211E-009  0.4778727E+02  0.7816164E-02  0.1312668E+00
        -11   -1    0    0    0    0  0.00000000000E+00  0.00000000000E+00  0.45593999997E+02  0.45594000000E+02  0.51100000000E-03 0.  1.
         11   -1    0    0    0    0 -0.00000000000E+00 -0.00000000000E+00 -0.45593999997E+02  0.45594000000E+02  0.51100000000E-03 0. -1.
    9900012    2    1    2    0    0 -0.27655778749E+02 -0.21299640105E+02  0.25789665114E+02  0.47787267362E+02  0.19999983211E+02 0.  0.
         12    1    1    2    0    0  0.27655778749E+02  0.21299640105E+02 -0.25789665114E+02  0.43400732638E+02  0.00000000000E+00 0. -1.
         11    1    3    3    0    0 -0.23828056578E+02 -0.21402286745E+02  0.20022560087E+02  0.37772173235E+02  0.51100000000E-03 0. -1.
        -11    1    3    3    0    0 -0.42553164720E+01  0.12575050187E+01  0.69900904173E+01  0.82795169818E+01  0.51100000000E-03 0.  1.
         12    1    3    3    0    0  0.42759430033E+00 -0.11548583782E+01 -0.12229853913E+01  0.17355771451E+01  0.00000000000E+00 0. -1.
</event>
<event>
 7    1  0.5038211E-009  0.4778727E+02  0.7816164E-02  0.1312668E+00
        -11   -1    0    0    0    0  0.00000000000E+00  0.00000000000E+00  0.45593999997E+02  0.45594000000E+02  0.51100000000E-03 0.  1.
         11   -1    0    0    0    0 -0.00000000000E+00 -0.00000000000E+00 -0.45593999997E+02  0.45594000000E+02  0.51100000000E-03 0. -1.
    9900012    2    1    2    0    0  0.31375590876E+02  0.20409147259E+02  0.21969573405E+02  0.47787272469E+02  0.20000006495E+02 0.  0.
         12    1    1    2    0    0 -0.31375590876E+02 -0.20409147259E+02 -0.21969573405E+02  0.43400727531E+02  0.00000000000E+00 0. -1.
         11    1    3    3    0    0  0.18769092765E+02  0.50499294371E+01  0.71660597513E+01  0.20715526620E+02  0.51100000000E-03 0. -1.
        -11    1    3    3    0    0  0.83268381432E+01  0.15985155228E+02  0.10016513415E+02  0.20620183374E+02  0.51100000000E-03 0.  1.
        -12    1    3    3    0    0  0.42796599676E+01 -0.62593740689E+00  0.47870002383E+01  0.64515624741E+01  0.00000000000E+00 0.  1.
</event>
<event>
 7    1  0.5038211E-009  0.4778729E+02  0.7816164E-02  0.1312668E+00
        -11   -1    0    0    0    0  0.00000000000E+00  0.00000000000E+00  0.45593999997E+02  0.45594000000E+02  0.51100000000E-03 0.  1.
         11   -1    0    0    0    0 -0.00000000000E+00 -0.00000000000E+00 -0.45593999997E+02  0.45594000000E+02  0.51100000000E-03 0. -1.
    9900012    2    1    2    0    0  0.37106770402E+02  0.22338448965E+02 -0.27754666194E+01  0.47787286563E+02  0.20000070757E+02 0.  0.
         12    1    1    2    0    0 -0.37106770402E+02 -0.22338448965E+02  0.27754666194E+01  0.43400713437E+02  0.00000000000E+00 0. -1.
         11    1    3    3    0    0  0.14635668790E+02  0.20759111850E+01  0.58448357822E+01  0.15895732565E+02  0.51100000000E-03 0. -1.
        -11    1    3    3    0    0  0.12382838070E+02  0.10592999011E+02 -0.19650235460E+01  0.16413641416E+02  0.51100000000E-03 0.  1.
         12    1    3    3    0    0  0.10088263542E+02  0.96695387684E+01 -0.66552788556E+01  0.15477912583E+02  0.00000000000E+00 0. -1.
</event>
<event>
 7    1  0.5038211E-009  0.4778727E+02  0.7816164E-02  0.1312668E+00
        -11   -1    0    0    0    0  0.00000000000E+00  0.00000000000E+00  0.45593999997E+02  0.45594000000E+02  0.51100000000E-03 0. -1.
         11   -1    0    0    0    0 -0.00000000000E+00 -0.00000000000E+00 -0.45593999997E+02  0.45594000000E+02  0.51100000000E-03 0.  1.
    9900012    2    1    2    0    0  0.35077083272E+02  0.96554683304E+01 -0.23664185641E+02  0.47787268190E+02  0.19999986988E+02 0.  0.
         12    1    1    2    0    0 -0.35077083272E+02 -0.96554683304E+01  0.23664185641E+02  0.43400731810E+02  0.00000000000E+00 0. -1.
         11    1    3    3    0    0  0.83592433658E+01  0.89502817215E+01 -0.88479592001E+01  0.15108635769E+02  0.51100000000E-03 0. -1.
        -11    1    3    3    0    0  0.23595662597E+02  0.88650391147E+00 -0.16796512954E+02  0.28976956884E+02  0.51100000000E-03 0.  1.
        -12    1    3    3    0    0  0.31221773088E+01 -0.18131730255E+00  0.19802865124E+01  0.37016755372E+01  0.00000000000E+00 0.  1.
</event>
<event>
 7    1  0.5038211E-009  0.4778727E+02  0.7816164E-02  0.1312668E+00
        -11   -1    0    0    0    0  0.00000000000E+00  0.00000000000E+00  0.45593999997E+02  0.45594000000E+02  0.51100000000E-03 0.  1.
         11   -1    0    0    0    0 -0.00000000000E+00 -0.00000000000E+00 -0.45593999997E+02  0.45594000000E+02  0.51100000000E-03 0. -1.
    9900012    2    1    2    0    0  0.20103889161E+02  0.36346570132E+02 -0.12585059075E+02  0.47787271531E+02  0.20000002219E+02 0.  0.
         12    1    1    2    0    0 -0.20103889161E+02 -0.36346570132E+02  0.12585059075E+02  0.43400728469E+02  0.00000000000E+00 0. -1.
         11    1    3    3    0    0  0.10037162851E+02  0.10243269190E+02 -0.94904928939E+01  0.17197053742E+02  0.51100000000E-03 0. -1.
        -11    1    3    3    0    0 -0.18809790473E+01  0.60867349074E+01  0.20987851659E+01  0.67075571889E+01  0.51100000000E-03 0.  1.
        -12    1    3    3    0    0  0.11947705357E+02  0.20016566034E+02 -0.51933513469E+01  0.23882660600E+02  0.00000000000E+00 0.  1.
</event>
<event>
 7    1  0.5038211E-009  0.4778727E+02  0.7816164E-02  0.1312668E+00
        -11   -1    0    0    0    0  0.00000000000E+00  0.00000000000E+00  0.45593999997E+02  0.45594000000E+02  0.51100000000E-03 0.  1.
         11   -1    0    0    0    0 -0.00000000000E+00 -0.00000000000E+00 -0.45593999997E+02  0.45594000000E+02  0.51100000000E-03 0. -1.
    9900012    2    1    2    0    0  0.29615043552E+02  0.15503790269E+02  0.27680408146E+02  0.47787270600E+02  0.19999997976E+02 0.  0.
         12    1    1    2    0    0 -0.29615043552E+02 -0.15503790269E+02 -0.27680408146E+02  0.43400729400E+02  0.00000000000E+00 0. -1.
         11    1    3    3    0    0  0.50104044878E+00  0.40505291514E+01 -0.91863292754E+00  0.41835050681E+01  0.51100000000E-03 0. -1.
        -11    1    3    3    0    0  0.29645535610E+02  0.10221256575E+02  0.26234155753E+02  0.40884750163E+02  0.51100000000E-03 0.  1.
        -12    1    3    3    0    0 -0.53153250678E+00  0.12320045428E+01  0.23648853202E+01  0.27190153690E+01  0.00000000000E+00 0.  1.
</event>
<event>
 7    1  0.5038211E-009  0.4778728E+02  0.7816164E-02  0.1312668E+00
        -11   -1    0    0    0    0  0.00000000000E+00  0.00000000000E+00  0.45593999997E+02  0.45594000000E+02  0.51100000000E-03 0.  1.
         11   -1    0    0    0    0 -0.00000000000E+00 -0.00000000000E+00 -0.45593999997E+02  0.45594000000E+02  0.51100000000E-03 0. -1.
    9900012    2    1    2    0    0  0.39544405553E+02 -0.16670543460E+02  0.64773231654E+01  0.47787277136E+02  0.20000027772E+02 0.  0.
         12    1    1    2    0    0 -0.39544405553E+02  0.16670543460E+02 -0.64773231654E+01  0.43400722864E+02  0.00000000000E+00 0. -1.
         11    1    3    3    0    0  0.33374541317E+02 -0.16721271196E+02  0.34636212221E+01  0.37489433054E+02  0.51100000000E-03 0. -1.
        -11    1    3    3    0    0  0.67347769707E+01 -0.35733514776E-02  0.48995624037E+01  0.83284419685E+01  0.51100000000E-03 0.  1.
         12    1    3    3    0    0 -0.56491273470E+00  0.54301086975E-01 -0.18858604603E+01  0.19694021128E+01  0.00000000000E+00 0. -1.
</event>
<event>
 7    1  0.5038211E-009  0.4778727E+02  0.7816164E-02  0.1312668E+00
        -11   -1    0    0    0    0  0.00000000000E+00  0.00000000000E+00  0.45593999997E+02  0.45594000000E+02  0.51100000000E-03 0.  1.
         11   -1    0    0    0    0 -0.00000000000E+00 -0.00000000000E+00 -0.45593999997E+02  0.45594000000E+02  0.51100000000E-03 0. -1.
    9900012    2    1    2    0    0 -0.85705963696E+01  0.40923742236E+02 -0.11636820811E+02  0.47787269599E+02  0.19999993410E+02 0.  0.
         12    1    1    2    0    0  0.85705963696E+01 -0.40923742236E+02  0.11636820811E+02  0.43400730401E+02  0.00000000000E+00 0. -1.
         11    1    3    3    0    0 -0.25156580571E+01  0.52307417217E+00  0.25607055962E+01  0.36275825920E+01  0.51100000000E-03 0. -1.
        -11    1    3    3    0    0 -0.17529422894E+01  0.34002300151E+02 -0.10664155762E+02  0.35678473070E+02  0.51100000000E-03 0.  1.
        -12    1    3    3    0    0 -0.43019960230E+01  0.63983679129E+01 -0.35333706451E+01  0.84812139371E+01  0.00000000000E+00 0.  1.
</event>
<event>
 7    1  0.5038211E-009  0.4778727E+02  0.7816164E-02  0.1312668E+00
        -11   -1    0    0    0    0  0.00000000000E+00  0.00000000000E+00  0.45593999997E+02  0.45594000000E+02  0.51100000000E-03 0.  1.
         11   -1    0    0    0    0 -0.00000000000E+00 -0.00000000000E+00 -0.45593999997E+02  0.45594000000E+02  0.51100000000E-03 0. -1.
    9900012    2    1    2    0    0 -0.89113966238E-01 -0.41586717672E+02 -0.12416117364E+02  0.47787274217E+02  0.20000014467E+02 0.  0.
         12    1    1    2    0    0  0.89113966238E-01  0.41586717672E+02  0.12416117364E+02  0.43400725783E+02  0.00000000000E+00 0. -1.
         11    1    3    3    0    0 -0.61619431392E+01 -0.24852224392E+02 -0.88743625513E+01  0.27099020488E+02  0.51100000000E-03 0. -1.
        -11    1    3    3    0    0  0.53973891134E+01 -0.17155813458E+02 -0.53072750774E+01  0.18751557633E+02  0.51100000000E-03 0.  1.
         12    1    3    3    0    0  0.67544005954E+00  0.42132017758E+00  0.17655202643E+01  0.19366960964E+01  0.00000000000E+00 0. -1.
</event>
<event>
 7    1  0.5038211E-009  0.4778727E+02  0.7816164E-02  0.1312668E+00
        -11   -1    0    0    0    0  0.00000000000E+00  0.00000000000E+00  0.45593999997E+02  0.45594000000E+02  0.51100000000E-03 0.  1.
         11   -1    0    0    0    0 -0.00000000000E+00 -0.00000000000E+00 -0.45593999997E+02  0.45594000000E+02  0.51100000000E-03 0. -1.
    9900012    2    1    2    0    0  0.31787045124E+02 -0.14780328995E+02  0.25588060000E+02  0.47787272155E+02  0.20000005063E+02 0.  0.
         12    1    1    2    0    0 -0.31787045124E+02  0.14780328995E+02 -0.25588060000E+02  0.43400727845E+02  0.00000000000E+00 0. -1.
         11    1    3    3    0    0  0.98708242097E+01  0.43775086642E+01  0.65795733042E+01  0.12644624858E+02  0.51100000000E-03 0. -1.
        -11    1    3    3    0    0  0.19471990865E+02 -0.14781810368E+02  0.16813325938E+02  0.29670663548E+02  0.51100000000E-03 0.  1.
         12    1    3    3    0    0  0.24442300491E+01 -0.43760272922E+01  0.21951607576E+01  0.54719837487E+01  0.00000000000E+00 0. -1.
</event>
