<event>
 8    1  0.5331800E-011  0.9118800E+02  0.7816164E-02  0.1184000E+00
        -11   -1    0    0    0    0  0.00000000000E+00  0.00000000000E+00  0.45593999997E+02  0.45594000000E+02  0.51100000000E-03 0. -1.
         11   -1    0    0    0    0 -0.00000000000E+00 -0.00000000000E+00 -0.45593999997E+02  0.45594000000E+02  0.51100000000E-03 0.  1.
         23    2    1    2    0    0 -0.35527136788E-14  0.00000000000E+00  0.71054273576E-14  0.91188000000E+02  0.91188000000E+02 0.  0.
    9900012    2    3    3    0    0  0.19944658785E+02  0.19057440550E+02 -0.33505937380E+02  0.47787270812E+02  0.19999998938E+02 0.  0.
         12    1    3    3    0    0 -0.19944658785E+02 -0.19057440550E+02  0.33505937380E+02  0.43400729188E+02  0.00000000000E+00 0. -1.
         11    1    4    4    0    0 -0.19505371242E+01  0.27557265688E+01 -0.21037665174E-01  0.33762504112E+01  0.51100000000E-03 0. -1.
        -11    1    4    4    0    0  0.14466577350E+02  0.15810741197E+02 -0.21906347469E+02  0.30645545469E+02  0.51100000000E-03 0.  1.
         12    1    4    4    0    0  0.74286185589E+01  0.49097278508E+00 -0.11578552246E+02  0.13765474931E+02  0.00000000000E+00 0. -1.
</event>
<event>
 8    1  0.5331800E-011  0.9118800E+02  0.7816164E-02  0.1184000E+00
        -11   -1    0    0    0    0  0.00000000000E+00  0.00000000000E+00  0.45593999997E+02  0.45594000000E+02  0.51100000000E-03 0. -1.
         11   -1    0    0    0    0 -0.00000000000E+00 -0.00000000000E+00 -0.45593999997E+02  0.45594000000E+02  0.51100000000E-03 0.  1.
         23    2    1    2    0    0  0.00000000000E+00  0.00000000000E+00  0.71054273576E-14  0.91188000000E+02  0.91188000000E+02 0.  0.
    9900012    2    3    3    0    0  0.81371406072E+01  0.24206177249E+02 -0.35092321617E+02  0.47787272924E+02  0.20000008569E+02 0.  0.
         12    1    3    3    0    0 -0.81371406072E+01 -0.24206177249E+02  0.35092321617E+02  0.43400727076E+02  0.00000000000E+00 0. -1.
         11    1    4    4    0    0  0.47418058346E+01  0.62897002146E+01 -0.17402271432E+02  0.19101939760E+02  0.51100000000E-03 0. -1.
        -11    1    4    4    0    0  0.54046929726E+01  0.75516632824E+01 -0.15739520746E+01  0.94188985478E+01  0.51100000000E-03 0.  1.
        -12    1    4    4    0    0 -0.20093582000E+01  0.10364813752E+02 -0.16116098111E+02  0.19266434616E+02  0.00000000000E+00 0.  1.
</event>
<event>
 8    1  0.5331800E-011  0.9118800E+02  0.7816164E-02  0.1184000E+00
        -11   -1    0    0    0    0  0.00000000000E+00  0.00000000000E+00  0.45593999997E+02  0.45594000000E+02  0.51100000000E-03 0. -1.
         11   -1    0    0    0    0 -0.00000000000E+00 -0.00000000000E+00 -0.45593999997E+02  0.45594000000E+02  0.51100000000E-03 0.  1.
         23    2    1    2    0    0  0.00000000000E+00  0.00000000000E+00  0.00000000000E+00  0.91188000000E+02  0.91188000000E+02 0.  0.
    9900012    2    3    3    0    0  0.12383870583E+02  0.39740389689E+02  0.12286733104E+02  0.47787278420E+02  0.20000033628E+02 0.  0.
        -12    1    3    3    0    0 -0.12383870583E+02 -0.39740389689E+02 -0.12286733104E+02  0.43400721580E+02  0.00000000000E+00 0.  1.
         11    1    4    4    0    0  0.14681050987E+01  0.11967083753E+01  0.70320179925E+01  0.72826314492E+01  0.51100000000E-03 0.  1.
        -11    1    4    4    0    0  0.38866659175E+01  0.18638825016E+02  0.19756548355E+01  0.19141974355E+02  0.51100000000E-03 0. -1.
        -12    1    4    4    0    0  0.70290995671E+01  0.19904856298E+02  0.32790602764E+01  0.21362672616E+02  0.00000000000E+00 0.  1.
</event>
<event>
 8    1  0.5331800E-011  0.9118800E+02  0.7816164E-02  0.1184000E+00
        -11   -1    0    0    0    0  0.00000000000E+00  0.00000000000E+00  0.45593999997E+02  0.45594000000E+02  0.51100000000E-03 0. -1.
         11   -1    0    0    0    0 -0.00000000000E+00 -0.00000000000E+00 -0.45593999997E+02  0.45594000000E+02  0.51100000000E-03 0.  1.
         23    2    1    2    0    0  0.71054273576E-14  0.16653345369E-15 -0.71054273576E-14  0.91188000000E+02  0.91188000000E+02 0.  0.
    9900012    2    3    3    0    0 -0.24799514041E+02  0.33080788337E+00  0.35615989792E+02  0.47787261995E+02  0.19999958741E+02 0.  0.
        -12    1    3    3    0    0  0.24799514041E+02 -0.33080788337E+00 -0.35615989792E+02  0.43400738005E+02  0.00000000000E+00 0.  1.
         11    1    4    4    0    0 -0.24569246681E+02 -0.39359670516E+01  0.24166003493E+02  0.34686242866E+02  0.51100000000E-03 0. -1.
        -11    1    4    4    0    0  0.22273523087E+01  0.21571456912E+01  0.62045697257E+01  0.69362137786E+01  0.51100000000E-03 0.  1.
         12    1    4    4    0    0 -0.24576196686E+01  0.21096292437E+01  0.52454165731E+01  0.61648053502E+01  0.00000000000E+00 0. -1.
</event>
<event>
 8    1  0.5331800E-011  0.9118800E+02  0.7816164E-02  0.1184000E+00
        -11   -1    0    0    0    0  0.00000000000E+00  0.00000000000E+00  0.45593999997E+02  0.45594000000E+02  0.51100000000E-03 0.  1.
         11   -1    0    0    0    0 -0.00000000000E+00 -0.00000000000E+00 -0.45593999997E+02  0.45594000000E+02  0.51100000000E-03 0. -1.
         23    2    1    2    0    0  0.00000000000E+00  0.71054273576E-14  0.35527136788E-14  0.91188000000E+02  0.91188000000E+02 0.  0.
    9900012    2    3    3    0    0 -0.25482596299E+02  0.28010979040E+02  0.21204813855E+02  0.47787288122E+02  0.20000077863E+02 0.  0.
        -12    1    3    3    0    0  0.25482596299E+02 -0.28010979040E+02 -0.21204813855E+02  0.43400711878E+02  0.00000000000E+00 0.  1.
         11    1    4    4    0    0 -0.12571551167E+02  0.21477283550E+02  0.12074350799E+02  0.27660577632E+02  0.51100000000E-03 0. -1.
        -11    1    4    4    0    0 -0.78349582618E+01  0.12593299569E+01  0.99877388986E+01  0.12756465477E+02  0.51100000000E-03 0.  1.
        -12    1    4    4    0    0 -0.50760868703E+01  0.52743655323E+01 -0.85727584228E+00  0.73702450131E+01  0.00000000000E+00 0.  1.
</event>
<event>
 8    1  0.5331800E-011  0.9118800E+02  0.7816164E-02  0.1184000E+00
        -11   -1    0    0    0    0  0.00000000000E+00  0.00000000000E+00  0.45593999997E+02  0.45594000000E+02  0.51100000000E-03 0. -1.
         11   -1    0    0    0    0 -0.00000000000E+00 -0.00000000000E+00 -0.45593999997E+02  0.45594000000E+02  0.51100000000E-03 0.  1.
         23    2    1    2    0    0  0.00000000000E+00  0.17763568394E-14 -0.71054273576E-14  0.91188000000E+02  0.91188000000E+02 0.  0.
    9900012    2    3    3    0    0  0.14312440846E+01 -0.13847446556E+02  0.41107457102E+02  0.47787271145E+02  0.20000000458E+02 0.  0.
        -12    1    3    3    0    0 -0.14312440846E+01  0.13847446556E+02 -0.41107457102E+02  0.43400728855E+02  0.00000000000E+00 0.  1.
         11    1    4    4    0    0  0.51060053333E+01 -0.97518578576E+01  0.32337259654E+02  0.34159455270E+02  0.51100000000E-03 0. -1.
        -11    1    4    4    0    0 -0.10757401092E+01 -0.36118150499E+00 -0.17955614855E+01  0.21240786642E+01  0.51100000000E-03 0.  1.
         12    1    4    4    0    0 -0.25990211396E+01 -0.37344071936E+01  0.10565758933E+02  0.11503737211E+02  0.00000000000E+00 0. -1.
</event>
<event>
 8    1  0.5331800E-011  0.9118800E+02  0.7816164E-02  0.1184000E+00
        -11   -1    0    0    0    0  0.00000000000E+00  0.00000000000E+00  0.45593999997E+02  0.45594000000E+02  0.51100000000E-03 0. -1.
         11   -1    0    0    0    0 -0.00000000000E+00 -0.00000000000E+00 -0.45593999997E+02  0.45594000000E+02  0.51100000000E-03 0.  1.
         23    2    1    2    0    0  0.00000000000E+00  0.00000000000E+00  0.00000000000E+00  0.91188000000E+02  0.91188000000E+02 0.  0.
    9900012    2    3    3    0    0 -0.19286985198E+02 -0.71564986215E+01 -0.38215489655E+02  0.47787229038E+02  0.19999808473E+02 0.  0.
         12    1    3    3    0    0  0.19286985198E+02  0.71564986215E+01  0.38215489655E+02  0.43400770962E+02  0.00000000000E+00 0. -1.
         11    1    4    4    0    0 -0.27568002917E+01 -0.42679237804E+01  0.53799008540E+00  0.51092616724E+01  0.51100000000E-03 0. -1.
        -11    1    4    4    0    0 -0.12756529575E+02 -0.24664740798E+01 -0.35021017372E+02  0.37353503172E+02  0.51100000000E-03 0.  1.
        -12    1    4    4    0    0 -0.37736553313E+01 -0.42210076123E+00 -0.37324623691E+01  0.53244641936E+01  0.00000000000E+00 0.  1.
</event>
<event>
 8    1  0.5331800E-011  0.9118800E+02  0.7816164E-02  0.1184000E+00
        -11   -1    0    0    0    0  0.00000000000E+00  0.00000000000E+00  0.45593999997E+02  0.45594000000E+02  0.51100000000E-03 0. -1.
         11   -1    0    0    0    0 -0.00000000000E+00 -0.00000000000E+00 -0.45593999997E+02  0.45594000000E+02  0.51100000000E-03 0.  1.
         23    2    1    2    0    0 -0.35527136788E-14  0.00000000000E+00 -0.35527136788E-14  0.91188000000E+02  0.91188000000E+02 0.  0.
    9900012    2    3    3    0    0 -0.30856168594E+02  0.61862984564E+01  0.29887278564E+02  0.47787275941E+02  0.20000022324E+02 0.  0.
        -12    1    3    3    0    0  0.30856168594E+02 -0.61862984564E+01 -0.29887278564E+02  0.43400724059E+02  0.00000000000E+00 0.  1.
         11    1    4    4    0    0 -0.32212941302E+02  0.79402112169E+01  0.24684304437E+02  0.41352574616E+02  0.51100000000E-03 0. -1.
        -11    1    4    4    0    0  0.22824583583E+00 -0.13719478360E+01  0.50445921660E+01  0.52328049274E+01  0.51100000000E-03 0.  1.
         12    1    4    4    0    0  0.11285268725E+01 -0.38196492449E+00  0.15838196085E+00  0.12018963978E+01  0.00000000000E+00 0. -1.
</event>
<event>
 8    1  0.5331800E-011  0.9118800E+02  0.7816164E-02  0.1184000E+00
        -11   -1    0    0    0    0  0.00000000000E+00  0.00000000000E+00  0.45593999997E+02  0.45594000000E+02  0.51100000000E-03 0. -1.
         11   -1    0    0    0    0 -0.00000000000E+00 -0.00000000000E+00 -0.45593999997E+02  0.45594000000E+02  0.51100000000E-03 0.  1.
         23    2    1    2    0    0  0.00000000000E+00  0.00000000000E+00  0.00000000000E+00  0.91188000000E+02  0.91188000000E+02 0.  0.
    9900012    2    3    3    0    0  0.18944284486E+02  0.19281983131E+02  0.33955003058E+02  0.47787273960E+02  0.20000013292E+02 0.  0.
        -12    1    3    3    0    0 -0.18944284486E+02 -0.19281983131E+02 -0.33955003058E+02  0.43400726040E+02  0.00000000000E+00 0.  1.
         11    1    4    4    0    0  0.90742156294E+01  0.10130288937E+02  0.14401419021E+02  0.19808205706E+02  0.51100000000E-03 0. -1.
        -11    1    4    4    0    0  0.19679254476E+01  0.89683645915E+01  0.30411150617E+01  0.96722631836E+01  0.51100000000E-03 0.  1.
        -12    1    4    4    0    0  0.79021434095E+01  0.18332960261E+00  0.16512468975E+02  0.18306805070E+02  0.00000000000E+00 0.  1.
</event>
<event>
 8    1  0.5331800E-011  0.9118800E+02  0.7816164E-02  0.1184000E+00
        -11   -1    0    0    0    0  0.00000000000E+00  0.00000000000E+00  0.45593999997E+02  0.45594000000E+02  0.51100000000E-03 0. -1.
         11   -1    0    0    0    0 -0.00000000000E+00 -0.00000000000E+00 -0.45593999997E+02  0.45594000000E+02  0.51100000000E-03 0.  1.
         23    2    1    2    0    0  0.35527136788E-14  0.00000000000E+00 -0.35527136788E-14  0.91188000000E+02  0.91188000000E+02 0.  0.
    9900012    2    3    3    0    0  0.25915177815E+02 -0.24773388906E+02 -0.24460296565E+02  0.47787270200E+02  0.19999996151E+02 0.  0.
         12    1    3    3    0    0 -0.25915177815E+02  0.24773388906E+02  0.24460296565E+02  0.43400729800E+02  0.00000000000E+00 0. -1.
         11    1    4    4    0    0  0.67441801096E+01 -0.87777943507E+01 -0.50534254483E+00  0.11081020276E+02  0.51100000000E-03 0. -1.
        -11    1    4    4    0    0  0.11414028627E+02 -0.24242118224E+01 -0.68338078986E+01  0.13522491749E+02  0.51100000000E-03 0.  1.
         12    1    4    4    0    0  0.77569690784E+01 -0.13571382733E+02 -0.17121146122E+02  0.23183758175E+02  0.00000000000E+00 0. -1.
</event>
<event>
 8    1  0.5331800E-011  0.9118800E+02  0.7816164E-02  0.1184000E+00
        -11   -1    0    0    0    0  0.00000000000E+00  0.00000000000E+00  0.45593999997E+02  0.45594000000E+02  0.51100000000E-03 0. -1.
         11   -1    0    0    0    0 -0.00000000000E+00 -0.00000000000E+00 -0.45593999997E+02  0.45594000000E+02  0.51100000000E-03 0.  1.
         23    2    1    2    0    0 -0.88817841970E-15  0.00000000000E+00 -0.71054273576E-14  0.91188000000E+02  0.91188000000E+02 0.  0.
    9900012    2    3    3    0    0  0.79281048162E+01 -0.92085599375E+01  0.41664979461E+02  0.47787274941E+02  0.20000017768E+02 0.  0.
        -12    1    3    3    0    0 -0.79281048162E+01  0.92085599375E+01 -0.41664979461E+02  0.43400725059E+02  0.00000000000E+00 0.  1.
         11    1    4    4    0    0 -0.28053193598E+01  0.43247311499E+01  0.10608821261E+02  0.11794922850E+02  0.51100000000E-03 0. -1.
        -11    1    4    4    0    0  0.10388447827E+02 -0.12350926676E+02  0.30742669757E+02  0.34721419643E+02  0.51100000000E-03 0.  1.
        -12    1    4    4    0    0  0.34497634944E+00 -0.11823644119E+01  0.31348844348E+00  0.12709324484E+01  0.00000000000E+00 0.  1.
</event>
<event>
 8    1  0.5331800E-011  0.9118800E+02  0.7816164E-02  0.1184000E+00
        -11   -1    0    0    0    0  0.00000000000E+00  0.00000000000E+00  0.45593999997E+02  0.45594000000E+02  0.51100000000E-03 0. -1.
         11   -1    0    0    0    0 -0.00000000000E+00 -0.00000000000E+00 -0.45593999997E+02  0.45594000000E+02  0.51100000000E-03 0.  1.
         23    2    1    2    0    0  0.00000000000E+00  0.88817841970E-15 -0.71054273576E-14  0.91188000000E+02  0.91188000000E+02 0.  0.
    9900012    2    3    3    0    0 -0.16056369492E+02 -0.54145358650E+01  0.39956214715E+02  0.47787270809E+02  0.19999998928E+02 0.  0.
        -12    1    3    3    0    0  0.16056369492E+02  0.54145358650E+01 -0.39956214715E+02  0.43400729191E+02  0.00000000000E+00 0.  1.
         11    1    4    4    0    0 -0.27051633049E+01 -0.67762893777E+01  0.30124939050E+02  0.30995934560E+02  0.51100000000E-03 0. -1.
        -11    1    4    4    0    0 -0.10139168926E+02  0.20060706903E+01  0.75305474299E+01  0.12788127736E+02  0.51100000000E-03 0.  1.
         12    1    4    4    0    0 -0.32120372606E+01 -0.64431717754E+00  0.23007282359E+01  0.40032085137E+01  0.00000000000E+00 0. -1.
</event>
<event>
 8    1  0.5422039E-011  0.9118800E+02  0.7816164E-02  0.1184000E+00
        -11   -1    0    0    0    0  0.00000000000E+00  0.00000000000E+00  0.45593999997E+02  0.45594000000E+02  0.51100000000E-03 0. -1.
         11   -1    0    0    0    0 -0.00000000000E+00 -0.00000000000E+00 -0.45593999997E+02  0.45594000000E+02  0.51100000000E-03 0.  1.
         23    2    1    2    0    0 -0.22204460493E-15  0.00000000000E+00  0.71054273576E-14  0.91188000000E+02  0.91188000000E+02 0.  0.
    9900012    2    3    3    0    0  0.15822414471E+01 -0.27139896984E+02 -0.33831134670E+02  0.47787272248E+02  0.20000005489E+02 0.  0.
         12    1    3    3    0    0 -0.15822414471E+01  0.27139896984E+02  0.33831134670E+02  0.43400727752E+02  0.00000000000E+00 0. -1.
         11    1    4    4    0    0 -0.22641716040E+01 -0.27991574090E+01  0.30299112048E+00  0.36129709565E+01  0.51100000000E-03 0. -1.
        -11    1    4    4    0    0  0.85526381667E+01 -0.16578231337E+02 -0.19765168825E+02  0.27178066024E+02  0.51100000000E-03 0.  1.
        -12    1    4    4    0    0 -0.47062251156E+01 -0.77625082378E+01 -0.14368956966E+02  0.16996235268E+02  0.00000000000E+00 0.  1.
</event>
<event>
 8    1  0.5331800E-011  0.9118800E+02  0.7816164E-02  0.1184000E+00
        -11   -1    0    0    0    0  0.00000000000E+00  0.00000000000E+00  0.45593999997E+02  0.45594000000E+02  0.51100000000E-03 0. -1.
         11   -1    0    0    0    0 -0.00000000000E+00 -0.00000000000E+00 -0.45593999997E+02  0.45594000000E+02  0.51100000000E-03 0.  1.
         23    2    1    2    0    0  0.00000000000E+00  0.00000000000E+00  0.00000000000E+00  0.91188000000E+02  0.91188000000E+02 0.  0.
    9900012    2    3    3    0    0 -0.14915647469E+02  0.34382600404E+02 -0.21885692373E+02  0.47787270967E+02  0.19999999648E+02 0.  0.
         12    1    3    3    0    0  0.14915647469E+02 -0.34382600404E+02  0.21885692373E+02  0.43400729033E+02  0.00000000000E+00 0. -1.
         11    1    4    4    0    0 -0.32776375560E+01  0.11948613099E+01 -0.41215710479E+01  0.53998101506E+01  0.51100000000E-03 0. -1.
        -11    1    4    4    0    0 -0.10430864722E+02  0.19080402292E+02 -0.17996659492E+02  0.28226661928E+02  0.51100000000E-03 0.  1.
        -12    1    4    4    0    0 -0.12071451909E+01  0.14107336802E+02  0.23253816732E+00  0.14160798889E+02  0.00000000000E+00 0.  1.
</event>
<event>
 8    1  0.5331800E-011  0.9118800E+02  0.7816164E-02  0.1184000E+00
        -11   -1    0    0    0    0  0.00000000000E+00  0.00000000000E+00  0.45593999997E+02  0.45594000000E+02  0.51100000000E-03 0. -1.
         11   -1    0    0    0    0 -0.00000000000E+00 -0.00000000000E+00 -0.45593999997E+02  0.45594000000E+02  0.51100000000E-03 0.  1.
         23    2    1    2    0    0  0.00000000000E+00  0.88817841970E-15  0.00000000000E+00  0.91188000000E+02  0.91188000000E+02 0.  0.
    9900012    2    3    3    0    0  0.29377709786E+01 -0.43951776580E+01  0.43077582665E+02  0.47787237182E+02  0.19999845605E+02 0.  0.
        -12    1    3    3    0    0 -0.29377709786E+01  0.43951776580E+01 -0.43077582665E+02  0.43400762818E+02  0.00000000000E+00 0.  1.
         11    1    4    4    0    0  0.53962148186E+01  0.47181267714E+01  0.12222406332E+02  0.14169229739E+02  0.51100000000E-03 0. -1.
        -11    1    4    4    0    0 -0.10827586216E+01  0.14022996606E+01  0.12434699548E+01  0.21644926335E+01  0.51100000000E-03 0.  1.
         12    1    4    4    0    0 -0.13756852184E+01 -0.10515604090E+02  0.29611706378E+02  0.31453514809E+02  0.00000000000E+00 0. -1.
</event>
<event>
 8    1  0.5331800E-011  0.9118800E+02  0.7816164E-02  0.1184000E+00
        -11   -1    0    0    0    0  0.00000000000E+00  0.00000000000E+00  0.45593999997E+02  0.45594000000E+02  0.51100000000E-03 0. -1.
         11   -1    0    0    0    0 -0.00000000000E+00 -0.00000000000E+00 -0.45593999997E+02  0.45594000000E+02  0.51100000000E-03 0.  1.
         23    2    1    2    0    0  0.00000000000E+00  0.00000000000E+00  0.00000000000E+00  0.91188000000E+02  0.91188000000E+02 0.  0.
    9900012    2    3    3    0    0 -0.18210502126E+02  0.19364793925E+01  0.39347819969E+02  0.47787271015E+02  0.19999999864E+02 0.  0.
        -12    1    3    3    0    0  0.18210502126E+02 -0.19364793925E+01 -0.39347819969E+02  0.43400728985E+02  0.00000000000E+00 0.  1.
         11    1    4    4    0    0  0.19899295557E+01 -0.18915038286E+01  0.15784828878E+02  0.16021811050E+02  0.51100000000E-03 0. -1.
        -11    1    4    4    0    0 -0.92574194930E+01  0.10361623144E+00  0.71847732166E+01  0.11718853119E+02  0.51100000000E-03 0.  1.
         12    1    4    4    0    0 -0.10943012189E+02  0.37243669897E+01  0.16378217875E+02  0.20046606845E+02  0.00000000000E+00 0. -1.
</event>
<event>
 8    1  0.5331800E-011  0.9118800E+02  0.7816164E-02  0.1184000E+00
        -11   -1    0    0    0    0  0.00000000000E+00  0.00000000000E+00  0.45593999997E+02  0.45594000000E+02  0.51100000000E-03 0.  1.
         11   -1    0    0    0    0 -0.00000000000E+00 -0.00000000000E+00 -0.45593999997E+02  0.45594000000E+02  0.51100000000E-03 0. -1.
         23    2    1    2    0    0 -0.88817841970E-15  0.00000000000E+00  0.66613381478E-15  0.91188000000E+02  0.91188000000E+02 0.  0.
    9900012    2    3    3    0    0 -0.25487070720E+01  0.43294282575E+02 -0.16530325474E+01  0.47787270420E+02  0.19999997155E+02 0.  0.
         12    1    3    3    0    0  0.25487070720E+01 -0.43294282575E+02  0.16530325474E+01  0.43400729580E+02  0.00000000000E+00 0. -1.
         11    1    4    4    0    0 -0.61234143247E+01  0.32439288044E+01 -0.66885649704E+00  0.69617990746E+01  0.51100000000E-03 0. -1.
        -11    1    4    4    0    0  0.15085956333E+01  0.32068790843E+02 -0.32685377081E+01  0.32270211433E+02  0.51100000000E-03 0.  1.
         12    1    4    4    0    0  0.20661116193E+01  0.79815629281E+01  0.22843616578E+01  0.85552599131E+01  0.00000000000E+00 0. -1.
</event>
<event>
 8    1  0.5331800E-011  0.9118800E+02  0.7816164E-02  0.1184000E+00
        -11   -1    0    0    0    0  0.00000000000E+00  0.00000000000E+00  0.45593999997E+02  0.45594000000E+02  0.51100000000E-03 0. -1.
         11   -1    0    0    0    0 -0.00000000000E+00 -0.00000000000E+00 -0.45593999997E+02  0.45594000000E+02  0.51100000000E-03 0.  1.
         23    2    1    2    0    0  0.00000000000E+00  0.35527136788E-14  0.35527136788E-14  0.91188000000E+02  0.91188000000E+02 0.  0.
    9900012    2    3    3    0    0 -0.36857302838E+02 -0.15740098685E+02 -0.16655681743E+02  0.47787271741E+02  0.20000003175E+02 0.  0.
         12    1    3    3    0    0  0.36857302838E+02  0.15740098685E+02  0.16655681743E+02  0.43400728259E+02  0.00000000000E+00 0. -1.
         11    1    4    4    0    0 -0.87191735348E+01 -0.90360925417E+01 -0.21957730575E+01  0.12747406604E+02  0.51100000000E-03 0. -1.
        -11    1    4    4    0    0 -0.17490268177E+02  0.24184655960E+01 -0.10174103906E+02  0.20378195388E+02  0.51100000000E-03 0.  1.
        -12    1    4    4    0    0 -0.10647861126E+02 -0.91224717396E+01 -0.42858047795E+01  0.14661669749E+02  0.00000000000E+00 0.  1.
</event>
<event>
 8    1  0.5331800E-011  0.9118800E+02  0.7816164E-02  0.1184000E+00
        -11   -1    0    0    0    0  0.00000000000E+00  0.00000000000E+00  0.45593999997E+02  0.45594000000E+02  0.51100000000E-03 0. -1.
         11   -1    0    0    0    0 -0.00000000000E+00 -0.00000000000E+00 -0.45593999997E+02  0.45594000000E+02  0.51100000000E-03 0.  1.
         23    2    1    2    0    0 -0.22204460493E-15  0.00000000000E+00  0.00000000000E+00  0.91188000000E+02  0.91188000000E+02 0.  0.
    9900012    2    3    3    0    0  0.16212211177E+01  0.17364207333E+02  0.39742663723E+02  0.47787269890E+02  0.19999994738E+02 0.  0.
        -12    1    3    3    0    0 -0.16212211177E+01 -0.17364207333E+02 -0.39742663723E+02  0.43400730110E+02  0.00000000000E+00 0.  1.
         11    1    4    4    0    0 -0.45310364746E+01  0.58500481864E+00  0.22724369650E+01  0.51025966128E+01  0.51100000000E-03 0. -1.
        -11    1    4    4    0    0  0.87715520744E+01  0.11555236606E+02  0.24797068120E+02  0.28729048129E+02  0.51100000000E-03 0.  1.
        -12    1    4    4    0    0 -0.26192944822E+01  0.52239659090E+01  0.12673158638E+02  0.13955625148E+02  0.00000000000E+00 0.  1.
</event>
<event>
 8    1  0.5331800E-011  0.9118800E+02  0.7816164E-02  0.1184000E+00
        -11   -1    0    0    0    0  0.00000000000E+00  0.00000000000E+00  0.45593999997E+02  0.45594000000E+02  0.51100000000E-03 0. -1.
         11   -1    0    0    0    0 -0.00000000000E+00 -0.00000000000E+00 -0.45593999997E+02  0.45594000000E+02  0.51100000000E-03 0.  1.
         23    2    1    2    0    0 -0.44408920985E-15  0.00000000000E+00  0.00000000000E+00  0.91188000000E+02  0.91188000000E+02 0.  0.
    9900012    2    3    3    0    0 -0.34591465339E+01 -0.24527005537E+02 -0.35638220390E+02  0.47787280560E+02  0.20000043385E+02 0.  0.
         12    1    3    3    0    0  0.34591465339E+01  0.24527005537E+02  0.35638220390E+02  0.43400719440E+02  0.00000000000E+00 0. -1.
         11    1    4    4    0    0  0.96358979900E+00 -0.85181717852E+01 -0.42981917130E+01  0.95896928066E+01  0.51100000000E-03 0. -1.
        -11    1    4    4    0    0 -0.85146398267E+01 -0.13488992204E+02 -0.28373707298E+02  0.32550257574E+02  0.51100000000E-03 0.  1.
        -12    1    4    4    0    0  0.40919034938E+01 -0.25198415476E+01 -0.29663213795E+01  0.56473301793E+01  0.00000000000E+00 0.  1.
</event>
<event>
 8    1  0.5331800E-011  0.9118800E+02  0.7816164E-02  0.1184000E+00
        -11   -1    0    0    0    0  0.00000000000E+00  0.00000000000E+00  0.45593999997E+02  0.45594000000E+02  0.51100000000E-03 0. -1.
         11   -1    0    0    0    0 -0.00000000000E+00 -0.00000000000E+00 -0.45593999997E+02  0.45594000000E+02  0.51100000000E-03 0.  1.
         23    2    1    2    0    0 -0.35527136788E-14  0.00000000000E+00  0.00000000000E+00  0.91188000000E+02  0.91188000000E+02 0.  0.
    9900012    2    3    3    0    0  0.21543925594E+02 -0.20197198392E+02 -0.31804958198E+02  0.47787275134E+02  0.20000018647E+02 0.  0.
         12    1    3    3    0    0 -0.21543925594E+02  0.20197198392E+02  0.31804958198E+02  0.43400724866E+02  0.00000000000E+00 0. -1.
         11    1    4    4    0    0  0.47355963831E+01 -0.90000379510E+01 -0.10577854671E+01  0.10224747751E+02  0.51100000000E-03 0. -1.
        -11    1    4    4    0    0  0.12921485272E+02 -0.51554852211E+01 -0.23806505783E+02  0.27573420669E+02  0.51100000000E-03 0.  1.
         12    1    4    4    0    0  0.38868439388E+01 -0.60416752202E+01 -0.69406669478E+01  0.99891067144E+01  0.00000000000E+00 0. -1.
</event>
<event>
 8    1  0.5331800E-011  0.9118800E+02  0.7816164E-02  0.1184000E+00
        -11   -1    0    0    0    0  0.00000000000E+00  0.00000000000E+00  0.45593999997E+02  0.45594000000E+02  0.51100000000E-03 0. -1.
         11   -1    0    0    0    0 -0.00000000000E+00 -0.00000000000E+00 -0.45593999997E+02  0.45594000000E+02  0.51100000000E-03 0.  1.
         23    2    1    2    0    0  0.00000000000E+00  0.17763568394E-14  0.00000000000E+00  0.91188000000E+02  0.91188000000E+02 0.  0.
    9900012    2    3    3    0    0 -0.11271190807E+02 -0.14759399224E+02 -0.39226823771E+02  0.47787270619E+02  0.19999998062E+02 0.  0.
         12    1    3    3    0    0  0.11271190807E+02  0.14759399224E+02  0.39226823771E+02  0.43400729381E+02  0.00000000000E+00 0. -1.
         11    1    4    4    0    0 -0.34736198409E+01 -0.11722872689E+02 -0.35057741799E+02  0.37128655230E+02  0.51100000000E-03 0.  1.
        -11    1    4    4    0    0 -0.24000436335E+01  0.14016686438E+01 -0.16398288687E+01  0.32270611102E+01  0.51100000000E-03 0. -1.
         12    1    4    4    0    0 -0.53975273321E+01 -0.44381951783E+01 -0.25292531030E+01  0.74315542789E+01  0.00000000000E+00 0. -1.
</event>
<event>
 8    1  0.5331800E-011  0.9118800E+02  0.7816164E-02  0.1184000E+00
        -11   -1    0    0    0    0  0.00000000000E+00  0.00000000000E+00  0.45593999997E+02  0.45594000000E+02  0.51100000000E-03 0. -1.
         11   -1    0    0    0    0 -0.00000000000E+00 -0.00000000000E+00 -0.45593999997E+02  0.45594000000E+02  0.51100000000E-03 0.  1.
         23    2    1    2    0    0  0.17763568394E-14  0.35527136788E-14 -0.71054273576E-14  0.91188000000E+02  0.91188000000E+02 0.  0.
    9900012    2    3    3    0    0 -0.92582750074E+01 -0.19276547256E+02  0.37766694638E+02  0.47787260904E+02  0.19999953765E+02 0.  0.
        -12    1    3    3    0    0  0.92582750074E+01  0.19276547256E+02 -0.37766694638E+02  0.43400739096E+02  0.00000000000E+00 0.  1.
         11    1    4    4    0    0  0.90458924327E+00 -0.32504186274E+01  0.24857180802E+01  0.41907395036E+01  0.51100000000E-03 0. -1.
        -11    1    4    4    0    0  0.39788167163E+01 -0.71233973467E+01  0.16826943962E+02  0.18700797191E+02  0.51100000000E-03 0.  1.
        -12    1    4    4    0    0 -0.14141680967E+02 -0.89027312821E+01  0.18454032596E+02  0.24895724209E+02  0.00000000000E+00 0.  1.
</event>
<event>
 8    1  0.5331800E-011  0.9118800E+02  0.7816164E-02  0.1184000E+00
        -11   -1    0    0    0    0  0.00000000000E+00  0.00000000000E+00  0.45593999997E+02  0.45594000000E+02  0.51100000000E-03 0.  1.
         11   -1    0    0    0    0 -0.00000000000E+00 -0.00000000000E+00 -0.45593999997E+02  0.45594000000E+02  0.51100000000E-03 0. -1.
         23    2    1    2    0    0  0.00000000000E+00  0.00000000000E+00  0.35527136788E-14  0.91188000000E+02  0.91188000000E+02 0.  0.
    9900012    2    3    3    0    0  0.22946381231E+02 -0.32145755471E+02  0.17992698627E+02  0.47787271777E+02  0.20000003339E+02 0.  0.
        -12    1    3    3    0    0 -0.22946381231E+02  0.32145755471E+02 -0.17992698627E+02  0.43400728223E+02  0.00000000000E+00 0.  1.
         11    1    4    4    0    0  0.73473725519E+01 -0.21605005282E+02  0.61669449580E+01  0.23638767883E+02  0.51100000000E-03 0. -1.
        -11    1    4    4    0    0  0.10831302288E+02 -0.40155882440E+01  0.25197967466E+01  0.11823342764E+02  0.51100000000E-03 0.  1.
         12    1    4    4    0    0  0.47677063910E+01 -0.65251619453E+01  0.93059569224E+01  0.12325161130E+02  0.00000000000E+00 0. -1.
</event>
<event>
 8    1  0.5331800E-011  0.9118800E+02  0.7816164E-02  0.1184000E+00
        -11   -1    0    0    0    0  0.00000000000E+00  0.00000000000E+00  0.45593999997E+02  0.45594000000E+02  0.51100000000E-03 0. -1.
         11   -1    0    0    0    0 -0.00000000000E+00 -0.00000000000E+00 -0.45593999997E+02  0.45594000000E+02  0.51100000000E-03 0.  1.
         23    2    1    2    0    0 -0.88817841970E-15  0.88817841970E-15  0.00000000000E+00  0.91188000000E+02  0.91188000000E+02 0.  0.
    9900012    2    3    3    0    0  0.39575568309E+01 -0.75897997495E+01  0.42548293365E+02  0.47787255944E+02  0.19999931153E+02 0.  0.
        -12    1    3    3    0    0 -0.39575568309E+01  0.75897997495E+01 -0.42548293365E+02  0.43400744056E+02  0.00000000000E+00 0.  1.
         11    1    4    4    0    0 -0.54160905581E+01 -0.66680181381E+01  0.25353645979E+02  0.26769457737E+02  0.51100000000E-03 0. -1.
        -11    1    4    4    0    0  0.85894014578E+01 -0.18971843934E+01  0.17621825417E+02  0.19695325774E+02  0.51100000000E-03 0.  1.
         12    1    4    4    0    0  0.78424593119E+00  0.97540278210E+00 -0.42717803167E+00  0.13224724340E+01  0.00000000000E+00 0. -1.
</event>
<event>
 8    1  0.5331800E-011  0.9118800E+02  0.7816164E-02  0.1184000E+00
        -11   -1    0    0    0    0  0.00000000000E+00  0.00000000000E+00  0.45593999997E+02  0.45594000000E+02  0.51100000000E-03 0.  1.
         11   -1    0    0    0    0 -0.00000000000E+00 -0.00000000000E+00 -0.45593999997E+02  0.45594000000E+02  0.51100000000E-03 0. -1.
         23    2    1    2    0    0  0.00000000000E+00 -0.35527136788E-14  0.00000000000E+00  0.91188000000E+02  0.91188000000E+02 0.  0.
    9900012    2    3    3    0    0  0.37332717935E+02 -0.18010243067E+02 -0.12865566019E+02  0.47787268754E+02  0.19999989556E+02 0.  0.
        -12    1    3    3    0    0 -0.37332717935E+02  0.18010243067E+02  0.12865566019E+02  0.43400731246E+02  0.00000000000E+00 0.  1.
         11    1    4    4    0    0 -0.35651208715E+00 -0.29791521658E+01  0.13572801477E+01  0.32931228577E+01  0.51100000000E-03 0.  1.
        -11    1    4    4    0    0  0.34716415171E+02 -0.10908485863E+02 -0.14985336297E+02  0.39354603928E+02  0.51100000000E-03 0. -1.
         12    1    4    4    0    0  0.29728148507E+01 -0.41226050384E+01  0.76249013051E+00  0.51395419677E+01  0.00000000000E+00 0. -1.
</event>
<event>
 8    1  0.5474322E-011  0.9118800E+02  0.7816164E-02  0.1184000E+00
        -11   -1    0    0    0    0  0.00000000000E+00  0.00000000000E+00  0.45593999997E+02  0.45594000000E+02  0.51100000000E-03 0. -1.
         11   -1    0    0    0    0 -0.00000000000E+00 -0.00000000000E+00 -0.45593999997E+02  0.45594000000E+02  0.51100000000E-03 0.  1.
         23    2    1    2    0    0  0.00000000000E+00  0.17763568394E-14 -0.71054273576E-14  0.91188000000E+02  0.91188000000E+02 0.  0.
    9900012    2    3    3    0    0 -0.11663560896E+02 -0.14328021039E+02  0.39272034137E+02  0.47787268383E+02  0.19999987864E+02 0.  0.
        -12    1    3    3    0    0  0.11663560896E+02  0.14328021039E+02 -0.39272034137E+02  0.43400731617E+02  0.00000000000E+00 0.  1.
         11    1    4    4    0    0 -0.11399794916E+02 -0.92105915787E+01  0.25978844250E+02  0.29827682950E+02  0.51100000000E-03 0. -1.
        -11    1    4    4    0    0  0.46975765250E+01 -0.47698993648E+01  0.52707656997E+01  0.85205713706E+01  0.51100000000E-03 0.  1.
        -12    1    4    4    0    0 -0.49613425052E+01 -0.34753009508E+00  0.80224241877E+01  0.94390140623E+01  0.00000000000E+00 0.  1.
</event>
<event>
 8    1  0.5331800E-011  0.9118800E+02  0.7816164E-02  0.1184000E+00
        -11   -1    0    0    0    0  0.00000000000E+00  0.00000000000E+00  0.45593999997E+02  0.45594000000E+02  0.51100000000E-03 0. -1.
         11   -1    0    0    0    0 -0.00000000000E+00 -0.00000000000E+00 -0.45593999997E+02  0.45594000000E+02  0.51100000000E-03 0.  1.
         23    2    1    2    0    0  0.00000000000E+00 -0.17763568394E-14  0.00000000000E+00  0.91188000000E+02  0.91188000000E+02 0.  0.
    9900012    2    3    3    0    0 -0.50479621917E+01  0.94216354866E+01 -0.42063965280E+02  0.47787236037E+02  0.19999840385E+02 0.  0.
         12    1    3    3    0    0  0.50479621917E+01 -0.94216354866E+01  0.42063965280E+02  0.43400763963E+02  0.00000000000E+00 0. -1.
         11    1    4    4    0    0 -0.27503004279E+01  0.12637918383E+02 -0.27027499661E+02  0.29962758078E+02  0.51100000000E-03 0.  1.
        -11    1    4    4    0    0  0.17905702608E+01  0.17697137165E+01 -0.74730351666E+01  0.78857011965E+01  0.51100000000E-03 0. -1.
         12    1    4    4    0    0 -0.40882320245E+01 -0.49859966127E+01 -0.75634304528E+01  0.99387767618E+01  0.00000000000E+00 0. -1.
</event>
<event>
 8    1  0.5331800E-011  0.9118800E+02  0.7816164E-02  0.1184000E+00
        -11   -1    0    0    0    0  0.00000000000E+00  0.00000000000E+00  0.45593999997E+02  0.45594000000E+02  0.51100000000E-03 0. -1.
         11   -1    0    0    0    0 -0.00000000000E+00 -0.00000000000E+00 -0.45593999997E+02  0.45594000000E+02  0.51100000000E-03 0.  1.
         23    2    1    2    0    0  0.00000000000E+00  0.17763568394E-14  0.00000000000E+00  0.91188000000E+02  0.91188000000E+02 0.  0.
    9900012    2    3    3    0    0 -0.14546044912E+02 -0.97856610321E+01  0.39702351506E+02  0.47787270749E+02  0.19999998652E+02 0.  0.
        -12    1    3    3    0    0  0.14546044912E+02  0.97856610321E+01 -0.39702351506E+02  0.43400729251E+02  0.00000000000E+00 0.  1.
         11    1    4    4    0    0 -0.30242143969E+01  0.23809547208E+01 -0.16386131508E+00  0.38524886622E+01  0.51100000000E-03 0.  1.
        -11    1    4    4    0    0  0.84331049739E+00 -0.28438209072E+01  0.70277651307E+01  0.76281041511E+01  0.51100000000E-03 0. -1.
         12    1    4    4    0    0 -0.12365141013E+02 -0.93227948457E+01  0.32838447690E+02  0.36306677936E+02  0.00000000000E+00 0. -1.
</event>
<event>
 8    1  0.5331800E-011  0.9118800E+02  0.7816164E-02  0.1184000E+00
        -11   -1    0    0    0    0  0.00000000000E+00  0.00000000000E+00  0.45593999997E+02  0.45594000000E+02  0.51100000000E-03 0. -1.
         11   -1    0    0    0    0 -0.00000000000E+00 -0.00000000000E+00 -0.45593999997E+02  0.45594000000E+02  0.51100000000E-03 0.  1.
         23    2    1    2    0    0  0.00000000000E+00  0.00000000000E+00  0.00000000000E+00  0.91188000000E+02  0.91188000000E+02 0.  0.
    9900012    2    3    3    0    0  0.14018224947E+02 -0.11396694031E+02 -0.39461720881E+02  0.47787277882E+02  0.20000031174E+02 0.  0.
         12    1    3    3    0    0 -0.14018224947E+02  0.11396694031E+02  0.39461720881E+02  0.43400722118E+02  0.00000000000E+00 0. -1.
         11    1    4    4    0    0 -0.81535884083E+00  0.33023304036E+01 -0.11643677792E+01  0.35952675450E+01  0.51100000000E-03 0. -1.
        -11    1    4    4    0    0  0.10413120647E+02 -0.55039783876E+01 -0.18753732011E+02  0.22145638946E+02  0.51100000000E-03 0.  1.
         12    1    4    4    0    0  0.44204631407E+01 -0.91950460473E+01 -0.19543621090E+02  0.22046371391E+02  0.00000000000E+00 0. -1.
</event>
<event>
 8    1  0.5331800E-011  0.9118800E+02  0.7816164E-02  0.1184000E+00
        -11   -1    0    0    0    0  0.00000000000E+00  0.00000000000E+00  0.45593999997E+02  0.45594000000E+02  0.51100000000E-03 0. -1.
         11   -1    0    0    0    0 -0.00000000000E+00 -0.00000000000E+00 -0.45593999997E+02  0.45594000000E+02  0.51100000000E-03 0.  1.
         23    2    1    2    0    0  0.88817841970E-15  0.35527136788E-14  0.71054273576E-14  0.91188000000E+02  0.91188000000E+02 0.  0.
    9900012    2    3    3    0    0 -0.75240938103E+01  0.25549568368E+02  0.34267046942E+02  0.47787274919E+02  0.20000017666E+02 0.  0.
        -12    1    3    3    0    0  0.75240938103E+01 -0.25549568368E+02 -0.34267046942E+02  0.43400725081E+02  0.00000000000E+00 0.  1.
         11    1    4    4    0    0 -0.63676209052E+01  0.62116166176E+01  0.10011006765E+02  0.13392200480E+02  0.51100000000E-03 0. -1.
        -11    1    4    4    0    0  0.56796289949E+01  0.12148053171E+02  0.18739421442E+02  0.23043422003E+02  0.51100000000E-03 0.  1.
        -12    1    4    4    0    0 -0.68361018999E+01  0.71898985791E+01  0.55166187353E+01  0.11351652436E+02  0.00000000000E+00 0.  1.
</event>
<event>
 8    1  0.5331800E-011  0.9118800E+02  0.7816164E-02  0.1184000E+00
        -11   -1    0    0    0    0  0.00000000000E+00  0.00000000000E+00  0.45593999997E+02  0.45594000000E+02  0.51100000000E-03 0. -1.
         11   -1    0    0    0    0 -0.00000000000E+00 -0.00000000000E+00 -0.45593999997E+02  0.45594000000E+02  0.51100000000E-03 0.  1.
         23    2    1    2    0    0 -0.17763568394E-14  0.17763568394E-14  0.00000000000E+00  0.91188000000E+02  0.91188000000E+02 0.  0.
    9900012    2    3    3    0    0  0.98048223304E+01 -0.13621317096E+02 -0.40024347479E+02  0.47787271764E+02  0.20000003279E+02 0.  0.
         12    1    3    3    0    0 -0.98048223304E+01  0.13621317096E+02  0.40024347479E+02  0.43400728236E+02  0.00000000000E+00 0. -1.
         11    1    4    4    0    0 -0.38042027231E+01  0.27349789755E+01 -0.86315400999E+01  0.98211788046E+01  0.51100000000E-03 0. -1.
        -11    1    4    4    0    0  0.10360959472E+02 -0.12313297018E+02 -0.22332081691E+02  0.27526144618E+02  0.51100000000E-03 0.  1.
         12    1    4    4    0    0  0.32480655818E+01 -0.40429990541E+01 -0.90607256880E+01  0.10439948341E+02  0.00000000000E+00 0. -1.
</event>
<event>
 8    1  0.5331800E-011  0.9118800E+02  0.7816164E-02  0.1184000E+00
        -11   -1    0    0    0    0  0.00000000000E+00  0.00000000000E+00  0.45593999997E+02  0.45594000000E+02  0.51100000000E-03 0. -1.
         11   -1    0    0    0    0 -0.00000000000E+00 -0.00000000000E+00 -0.45593999997E+02  0.45594000000E+02  0.51100000000E-03 0.  1.
         23    2    1    2    0    0  0.00000000000E+00  0.17763568394E-14 -0.35527136788E-14  0.91188000000E+02  0.91188000000E+02 0.  0.
    9900012    2    3    3    0    0  0.27742340786E+02 -0.11307263402E+02  0.31402734621E+02  0.47787269366E+02  0.19999992346E+02 0.  0.
        -12    1    3    3    0    0 -0.27742340786E+02  0.11307263402E+02 -0.31402734621E+02  0.43400730634E+02  0.00000000000E+00 0.  1.
         11    1    4    4    0    0  0.80910312220E+01 -0.28792903211E+01  0.17692655571E+02  0.19666854360E+02  0.51100000000E-03 0. -1.
        -11    1    4    4    0    0  0.10194704762E+02  0.13483877877E+01  0.27293134188E+01  0.10639516286E+02  0.51100000000E-03 0.  1.
        -12    1    4    4    0    0  0.94566048026E+01 -0.97763608682E+01  0.10980765631E+02  0.17480898720E+02  0.00000000000E+00 0.  1.
</event>
<event>
 8    1  0.5331800E-011  0.9118800E+02  0.7816164E-02  0.1184000E+00
        -11   -1    0    0    0    0  0.00000000000E+00  0.00000000000E+00  0.45593999997E+02  0.45594000000E+02  0.51100000000E-03 0. -1.
         11   -1    0    0    0    0 -0.00000000000E+00 -0.00000000000E+00 -0.45593999997E+02  0.45594000000E+02  0.51100000000E-03 0.  1.
         23    2    1    2    0    0  0.00000000000E+00  0.00000000000E+00  0.00000000000E+00  0.91188000000E+02  0.91188000000E+02 0.  0.
    9900012    2    3    3    0    0  0.72036760186E+01  0.46761339521E+01 -0.42542496276E+02  0.47787272283E+02  0.20000005648E+02 0.  0.
         12    1    3    3    0    0 -0.72036760186E+01 -0.46761339521E+01  0.42542496276E+02  0.43400727717E+02  0.00000000000E+00 0. -1.
         11    1    4    4    0    0  0.78823160434E+01  0.64413694420E+01 -0.14456524428E+02  0.17680872300E+02  0.51100000000E-03 0. -1.
        -11    1    4    4    0    0 -0.24259813758E+01 -0.23496853381E+01 -0.28061229389E+02  0.28263740055E+02  0.51100000000E-03 0.  1.
        -12    1    4    4    0    0  0.17473413509E+01  0.58444984825E+00 -0.24742459797E-01  0.18426599282E+01  0.00000000000E+00 0.  1.
</event>
<event>
 8    1  0.5331800E-011  0.9118800E+02  0.7816164E-02  0.1184000E+00
        -11   -1    0    0    0    0  0.00000000000E+00  0.00000000000E+00  0.45593999997E+02  0.45594000000E+02  0.51100000000E-03 0. -1.
         11   -1    0    0    0    0 -0.00000000000E+00 -0.00000000000E+00 -0.45593999997E+02  0.45594000000E+02  0.51100000000E-03 0.  1.
         23    2    1    2    0    0  0.00000000000E+00 -0.35527136788E-14  0.00000000000E+00  0.91188000000E+02  0.91188000000E+02 0.  0.
    9900012    2    3    3    0    0 -0.95110103434E+01 -0.23350029580E+02 -0.35326189757E+02  0.47787275560E+02  0.20000020589E+02 0.  0.
         12    1    3    3    0    0  0.95110103434E+01  0.23350029580E+02  0.35326189757E+02  0.43400724440E+02  0.00000000000E+00 0. -1.
         11    1    4    4    0    0 -0.88848341279E+01 -0.15873532480E+02 -0.11450848059E+02  0.21494911780E+02  0.51100000000E-03 0. -1.
        -11    1    4    4    0    0 -0.33320031306E+01 -0.65834270479E+01 -0.20937852475E+02  0.22199941961E+02  0.51100000000E-03 0.  1.
         12    1    4    4    0    0  0.27058269151E+01 -0.89307005239E+00 -0.29374892227E+01  0.40924218192E+01  0.00000000000E+00 0. -1.
</event>
<event>
 8    1  0.5331800E-011  0.9118800E+02  0.7816164E-02  0.1184000E+00
        -11   -1    0    0    0    0  0.00000000000E+00  0.00000000000E+00  0.45593999997E+02  0.45594000000E+02  0.51100000000E-03 0. -1.
         11   -1    0    0    0    0 -0.00000000000E+00 -0.00000000000E+00 -0.45593999997E+02  0.45594000000E+02  0.51100000000E-03 0.  1.
         23    2    1    2    0    0  0.00000000000E+00  0.00000000000E+00  0.00000000000E+00  0.91188000000E+02  0.91188000000E+02 0.  0.
    9900012    2    3    3    0    0 -0.42756201761E+01 -0.19844667603E+02 -0.38360548141E+02  0.47787269432E+02  0.19999992646E+02 0.  0.
         12    1    3    3    0    0  0.42756201761E+01  0.19844667603E+02  0.38360548141E+02  0.43400730568E+02  0.00000000000E+00 0. -1.
         11    1    4    4    0    0 -0.10262544747E+02 -0.11476022535E+02 -0.20449153697E+02  0.25596617063E+02  0.51100000000E-03 0. -1.
        -11    1    4    4    0    0  0.68849413583E+01 -0.53886510691E+01 -0.16701246471E+02  0.18851302655E+02  0.51100000000E-03 0.  1.
         12    1    4    4    0    0 -0.89801678739E+00 -0.29799939995E+01 -0.12101479731E+01  0.33393497128E+01  0.00000000000E+00 0. -1.
</event>
<event>
 8    1  0.5331800E-011  0.9118800E+02  0.7816164E-02  0.1184000E+00
        -11   -1    0    0    0    0  0.00000000000E+00  0.00000000000E+00  0.45593999997E+02  0.45594000000E+02  0.51100000000E-03 0. -1.
         11   -1    0    0    0    0 -0.00000000000E+00 -0.00000000000E+00 -0.45593999997E+02  0.45594000000E+02  0.51100000000E-03 0.  1.
         23    2    1    2    0    0 -0.19428902931E-15  0.00000000000E+00  0.00000000000E+00  0.91188000000E+02  0.91188000000E+02 0.  0.
    9900012    2    3    3    0    0 -0.22724866320E+00  0.16709701569E+02 -0.40054431094E+02  0.47787271680E+02  0.20000002898E+02 0.  0.
         12    1    3    3    0    0  0.22724866320E+00 -0.16709701569E+02  0.40054431094E+02  0.43400728320E+02  0.00000000000E+00 0. -1.
         11    1    4    4    0    0  0.24816504888E+01  0.64811304974E+01 -0.30243384444E+02  0.31029436743E+02  0.51100000000E-03 0. -1.
        -11    1    4    4    0    0 -0.32677243027E+01  0.10559831257E+02 -0.54057281780E+01  0.12304875282E+02  0.51100000000E-03 0.  1.
        -12    1    4    4    0    0  0.55882515078E+00 -0.33126018613E+00 -0.44053184713E+01  0.44529596555E+01  0.00000000000E+00 0.  1.
</event>
<event>
 8    1  0.5331800E-011  0.9118800E+02  0.7816164E-02  0.1184000E+00
        -11   -1    0    0    0    0  0.00000000000E+00  0.00000000000E+00  0.45593999997E+02  0.45594000000E+02  0.51100000000E-03 0. -1.
         11   -1    0    0    0    0 -0.00000000000E+00 -0.00000000000E+00 -0.45593999997E+02  0.45594000000E+02  0.51100000000E-03 0.  1.
         23    2    1    2    0    0  0.00000000000E+00  0.00000000000E+00  0.00000000000E+00  0.91188000000E+02  0.91188000000E+02 0.  0.
    9900012    2    3    3    0    0  0.33162742577E+01  0.58354977153E+01  0.42878582623E+02  0.47787267791E+02  0.19999985166E+02 0.  0.
        -12    1    3    3    0    0 -0.33162742577E+01 -0.58354977153E+01 -0.42878582623E+02  0.43400732209E+02  0.00000000000E+00 0.  1.
         11    1    4    4    0    0 -0.94686487655E+00  0.55481528715E+01  0.10998628113E+02  0.12355095063E+02  0.51100000000E-03 0. -1.
        -11    1    4    4    0    0  0.26632226029E+01 -0.69629354333E+01  0.20790728959E+02  0.22086865676E+02  0.51100000000E-03 0.  1.
        -12    1    4    4    0    0  0.15999165313E+01  0.72502802771E+01  0.11089225551E+02  0.13345307053E+02  0.00000000000E+00 0.  1.
</event>
<event>
 8    1  0.5331800E-011  0.9118800E+02  0.7816164E-02  0.1184000E+00
        -11   -1    0    0    0    0  0.00000000000E+00  0.00000000000E+00  0.45593999997E+02  0.45594000000E+02  0.51100000000E-03 0. -1.
         11   -1    0    0    0    0 -0.00000000000E+00 -0.00000000000E+00 -0.45593999997E+02  0.45594000000E+02  0.51100000000E-03 0.  1.
         23    2    1    2    0    0  0.00000000000E+00  0.17763568394E-14  0.71054273576E-14  0.91188000000E+02  0.91188000000E+02 0.  0.
    9900012    2    3    3    0    0 -0.63473122557E+01  0.14937918383E+02 -0.40251627093E+02  0.47787271180E+02  0.20000000618E+02 0.  0.
         12    1    3    3    0    0  0.63473122557E+01 -0.14937918383E+02  0.40251627093E+02  0.43400728820E+02  0.00000000000E+00 0. -1.
         11    1    4    4    0    0  0.45201217012E+00  0.21450438787E+01  0.13465775063E+01  0.25727027588E+01  0.51100000000E-03 0. -1.
        -11    1    4    4    0    0 -0.42106826067E+01  0.17070173428E+00 -0.58089804316E+01  0.71765758557E+01  0.51100000000E-03 0.  1.
         12    1    4    4    0    0 -0.25886418191E+01  0.12622172770E+02 -0.35789224167E+02  0.38037992566E+02  0.00000000000E+00 0. -1.
</event>
<event>
 8    1  0.5331800E-011  0.9118800E+02  0.7816164E-02  0.1184000E+00
        -11   -1    0    0    0    0  0.00000000000E+00  0.00000000000E+00  0.45593999997E+02  0.45594000000E+02  0.51100000000E-03 0. -1.
         11   -1    0    0    0    0 -0.00000000000E+00 -0.00000000000E+00 -0.45593999997E+02  0.45594000000E+02  0.51100000000E-03 0.  1.
         23    2    1    2    0    0  0.00000000000E+00  0.00000000000E+00  0.00000000000E+00  0.91188000000E+02  0.91188000000E+02 0.  0.
    9900012    2    3    3    0    0 -0.12592704961E+02 -0.11458863770E+02  0.39921689130E+02  0.47787273738E+02  0.20000012279E+02 0.  0.
        -12    1    3    3    0    0  0.12592704961E+02  0.11458863770E+02 -0.39921689130E+02  0.43400726262E+02  0.00000000000E+00 0.  1.
         11    1    4    4    0    0 -0.63560692972E+00 -0.93691996799E+01  0.30360860165E+02  0.31779989444E+02  0.51100000000E-03 0. -1.
        -11    1    4    4    0    0 -0.10127724246E+02 -0.57707860317E+00  0.90162438791E+01  0.13571900091E+02  0.51100000000E-03 0.  1.
         12    1    4    4    0    0 -0.18293737847E+01 -0.15125854871E+01  0.54458508521E+00  0.24353842028E+01  0.00000000000E+00 0. -1.
</event>
<event>
 8    1  0.5331800E-011  0.9118800E+02  0.7816164E-02  0.1184000E+00
        -11   -1    0    0    0    0  0.00000000000E+00  0.00000000000E+00  0.45593999997E+02  0.45594000000E+02  0.51100000000E-03 0. -1.
         11   -1    0    0    0    0 -0.00000000000E+00 -0.00000000000E+00 -0.45593999997E+02  0.45594000000E+02  0.51100000000E-03 0.  1.
         23    2    1    2    0    0  0.00000000000E+00  0.00000000000E+00  0.00000000000E+00  0.91188000000E+02  0.91188000000E+02 0.  0.
    9900012    2    3    3    0    0 -0.17988284952E+02  0.28625572692E+02  0.27214355130E+02  0.47787274976E+02  0.20000017925E+02 0.  0.
        -12    1    3    3    0    0  0.17988284952E+02 -0.28625572692E+02 -0.27214355130E+02  0.43400725024E+02  0.00000000000E+00 0.  1.
         11    1    4    4    0    0 -0.90809187873E+01  0.15661866187E+02  0.25558967041E+01  0.18283592281E+02  0.51100000000E-03 0. -1.
        -11    1    4    4    0    0 -0.74560486867E+01  0.11903896948E+02  0.23460431602E+02  0.27343870900E+02  0.51100000000E-03 0.  1.
         12    1    4    4    0    0 -0.14513174776E+01  0.10598095573E+01  0.11980268244E+01  0.21598117951E+01  0.00000000000E+00 0. -1.
</event>
<event>
 8    1  0.5331800E-011  0.9118800E+02  0.7816164E-02  0.1184000E+00
        -11   -1    0    0    0    0  0.00000000000E+00  0.00000000000E+00  0.45593999997E+02  0.45594000000E+02  0.51100000000E-03 0. -1.
         11   -1    0    0    0    0 -0.00000000000E+00 -0.00000000000E+00 -0.45593999997E+02  0.45594000000E+02  0.51100000000E-03 0.  1.
         23    2    1    2    0    0 -0.35527136788E-14  0.00000000000E+00 -0.35527136788E-14  0.91188000000E+02  0.91188000000E+02 0.  0.
    9900012    2    3    3    0    0 -0.29774468983E+02 -0.22727842684E+02 -0.21921432299E+02  0.47787273850E+02  0.20000012793E+02 0.  0.
         12    1    3    3    0    0  0.29774468983E+02  0.22727842684E+02  0.21921432299E+02  0.43400726150E+02  0.00000000000E+00 0. -1.
         11    1    4    4    0    0 -0.33051716998E+01 -0.13815113491E+02 -0.77343157450E+01  0.16174089187E+02  0.51100000000E-03 0.  1.
        -11    1    4    4    0    0 -0.17224618086E+01 -0.79417733118E+00  0.11479096501E+00  0.19002025004E+01  0.51100000000E-03 0. -1.
         12    1    4    4    0    0 -0.24746835474E+02 -0.81185518626E+01 -0.14301907519E+02  0.29712982163E+02  0.00000000000E+00 0. -1.
</event>
<event>
 8    1  0.5331800E-011  0.9118800E+02  0.7816164E-02  0.1184000E+00
        -11   -1    0    0    0    0  0.00000000000E+00  0.00000000000E+00  0.45593999997E+02  0.45594000000E+02  0.51100000000E-03 0.  1.
         11   -1    0    0    0    0 -0.00000000000E+00 -0.00000000000E+00 -0.45593999997E+02  0.45594000000E+02  0.51100000000E-03 0. -1.
         23    2    1    2    0    0  0.88817841970E-15  0.35527136788E-14  0.00000000000E+00  0.91188000000E+02  0.91188000000E+02 0.  0.
    9900012    2    3    3    0    0 -0.77552727021E+01 -0.30859022182E+02  0.29516106993E+02  0.47787261795E+02  0.19999957829E+02 0.  0.
        -12    1    3    3    0    0  0.77552727021E+01  0.30859022182E+02 -0.29516106993E+02  0.43400738205E+02  0.00000000000E+00 0.  1.
         11    1    4    4    0    0  0.10781621828E+01 -0.10570822023E+02  0.39010838082E+01  0.11319150457E+02  0.51100000000E-03 0. -1.
        -11    1    4    4    0    0 -0.92928220584E+01 -0.53809406570E+01  0.80209901347E+01  0.13403258826E+02  0.51100000000E-03 0.  1.
        -12    1    4    4    0    0  0.45938717342E+00 -0.14907259502E+02  0.17594033050E+02  0.23064852512E+02  0.00000000000E+00 0.  1.
</event>
<event>
 8    1  0.5331800E-011  0.9118800E+02  0.7816164E-02  0.1184000E+00
        -11   -1    0    0    0    0  0.00000000000E+00  0.00000000000E+00  0.45593999997E+02  0.45594000000E+02  0.51100000000E-03 0. -1.
         11   -1    0    0    0    0 -0.00000000000E+00 -0.00000000000E+00 -0.45593999997E+02  0.45594000000E+02  0.51100000000E-03 0.  1.
         23    2    1    2    0    0  0.00000000000E+00  0.17763568394E-14  0.71054273576E-14  0.91188000000E+02  0.91188000000E+02 0.  0.
    9900012    2    3    3    0    0  0.13241446322E+02  0.14621114361E+02  0.38658900308E+02  0.47787268913E+02  0.19999990281E+02 0.  0.
        -12    1    3    3    0    0 -0.13241446322E+02 -0.14621114361E+02 -0.38658900308E+02  0.43400731087E+02  0.00000000000E+00 0.  1.
         11    1    4    4    0    0  0.22025805855E+01  0.29268899537E+01 -0.12690223232E+01  0.38766562853E+01  0.51100000000E-03 0. -1.
        -11    1    4    4    0    0  0.40240206319E+00  0.63408973526E+01  0.13151726205E+02  0.14606053850E+02  0.51100000000E-03 0.  1.
         12    1    4    4    0    0  0.10636463674E+02  0.53533270543E+01  0.26776196427E+02  0.29304558777E+02  0.00000000000E+00 0. -1.
</event>
<event>
 8    1  0.5331800E-011  0.9118800E+02  0.7816164E-02  0.1184000E+00
        -11   -1    0    0    0    0  0.00000000000E+00  0.00000000000E+00  0.45593999997E+02  0.45594000000E+02  0.51100000000E-03 0. -1.
         11   -1    0    0    0    0 -0.00000000000E+00 -0.00000000000E+00 -0.45593999997E+02  0.45594000000E+02  0.51100000000E-03 0.  1.
         23    2    1    2    0    0  0.00000000000E+00  0.00000000000E+00 -0.35527136788E-14  0.91188000000E+02  0.91188000000E+02 0.  0.
    9900012    2    3    3    0    0 -0.21570077721E+01  0.33975457833E+02  0.26919120299E+02  0.47787268956E+02  0.19999990479E+02 0.  0.
        -12    1    3    3    0    0  0.21570077721E+01 -0.33975457833E+02 -0.26919120299E+02  0.43400731044E+02  0.00000000000E+00 0.  1.
         11    1    4    4    0    0  0.15616090030E+01  0.64749377138E+01  0.14711711933E+02  0.16149238661E+02  0.51100000000E-03 0.  1.
        -11    1    4    4    0    0 -0.54024523715E+01  0.20880062420E+02  0.12255819718E+02  0.24806624428E+02  0.51100000000E-03 0. -1.
         12    1    4    4    0    0  0.16838355964E+01  0.66204576991E+01 -0.48411352235E-01  0.68314058670E+01  0.00000000000E+00 0. -1.
</event>
<event>
 8    1  0.5331800E-011  0.9118800E+02  0.7816164E-02  0.1184000E+00
        -11   -1    0    0    0    0  0.00000000000E+00  0.00000000000E+00  0.45593999997E+02  0.45594000000E+02  0.51100000000E-03 0. -1.
         11   -1    0    0    0    0 -0.00000000000E+00 -0.00000000000E+00 -0.45593999997E+02  0.45594000000E+02  0.51100000000E-03 0.  1.
         23    2    1    2    0    0  0.00000000000E+00  0.17763568394E-14  0.00000000000E+00  0.91188000000E+02  0.91188000000E+02 0.  0.
    9900012    2    3    3    0    0  0.11928878436E+02  0.13192973369E+02 -0.39588729419E+02  0.47787306640E+02  0.20000162296E+02 0.  0.
         12    1    3    3    0    0 -0.11928878436E+02 -0.13192973369E+02  0.39588729419E+02  0.43400693360E+02  0.00000000000E+00 0. -1.
         11    1    4    4    0    0  0.10493419746E+02  0.70848203219E+01 -0.38021898665E+02  0.40074571929E+02  0.51100000000E-03 0.  1.
        -11    1    4    4    0    0  0.78526599637E+00  0.65315353555E+01 -0.19303135829E+01  0.68559249977E+01  0.51100000000E-03 0. -1.
         12    1    4    4    0    0  0.65019269375E+00 -0.42338230848E+00  0.36348282879E+00  0.85680971340E+00  0.00000000000E+00 0. -1.
</event>
<event>
 8    1  0.5331800E-011  0.9118800E+02  0.7816164E-02  0.1184000E+00
        -11   -1    0    0    0    0  0.00000000000E+00  0.00000000000E+00  0.45593999997E+02  0.45594000000E+02  0.51100000000E-03 0. -1.
         11   -1    0    0    0    0 -0.00000000000E+00 -0.00000000000E+00 -0.45593999997E+02  0.45594000000E+02  0.51100000000E-03 0.  1.
         23    2    1    2    0    0  0.00000000000E+00  0.00000000000E+00 -0.71054273576E-14  0.91188000000E+02  0.91188000000E+02 0.  0.
    9900012    2    3    3    0    0  0.21889557028E+01 -0.16517345394E+02 -0.40075044398E+02  0.47787269483E+02  0.19999992880E+02 0.  0.
         12    1    3    3    0    0 -0.21889557028E+01  0.16517345394E+02  0.40075044398E+02  0.43400730517E+02  0.00000000000E+00 0. -1.
         11    1    4    4    0    0  0.57705002253E+01 -0.46726267895E+01 -0.38635755958E+01  0.83701451965E+01  0.51100000000E-03 0. -1.
        -11    1    4    4    0    0 -0.68350347100E+01 -0.81670712697E+01 -0.24105519037E+02  0.26353269264E+02  0.51100000000E-03 0.  1.
        -12    1    4    4    0    0  0.32534901875E+01 -0.36776473344E+01 -0.12105949766E+02  0.13063855022E+02  0.00000000000E+00 0.  1.
</event>
<event>
 8    1  0.5331800E-011  0.9118800E+02  0.7816164E-02  0.1184000E+00
        -11   -1    0    0    0    0  0.00000000000E+00  0.00000000000E+00  0.45593999997E+02  0.45594000000E+02  0.51100000000E-03 0. -1.
         11   -1    0    0    0    0 -0.00000000000E+00 -0.00000000000E+00 -0.45593999997E+02  0.45594000000E+02  0.51100000000E-03 0.  1.
         23    2    1    2    0    0  0.00000000000E+00  0.17763568394E-14  0.71054273576E-14  0.91188000000E+02  0.91188000000E+02 0.  0.
    9900012    2    3    3    0    0 -0.14401544880E+02  0.10399675108E+02  0.39598799170E+02  0.47787278428E+02  0.20000033665E+02 0.  0.
        -12    1    3    3    0    0  0.14401544880E+02 -0.10399675108E+02 -0.39598799170E+02  0.43400721572E+02  0.00000000000E+00 0.  1.
         11    1    4    4    0    0 -0.71752465528E+00  0.32498486277E+01  0.60437701551E+01  0.68995301059E+01  0.51100000000E-03 0. -1.
        -11    1    4    4    0    0 -0.11984498001E+02  0.50938051625E+01  0.35350206137E+02  0.37672431798E+02  0.51100000000E-03 0.  1.
        -12    1    4    4    0    0 -0.16995222239E+01  0.20560213178E+01 -0.17951771227E+01  0.32153165242E+01  0.00000000000E+00 0.  1.
</event>
<event>
 8    1  0.5331800E-011  0.9118800E+02  0.7816164E-02  0.1184000E+00
        -11   -1    0    0    0    0  0.00000000000E+00  0.00000000000E+00  0.45593999997E+02  0.45594000000E+02  0.51100000000E-03 0. -1.
         11   -1    0    0    0    0 -0.00000000000E+00 -0.00000000000E+00 -0.45593999997E+02  0.45594000000E+02  0.51100000000E-03 0.  1.
         23    2    1    2    0    0  0.00000000000E+00 -0.17763568394E-14  0.35527136788E-14  0.91188000000E+02  0.91188000000E+02 0.  0.
    9900012    2    3    3    0    0 -0.33613657397E+02 -0.13696729007E+02  0.23793796668E+02  0.47787272944E+02  0.20000008659E+02 0.  0.
        -12    1    3    3    0    0  0.33613657397E+02  0.13696729007E+02 -0.23793796668E+02  0.43400727056E+02  0.00000000000E+00 0.  1.
         11    1    4    4    0    0 -0.10247031898E+02 -0.13103259169E+02  0.10635347485E+02  0.19743547806E+02  0.51100000000E-03 0. -1.
        -11    1    4    4    0    0 -0.85333509394E+01  0.28827854368E+01  0.77331345759E+01  0.11871390010E+02  0.51100000000E-03 0.  1.
         12    1    4    4    0    0 -0.14833274560E+02 -0.34762552755E+01  0.54253146073E+01  0.16172335128E+02  0.00000000000E+00 0. -1.
</event>
<event>
 8    1  0.5331800E-011  0.9118800E+02  0.7816164E-02  0.1184000E+00
        -11   -1    0    0    0    0  0.00000000000E+00  0.00000000000E+00  0.45593999997E+02  0.45594000000E+02  0.51100000000E-03 0. -1.
         11   -1    0    0    0    0 -0.00000000000E+00 -0.00000000000E+00 -0.45593999997E+02  0.45594000000E+02  0.51100000000E-03 0.  1.
         23    2    1    2    0    0  0.00000000000E+00  0.00000000000E+00  0.00000000000E+00  0.91188000000E+02  0.91188000000E+02 0.  0.
    9900012    2    3    3    0    0 -0.23279747855E+02  0.22182916006E+02 -0.29147810629E+02  0.47787270891E+02  0.19999999302E+02 0.  0.
         12    1    3    3    0    0  0.23279747855E+02 -0.22182916006E+02  0.29147810629E+02  0.43400729109E+02  0.00000000000E+00 0. -1.
         11    1    4    4    0    0 -0.19631916336E+02  0.18139824912E+02 -0.13448887724E+02  0.29922198584E+02  0.51100000000E-03 0. -1.
        -11    1    4    4    0    0 -0.40899921299E+01  0.15493690173E+01 -0.41068615189E+01  0.59995742991E+01  0.51100000000E-03 0.  1.
         12    1    4    4    0    0  0.44216061079E+00  0.24937220771E+01 -0.11592061386E+02  0.11865498008E+02  0.00000000000E+00 0. -1.
</event>
<event>
 8    1  0.5331800E-011  0.9118800E+02  0.7816164E-02  0.1184000E+00
        -11   -1    0    0    0    0  0.00000000000E+00  0.00000000000E+00  0.45593999997E+02  0.45594000000E+02  0.51100000000E-03 0. -1.
         11   -1    0    0    0    0 -0.00000000000E+00 -0.00000000000E+00 -0.45593999997E+02  0.45594000000E+02  0.51100000000E-03 0.  1.
         23    2    1    2    0    0  0.00000000000E+00 -0.35527136788E-14  0.00000000000E+00  0.91188000000E+02  0.91188000000E+02 0.  0.
    9900012    2    3    3    0    0 -0.11838942865E+02 -0.30564842659E+02  0.28447372995E+02  0.47787271835E+02  0.20000003604E+02 0.  0.
        -12    1    3    3    0    0  0.11838942865E+02  0.30564842659E+02 -0.28447372995E+02  0.43400728165E+02  0.00000000000E+00 0.  1.
         11    1    4    4    0    0 -0.11646917063E+02 -0.15068382545E+02  0.10918023977E+02  0.21952450373E+02  0.51100000000E-03 0. -1.
        -11    1    4    4    0    0  0.38333147611E+01 -0.11073919593E+01  0.29827161190E+01  0.49816879386E+01  0.51100000000E-03 0.  1.
        -12    1    4    4    0    0 -0.40253405637E+01 -0.14389068154E+02  0.14546632900E+02  0.20853133523E+02  0.00000000000E+00 0.  1.
</event>
<event>
 8    1  0.5331800E-011  0.9118800E+02  0.7816164E-02  0.1184000E+00
        -11   -1    0    0    0    0  0.00000000000E+00  0.00000000000E+00  0.45593999997E+02  0.45594000000E+02  0.51100000000E-03 0. -1.
         11   -1    0    0    0    0 -0.00000000000E+00 -0.00000000000E+00 -0.45593999997E+02  0.45594000000E+02  0.51100000000E-03 0.  1.
         23    2    1    2    0    0  0.00000000000E+00 -0.35527136788E-14  0.00000000000E+00  0.91188000000E+02  0.91188000000E+02 0.  0.
    9900012    2    3    3    0    0 -0.29535561859E+02 -0.28225649836E+02 -0.14648771009E+02  0.47787271722E+02  0.20000003088E+02 0.  0.
         12    1    3    3    0    0  0.29535561859E+02  0.28225649836E+02  0.14648771009E+02  0.43400728278E+02  0.00000000000E+00 0. -1.
         11    1    4    4    0    0 -0.24755816700E+02 -0.14442589488E+02 -0.64544651767E+01  0.29378546127E+02  0.51100000000E-03 0.  1.
        -11    1    4    4    0    0 -0.65022288831E+01 -0.92502179786E+01 -0.39882390109E+01  0.11989644022E+02  0.51100000000E-03 0. -1.
         12    1    4    4    0    0  0.17224837234E+01 -0.45328423697E+01 -0.42060668217E+01  0.64190815725E+01  0.00000000000E+00 0. -1.
</event>
<event>
 8    1  0.5331800E-011  0.9118800E+02  0.7816164E-02  0.1184000E+00
        -11   -1    0    0    0    0  0.00000000000E+00  0.00000000000E+00  0.45593999997E+02  0.45594000000E+02  0.51100000000E-03 0. -1.
         11   -1    0    0    0    0 -0.00000000000E+00 -0.00000000000E+00 -0.45593999997E+02  0.45594000000E+02  0.51100000000E-03 0.  1.
         23    2    1    2    0    0 -0.35527136788E-14  0.35527136788E-14  0.00000000000E+00  0.91188000000E+02  0.91188000000E+02 0.  0.
    9900012    2    3    3    0    0  0.25895354938E+02 -0.30317250006E+02  0.17144033183E+02  0.47787275017E+02  0.20000018111E+02 0.  0.
        -12    1    3    3    0    0 -0.25895354938E+02  0.30317250006E+02 -0.17144033183E+02  0.43400724983E+02  0.00000000000E+00 0.  1.
         11    1    4    4    0    0  0.11419818938E+02 -0.30020786728E+01  0.25231359068E+01  0.12074392572E+02  0.51100000000E-03 0. -1.
        -11    1    4    4    0    0  0.35277162151E+01 -0.45996801645E+01 -0.12339210407E+01  0.59265842360E+01  0.51100000000E-03 0.  1.
         12    1    4    4    0    0  0.10947819786E+02 -0.22715491169E+02  0.15854818317E+02  0.29786298208E+02  0.00000000000E+00 0. -1.
</event>
<event>
 8    1  0.6036689E-011  0.9118800E+02  0.7816164E-02  0.1184000E+00
        -11   -1    0    0    0    0  0.00000000000E+00  0.00000000000E+00  0.45593999997E+02  0.45594000000E+02  0.51100000000E-03 0. -1.
         11   -1    0    0    0    0 -0.00000000000E+00 -0.00000000000E+00 -0.45593999997E+02  0.45594000000E+02  0.51100000000E-03 0.  1.
         23    2    1    2    0    0  0.35527136788E-14 -0.71054273576E-14  0.00000000000E+00  0.91188000000E+02  0.91188000000E+02 0.  0.
    9900012    2    3    3    0    0 -0.16950764878E+02  0.34777298726E+02 -0.19668103450E+02  0.47787271551E+02  0.20000002307E+02 0.  0.
         12    1    3    3    0    0  0.16950764878E+02 -0.34777298726E+02  0.19668103450E+02  0.43400728449E+02  0.00000000000E+00 0. -1.
         11    1    4    4    0    0 -0.83722247862E+00  0.21971883978E+01  0.34175057216E+01  0.41482434780E+01  0.51100000000E-03 0. -1.
        -11    1    4    4    0    0 -0.91030683763E+01  0.14708506552E+02 -0.14659030587E+02  0.22673623373E+02  0.51100000000E-03 0.  1.
        -12    1    4    4    0    0 -0.70104740231E+01  0.17871603777E+02 -0.84265785845E+01  0.20965404700E+02  0.00000000000E+00 0.  1.
</event>
<event>
 8    1  0.5331800E-011  0.9118800E+02  0.7816164E-02  0.1184000E+00
        -11   -1    0    0    0    0  0.00000000000E+00  0.00000000000E+00  0.45593999997E+02  0.45594000000E+02  0.51100000000E-03 0. -1.
         11   -1    0    0    0    0 -0.00000000000E+00 -0.00000000000E+00 -0.45593999997E+02  0.45594000000E+02  0.51100000000E-03 0.  1.
         23    2    1    2    0    0  0.00000000000E+00  0.00000000000E+00 -0.35527136788E-14  0.91188000000E+02  0.91188000000E+02 0.  0.
    9900012    2    3    3    0    0  0.26433023961E+02  0.16012718042E+02 -0.30471466136E+02  0.47787284070E+02  0.20000059387E+02 0.  0.
         12    1    3    3    0    0 -0.26433023961E+02 -0.16012718042E+02  0.30471466136E+02  0.43400715930E+02  0.00000000000E+00 0. -1.
         11    1    4    4    0    0  0.98956728640E+01  0.10212629102E+01 -0.18159544602E+02  0.20705950347E+02  0.51100000000E-03 0. -1.
        -11    1    4    4    0    0  0.10783211961E+02  0.12557903364E+02 -0.46459174968E+01  0.17191950056E+02  0.51100000000E-03 0.  1.
         12    1    4    4    0    0  0.57541391363E+01  0.24335517683E+01 -0.76660040364E+01  0.98893836661E+01  0.00000000000E+00 0. -1.
</event>
<event>
 8    1  0.5331800E-011  0.9118800E+02  0.7816164E-02  0.1184000E+00
        -11   -1    0    0    0    0  0.00000000000E+00  0.00000000000E+00  0.45593999997E+02  0.45594000000E+02  0.51100000000E-03 0.  1.
         11   -1    0    0    0    0 -0.00000000000E+00 -0.00000000000E+00 -0.45593999997E+02  0.45594000000E+02  0.51100000000E-03 0. -1.
         23    2    1    2    0    0  0.00000000000E+00  0.00000000000E+00  0.00000000000E+00  0.91188000000E+02  0.91188000000E+02 0.  0.
    9900012    2    3    3    0    0 -0.32986604758E+02  0.27254875272E+02 -0.72580169247E+01  0.47787272711E+02  0.20000007597E+02 0.  0.
         12    1    3    3    0    0  0.32986604758E+02 -0.27254875272E+02  0.72580169247E+01  0.43400727289E+02  0.00000000000E+00 0. -1.
         11    1    4    4    0    0 -0.20201183478E+01  0.97851804094E+01 -0.37599636459E+01  0.10675577767E+02  0.51100000000E-03 0. -1.
        -11    1    4    4    0    0 -0.28899555282E+02  0.13096885132E+02 -0.11862549123E+01  0.31750903871E+02  0.51100000000E-03 0.  1.
        -12    1    4    4    0    0 -0.20669311279E+01  0.43728097311E+01 -0.23117983665E+01  0.53607910722E+01  0.00000000000E+00 0.  1.
</event>
<event>
 8    1  0.5331800E-011  0.9118800E+02  0.7816164E-02  0.1184000E+00
        -11   -1    0    0    0    0  0.00000000000E+00  0.00000000000E+00  0.45593999997E+02  0.45594000000E+02  0.51100000000E-03 0. -1.
         11   -1    0    0    0    0 -0.00000000000E+00 -0.00000000000E+00 -0.45593999997E+02  0.45594000000E+02  0.51100000000E-03 0.  1.
         23    2    1    2    0    0  0.00000000000E+00 -0.71054273576E-14  0.00000000000E+00  0.91188000000E+02  0.91188000000E+02 0.  0.
    9900012    2    3    3    0    0  0.89139458497E+01  0.37971223476E+02  0.19035522249E+02  0.47787270165E+02  0.19999995991E+02 0.  0.
        -12    1    3    3    0    0 -0.89139458497E+01 -0.37971223476E+02 -0.19035522249E+02  0.43400729835E+02  0.00000000000E+00 0.  1.
         11    1    4    4    0    0 -0.35631039895E+01  0.46785782582E+01  0.63143802511E+01  0.86288007727E+01  0.51100000000E-03 0. -1.
        -11    1    4    4    0    0  0.63080152128E+01  0.19516855209E+02  0.19255075562E+01  0.20601123095E+02  0.51100000000E-03 0.  1.
         12    1    4    4    0    0  0.61690346265E+01  0.13775790010E+02  0.10795634442E+02  0.18557346298E+02  0.00000000000E+00 0. -1.
</event>
<event>
 8    1  0.5331800E-011  0.9118800E+02  0.7816164E-02  0.1184000E+00
        -11   -1    0    0    0    0  0.00000000000E+00  0.00000000000E+00  0.45593999997E+02  0.45594000000E+02  0.51100000000E-03 0.  1.
         11   -1    0    0    0    0 -0.00000000000E+00 -0.00000000000E+00 -0.45593999997E+02  0.45594000000E+02  0.51100000000E-03 0. -1.
         23    2    1    2    0    0  0.00000000000E+00  0.17763568394E-14  0.00000000000E+00  0.91188000000E+02  0.91188000000E+02 0.  0.
    9900012    2    3    3    0    0 -0.33988831603E+02  0.13504124670E+02 -0.23367094756E+02  0.47787272193E+02  0.20000005236E+02 0.  0.
         12    1    3    3    0    0  0.33988831603E+02 -0.13504124670E+02  0.23367094756E+02  0.43400727807E+02  0.00000000000E+00 0. -1.
         11    1    4    4    0    0 -0.17336806078E+01 -0.35430762832E+01 -0.39593414733E+01  0.55888659996E+01  0.51100000000E-03 0. -1.
        -11    1    4    4    0    0 -0.20626076329E+02  0.14733677796E+02 -0.15512904170E+02  0.29718117070E+02  0.51100000000E-03 0.  1.
        -12    1    4    4    0    0 -0.11629074666E+02  0.23135231567E+01 -0.38948491133E+01  0.12480289123E+02  0.00000000000E+00 0.  1.
</event>
<event>
 8    1  0.5331800E-011  0.9118800E+02  0.7816164E-02  0.1184000E+00
        -11   -1    0    0    0    0  0.00000000000E+00  0.00000000000E+00  0.45593999997E+02  0.45594000000E+02  0.51100000000E-03 0. -1.
         11   -1    0    0    0    0 -0.00000000000E+00 -0.00000000000E+00 -0.45593999997E+02  0.45594000000E+02  0.51100000000E-03 0.  1.
         23    2    1    2    0    0  0.17763568394E-14  0.35527136788E-14  0.00000000000E+00  0.91188000000E+02  0.91188000000E+02 0.  0.
    9900012    2    3    3    0    0  0.12536751550E+02 -0.27135931473E+02  0.31465764123E+02  0.47787271571E+02  0.20000002401E+02 0.  0.
        -12    1    3    3    0    0 -0.12536751550E+02  0.27135931473E+02 -0.31465764123E+02  0.43400728429E+02  0.00000000000E+00 0.  1.
         11    1    4    4    0    0 -0.27475985155E+01 -0.11055966490E+02  0.12732014065E+02  0.17084726367E+02  0.51100000000E-03 0. -1.
        -11    1    4    4    0    0  0.10354638816E+02 -0.95397115531E+01  0.17435402942E+02  0.22410219042E+02  0.51100000000E-03 0.  1.
         12    1    4    4    0    0  0.49297112500E+01 -0.65402534305E+01  0.12983471158E+01  0.82923261619E+01  0.00000000000E+00 0. -1.
</event>
<event>
 8    1  0.5331800E-011  0.9118800E+02  0.7816164E-02  0.1184000E+00
        -11   -1    0    0    0    0  0.00000000000E+00  0.00000000000E+00  0.45593999997E+02  0.45594000000E+02  0.51100000000E-03 0. -1.
         11   -1    0    0    0    0 -0.00000000000E+00 -0.00000000000E+00 -0.45593999997E+02  0.45594000000E+02  0.51100000000E-03 0.  1.
         23    2    1    2    0    0  0.00000000000E+00  0.17763568394E-14 -0.35527136788E-14  0.91188000000E+02  0.91188000000E+02 0.  0.
    9900012    2    3    3    0    0 -0.27293869531E+02 -0.11973158211E+02  0.31548557891E+02  0.47787270323E+02  0.19999996710E+02 0.  0.
        -12    1    3    3    0    0  0.27293869531E+02  0.11973158211E+02 -0.31548557891E+02  0.43400729677E+02  0.00000000000E+00 0.  1.
         11    1    4    4    0    0 -0.14907358076E+01  0.20453947038E+01  0.86939755215E+01  0.90548960995E+01  0.51100000000E-03 0. -1.
        -11    1    4    4    0    0 -0.21110869750E+02 -0.13570372671E+02  0.14091069789E+02  0.28781627544E+02  0.51100000000E-03 0.  1.
        -12    1    4    4    0    0 -0.46922639729E+01 -0.44818024455E+00  0.87635125804E+01  0.99507466790E+01  0.00000000000E+00 0.  1.
</event>
<event>
 8    1  0.5331800E-011  0.9118800E+02  0.7816164E-02  0.1184000E+00
        -11   -1    0    0    0    0  0.00000000000E+00  0.00000000000E+00  0.45593999997E+02  0.45594000000E+02  0.51100000000E-03 0. -1.
         11   -1    0    0    0    0 -0.00000000000E+00 -0.00000000000E+00 -0.45593999997E+02  0.45594000000E+02  0.51100000000E-03 0.  1.
         23    2    1    2    0    0  0.00000000000E+00  0.00000000000E+00  0.00000000000E+00  0.91188000000E+02  0.91188000000E+02 0.  0.
    9900012    2    3    3    0    0 -0.30759601376E+02 -0.21629824266E+02  0.21670743365E+02  0.47787268525E+02  0.19999988513E+02 0.  0.
        -12    1    3    3    0    0  0.30759601376E+02  0.21629824266E+02 -0.21670743365E+02  0.43400731475E+02  0.00000000000E+00 0.  1.
         11    1    4    4    0    0 -0.10433761787E+02 -0.78758882573E+01  0.87118645922E+01  0.15709538052E+02  0.51100000000E-03 0. -1.
        -11    1    4    4    0    0 -0.22663164175E+02 -0.11349449837E+02  0.13441671016E+02  0.28689850853E+02  0.51100000000E-03 0.  1.
        -12    1    4    4    0    0  0.23373245859E+01 -0.24044861714E+01 -0.48279224306E+00  0.33878796198E+01  0.00000000000E+00 0.  1.
</event>
<event>
 8    1  0.5331800E-011  0.9118800E+02  0.7816164E-02  0.1184000E+00
        -11   -1    0    0    0    0  0.00000000000E+00  0.00000000000E+00  0.45593999997E+02  0.45594000000E+02  0.51100000000E-03 0. -1.
         11   -1    0    0    0    0 -0.00000000000E+00 -0.00000000000E+00 -0.45593999997E+02  0.45594000000E+02  0.51100000000E-03 0.  1.
         23    2    1    2    0    0  0.17763568394E-14 -0.17763568394E-14  0.00000000000E+00  0.91188000000E+02  0.91188000000E+02 0.  0.
    9900012    2    3    3    0    0  0.11476621721E+02 -0.10309635494E+02 -0.40566267370E+02  0.47787268687E+02  0.19999989252E+02 0.  0.
         12    1    3    3    0    0 -0.11476621721E+02  0.10309635494E+02  0.40566267370E+02  0.43400731313E+02  0.00000000000E+00 0. -1.
         11    1    4    4    0    0  0.88478051484E+01 -0.88549377144E+01 -0.10680766891E+02  0.16455162093E+02  0.51100000000E-03 0. -1.
        -11    1    4    4    0    0  0.46696859891E+01 -0.38475060425E+01 -0.22618078503E+02  0.23413388166E+02  0.51100000000E-03 0.  1.
         12    1    4    4    0    0 -0.20408694168E+01  0.23928082630E+01 -0.72674219766E+01  0.79187184282E+01  0.00000000000E+00 0. -1.
</event>
<event>
 8    1  0.5331800E-011  0.9118800E+02  0.7816164E-02  0.1184000E+00
        -11   -1    0    0    0    0  0.00000000000E+00  0.00000000000E+00  0.45593999997E+02  0.45594000000E+02  0.51100000000E-03 0. -1.
         11   -1    0    0    0    0 -0.00000000000E+00 -0.00000000000E+00 -0.45593999997E+02  0.45594000000E+02  0.51100000000E-03 0.  1.
         23    2    1    2    0    0  0.00000000000E+00  0.00000000000E+00  0.00000000000E+00  0.91188000000E+02  0.91188000000E+02 0.  0.
    9900012    2    3    3    0    0 -0.26864788987E+02 -0.29834504995E+01  0.33955958911E+02  0.47787251046E+02  0.19999908818E+02 0.  0.
        -12    1    3    3    0    0  0.26864788987E+02  0.29834504995E+01 -0.33955958911E+02  0.43400748954E+02  0.00000000000E+00 0.  1.
         11    1    4    4    0    0 -0.22773613565E+02  0.34812482035E+00  0.21950425545E+02  0.31631943468E+02  0.51100000000E-03 0. -1.
        -11    1    4    4    0    0 -0.27697725217E+01 -0.12347190055E+01  0.13099639843E+02  0.13446067645E+02  0.51100000000E-03 0.  1.
         12    1    4    4    0    0 -0.13214029007E+01 -0.20968563143E+01 -0.10941064768E+01  0.27092399324E+01  0.00000000000E+00 0. -1.
</event>
<event>
 8    1  0.5331800E-011  0.9118800E+02  0.7816164E-02  0.1184000E+00
        -11   -1    0    0    0    0  0.00000000000E+00  0.00000000000E+00  0.45593999997E+02  0.45594000000E+02  0.51100000000E-03 0. -1.
         11   -1    0    0    0    0 -0.00000000000E+00 -0.00000000000E+00 -0.45593999997E+02  0.45594000000E+02  0.51100000000E-03 0.  1.
         23    2    1    2    0    0  0.00000000000E+00  0.00000000000E+00  0.00000000000E+00  0.91188000000E+02  0.91188000000E+02 0.  0.
    9900012    2    3    3    0    0  0.20982396169E+02 -0.26763809765E+02  0.26964061348E+02  0.47787273434E+02  0.20000010894E+02 0.  0.
        -12    1    3    3    0    0 -0.20982396169E+02  0.26763809765E+02 -0.26964061348E+02  0.43400726566E+02  0.00000000000E+00 0.  1.
         11    1    4    4    0    0  0.12235267913E+02 -0.54394217537E+01  0.16456055394E+02  0.21215344666E+02  0.51100000000E-03 0. -1.
        -11    1    4    4    0    0  0.56992498935E+00 -0.38468748955E+01 -0.11153726719E+01  0.40456541392E+01  0.51100000000E-03 0.  1.
         12    1    4    4    0    0  0.81772032665E+01 -0.17477513116E+02  0.11623378626E+02  0.22526274629E+02  0.00000000000E+00 0. -1.
</event>
<event>
 8    1  0.5331800E-011  0.9118800E+02  0.7816164E-02  0.1184000E+00
        -11   -1    0    0    0    0  0.00000000000E+00  0.00000000000E+00  0.45593999997E+02  0.45594000000E+02  0.51100000000E-03 0. -1.
         11   -1    0    0    0    0 -0.00000000000E+00 -0.00000000000E+00 -0.45593999997E+02  0.45594000000E+02  0.51100000000E-03 0.  1.
         23    2    1    2    0    0  0.00000000000E+00 -0.88817841970E-15  0.71054273576E-14  0.91188000000E+02  0.91188000000E+02 0.  0.
    9900012    2    3    3    0    0 -0.22102405460E+02 -0.58848550605E+01 -0.36884624557E+02  0.47787269880E+02  0.19999994693E+02 0.  0.
         12    1    3    3    0    0  0.22102405460E+02  0.58848550605E+01  0.36884624557E+02  0.43400730120E+02  0.00000000000E+00 0. -1.
         11    1    4    4    0    0 -0.88250119238E+01  0.52429482656E+00 -0.10347078841E+02  0.13609473220E+02  0.51100000000E-03 0. -1.
        -11    1    4    4    0    0 -0.23279549196E+01  0.51279530260E+01 -0.68436050006E+01  0.88628554095E+01  0.51100000000E-03 0.  1.
        -12    1    4    4    0    0 -0.10949438617E+02 -0.11537102913E+02 -0.19693940715E+02  0.25314941251E+02  0.00000000000E+00 0.  1.
</event>
<event>
 8    1  0.5331800E-011  0.9118800E+02  0.7816164E-02  0.1184000E+00
        -11   -1    0    0    0    0  0.00000000000E+00  0.00000000000E+00  0.45593999997E+02  0.45594000000E+02  0.51100000000E-03 0. -1.
         11   -1    0    0    0    0 -0.00000000000E+00 -0.00000000000E+00 -0.45593999997E+02  0.45594000000E+02  0.51100000000E-03 0.  1.
         23    2    1    2    0    0 -0.88817841970E-15  0.11102230246E-15  0.00000000000E+00  0.91188000000E+02  0.91188000000E+02 0.  0.
    9900012    2    3    3    0    0  0.52212575967E+01  0.36333870680E+00 -0.43083984995E+02  0.47787270640E+02  0.19999998158E+02 0.  0.
         12    1    3    3    0    0 -0.52212575967E+01 -0.36333870680E+00  0.43083984995E+02  0.43400729360E+02  0.00000000000E+00 0. -1.
         11    1    4    4    0    0  0.10934774308E+02 -0.31622139211E+01 -0.22917142532E+02  0.25588362749E+02  0.51100000000E-03 0. -1.
        -11    1    4    4    0    0 -0.66249256032E+01  0.42995290907E+01 -0.18746716557E+02  0.20342442616E+02  0.51100000000E-03 0.  1.
        -12    1    4    4    0    0  0.91140889172E+00 -0.77397646284E+00 -0.14201259053E+01  0.18564652757E+01  0.00000000000E+00 0.  1.
</event>
<event>
 8    1  0.5331800E-011  0.9118800E+02  0.7816164E-02  0.1184000E+00
        -11   -1    0    0    0    0  0.00000000000E+00  0.00000000000E+00  0.45593999997E+02  0.45594000000E+02  0.51100000000E-03 0. -1.
         11   -1    0    0    0    0 -0.00000000000E+00 -0.00000000000E+00 -0.45593999997E+02  0.45594000000E+02  0.51100000000E-03 0.  1.
         23    2    1    2    0    0 -0.71054273576E-14  0.00000000000E+00  0.00000000000E+00  0.91188000000E+02  0.91188000000E+02 0.  0.
    9900012    2    3    3    0    0 -0.35993691996E+02 -0.65322925381E+01  0.23354012248E+02  0.47787232756E+02  0.19999825426E+02 0.  0.
        -12    1    3    3    0    0  0.35993691996E+02  0.65322925381E+01 -0.23354012248E+02  0.43400767244E+02  0.00000000000E+00 0.  1.
         11    1    4    4    0    0 -0.20133588645E+02 -0.77336492189E+01  0.56853755594E+01  0.22304578398E+02  0.51100000000E-03 0. -1.
        -11    1    4    4    0    0 -0.87054236843E+01  0.34879351088E+01  0.14635006576E+02  0.17381988108E+02  0.51100000000E-03 0.  1.
        -12    1    4    4    0    0 -0.71546796664E+01 -0.22865784280E+01  0.30336301123E+01  0.81006662500E+01  0.00000000000E+00 0.  1.
</event>
<event>
 8    1  0.5331800E-011  0.9118800E+02  0.7816164E-02  0.1184000E+00
        -11   -1    0    0    0    0  0.00000000000E+00  0.00000000000E+00  0.45593999997E+02  0.45594000000E+02  0.51100000000E-03 0. -1.
         11   -1    0    0    0    0 -0.00000000000E+00 -0.00000000000E+00 -0.45593999997E+02  0.45594000000E+02  0.51100000000E-03 0.  1.
         23    2    1    2    0    0  0.00000000000E+00  0.00000000000E+00  0.35527136788E-14  0.91188000000E+02  0.91188000000E+02 0.  0.
    9900012    2    3    3    0    0 -0.34712093433E+02  0.20701655435E+02 -0.15815675113E+02  0.47787267892E+02  0.19999985628E+02 0.  0.
         12    1    3    3    0    0  0.34712093433E+02 -0.20701655435E+02  0.15815675113E+02  0.43400732108E+02  0.00000000000E+00 0. -1.
         11    1    4    4    0    0 -0.12279741276E+02  0.10404692289E+02  0.25688742345E+01  0.16298735612E+02  0.51100000000E-03 0. -1.
        -11    1    4    4    0    0 -0.16897587074E+02  0.71904689471E+01 -0.16929819456E+02  0.24976991005E+02  0.51100000000E-03 0.  1.
        -12    1    4    4    0    0 -0.55347650827E+01  0.31064941986E+01 -0.14547298910E+01  0.65115412755E+01  0.00000000000E+00 0.  1.
</event>
<event>
 8    1  0.5331800E-011  0.9118800E+02  0.7816164E-02  0.1184000E+00
        -11   -1    0    0    0    0  0.00000000000E+00  0.00000000000E+00  0.45593999997E+02  0.45594000000E+02  0.51100000000E-03 0. -1.
         11   -1    0    0    0    0 -0.00000000000E+00 -0.00000000000E+00 -0.45593999997E+02  0.45594000000E+02  0.51100000000E-03 0.  1.
         23    2    1    2    0    0  0.00000000000E+00  0.00000000000E+00  0.00000000000E+00  0.91188000000E+02  0.91188000000E+02 0.  0.
    9900012    2    3    3    0    0  0.22590128792E+02  0.58643467777E+01 -0.36591229290E+02  0.47787279466E+02  0.20000038395E+02 0.  0.
         12    1    3    3    0    0 -0.22590128792E+02 -0.58643467777E+01  0.36591229290E+02  0.43400720534E+02  0.00000000000E+00 0. -1.
         11    1    4    4    0    0  0.94875699329E+01  0.10961070995E+02 -0.17038095864E+02  0.22370868815E+02  0.51100000000E-03 0. -1.
        -11    1    4    4    0    0  0.13819333694E+02 -0.31861956063E+01 -0.16711793371E+02  0.21918254131E+02  0.51100000000E-03 0.  1.
         12    1    4    4    0    0 -0.71677483451E+00 -0.19105286110E+01 -0.28413400545E+01  0.34981565205E+01  0.00000000000E+00 0. -1.
</event>
<event>
 8    1  0.5331800E-011  0.9118800E+02  0.7816164E-02  0.1184000E+00
        -11   -1    0    0    0    0  0.00000000000E+00  0.00000000000E+00  0.45593999997E+02  0.45594000000E+02  0.51100000000E-03 0. -1.
         11   -1    0    0    0    0 -0.00000000000E+00 -0.00000000000E+00 -0.45593999997E+02  0.45594000000E+02  0.51100000000E-03 0.  1.
         23    2    1    2    0    0  0.00000000000E+00  0.17763568394E-14  0.00000000000E+00  0.91188000000E+02  0.91188000000E+02 0.  0.
    9900012    2    3    3    0    0  0.11953417148E+02  0.83801348265E+01 -0.40871904001E+02  0.47787269846E+02  0.19999994534E+02 0.  0.
         12    1    3    3    0    0 -0.11953417148E+02 -0.83801348265E+01  0.40871904001E+02  0.43400730154E+02  0.00000000000E+00 0. -1.
         11    1    4    4    0    0  0.58649941509E+01  0.12308789404E+02 -0.13207750301E+02  0.18982863885E+02  0.51100000000E-03 0. -1.
        -11    1    4    4    0    0  0.53301082800E+01 -0.19983518651E+01 -0.23102065878E+02  0.23793043365E+02  0.51100000000E-03 0.  1.
         12    1    4    4    0    0  0.75831471734E+00 -0.19303027128E+01 -0.45620878223E+01  0.50113625964E+01  0.00000000000E+00 0. -1.
</event>
<event>
 8    1  0.5331800E-011  0.9118800E+02  0.7816164E-02  0.1184000E+00
        -11   -1    0    0    0    0  0.00000000000E+00  0.00000000000E+00  0.45593999997E+02  0.45594000000E+02  0.51100000000E-03 0. -1.
         11   -1    0    0    0    0 -0.00000000000E+00 -0.00000000000E+00 -0.45593999997E+02  0.45594000000E+02  0.51100000000E-03 0.  1.
         23    2    1    2    0    0  0.88817841970E-15  0.00000000000E+00  0.00000000000E+00  0.91188000000E+02  0.91188000000E+02 0.  0.
    9900012    2    3    3    0    0 -0.26127613511E+01 -0.27787575136E+02  0.33236245260E+02  0.47787264375E+02  0.19999969591E+02 0.  0.
        -12    1    3    3    0    0  0.26127613511E+01  0.27787575136E+02 -0.33236245260E+02  0.43400735625E+02  0.00000000000E+00 0.  1.
         11    1    4    4    0    0 -0.69299232485E+01 -0.60755385603E+01  0.47231671362E+01  0.10355883018E+02  0.51100000000E-03 0. -1.
        -11    1    4    4    0    0  0.38449412420E+01 -0.17830843839E+02  0.28098055692E+02  0.33499601477E+02  0.51100000000E-03 0.  1.
        -12    1    4    4    0    0  0.47222065540E+00 -0.38811927367E+01  0.41502243197E+00  0.39317798802E+01  0.00000000000E+00 0.  1.
</event>
<event>
 8    1  0.5331800E-011  0.9118800E+02  0.7816164E-02  0.1184000E+00
        -11   -1    0    0    0    0  0.00000000000E+00  0.00000000000E+00  0.45593999997E+02  0.45594000000E+02  0.51100000000E-03 0. -1.
         11   -1    0    0    0    0 -0.00000000000E+00 -0.00000000000E+00 -0.45593999997E+02  0.45594000000E+02  0.51100000000E-03 0.  1.
         23    2    1    2    0    0 -0.22204460493E-15  0.00000000000E+00  0.00000000000E+00  0.91188000000E+02  0.91188000000E+02 0.  0.
    9900012    2    3    3    0    0 -0.19953149241E+01 -0.59720898399E+01  0.42941546540E+02  0.47787267772E+02  0.19999985078E+02 0.  0.
        -12    1    3    3    0    0  0.19953149241E+01  0.59720898399E+01 -0.42941546540E+02  0.43400732228E+02  0.00000000000E+00 0.  1.
         11    1    4    4    0    0  0.28100702958E+01 -0.94623378481E+00  0.31565995695E+02  0.31704951316E+02  0.51100000000E-03 0. -1.
        -11    1    4    4    0    0  0.38873685673E+00 -0.56382699319E+01  0.35640248314E+01  0.66815774656E+01  0.51100000000E-03 0.  1.
         12    1    4    4    0    0 -0.51941220766E+01  0.61241387677E+00  0.78115260134E+01  0.94007389902E+01  0.00000000000E+00 0. -1.
</event>
<event>
 8    1  0.5331800E-011  0.9118800E+02  0.7816164E-02  0.1184000E+00
        -11   -1    0    0    0    0  0.00000000000E+00  0.00000000000E+00  0.45593999997E+02  0.45594000000E+02  0.51100000000E-03 0. -1.
         11   -1    0    0    0    0 -0.00000000000E+00 -0.00000000000E+00 -0.45593999997E+02  0.45594000000E+02  0.51100000000E-03 0.  1.
         23    2    1    2    0    0  0.00000000000E+00 -0.55511151231E-15  0.00000000000E+00  0.91188000000E+02  0.91188000000E+02 0.  0.
    9900012    2    3    3    0    0 -0.17897072917E+02  0.51486191184E+00 -0.39535400257E+02  0.47787329784E+02  0.20000267815E+02 0.  0.
         12    1    3    3    0    0  0.17897072917E+02 -0.51486191184E+00  0.39535400257E+02  0.43400670216E+02  0.00000000000E+00 0. -1.
         11    1    4    4    0    0 -0.50944248234E+01 -0.52162746468E+01 -0.22433187593E+02  0.23588357113E+02  0.51100000000E-03 0. -1.
        -11    1    4    4    0    0 -0.35961873949E+01  0.68261841496E+01 -0.92814114207E+01  0.12069546472E+02  0.51100000000E-03 0.  1.
         12    1    4    4    0    0 -0.92064606984E+01 -0.10950475909E+01 -0.78208012429E+01  0.12129426198E+02  0.00000000000E+00 0. -1.
</event>
<event>
 8    1  0.5331800E-011  0.9118800E+02  0.7816164E-02  0.1184000E+00
        -11   -1    0    0    0    0  0.00000000000E+00  0.00000000000E+00  0.45593999997E+02  0.45594000000E+02  0.51100000000E-03 0. -1.
         11   -1    0    0    0    0 -0.00000000000E+00 -0.00000000000E+00 -0.45593999997E+02  0.45594000000E+02  0.51100000000E-03 0.  1.
         23    2    1    2    0    0  0.00000000000E+00  0.00000000000E+00  0.55511151231E-16  0.91188000000E+02  0.91188000000E+02 0.  0.
    9900012    2    3    3    0    0 -0.24557602726E+02 -0.35784115270E+02  0.21088634441E+00  0.47787271546E+02  0.20000002287E+02 0.  0.
        -12    1    3    3    0    0  0.24557602726E+02  0.35784115270E+02 -0.21088634441E+00  0.43400728454E+02  0.00000000000E+00 0.  1.
         11    1    4    4    0    0 -0.61335800293E+01 -0.83367948968E+01 -0.54666099039E+01  0.11704989416E+02  0.51100000000E-03 0. -1.
        -11    1    4    4    0    0 -0.15981551519E+02 -0.21683029151E+02  0.97129129076E+01  0.28633973170E+02  0.51100000000E-03 0.  1.
        -12    1    4    4    0    0 -0.24424711783E+01 -0.57642912217E+01 -0.40354166593E+01  0.74483089597E+01  0.00000000000E+00 0.  1.
</event>
<event>
 8    1  0.5331800E-011  0.9118800E+02  0.7816164E-02  0.1184000E+00
        -11   -1    0    0    0    0  0.00000000000E+00  0.00000000000E+00  0.45593999997E+02  0.45594000000E+02  0.51100000000E-03 0. -1.
         11   -1    0    0    0    0 -0.00000000000E+00 -0.00000000000E+00 -0.45593999997E+02  0.45594000000E+02  0.51100000000E-03 0.  1.
         23    2    1    2    0    0  0.88817841970E-15  0.00000000000E+00  0.00000000000E+00  0.91188000000E+02  0.91188000000E+02 0.  0.
    9900012    2    3    3    0    0 -0.63644762930E+01 -0.25163361853E+02  0.34783914222E+02  0.47787285411E+02  0.20000065504E+02 0.  0.
        -12    1    3    3    0    0  0.63644762930E+01  0.25163361853E+02 -0.34783914222E+02  0.43400714589E+02  0.00000000000E+00 0.  1.
         11    1    4    4    0    0  0.64441177948E+01 -0.71823446396E+01  0.82477683095E+01  0.12694030527E+02  0.51100000000E-03 0. -1.
        -11    1    4    4    0    0 -0.83419370745E+01 -0.15635097686E+02  0.18611493076E+02  0.25698869014E+02  0.51100000000E-03 0.  1.
         12    1    4    4    0    0 -0.44666570133E+01 -0.23459195270E+01  0.79246528360E+01  0.93943858699E+01  0.00000000000E+00 0. -1.
</event>
<event>
 8    1  0.5331800E-011  0.9118800E+02  0.7816164E-02  0.1184000E+00
        -11   -1    0    0    0    0  0.00000000000E+00  0.00000000000E+00  0.45593999997E+02  0.45594000000E+02  0.51100000000E-03 0. -1.
         11   -1    0    0    0    0 -0.00000000000E+00 -0.00000000000E+00 -0.45593999997E+02  0.45594000000E+02  0.51100000000E-03 0.  1.
         23    2    1    2    0    0 -0.88817841970E-15  0.00000000000E+00  0.14210854715E-13  0.91188000000E+02  0.91188000000E+02 0.  0.
    9900012    2    3    3    0    0  0.76849072677E+01  0.10429436329E+02 -0.41422121121E+02  0.47787273509E+02  0.20000011235E+02 0.  0.
         12    1    3    3    0    0 -0.76849072677E+01 -0.10429436329E+02  0.41422121121E+02  0.43400726491E+02  0.00000000000E+00 0. -1.
         11    1    4    4    0    0  0.15244311905E+00 -0.42235129467E+01 -0.19505747130E+01  0.46546796332E+01  0.51100000000E-03 0. -1.
        -11    1    4    4    0    0  0.56044418911E+01  0.14169193557E+02 -0.32709721423E+02  0.36084646192E+02  0.51100000000E-03 0.  1.
         12    1    4    4    0    0  0.19280222575E+01  0.48375571820E+00 -0.67618249850E+01  0.70479476834E+01  0.00000000000E+00 0. -1.
</event>
<event>
 8    1  0.5331800E-011  0.9118800E+02  0.7816164E-02  0.1184000E+00
        -11   -1    0    0    0    0  0.00000000000E+00  0.00000000000E+00  0.45593999997E+02  0.45594000000E+02  0.51100000000E-03 0. -1.
         11   -1    0    0    0    0 -0.00000000000E+00 -0.00000000000E+00 -0.45593999997E+02  0.45594000000E+02  0.51100000000E-03 0.  1.
         23    2    1    2    0    0  0.00000000000E+00 -0.17763568394E-14  0.00000000000E+00  0.91188000000E+02  0.91188000000E+02 0.  0.
    9900012    2    3    3    0    0 -0.16299051380E+01  0.11286813097E+02 -0.41875706132E+02  0.47787268386E+02  0.19999987878E+02 0.  0.
         12    1    3    3    0    0  0.16299051380E+01 -0.11286813097E+02  0.41875706132E+02  0.43400731614E+02  0.00000000000E+00 0. -1.
         11    1    4    4    0    0 -0.24499717531E+01  0.25300867800E+01 -0.50613516277E+01  0.61661155735E+01  0.51100000000E-03 0. -1.
        -11    1    4    4    0    0 -0.34560893587E+01 -0.33382780070E+01 -0.19432929131E+02  0.20018176455E+02  0.51100000000E-03 0.  1.
        -12    1    4    4    0    0  0.42761559737E+01  0.12095004324E+02 -0.17381425373E+02  0.21602976358E+02  0.00000000000E+00 0.  1.
</event>
<event>
 8    1  0.5331800E-011  0.9118800E+02  0.7816164E-02  0.1184000E+00
        -11   -1    0    0    0    0  0.00000000000E+00  0.00000000000E+00  0.45593999997E+02  0.45594000000E+02  0.51100000000E-03 0. -1.
         11   -1    0    0    0    0 -0.00000000000E+00 -0.00000000000E+00 -0.45593999997E+02  0.45594000000E+02  0.51100000000E-03 0.  1.
         23    2    1    2    0    0  0.00000000000E+00  0.88817841970E-15 -0.35527136788E-14  0.91188000000E+02  0.91188000000E+02 0.  0.
    9900012    2    3    3    0    0  0.29587035948E+02 -0.32375893239E+01  0.31587161907E+02  0.47787268691E+02  0.19999989270E+02 0.  0.
        -12    1    3    3    0    0 -0.29587035948E+02  0.32375893239E+01 -0.31587161907E+02  0.43400731309E+02  0.00000000000E+00 0.  1.
         11    1    4    4    0    0  0.28926467917E+02 -0.39616898635E+01  0.28026873641E+02  0.40471486001E+02  0.51100000000E-03 0. -1.
        -11    1    4    4    0    0 -0.14337916804E+00 -0.64704400199E+00 -0.16978753477E+01  0.18226366846E+01  0.51100000000E-03 0.  1.
        -12    1    4    4    0    0  0.80394719837E+00  0.13711445416E+01  0.52581636138E+01  0.54931460058E+01  0.00000000000E+00 0.  1.
</event>
<event>
 8    1  0.7699360E-011  0.9118800E+02  0.7816164E-02  0.1184000E+00
        -11   -1    0    0    0    0  0.00000000000E+00  0.00000000000E+00  0.45593999997E+02  0.45594000000E+02  0.51100000000E-03 0. -1.
         11   -1    0    0    0    0 -0.00000000000E+00 -0.00000000000E+00 -0.45593999997E+02  0.45594000000E+02  0.51100000000E-03 0.  1.
         23    2    1    2    0    0  0.00000000000E+00  0.00000000000E+00  0.00000000000E+00  0.91188000000E+02  0.91188000000E+02 0.  0.
    9900012    2    3    3    0    0 -0.20046124711E+02  0.12084044892E+02 -0.36547940055E+02  0.47787272135E+02  0.20000004974E+02 0.  0.
         12    1    3    3    0    0  0.20046124711E+02 -0.12084044892E+02  0.36547940055E+02  0.43400727865E+02  0.00000000000E+00 0. -1.
         11    1    4    4    0    0 -0.35557228129E+01 -0.28984507131E+01 -0.84410303101E+01  0.96070377440E+01  0.51100000000E-03 0. -1.
        -11    1    4    4    0    0 -0.93207103233E+01  0.13597626926E+02 -0.11681116825E+02  0.20204444795E+02  0.51100000000E-03 0.  1.
        -12    1    4    4    0    0 -0.71696915750E+01  0.13848686792E+01 -0.16425792920E+02  0.17975789596E+02  0.00000000000E+00 0.  1.
</event>
<event>
 8    1  0.5331800E-011  0.9118800E+02  0.7816164E-02  0.1184000E+00
        -11   -1    0    0    0    0  0.00000000000E+00  0.00000000000E+00  0.45593999997E+02  0.45594000000E+02  0.51100000000E-03 0. -1.
         11   -1    0    0    0    0 -0.00000000000E+00 -0.00000000000E+00 -0.45593999997E+02  0.45594000000E+02  0.51100000000E-03 0.  1.
         23    2    1    2    0    0  0.00000000000E+00  0.00000000000E+00  0.00000000000E+00  0.91188000000E+02  0.91188000000E+02 0.  0.
    9900012    2    3    3    0    0 -0.42716937258E+02  0.10305857066E+01 -0.76042403678E+01  0.47787270661E+02  0.19999998250E+02 0.  0.
         12    1    3    3    0    0  0.42716937258E+02 -0.10305857066E+01  0.76042403678E+01  0.43400729339E+02  0.00000000000E+00 0. -1.
         11    1    4    4    0    0 -0.12630626355E+02 -0.15600598281E+01  0.45625886567E+00  0.12734782338E+02  0.51100000000E-03 0. -1.
        -11    1    4    4    0    0 -0.11377839659E+02  0.33880074877E+01  0.42877051098E+01  0.12622133156E+02  0.51100000000E-03 0.  1.
        -12    1    4    4    0    0 -0.18708471245E+02 -0.79736195299E+00 -0.12348204343E+02  0.22430355167E+02  0.00000000000E+00 0.  1.
</event>
<event>
 8    1  0.5331800E-011  0.9118800E+02  0.7816164E-02  0.1184000E+00
        -11   -1    0    0    0    0  0.00000000000E+00  0.00000000000E+00  0.45593999997E+02  0.45594000000E+02  0.51100000000E-03 0. -1.
         11   -1    0    0    0    0 -0.00000000000E+00 -0.00000000000E+00 -0.45593999997E+02  0.45594000000E+02  0.51100000000E-03 0.  1.
         23    2    1    2    0    0  0.00000000000E+00 -0.17763568394E-14  0.00000000000E+00  0.91188000000E+02  0.91188000000E+02 0.  0.
    9900012    2    3    3    0    0 -0.19892999370E+02  0.10909285097E+02  0.36998388272E+02  0.47787255076E+02  0.19999927193E+02 0.  0.
        -12    1    3    3    0    0  0.19892999370E+02 -0.10909285097E+02 -0.36998388272E+02  0.43400744924E+02  0.00000000000E+00 0.  1.
         11    1    4    4    0    0 -0.17658017704E+02  0.36537336582E+01  0.32155053815E+02  0.36866012057E+02  0.51100000000E-03 0. -1.
        -11    1    4    4    0    0 -0.30633714118E+01  0.78818198372E+01  0.33352130258E+01  0.90901581142E+01  0.51100000000E-03 0.  1.
         12    1    4    4    0    0  0.82838974556E+00 -0.62626839862E+00  0.15081214306E+01  0.18310849044E+01  0.00000000000E+00 0. -1.
</event>
<event>
 8    1  0.5331800E-011  0.9118800E+02  0.7816164E-02  0.1184000E+00
        -11   -1    0    0    0    0  0.00000000000E+00  0.00000000000E+00  0.45593999997E+02  0.45594000000E+02  0.51100000000E-03 0. -1.
         11   -1    0    0    0    0 -0.00000000000E+00 -0.00000000000E+00 -0.45593999997E+02  0.45594000000E+02  0.51100000000E-03 0.  1.
         23    2    1    2    0    0  0.00000000000E+00  0.00000000000E+00  0.00000000000E+00  0.91188000000E+02  0.91188000000E+02 0.  0.
    9900012    2    3    3    0    0  0.81174213974E+01 -0.21543334523E+02  0.36791515642E+02  0.47787269410E+02  0.19999992549E+02 0.  0.
        -12    1    3    3    0    0 -0.81174213974E+01  0.21543334523E+02 -0.36791515642E+02  0.43400730590E+02  0.00000000000E+00 0.  1.
         11    1    4    4    0    0 -0.21440103846E+01 -0.19114804896E+02  0.21768113672E+02  0.29048637142E+02  0.51100000000E-03 0. -1.
        -11    1    4    4    0    0  0.63932931066E+01 -0.18314479891E+01  0.12259461559E+02  0.13947142950E+02  0.51100000000E-03 0.  1.
         12    1    4    4    0    0  0.38681386753E+01 -0.59708163843E+00  0.27639404113E+01  0.47914893188E+01  0.00000000000E+00 0. -1.
</event>
<event>
 8    1  0.5331800E-011  0.9118800E+02  0.7816164E-02  0.1184000E+00
        -11   -1    0    0    0    0  0.00000000000E+00  0.00000000000E+00  0.45593999997E+02  0.45594000000E+02  0.51100000000E-03 0. -1.
         11   -1    0    0    0    0 -0.00000000000E+00 -0.00000000000E+00 -0.45593999997E+02  0.45594000000E+02  0.51100000000E-03 0.  1.
         23    2    1    2    0    0  0.00000000000E+00  0.00000000000E+00  0.00000000000E+00  0.91188000000E+02  0.91188000000E+02 0.  0.
    9900012    2    3    3    0    0  0.15009580569E+02 -0.15662433923E+02  0.37590211358E+02  0.47787270338E+02  0.19999996781E+02 0.  0.
        -12    1    3    3    0    0 -0.15009580569E+02  0.15662433923E+02 -0.37590211358E+02  0.43400729662E+02  0.00000000000E+00 0.  1.
         11    1    4    4    0    0  0.25219228353E+01  0.18052627804E+01  0.17293336159E+02  0.17569249963E+02  0.51100000000E-03 0. -1.
        -11    1    4    4    0    0  0.47835334707E+01 -0.73779299169E+01  0.42768461538E+01  0.97779065043E+01  0.51100000000E-03 0.  1.
         12    1    4    4    0    0  0.77041242627E+01 -0.10089766786E+02  0.16020029045E+02  0.20440113871E+02  0.00000000000E+00 0. -1.
</event>
<event>
 8    1  0.5331800E-011  0.9118800E+02  0.7816164E-02  0.1184000E+00
        -11   -1    0    0    0    0  0.00000000000E+00  0.00000000000E+00  0.45593999997E+02  0.45594000000E+02  0.51100000000E-03 0. -1.
         11   -1    0    0    0    0 -0.00000000000E+00 -0.00000000000E+00 -0.45593999997E+02  0.45594000000E+02  0.51100000000E-03 0.  1.
         23    2    1    2    0    0  0.00000000000E+00  0.00000000000E+00  0.00000000000E+00  0.91188000000E+02  0.91188000000E+02 0.  0.
    9900012    2    3    3    0    0 -0.41367889896E+01 -0.26352269316E+02 -0.34235481019E+02  0.47787270953E+02  0.19999999581E+02 0.  0.
         12    1    3    3    0    0  0.41367889896E+01  0.26352269316E+02  0.34235481019E+02  0.43400729047E+02  0.00000000000E+00 0. -1.
         11    1    4    4    0    0  0.27586747316E+01  0.53319802703E-01  0.49962746427E+00  0.28040608304E+01  0.51100000000E-03 0. -1.
        -11    1    4    4    0    0 -0.39099095498E+01 -0.58981618023E+01 -0.47096286352E+01  0.85003710200E+01  0.51100000000E-03 0.  1.
         12    1    4    4    0    0 -0.29855541715E+01 -0.20507427316E+02 -0.30025479848E+02  0.36482839102E+02  0.00000000000E+00 0. -1.
</event>
<event>
 8    1  0.5331800E-011  0.9118800E+02  0.7816164E-02  0.1184000E+00
        -11   -1    0    0    0    0  0.00000000000E+00  0.00000000000E+00  0.45593999997E+02  0.45594000000E+02  0.51100000000E-03 0. -1.
         11   -1    0    0    0    0 -0.00000000000E+00 -0.00000000000E+00 -0.45593999997E+02  0.45594000000E+02  0.51100000000E-03 0.  1.
         23    2    1    2    0    0  0.00000000000E+00  0.00000000000E+00  0.35527136788E-14  0.91188000000E+02  0.91188000000E+02 0.  0.
    9900012    2    3    3    0    0 -0.27855657820E+02  0.16277093180E+02 -0.29030032014E+02  0.47787260447E+02  0.19999951683E+02 0.  0.
         12    1    3    3    0    0  0.27855657820E+02 -0.16277093180E+02  0.29030032014E+02  0.43400739553E+02  0.00000000000E+00 0. -1.
         11    1    4    4    0    0 -0.14825395270E+02  0.16292485498E+02 -0.15293559294E+02  0.26816606510E+02  0.51100000000E-03 0. -1.
        -11    1    4    4    0    0 -0.13483469335E+02 -0.13599832431E+01 -0.14046635797E+02  0.19518234480E+02  0.51100000000E-03 0.  1.
         12    1    4    4    0    0  0.45320678411E+00  0.13445909254E+01  0.31016307705E+00  0.14524194574E+01  0.00000000000E+00 0. -1.
</event>
<event>
 8    1  0.5331800E-011  0.9118800E+02  0.7816164E-02  0.1184000E+00
        -11   -1    0    0    0    0  0.00000000000E+00  0.00000000000E+00  0.45593999997E+02  0.45594000000E+02  0.51100000000E-03 0. -1.
         11   -1    0    0    0    0 -0.00000000000E+00 -0.00000000000E+00 -0.45593999997E+02  0.45594000000E+02  0.51100000000E-03 0.  1.
         23    2    1    2    0    0  0.00000000000E+00  0.00000000000E+00  0.00000000000E+00  0.91188000000E+02  0.91188000000E+02 0.  0.
    9900012    2    3    3    0    0  0.48700326376E+01  0.43021654400E+02 -0.30071345778E+01  0.47787276233E+02  0.20000023655E+02 0.  0.
        -12    1    3    3    0    0 -0.48700326376E+01 -0.43021654400E+02  0.30071345778E+01  0.43400723767E+02  0.00000000000E+00 0.  1.
         11    1    4    4    0    0  0.28350621595E+01  0.32817398492E+02  0.11789253877E+01  0.32960720359E+02  0.51100000000E-03 0. -1.
        -11    1    4    4    0    0  0.49310668204E+01  0.17215674256E+01 -0.10288047545E+01  0.53233123027E+01  0.51100000000E-03 0.  1.
         12    1    4    4    0    0 -0.28960963423E+01  0.84826884821E+01 -0.31572552110E+01  0.95032435713E+01  0.00000000000E+00 0. -1.
</event>
<event>
 8    1  0.5331800E-011  0.9118800E+02  0.7816164E-02  0.1184000E+00
        -11   -1    0    0    0    0  0.00000000000E+00  0.00000000000E+00  0.45593999997E+02  0.45594000000E+02  0.51100000000E-03 0.  1.
         11   -1    0    0    0    0 -0.00000000000E+00 -0.00000000000E+00 -0.45593999997E+02  0.45594000000E+02  0.51100000000E-03 0. -1.
         23    2    1    2    0    0 -0.35527136788E-14  0.00000000000E+00  0.35527136788E-14  0.91188000000E+02  0.91188000000E+02 0.  0.
    9900012    2    3    3    0    0  0.24746962623E+02 -0.23417252806E+02 -0.26885746247E+02  0.47787271443E+02  0.20000001816E+02 0.  0.
        -12    1    3    3    0    0 -0.24746962623E+02  0.23417252806E+02  0.26885746247E+02  0.43400728557E+02  0.00000000000E+00 0.  1.
         11    1    4    4    0    0  0.19343303950E+02 -0.63186520649E+01 -0.16519535212E+02  0.26210376104E+02  0.51100000000E-03 0. -1.
        -11    1    4    4    0    0 -0.53345386619E+00  0.21821900403E+00 -0.89500472749E-01  0.58326936900E+00  0.51100000000E-03 0.  1.
         12    1    4    4    0    0  0.59371125395E+01 -0.17316819745E+02 -0.10276710563E+02  0.20993625970E+02  0.00000000000E+00 0. -1.
</event>
<event>
 8    1  0.5331800E-011  0.9118800E+02  0.7816164E-02  0.1184000E+00
        -11   -1    0    0    0    0  0.00000000000E+00  0.00000000000E+00  0.45593999997E+02  0.45594000000E+02  0.51100000000E-03 0. -1.
         11   -1    0    0    0    0 -0.00000000000E+00 -0.00000000000E+00 -0.45593999997E+02  0.45594000000E+02  0.51100000000E-03 0.  1.
         23    2    1    2    0    0  0.00000000000E+00  0.00000000000E+00 -0.35527136788E-14  0.91188000000E+02  0.91188000000E+02 0.  0.
    9900012    2    3    3    0    0 -0.31176027590E+02 -0.69821223994E+01 -0.29375685840E+02  0.47787243692E+02  0.19999875291E+02 0.  0.
         12    1    3    3    0    0  0.31176027590E+02  0.69821223994E+01  0.29375685840E+02  0.43400756308E+02  0.00000000000E+00 0. -1.
         11    1    4    4    0    0 -0.25949635513E+01  0.42291891340E+01 -0.75484471093E+01  0.90332126393E+01  0.51100000000E-03 0. -1.
        -11    1    4    4    0    0 -0.19298865330E+02 -0.11148033809E+02 -0.12315760018E+02  0.25463754749E+02  0.51100000000E-03 0.  1.
        -12    1    4    4    0    0 -0.92821987090E+01 -0.63277724428E-01 -0.95114787130E+01  0.13290276305E+02  0.00000000000E+00 0.  1.
</event>
<event>
 8    1  0.5331800E-011  0.9118800E+02  0.7816164E-02  0.1184000E+00
        -11   -1    0    0    0    0  0.00000000000E+00  0.00000000000E+00  0.45593999997E+02  0.45594000000E+02  0.51100000000E-03 0. -1.
         11   -1    0    0    0    0 -0.00000000000E+00 -0.00000000000E+00 -0.45593999997E+02  0.45594000000E+02  0.51100000000E-03 0.  1.
         23    2    1    2    0    0  0.88817841970E-15  0.00000000000E+00  0.00000000000E+00  0.91188000000E+02  0.91188000000E+02 0.  0.
    9900012    2    3    3    0    0 -0.73793716249E+01  0.22189090551E+02  0.36562450475E+02  0.47787266714E+02  0.19999980254E+02 0.  0.
        -12    1    3    3    0    0  0.73793716249E+01 -0.22189090551E+02 -0.36562450475E+02  0.43400733286E+02  0.00000000000E+00 0.  1.
         11    1    4    4    0    0 -0.13821857581E+01  0.11824215685E+02  0.76599606208E+01  0.14156182784E+02  0.51100000000E-03 0. -1.
        -11    1    4    4    0    0 -0.85283831243E+00  0.78047345769E+01  0.26066389081E+02  0.27223112515E+02  0.51100000000E-03 0.  1.
        -12    1    4    4    0    0 -0.51443475543E+01  0.25601402891E+01  0.28361007728E+01  0.64079714148E+01  0.00000000000E+00 0.  1.
</event>
<event>
 8    1  0.5331800E-011  0.9118800E+02  0.7816164E-02  0.1184000E+00
        -11   -1    0    0    0    0  0.00000000000E+00  0.00000000000E+00  0.45593999997E+02  0.45594000000E+02  0.51100000000E-03 0. -1.
         11   -1    0    0    0    0 -0.00000000000E+00 -0.00000000000E+00 -0.45593999997E+02  0.45594000000E+02  0.51100000000E-03 0.  1.
         23    2    1    2    0    0  0.35527136788E-14  0.00000000000E+00  0.00000000000E+00  0.91188000000E+02  0.91188000000E+02 0.  0.
    9900012    2    3    3    0    0  0.17920126895E+02  0.80217479932E+01  0.38705864739E+02  0.47787270122E+02  0.19999995793E+02 0.  0.
        -12    1    3    3    0    0 -0.17920126895E+02 -0.80217479932E+01 -0.38705864739E+02  0.43400729878E+02  0.00000000000E+00 0.  1.
         11    1    4    4    0    0  0.79142843930E+01  0.12695439060E+02  0.19744396144E+02  0.24771985180E+02  0.51100000000E-03 0. -1.
        -11    1    4    4    0    0  0.37419674454E+01 -0.23504820648E+01  0.21281978025E+01  0.49047234832E+01  0.51100000000E-03 0.  1.
         12    1    4    4    0    0  0.62638750568E+01 -0.23232090025E+01  0.16833270792E+02  0.18110561459E+02  0.00000000000E+00 0. -1.
</event>
<event>
 8    1  0.5331800E-011  0.9118800E+02  0.7816164E-02  0.1184000E+00
        -11   -1    0    0    0    0  0.00000000000E+00  0.00000000000E+00  0.45593999997E+02  0.45594000000E+02  0.51100000000E-03 0. -1.
         11   -1    0    0    0    0 -0.00000000000E+00 -0.00000000000E+00 -0.45593999997E+02  0.45594000000E+02  0.51100000000E-03 0.  1.
         23    2    1    2    0    0  0.00000000000E+00  0.00000000000E+00  0.00000000000E+00  0.91188000000E+02  0.91188000000E+02 0.  0.
    9900012    2    3    3    0    0  0.23117002621E+02 -0.30863117650E+02 -0.19917206462E+02  0.47787274724E+02  0.20000016777E+02 0.  0.
         12    1    3    3    0    0 -0.23117002621E+02  0.30863117650E+02  0.19917206462E+02  0.43400725276E+02  0.00000000000E+00 0. -1.
         11    1    4    4    0    0  0.89401746406E+01 -0.96094633643E+01  0.12948725763E+01  0.13188828758E+02  0.51100000000E-03 0. -1.
        -11    1    4    4    0    0  0.15441849659E+02 -0.20953454538E+02 -0.20070981415E+02  0.32868560559E+02  0.51100000000E-03 0.  1.
        -12    1    4    4    0    0 -0.12650216791E+01 -0.30019974715E+00 -0.11410976233E+01  0.17298854074E+01  0.00000000000E+00 0.  1.
</event>
<event>
 8    1  0.5331800E-011  0.9118800E+02  0.7816164E-02  0.1184000E+00
        -11   -1    0    0    0    0  0.00000000000E+00  0.00000000000E+00  0.45593999997E+02  0.45594000000E+02  0.51100000000E-03 0. -1.
         11   -1    0    0    0    0 -0.00000000000E+00 -0.00000000000E+00 -0.45593999997E+02  0.45594000000E+02  0.51100000000E-03 0.  1.
         23    2    1    2    0    0 -0.71054273576E-14 -0.17763568394E-14  0.17763568394E-14  0.91188000000E+02  0.91188000000E+02 0.  0.
    9900012    2    3    3    0    0 -0.40416952208E+02 -0.10241756186E+02  0.12049866376E+02  0.47787275637E+02  0.20000020938E+02 0.  0.
        -12    1    3    3    0    0  0.40416952208E+02  0.10241756186E+02 -0.12049866376E+02  0.43400724363E+02  0.00000000000E+00 0.  1.
         11    1    4    4    0    0 -0.20637215402E+02 -0.12695957635E+02  0.38102037608E+01  0.24527528469E+02  0.51100000000E-03 0. -1.
        -11    1    4    4    0    0 -0.53382951008E+01  0.42424921075E+01  0.65557334250E+00  0.68502489396E+01  0.51100000000E-03 0.  1.
        -12    1    4    4    0    0 -0.14441441705E+02 -0.17882906580E+01  0.75840892725E+01  0.16409498228E+02  0.00000000000E+00 0.  1.
</event>
<event>
 8    1  0.5331800E-011  0.9118800E+02  0.7816164E-02  0.1184000E+00
        -11   -1    0    0    0    0  0.00000000000E+00  0.00000000000E+00  0.45593999997E+02  0.45594000000E+02  0.51100000000E-03 0. -1.
         11   -1    0    0    0    0 -0.00000000000E+00 -0.00000000000E+00 -0.45593999997E+02  0.45594000000E+02  0.51100000000E-03 0.  1.
         23    2    1    2    0    0  0.00000000000E+00  0.00000000000E+00  0.00000000000E+00  0.91188000000E+02  0.91188000000E+02 0.  0.
    9900012    2    3    3    0    0 -0.23141353514E+02  0.23686867880E+01 -0.36640004279E+02  0.47787276122E+02  0.20000023149E+02 0.  0.
         12    1    3    3    0    0  0.23141353514E+02 -0.23686867880E+01  0.36640004279E+02  0.43400723878E+02  0.00000000000E+00 0. -1.
         11    1    4    4    0    0 -0.14758100304E+02  0.75136733957E+00 -0.98809307808E+01  0.17776357074E+02  0.51100000000E-03 0. -1.
        -11    1    4    4    0    0 -0.65753535012E+01  0.26329546064E+01 -0.63986765852E+01  0.95451970083E+01  0.51100000000E-03 0.  1.
         12    1    4    4    0    0 -0.18078997095E+01 -0.10156351579E+01 -0.20360396913E+02  0.20465722040E+02  0.00000000000E+00 0. -1.
</event>
<event>
 8    1  0.5331800E-011  0.9118800E+02  0.7816164E-02  0.1184000E+00
        -11   -1    0    0    0    0  0.00000000000E+00  0.00000000000E+00  0.45593999997E+02  0.45594000000E+02  0.51100000000E-03 0. -1.
         11   -1    0    0    0    0 -0.00000000000E+00 -0.00000000000E+00 -0.45593999997E+02  0.45594000000E+02  0.51100000000E-03 0.  1.
         23    2    1    2    0    0  0.00000000000E+00  0.17763568394E-14  0.00000000000E+00  0.91188000000E+02  0.91188000000E+02 0.  0.
    9900012    2    3    3    0    0 -0.40370841241E+02 -0.14559240972E+02 -0.64689124050E+01  0.47787272495E+02  0.20000006616E+02 0.  0.
         12    1    3    3    0    0  0.40370841241E+02  0.14559240972E+02  0.64689124050E+01  0.43400727505E+02  0.00000000000E+00 0. -1.
         11    1    4    4    0    0 -0.13655518189E+02  0.43726701490E+01 -0.35578497114E+01  0.14773344783E+02  0.51100000000E-03 0. -1.
        -11    1    4    4    0    0 -0.10417951034E+02 -0.84438260497E+01  0.38844793290E-01  0.13410198033E+02  0.51100000000E-03 0.  1.
         12    1    4    4    0    0 -0.16297372019E+02 -0.10488085072E+02 -0.29499074869E+01  0.19603729680E+02  0.00000000000E+00 0. -1.
</event>
<event>
 8    1  0.5331800E-011  0.9118800E+02  0.7816164E-02  0.1184000E+00
        -11   -1    0    0    0    0  0.00000000000E+00  0.00000000000E+00  0.45593999997E+02  0.45594000000E+02  0.51100000000E-03 0. -1.
         11   -1    0    0    0    0 -0.00000000000E+00 -0.00000000000E+00 -0.45593999997E+02  0.45594000000E+02  0.51100000000E-03 0.  1.
         23    2    1    2    0    0  0.17763568394E-14  0.00000000000E+00  0.00000000000E+00  0.91188000000E+02  0.91188000000E+02 0.  0.
    9900012    2    3    3    0    0 -0.11312502147E+02 -0.23640648315E+02 -0.34594369439E+02  0.47787270116E+02  0.19999995767E+02 0.  0.
         12    1    3    3    0    0  0.11312502147E+02  0.23640648315E+02  0.34594369439E+02  0.43400729884E+02  0.00000000000E+00 0. -1.
         11    1    4    4    0    0 -0.38449751962E+00 -0.12685147242E+02 -0.64295603747E+01  0.14226737003E+02  0.51100000000E-03 0. -1.
        -11    1    4    4    0    0 -0.11891921392E+02 -0.84646063132E+01 -0.18679463387E+02  0.23706322091E+02  0.51100000000E-03 0.  1.
         12    1    4    4    0    0  0.96391676417E+00 -0.24908947602E+01 -0.94853456773E+01  0.98542110213E+01  0.00000000000E+00 0. -1.
</event>
<event>
 8    1  0.5331800E-011  0.9118800E+02  0.7816164E-02  0.1184000E+00
        -11   -1    0    0    0    0  0.00000000000E+00  0.00000000000E+00  0.45593999997E+02  0.45594000000E+02  0.51100000000E-03 0. -1.
         11   -1    0    0    0    0 -0.00000000000E+00 -0.00000000000E+00 -0.45593999997E+02  0.45594000000E+02  0.51100000000E-03 0.  1.
         23    2    1    2    0    0  0.35527136788E-14  0.17763568394E-14  0.00000000000E+00  0.91188000000E+02  0.91188000000E+02 0.  0.
    9900012    2    3    3    0    0 -0.28629443406E+02 -0.48337517447E+01  0.32258529059E+02  0.47787275551E+02  0.20000020546E+02 0.  0.
        -12    1    3    3    0    0  0.28629443406E+02  0.48337517447E+01 -0.32258529059E+02  0.43400724449E+02  0.00000000000E+00 0.  1.
         11    1    4    4    0    0 -0.17071222603E+02 -0.96219619124E+01  0.15912838859E+02  0.25243360176E+02  0.51100000000E-03 0. -1.
        -11    1    4    4    0    0 -0.72979461196E+01  0.48854108148E+01  0.16020992756E+02  0.18270179681E+02  0.51100000000E-03 0.  1.
        -12    1    4    4    0    0 -0.42602746843E+01 -0.97200647138E-01  0.32469744341E+00  0.42737356939E+01  0.00000000000E+00 0.  1.
</event>
<event>
 8    1  0.5331800E-011  0.9118800E+02  0.7816164E-02  0.1184000E+00
        -11   -1    0    0    0    0  0.00000000000E+00  0.00000000000E+00  0.45593999997E+02  0.45594000000E+02  0.51100000000E-03 0. -1.
         11   -1    0    0    0    0 -0.00000000000E+00 -0.00000000000E+00 -0.45593999997E+02  0.45594000000E+02  0.51100000000E-03 0.  1.
         23    2    1    2    0    0 -0.11102230246E-15  0.17763568394E-14  0.00000000000E+00  0.91188000000E+02  0.91188000000E+02 0.  0.
    9900012    2    3    3    0    0 -0.78544094186E+00 -0.14096230394E+02 -0.41040256236E+02  0.47787271196E+02  0.20000000690E+02 0.  0.
         12    1    3    3    0    0  0.78544094186E+00  0.14096230394E+02  0.41040256236E+02  0.43400728804E+02  0.00000000000E+00 0. -1.
         11    1    4    4    0    0 -0.54833047978E+00  0.20583038729E+01 -0.17152287229E+02  0.17284045782E+02  0.51100000000E-03 0. -1.
        -11    1    4    4    0    0  0.25318139218E+01 -0.15519664263E+02 -0.22179637362E+02  0.27188349975E+02  0.51100000000E-03 0.  1.
         12    1    4    4    0    0 -0.27689243839E+01 -0.63487000395E+00 -0.17083316454E+01  0.33148754391E+01  0.00000000000E+00 0. -1.
</event>
<event>
 8    1  0.5331800E-011  0.9118800E+02  0.7816164E-02  0.1184000E+00
        -11   -1    0    0    0    0  0.00000000000E+00  0.00000000000E+00  0.45593999997E+02  0.45594000000E+02  0.51100000000E-03 0. -1.
         11   -1    0    0    0    0 -0.00000000000E+00 -0.00000000000E+00 -0.45593999997E+02  0.45594000000E+02  0.51100000000E-03 0.  1.
         23    2    1    2    0    0  0.00000000000E+00  0.35527136788E-14  0.00000000000E+00  0.91188000000E+02  0.91188000000E+02 0.  0.
    9900012    2    3    3    0    0 -0.43115432650E+01 -0.24513311326E+02 -0.35554641721E+02  0.47787258239E+02  0.19999941614E+02 0.  0.
         12    1    3    3    0    0  0.43115432650E+01  0.24513311326E+02  0.35554641721E+02  0.43400741761E+02  0.00000000000E+00 0. -1.
         11    1    4    4    0    0 -0.29461261019E+01 -0.12604745598E+02 -0.82026923626E+01  0.15324602209E+02  0.51100000000E-03 0. -1.
        -11    1    4    4    0    0 -0.36120989003E+01 -0.11670796161E+02 -0.27606663570E+02  0.30189114184E+02  0.51100000000E-03 0.  1.
         12    1    4    4    0    0  0.22466817372E+01 -0.23776956661E+00  0.25471421125E+00  0.22735418458E+01  0.00000000000E+00 0. -1.
</event>
<event>
 8    1  0.5331800E-011  0.9118800E+02  0.7816164E-02  0.1184000E+00
        -11   -1    0    0    0    0  0.00000000000E+00  0.00000000000E+00  0.45593999997E+02  0.45594000000E+02  0.51100000000E-03 0. -1.
         11   -1    0    0    0    0 -0.00000000000E+00 -0.00000000000E+00 -0.45593999997E+02  0.45594000000E+02  0.51100000000E-03 0.  1.
         23    2    1    2    0    0 -0.71054273576E-14 -0.17763568394E-14  0.00000000000E+00  0.91188000000E+02  0.91188000000E+02 0.  0.
    9900012    2    3    3    0    0  0.37076882788E+02  0.85527380566E+01  0.20875309163E+02  0.47787273069E+02  0.20000009230E+02 0.  0.
        -12    1    3    3    0    0 -0.37076882788E+02 -0.85527380566E+01 -0.20875309163E+02  0.43400726931E+02  0.00000000000E+00 0.  1.
         11    1    4    4    0    0  0.93280963183E+01 -0.35286784818E+01  0.98816431574E+01  0.14039651865E+02  0.51100000000E-03 0. -1.
        -11    1    4    4    0    0  0.17380348518E+02  0.69659444817E+01  0.14941020444E+01  0.18783855789E+02  0.51100000000E-03 0.  1.
         12    1    4    4    0    0  0.10368437951E+02  0.51154720567E+01  0.94995639613E+01  0.14963765414E+02  0.00000000000E+00 0. -1.
</event>
<event>
 8    1  0.5331800E-011  0.9118800E+02  0.7816164E-02  0.1184000E+00
        -11   -1    0    0    0    0  0.00000000000E+00  0.00000000000E+00  0.45593999997E+02  0.45594000000E+02  0.51100000000E-03 0. -1.
         11   -1    0    0    0    0 -0.00000000000E+00 -0.00000000000E+00 -0.45593999997E+02  0.45594000000E+02  0.51100000000E-03 0.  1.
         23    2    1    2    0    0  0.66613381478E-15  0.17763568394E-14 -0.71054273576E-14  0.91188000000E+02  0.91188000000E+02 0.  0.
    9900012    2    3    3    0    0 -0.14745524793E+01 -0.56849904266E+01  0.43001508836E+02  0.47787272087E+02  0.20000004756E+02 0.  0.
        -12    1    3    3    0    0  0.14745524793E+01  0.56849904266E+01 -0.43001508836E+02  0.43400727913E+02  0.00000000000E+00 0.  1.
         11    1    4    4    0    0  0.46779954817E+01  0.33084315454E+01  0.12399297877E+02  0.13659134274E+02  0.51100000000E-03 0. -1.
        -11    1    4    4    0    0  0.93273493570E+00  0.64014605296E+00 -0.14191190787E+00  0.11401406405E+01  0.51100000000E-03 0.  1.
         12    1    4    4    0    0 -0.70852828967E+01 -0.96335680250E+01  0.30744122867E+02  0.32987997173E+02  0.00000000000E+00 0. -1.
</event>
<event>
 8    1  0.6701715E-011  0.9118800E+02  0.7816164E-02  0.1184000E+00
        -11   -1    0    0    0    0  0.00000000000E+00  0.00000000000E+00  0.45593999997E+02  0.45594000000E+02  0.51100000000E-03 0. -1.
         11   -1    0    0    0    0 -0.00000000000E+00 -0.00000000000E+00 -0.45593999997E+02  0.45594000000E+02  0.51100000000E-03 0.  1.
         23    2    1    2    0    0  0.00000000000E+00  0.17763568394E-14  0.00000000000E+00  0.91188000000E+02  0.91188000000E+02 0.  0.
    9900012    2    3    3    0    0 -0.81783575933E+01  0.15705404670E+02 -0.39624209909E+02  0.47787270977E+02  0.19999999693E+02 0.  0.
         12    1    3    3    0    0  0.81783575933E+01 -0.15705404670E+02  0.39624209909E+02  0.43400729023E+02  0.00000000000E+00 0. -1.
         11    1    4    4    0    0 -0.37516683079E+01  0.67143872655E+00 -0.14779065471E+01  0.40877931795E+01  0.51100000000E-03 0. -1.
        -11    1    4    4    0    0  0.53117166731E+01  0.54354409516E+01 -0.12282166074E+02  0.14443336044E+02  0.51100000000E-03 0.  1.
        -12    1    4    4    0    0 -0.97384059586E+01  0.95985249916E+01 -0.25864137289E+02  0.29256141754E+02  0.00000000000E+00 0.  1.
</event>
<event>
 8    1  0.5331800E-011  0.9118800E+02  0.7816164E-02  0.1184000E+00
        -11   -1    0    0    0    0  0.00000000000E+00  0.00000000000E+00  0.45593999997E+02  0.45594000000E+02  0.51100000000E-03 0.  1.
         11   -1    0    0    0    0 -0.00000000000E+00 -0.00000000000E+00 -0.45593999997E+02  0.45594000000E+02  0.51100000000E-03 0. -1.
         23    2    1    2    0    0 -0.17763568394E-14 -0.71054273576E-14  0.00000000000E+00  0.91188000000E+02  0.91188000000E+02 0.  0.
    9900012    2    3    3    0    0 -0.93214245189E+01 -0.39030801709E+02 -0.16532730558E+02  0.47787267094E+02  0.19999981988E+02 0.  0.
         12    1    3    3    0    0  0.93214245189E+01  0.39030801709E+02  0.16532730558E+02  0.43400732906E+02  0.00000000000E+00 0. -1.
         11    1    4    4    0    0 -0.46920617567E+01 -0.12496759882E+01  0.11255564481E+01  0.49843767096E+01  0.51100000000E-03 0. -1.
        -11    1    4    4    0    0  0.14152771930E+01 -0.21861985880E+02 -0.11057966446E+02  0.24540335334E+02  0.51100000000E-03 0.  1.
        -12    1    4    4    0    0 -0.60446399552E+01 -0.15919139841E+02 -0.66003205600E+01  0.18262555050E+02  0.00000000000E+00 0.  1.
</event>
<event>
 8    1  0.5331800E-011  0.9118800E+02  0.7816164E-02  0.1184000E+00
        -11   -1    0    0    0    0  0.00000000000E+00  0.00000000000E+00  0.45593999997E+02  0.45594000000E+02  0.51100000000E-03 0. -1.
         11   -1    0    0    0    0 -0.00000000000E+00 -0.00000000000E+00 -0.45593999997E+02  0.45594000000E+02  0.51100000000E-03 0.  1.
         23    2    1    2    0    0 -0.35527136788E-14  0.16653345369E-15 -0.71054273576E-14  0.91188000000E+02  0.91188000000E+02 0.  0.
    9900012    2    3    3    0    0  0.25031560559E+02  0.41304123944E+00  0.35452416210E+02  0.47787269105E+02  0.19999991157E+02 0.  0.
        -12    1    3    3    0    0 -0.25031560559E+02 -0.41304123944E+00 -0.35452416210E+02  0.43400730895E+02  0.00000000000E+00 0.  1.
         11    1    4    4    0    0 -0.69402292533E+00  0.43546333563E+00  0.24901301046E+01  0.26214584369E+01  0.51100000000E-03 0. -1.
        -11    1    4    4    0    0  0.65367315299E+00 -0.19890906087E+01 -0.14474840781E+01  0.25453841475E+01  0.51100000000E-03 0.  1.
        -12    1    4    4    0    0  0.25071910331E+02  0.19666685126E+01  0.34409770184E+02  0.42620426521E+02  0.00000000000E+00 0.  1.
</event>
<event>
 8    1  0.5331800E-011  0.9118800E+02  0.7816164E-02  0.1184000E+00
        -11   -1    0    0    0    0  0.00000000000E+00  0.00000000000E+00  0.45593999997E+02  0.45594000000E+02  0.51100000000E-03 0. -1.
         11   -1    0    0    0    0 -0.00000000000E+00 -0.00000000000E+00 -0.45593999997E+02  0.45594000000E+02  0.51100000000E-03 0.  1.
         23    2    1    2    0    0  0.00000000000E+00  0.00000000000E+00  0.00000000000E+00  0.91188000000E+02  0.91188000000E+02 0.  0.
    9900012    2    3    3    0    0  0.50252885119E+01 -0.13606879711E+02  0.40905042661E+02  0.47787271720E+02  0.20000003080E+02 0.  0.
        -12    1    3    3    0    0 -0.50252885119E+01  0.13606879711E+02 -0.40905042661E+02  0.43400728280E+02  0.00000000000E+00 0.  1.
         11    1    4    4    0    0  0.94690404248E+01 -0.58015785723E+01  0.19901860827E+02  0.22790460836E+02  0.51100000000E-03 0. -1.
        -11    1    4    4    0    0 -0.35190533855E+01 -0.10204046258E+02  0.15129408702E+02  0.18585082854E+02  0.51100000000E-03 0.  1.
        -12    1    4    4    0    0 -0.92469852744E+00  0.23987451190E+01  0.58737731327E+01  0.64117280297E+01  0.00000000000E+00 0.  1.
</event>
<event>
 8    1  0.5331800E-011  0.9118800E+02  0.7816164E-02  0.1184000E+00
        -11   -1    0    0    0    0  0.00000000000E+00  0.00000000000E+00  0.45593999997E+02  0.45594000000E+02  0.51100000000E-03 0. -1.
         11   -1    0    0    0    0 -0.00000000000E+00 -0.00000000000E+00 -0.45593999997E+02  0.45594000000E+02  0.51100000000E-03 0.  1.
         23    2    1    2    0    0  0.00000000000E+00  0.00000000000E+00  0.00000000000E+00  0.91188000000E+02  0.91188000000E+02 0.  0.
    9900012    2    3    3    0    0  0.18322508641E+02 -0.21434988309E+02  0.32991661715E+02  0.47787276625E+02  0.20000025446E+02 0.  0.
        -12    1    3    3    0    0 -0.18322508641E+02  0.21434988309E+02 -0.32991661715E+02  0.43400723375E+02  0.00000000000E+00 0.  1.
         11    1    4    4    0    0 -0.15522829267E+01 -0.13705114532E+01  0.12254900202E+02  0.12428614692E+02  0.51100000000E-03 0.  1.
        -11    1    4    4    0    0  0.11919829991E+02 -0.12995970275E+02  0.15589925088E+02  0.23537700714E+02  0.51100000000E-03 0. -1.
         12    1    4    4    0    0  0.79549615766E+01 -0.70685065803E+01  0.51468364251E+01  0.11820961219E+02  0.00000000000E+00 0. -1.
</event>
<event>
 8    1  0.7404499E-011  0.9118800E+02  0.7816164E-02  0.1184000E+00
        -11   -1    0    0    0    0  0.00000000000E+00  0.00000000000E+00  0.45593999997E+02  0.45594000000E+02  0.51100000000E-03 0. -1.
         11   -1    0    0    0    0 -0.00000000000E+00 -0.00000000000E+00 -0.45593999997E+02  0.45594000000E+02  0.51100000000E-03 0.  1.
         23    2    1    2    0    0 -0.17763568394E-14  0.00000000000E+00 -0.71054273576E-14  0.91188000000E+02  0.91188000000E+02 0.  0.
    9900012    2    3    3    0    0 -0.11172484334E+02 -0.18459196550E+02 -0.37657102940E+02  0.47787265613E+02  0.19999975238E+02 0.  0.
         12    1    3    3    0    0  0.11172484334E+02  0.18459196550E+02  0.37657102940E+02  0.43400734387E+02  0.00000000000E+00 0. -1.
         11    1    4    4    0    0 -0.40442514537E+01  0.16434068830E+01 -0.11611421132E+01  0.45171901966E+01  0.51100000000E-03 0. -1.
        -11    1    4    4    0    0 -0.44389138945E+01 -0.16165138251E+02 -0.19987034063E+02  0.26086340911E+02  0.51100000000E-03 0.  1.
        -12    1    4    4    0    0 -0.26893189860E+01 -0.39374651819E+01 -0.16508926764E+02  0.17183734505E+02  0.00000000000E+00 0.  1.
</event>
<event>
 8    1  0.5331800E-011  0.9118800E+02  0.7816164E-02  0.1184000E+00
        -11   -1    0    0    0    0  0.00000000000E+00  0.00000000000E+00  0.45593999997E+02  0.45594000000E+02  0.51100000000E-03 0. -1.
         11   -1    0    0    0    0 -0.00000000000E+00 -0.00000000000E+00 -0.45593999997E+02  0.45594000000E+02  0.51100000000E-03 0.  1.
         23    2    1    2    0    0  0.17763568394E-14  0.00000000000E+00 -0.71054273576E-14  0.91188000000E+02  0.91188000000E+02 0.  0.
    9900012    2    3    3    0    0 -0.12766262715E+02 -0.12558433508E+02  0.39533937384E+02  0.47787263590E+02  0.19999966013E+02 0.  0.
        -12    1    3    3    0    0  0.12766262715E+02  0.12558433508E+02 -0.39533937384E+02  0.43400736410E+02  0.00000000000E+00 0.  1.
         11    1    4    4    0    0 -0.35404015367E+01 -0.34030491125E+01  0.45960149914E+01  0.67259601816E+01  0.51100000000E-03 0. -1.
        -11    1    4    4    0    0 -0.13960951471E+02 -0.38982267145E+01  0.23757439169E+02  0.27830203981E+02  0.51100000000E-03 0.  1.
        -12    1    4    4    0    0  0.47350902929E+01 -0.52571576806E+01  0.11180483224E+02  0.13231099428E+02  0.00000000000E+00 0.  1.
</event>
<event>
 8    1  0.5331800E-011  0.9118800E+02  0.7816164E-02  0.1184000E+00
        -11   -1    0    0    0    0  0.00000000000E+00  0.00000000000E+00  0.45593999997E+02  0.45594000000E+02  0.51100000000E-03 0. -1.
         11   -1    0    0    0    0 -0.00000000000E+00 -0.00000000000E+00 -0.45593999997E+02  0.45594000000E+02  0.51100000000E-03 0.  1.
         23    2    1    2    0    0  0.00000000000E+00 -0.35527136788E-14  0.00000000000E+00  0.91188000000E+02  0.91188000000E+02 0.  0.
    9900012    2    3    3    0    0  0.94402805395E+01  0.27502262255E+02  0.32220023689E+02  0.47787271293E+02  0.20000001133E+02 0.  0.
        -12    1    3    3    0    0 -0.94402805395E+01 -0.27502262255E+02 -0.32220023689E+02  0.43400728707E+02  0.00000000000E+00 0.  1.
         11    1    4    4    0    0  0.49240461541E+01  0.17566555134E+02  0.29090358001E+02  0.34337720057E+02  0.51100000000E-03 0. -1.
        -11    1    4    4    0    0  0.57555408199E+01  0.10098441781E+02  0.20604183697E+01  0.11804664360E+02  0.51100000000E-03 0.  1.
         12    1    4    4    0    0 -0.12393064345E+01 -0.16273466044E+00  0.10692473183E+01  0.16448868763E+01  0.00000000000E+00 0. -1.
</event>
<event>
 8    1  0.5331800E-011  0.9118800E+02  0.7816164E-02  0.1184000E+00
        -11   -1    0    0    0    0  0.00000000000E+00  0.00000000000E+00  0.45593999997E+02  0.45594000000E+02  0.51100000000E-03 0.  1.
         11   -1    0    0    0    0 -0.00000000000E+00 -0.00000000000E+00 -0.45593999997E+02  0.45594000000E+02  0.51100000000E-03 0. -1.
         23    2    1    2    0    0  0.00000000000E+00  0.35527136788E-14  0.00000000000E+00  0.91188000000E+02  0.91188000000E+02 0.  0.
    9900012    2    3    3    0    0 -0.53638435091E+01  0.22626760026E+02  0.36645359502E+02  0.47787268907E+02  0.19999990252E+02 0.  0.
        -12    1    3    3    0    0  0.53638435091E+01 -0.22626760026E+02 -0.36645359502E+02  0.43400731093E+02  0.00000000000E+00 0.  1.
         11    1    4    4    0    0 -0.22280853711E+01  0.19817941716E+02  0.14379960613E+02  0.24586550099E+02  0.51100000000E-03 0. -1.
        -11    1    4    4    0    0 -0.41966545981E+01  0.19604471168E+01  0.20231069700E+02  0.20754552372E+02  0.51100000000E-03 0.  1.
        -12    1    4    4    0    0  0.10608964601E+01  0.84837119256E+00  0.20343291888E+01  0.24461664350E+01  0.00000000000E+00 0.  1.
</event>
<event>
 8    1  0.5331800E-011  0.9118800E+02  0.7816164E-02  0.1184000E+00
        -11   -1    0    0    0    0  0.00000000000E+00  0.00000000000E+00  0.45593999997E+02  0.45594000000E+02  0.51100000000E-03 0. -1.
         11   -1    0    0    0    0 -0.00000000000E+00 -0.00000000000E+00 -0.45593999997E+02  0.45594000000E+02  0.51100000000E-03 0.  1.
         23    2    1    2    0    0  0.00000000000E+00  0.00000000000E+00  0.00000000000E+00  0.91188000000E+02  0.91188000000E+02 0.  0.
    9900012    2    3    3    0    0 -0.16525495508E+02 -0.88834183266E+01  0.39135854717E+02  0.47787282871E+02  0.20000053921E+02 0.  0.
        -12    1    3    3    0    0  0.16525495508E+02  0.88834183266E+01 -0.39135854717E+02  0.43400717129E+02  0.00000000000E+00 0.  1.
         11    1    4    4    0    0 -0.13528196137E+02 -0.88504942063E+01  0.19270959597E+02  0.25153791413E+02  0.51100000000E-03 0.  1.
        -11    1    4    4    0    0  0.38728920482E+01  0.37005327640E+00  0.59382715353E+01  0.70992465327E+01  0.51100000000E-03 0. -1.
         12    1    4    4    0    0 -0.68701914185E+01 -0.40297739672E+00  0.13926623585E+02  0.15534244925E+02  0.00000000000E+00 0. -1.
</event>
<event>
 8    1  0.5331800E-011  0.9118800E+02  0.7816164E-02  0.1184000E+00
        -11   -1    0    0    0    0  0.00000000000E+00  0.00000000000E+00  0.45593999997E+02  0.45594000000E+02  0.51100000000E-03 0. -1.
         11   -1    0    0    0    0 -0.00000000000E+00 -0.00000000000E+00 -0.45593999997E+02  0.45594000000E+02  0.51100000000E-03 0.  1.
         23    2    1    2    0    0  0.88817841970E-15 -0.17763568394E-14 -0.71054273576E-14  0.91188000000E+02  0.91188000000E+02 0.  0.
    9900012    2    3    3    0    0 -0.78667496328E+01 -0.13122065034E+02 -0.40614631369E+02  0.47787278557E+02  0.20000034255E+02 0.  0.
         12    1    3    3    0    0  0.78667496328E+01  0.13122065034E+02  0.40614631369E+02  0.43400721443E+02  0.00000000000E+00 0. -1.
         11    1    4    4    0    0 -0.12886974970E+02 -0.37626248647E+01 -0.29416254909E+02  0.32334927291E+02  0.51100000000E-03 0. -1.
        -11    1    4    4    0    0  0.27920033779E+01 -0.53812533689E+01 -0.58589132329E+01  0.84308976517E+01  0.51100000000E-03 0.  1.
         12    1    4    4    0    0  0.22282219598E+01 -0.39781868001E+01 -0.53394632267E+01  0.70214536150E+01  0.00000000000E+00 0. -1.
</event>
<event>
 8    1  0.5331800E-011  0.9118800E+02  0.7816164E-02  0.1184000E+00
        -11   -1    0    0    0    0  0.00000000000E+00  0.00000000000E+00  0.45593999997E+02  0.45594000000E+02  0.51100000000E-03 0. -1.
         11   -1    0    0    0    0 -0.00000000000E+00 -0.00000000000E+00 -0.45593999997E+02  0.45594000000E+02  0.51100000000E-03 0.  1.
         23    2    1    2    0    0  0.00000000000E+00  0.00000000000E+00  0.00000000000E+00  0.91188000000E+02  0.91188000000E+02 0.  0.
    9900012    2    3    3    0    0 -0.35933958023E+02  0.71222808040E+01 -0.23273314753E+02  0.47787269561E+02  0.19999993237E+02 0.  0.
         12    1    3    3    0    0  0.35933958023E+02 -0.71222808040E+01  0.23273314753E+02  0.43400730439E+02  0.00000000000E+00 0. -1.
         11    1    4    4    0    0 -0.24213655798E+02  0.56248352503E+01 -0.16794294426E+02  0.29999803736E+02  0.51100000000E-03 0. -1.
        -11    1    4    4    0    0 -0.13303385798E+02 -0.88560525067E+00 -0.37897235801E+01  0.13860965891E+02  0.51100000000E-03 0.  1.
         12    1    4    4    0    0  0.15830835735E+01  0.23830508044E+01 -0.26892967468E+01  0.39264999338E+01  0.00000000000E+00 0. -1.
</event>
<event>
 8    1  0.5331800E-011  0.9118800E+02  0.7816164E-02  0.1184000E+00
        -11   -1    0    0    0    0  0.00000000000E+00  0.00000000000E+00  0.45593999997E+02  0.45594000000E+02  0.51100000000E-03 0. -1.
         11   -1    0    0    0    0 -0.00000000000E+00 -0.00000000000E+00 -0.45593999997E+02  0.45594000000E+02  0.51100000000E-03 0.  1.
         23    2    1    2    0    0 -0.17763568394E-14  0.00000000000E+00  0.71054273576E-14  0.91188000000E+02  0.91188000000E+02 0.  0.
    9900012    2    3    3    0    0 -0.86629389638E+01 -0.18744285272E+02  0.38173672370E+02  0.47787262632E+02  0.19999961644E+02 0.  0.
        -12    1    3    3    0    0  0.86629389638E+01  0.18744285272E+02 -0.38173672370E+02  0.43400737368E+02  0.00000000000E+00 0.  1.
         11    1    4    4    0    0 -0.99484786362E+00 -0.19513651364E+01  0.13802142955E+02  0.13974859519E+02  0.51100000000E-03 0. -1.
        -11    1    4    4    0    0 -0.10961343807E+02 -0.11132365796E+02  0.11596475928E+02  0.19456589642E+02  0.51100000000E-03 0.  1.
        -12    1    4    4    0    0  0.32932527067E+01 -0.56605543396E+01  0.12775053487E+02  0.14355813471E+02  0.00000000000E+00 0.  1.
</event>
<event>
 8    1  0.5331800E-011  0.9118800E+02  0.7816164E-02  0.1184000E+00
        -11   -1    0    0    0    0  0.00000000000E+00  0.00000000000E+00  0.45593999997E+02  0.45594000000E+02  0.51100000000E-03 0. -1.
         11   -1    0    0    0    0 -0.00000000000E+00 -0.00000000000E+00 -0.45593999997E+02  0.45594000000E+02  0.51100000000E-03 0.  1.
         23    2    1    2    0    0  0.35527136788E-14  0.00000000000E+00  0.00000000000E+00  0.91188000000E+02  0.91188000000E+02 0.  0.
    9900012    2    3    3    0    0 -0.30800175556E+02 -0.27154283664E+02  0.14057646719E+02  0.47787269973E+02  0.19999995117E+02 0.  0.
        -12    1    3    3    0    0  0.30800175556E+02  0.27154283664E+02 -0.14057646719E+02  0.43400730027E+02  0.00000000000E+00 0.  1.
         11    1    4    4    0    0 -0.24702389197E+02 -0.15019516035E+02  0.90839105692E+01  0.30303652015E+02  0.51100000000E-03 0. -1.
        -11    1    4    4    0    0 -0.83817799693E+00 -0.73786031922E+01 -0.18387111404E+01  0.76503062907E+01  0.51100000000E-03 0.  1.
         12    1    4    4    0    0 -0.52596083617E+01 -0.47561644365E+01  0.68124472900E+01  0.98333116672E+01  0.00000000000E+00 0. -1.
</event>
<event>
 8    1  0.5331800E-011  0.9118800E+02  0.7816164E-02  0.1184000E+00
        -11   -1    0    0    0    0  0.00000000000E+00  0.00000000000E+00  0.45593999997E+02  0.45594000000E+02  0.51100000000E-03 0. -1.
         11   -1    0    0    0    0 -0.00000000000E+00 -0.00000000000E+00 -0.45593999997E+02  0.45594000000E+02  0.51100000000E-03 0.  1.
         23    2    1    2    0    0  0.00000000000E+00  0.00000000000E+00  0.71054273576E-14  0.91188000000E+02  0.91188000000E+02 0.  0.
    9900012    2    3    3    0    0  0.40025724049E+01 -0.18609629169E+02  0.39003648783E+02  0.47787268416E+02  0.19999988014E+02 0.  0.
        -12    1    3    3    0    0 -0.40025724049E+01  0.18609629169E+02 -0.39003648783E+02  0.43400731584E+02  0.00000000000E+00 0.  1.
         11    1    4    4    0    0 -0.24699844411E+01 -0.10319414350E+02  0.15473114962E+02  0.18761887500E+02  0.51100000000E-03 0. -1.
        -11    1    4    4    0    0  0.40549767637E+01  0.28704537913E+01  0.39043592971E+01  0.63187311466E+01  0.51100000000E-03 0.  1.
        -12    1    4    4    0    0  0.24175800823E+01 -0.11160668610E+02  0.19626174524E+02  0.22706649769E+02  0.00000000000E+00 0.  1.
</event>
<event>
 8    1  0.5331800E-011  0.9118800E+02  0.7816164E-02  0.1184000E+00
        -11   -1    0    0    0    0  0.00000000000E+00  0.00000000000E+00  0.45593999997E+02  0.45594000000E+02  0.51100000000E-03 0. -1.
         11   -1    0    0    0    0 -0.00000000000E+00 -0.00000000000E+00 -0.45593999997E+02  0.45594000000E+02  0.51100000000E-03 0.  1.
         23    2    1    2    0    0  0.00000000000E+00  0.00000000000E+00  0.00000000000E+00  0.91188000000E+02  0.91188000000E+02 0.  0.
    9900012    2    3    3    0    0 -0.10208759661E+02  0.17588133584E+02  0.38341399593E+02  0.47787261071E+02  0.19999954527E+02 0.  0.
        -12    1    3    3    0    0  0.10208759661E+02 -0.17588133584E+02 -0.38341399593E+02  0.43400738929E+02  0.00000000000E+00 0.  1.
         11    1    4    4    0    0 -0.15753621465E+00  0.86516675387E+01  0.25603727938E+02  0.27026413995E+02  0.51100000000E-03 0. -1.
        -11    1    4    4    0    0 -0.10344774195E+02  0.93880864880E+01  0.13758065664E+02  0.19607011300E+02  0.51100000000E-03 0.  1.
         12    1    4    4    0    0  0.29355074864E+00 -0.45162044251E+00 -0.10203940081E+01  0.11538357760E+01  0.00000000000E+00 0. -1.
</event>
<event>
 8    1  0.5331800E-011  0.9118800E+02  0.7816164E-02  0.1184000E+00
        -11   -1    0    0    0    0  0.00000000000E+00  0.00000000000E+00  0.45593999997E+02  0.45594000000E+02  0.51100000000E-03 0. -1.
         11   -1    0    0    0    0 -0.00000000000E+00 -0.00000000000E+00 -0.45593999997E+02  0.45594000000E+02  0.51100000000E-03 0.  1.
         23    2    1    2    0    0  0.00000000000E+00  0.00000000000E+00  0.35527136788E-14  0.91188000000E+02  0.91188000000E+02 0.  0.
    9900012    2    3    3    0    0 -0.80476409071E+01 -0.30428805887E+02 -0.29882222653E+02  0.47787262879E+02  0.19999962772E+02 0.  0.
         12    1    3    3    0    0  0.80476409071E+01  0.30428805887E+02  0.29882222653E+02  0.43400737121E+02  0.00000000000E+00 0. -1.
         11    1    4    4    0    0 -0.58642870112E+01 -0.51852973482E+01 -0.56840765489E+01  0.96739804225E+01  0.51100000000E-03 0. -1.
        -11    1    4    4    0    0 -0.59759200213E+01 -0.21698383776E+02 -0.13558891581E+02  0.26274988483E+02  0.51100000000E-03 0.  1.
        -12    1    4    4    0    0  0.37925661253E+01 -0.35451247629E+01 -0.10639254523E+02  0.11838293974E+02  0.00000000000E+00 0.  1.
</event>
<event>
 8    1  0.5331800E-011  0.9118800E+02  0.7816164E-02  0.1184000E+00
        -11   -1    0    0    0    0  0.00000000000E+00  0.00000000000E+00  0.45593999997E+02  0.45594000000E+02  0.51100000000E-03 0. -1.
         11   -1    0    0    0    0 -0.00000000000E+00 -0.00000000000E+00 -0.45593999997E+02  0.45594000000E+02  0.51100000000E-03 0.  1.
         23    2    1    2    0    0  0.00000000000E+00  0.88817841970E-15  0.00000000000E+00  0.91188000000E+02  0.91188000000E+02 0.  0.
    9900012    2    3    3    0    0 -0.41411408934E+01 -0.63987266134E+01  0.42726241897E+02  0.47787256956E+02  0.19999935764E+02 0.  0.
        -12    1    3    3    0    0  0.41411408934E+01  0.63987266134E+01 -0.42726241897E+02  0.43400743044E+02  0.00000000000E+00 0.  1.
         11    1    4    4    0    0 -0.23185976757E+01  0.28261587798E+01  0.25607303257E+02  0.25866910310E+02  0.51100000000E-03 0. -1.
        -11    1    4    4    0    0  0.11002080958E+01 -0.43954732828E+01  0.73384950551E+00  0.45901174921E+01  0.51100000000E-03 0.  1.
         12    1    4    4    0    0 -0.29227513135E+01 -0.48294121105E+01  0.16385089135E+02  0.17330229154E+02  0.00000000000E+00 0. -1.
</event>
<event>
 8    1  0.5331800E-011  0.9118800E+02  0.7816164E-02  0.1184000E+00
        -11   -1    0    0    0    0  0.00000000000E+00  0.00000000000E+00  0.45593999997E+02  0.45594000000E+02  0.51100000000E-03 0. -1.
         11   -1    0    0    0    0 -0.00000000000E+00 -0.00000000000E+00 -0.45593999997E+02  0.45594000000E+02  0.51100000000E-03 0.  1.
         23    2    1    2    0    0  0.00000000000E+00 -0.55511151231E-16  0.00000000000E+00  0.91188000000E+02  0.91188000000E+02 0.  0.
    9900012    2    3    3    0    0  0.14137676440E+02  0.41397103442E+00  0.41031428598E+02  0.47787269593E+02  0.19999993381E+02 0.  0.
        -12    1    3    3    0    0 -0.14137676440E+02 -0.41397103442E+00 -0.41031428598E+02  0.43400730407E+02  0.00000000000E+00 0.  1.
         11    1    4    4    0    0 -0.21450856951E+01 -0.30771323718E+01  0.21951551280E+01  0.43461296081E+01  0.51100000000E-03 0.  1.
        -11    1    4    4    0    0  0.11405064057E+02  0.63594564671E+01  0.21000994649E+02  0.24729738155E+02  0.51100000000E-03 0. -1.
         12    1    4    4    0    0  0.48776980778E+01 -0.28683530608E+01  0.17835278821E+02  0.18711401830E+02  0.00000000000E+00 0. -1.
</event>
<event>
 8    1  0.5331800E-011  0.9118800E+02  0.7816164E-02  0.1184000E+00
        -11   -1    0    0    0    0  0.00000000000E+00  0.00000000000E+00  0.45593999997E+02  0.45594000000E+02  0.51100000000E-03 0. -1.
         11   -1    0    0    0    0 -0.00000000000E+00 -0.00000000000E+00 -0.45593999997E+02  0.45594000000E+02  0.51100000000E-03 0.  1.
         23    2    1    2    0    0  0.35527136788E-14  0.00000000000E+00  0.00000000000E+00  0.91188000000E+02  0.91188000000E+02 0.  0.
    9900012    2    3    3    0    0  0.26108595056E+02  0.13630287746E+02  0.31877593693E+02  0.47787257386E+02  0.19999937723E+02 0.  0.
        -12    1    3    3    0    0 -0.26108595056E+02 -0.13630287746E+02 -0.31877593693E+02  0.43400742614E+02  0.00000000000E+00 0.  1.
         11    1    4    4    0    0  0.15467108932E+02  0.72541962815E+01  0.21276908283E+02  0.27286656973E+02  0.51100000000E-03 0. -1.
        -11    1    4    4    0    0  0.76000528124E+01  0.70196323909E+01  0.98236286753E+00  0.10392356745E+02  0.51100000000E-03 0.  1.
        -12    1    4    4    0    0  0.30414333111E+01 -0.64354092606E+00  0.96183225423E+01  0.10108243667E+02  0.00000000000E+00 0.  1.
</event>
<event>
 8    1  0.5331800E-011  0.9118800E+02  0.7816164E-02  0.1184000E+00
        -11   -1    0    0    0    0  0.00000000000E+00  0.00000000000E+00  0.45593999997E+02  0.45594000000E+02  0.51100000000E-03 0. -1.
         11   -1    0    0    0    0 -0.00000000000E+00 -0.00000000000E+00 -0.45593999997E+02  0.45594000000E+02  0.51100000000E-03 0.  1.
         23    2    1    2    0    0  0.00000000000E+00  0.17763568394E-14  0.71054273576E-14  0.91188000000E+02  0.91188000000E+02 0.  0.
    9900012    2    3    3    0    0 -0.55822957175E+01  0.13725927925E+02  0.40792893951E+02  0.47787270515E+02  0.19999997588E+02 0.  0.
        -12    1    3    3    0    0  0.55822957175E+01 -0.13725927925E+02 -0.40792893951E+02  0.43400729485E+02  0.00000000000E+00 0.  1.
         11    1    4    4    0    0 -0.81918645249E+01  0.11898548649E+02  0.17625267719E+02  0.22788860585E+02  0.51100000000E-03 0. -1.
        -11    1    4    4    0    0  0.88671830369E+00 -0.15295955552E+01  0.19982441411E+02  0.20060505899E+02  0.51100000000E-03 0.  1.
        -12    1    4    4    0    0  0.17228505037E+01  0.33569748311E+01  0.31851848213E+01  0.49379040311E+01  0.00000000000E+00 0.  1.
</event>
<event>
 8    1  0.5331800E-011  0.9118800E+02  0.7816164E-02  0.1184000E+00
        -11   -1    0    0    0    0  0.00000000000E+00  0.00000000000E+00  0.45593999997E+02  0.45594000000E+02  0.51100000000E-03 0. -1.
         11   -1    0    0    0    0 -0.00000000000E+00 -0.00000000000E+00 -0.45593999997E+02  0.45594000000E+02  0.51100000000E-03 0.  1.
         23    2    1    2    0    0  0.00000000000E+00  0.00000000000E+00  0.71054273576E-14  0.91188000000E+02  0.91188000000E+02 0.  0.
    9900012    2    3    3    0    0 -0.22236464968E+01 -0.54771755580E+00 -0.43340264170E+02  0.47787273087E+02  0.20000009314E+02 0.  0.
         12    1    3    3    0    0  0.22236464968E+01  0.54771755580E+00  0.43340264170E+02  0.43400726913E+02  0.00000000000E+00 0. -1.
         11    1    4    4    0    0  0.59608228753E+01 -0.31749343686E+01 -0.18645877908E+02  0.19831298011E+02  0.51100000000E-03 0. -1.
        -11    1    4    4    0    0 -0.49970342577E+01 -0.32840139244E+01 -0.15134411775E+02  0.16272846059E+02  0.51100000000E-03 0.  1.
         12    1    4    4    0    0 -0.31874351144E+01  0.59112307372E+01 -0.95599744865E+01  0.11683129017E+02  0.00000000000E+00 0. -1.
</event>
<event>
 8    1  0.5331800E-011  0.9118800E+02  0.7816164E-02  0.1184000E+00
        -11   -1    0    0    0    0  0.00000000000E+00  0.00000000000E+00  0.45593999997E+02  0.45594000000E+02  0.51100000000E-03 0. -1.
         11   -1    0    0    0    0 -0.00000000000E+00 -0.00000000000E+00 -0.45593999997E+02  0.45594000000E+02  0.51100000000E-03 0.  1.
         23    2    1    2    0    0 -0.35527136788E-14  0.00000000000E+00  0.35527136788E-14  0.91188000000E+02  0.91188000000E+02 0.  0.
    9900012    2    3    3    0    0  0.25252981706E+02  0.19610249460E+02  0.29348737325E+02  0.47787270150E+02  0.19999995921E+02 0.  0.
        -12    1    3    3    0    0 -0.25252981706E+02 -0.19610249460E+02 -0.29348737325E+02  0.43400729850E+02  0.00000000000E+00 0.  1.
         11    1    4    4    0    0  0.11870514277E-01  0.18561143647E+01  0.74263011676E+01  0.76547534733E+01  0.51100000000E-03 0.  1.
        -11    1    4    4    0    0  0.19997780672E+02  0.16018410569E+02  0.10981263393E+02  0.27876313511E+02  0.51100000000E-03 0. -1.
         12    1    4    4    0    0  0.52433305196E+01  0.17357245259E+01  0.10941172765E+02  0.12256203166E+02  0.00000000000E+00 0. -1.
</event>
<event>
 8    1  0.5331800E-011  0.9118800E+02  0.7816164E-02  0.1184000E+00
        -11   -1    0    0    0    0  0.00000000000E+00  0.00000000000E+00  0.45593999997E+02  0.45594000000E+02  0.51100000000E-03 0. -1.
         11   -1    0    0    0    0 -0.00000000000E+00 -0.00000000000E+00 -0.45593999997E+02  0.45594000000E+02  0.51100000000E-03 0.  1.
         23    2    1    2    0    0  0.35527136788E-14  0.88817841970E-15 -0.35527136788E-14  0.91188000000E+02  0.91188000000E+02 0.  0.
    9900012    2    3    3    0    0  0.31138168606E+02  0.55527037276E+01 -0.29718700010E+02  0.47787318057E+02  0.20000214348E+02 0.  0.
         12    1    3    3    0    0 -0.31138168606E+02 -0.55527037276E+01  0.29718700010E+02  0.43400681943E+02  0.00000000000E+00 0. -1.
         11    1    4    4    0    0 -0.25679405412E+01 -0.12513319095E+01 -0.19841121718E+01  0.34780528378E+01  0.51100000000E-03 0. -1.
        -11    1    4    4    0    0  0.25603779357E+02  0.55937087418E+01 -0.22858023881E+02  0.34775456156E+02  0.51100000000E-03 0.  1.
        -12    1    4    4    0    0  0.81023297903E+01  0.12103268953E+01 -0.48765639574E+01  0.95338090633E+01  0.00000000000E+00 0.  1.
</event>
<event>
 8    1  0.5331800E-011  0.9118800E+02  0.7816164E-02  0.1184000E+00
        -11   -1    0    0    0    0  0.00000000000E+00  0.00000000000E+00  0.45593999997E+02  0.45594000000E+02  0.51100000000E-03 0. -1.
         11   -1    0    0    0    0 -0.00000000000E+00 -0.00000000000E+00 -0.45593999997E+02  0.45594000000E+02  0.51100000000E-03 0.  1.
         23    2    1    2    0    0  0.00000000000E+00  0.35527136788E-14  0.00000000000E+00  0.91188000000E+02  0.91188000000E+02 0.  0.
    9900012    2    3    3    0    0 -0.20619883732E+02  0.25716616483E+02  0.28232940829E+02  0.47787275164E+02  0.20000018782E+02 0.  0.
        -12    1    3    3    0    0  0.20619883732E+02 -0.25716616483E+02 -0.28232940829E+02  0.43400724836E+02  0.00000000000E+00 0.  1.
         11    1    4    4    0    0  0.36453068685E+00  0.87544883534E+00 -0.22667881960E+01  0.24571573559E+01  0.51100000000E-03 0. -1.
        -11    1    4    4    0    0 -0.10365122989E+02  0.16995531301E+02  0.14736141210E+02  0.24767674837E+02  0.51100000000E-03 0.  1.
         12    1    4    4    0    0 -0.10619291430E+02  0.78456363465E+01  0.15763587814E+02  0.20562442971E+02  0.00000000000E+00 0. -1.
</event>
<event>
 8    1  0.5916876E-011  0.9118800E+02  0.7816164E-02  0.1184000E+00
        -11   -1    0    0    0    0  0.00000000000E+00  0.00000000000E+00  0.45593999997E+02  0.45594000000E+02  0.51100000000E-03 0. -1.
         11   -1    0    0    0    0 -0.00000000000E+00 -0.00000000000E+00 -0.45593999997E+02  0.45594000000E+02  0.51100000000E-03 0.  1.
         23    2    1    2    0    0  0.17763568394E-14 -0.35527136788E-14  0.00000000000E+00  0.91188000000E+02  0.91188000000E+02 0.  0.
    9900012    2    3    3    0    0 -0.44897598099E+01  0.30391828837E+02 -0.30656192939E+02  0.47787269951E+02  0.19999995016E+02 0.  0.
         12    1    3    3    0    0  0.44897598099E+01 -0.30391828837E+02  0.30656192939E+02  0.43400730049E+02  0.00000000000E+00 0. -1.
         11    1    4    4    0    0 -0.30970309708E+01  0.67260530982E+01 -0.41616062455E+00  0.74165073344E+01  0.51100000000E-03 0. -1.
        -11    1    4    4    0    0  0.27508043550E+01  0.14384118793E+02 -0.24903781102E+02  0.28890623245E+02  0.51100000000E-03 0.  1.
        -12    1    4    4    0    0 -0.41435331942E+01  0.92816569461E+01 -0.53362512132E+01  0.11480139372E+02  0.00000000000E+00 0.  1.
</event>
<event>
 8    1  0.5331800E-011  0.9118800E+02  0.7816164E-02  0.1184000E+00
        -11   -1    0    0    0    0  0.00000000000E+00  0.00000000000E+00  0.45593999997E+02  0.45594000000E+02  0.51100000000E-03 0. -1.
         11   -1    0    0    0    0 -0.00000000000E+00 -0.00000000000E+00 -0.45593999997E+02  0.45594000000E+02  0.51100000000E-03 0.  1.
         23    2    1    2    0    0  0.00000000000E+00  0.00000000000E+00  0.00000000000E+00  0.91188000000E+02  0.91188000000E+02 0.  0.
    9900012    2    3    3    0    0 -0.31219723222E+02 -0.28604670125E+02  0.95249751538E+01  0.47787269330E+02  0.19999992182E+02 0.  0.
        -12    1    3    3    0    0  0.31219723222E+02  0.28604670125E+02 -0.95249751538E+01  0.43400730670E+02  0.00000000000E+00 0.  1.
         11    1    4    4    0    0 -0.13585312272E+02 -0.19369388428E+02  0.16947124919E+01  0.23719316354E+02  0.51100000000E-03 0. -1.
        -11    1    4    4    0    0 -0.88468828377E+01  0.13788459353E+01  0.25326603624E+01  0.93049944024E+01  0.51100000000E-03 0.  1.
         12    1    4    4    0    0 -0.87875281122E+01 -0.10614127632E+02  0.52976022995E+01  0.14762958573E+02  0.00000000000E+00 0. -1.
</event>
<event>
 8    1  0.5331800E-011  0.9118800E+02  0.7816164E-02  0.1184000E+00
        -11   -1    0    0    0    0  0.00000000000E+00  0.00000000000E+00  0.45593999997E+02  0.45594000000E+02  0.51100000000E-03 0.  1.
         11   -1    0    0    0    0 -0.00000000000E+00 -0.00000000000E+00 -0.45593999997E+02  0.45594000000E+02  0.51100000000E-03 0. -1.
         23    2    1    2    0    0  0.00000000000E+00  0.00000000000E+00  0.00000000000E+00  0.91188000000E+02  0.91188000000E+02 0.  0.
    9900012    2    3    3    0    0 -0.76530568392E+01 -0.41357888339E+02  0.10704169419E+02  0.47787269018E+02  0.19999990759E+02 0.  0.
         12    1    3    3    0    0  0.76530568392E+01  0.41357888339E+02 -0.10704169419E+02  0.43400730982E+02  0.00000000000E+00 0. -1.
         11    1    4    4    0    0  0.26421520852E+00 -0.21953994909E+00 -0.21203894278E+01  0.21480360920E+01  0.51100000000E-03 0. -1.
        -11    1    4    4    0    0 -0.10086677463E+02 -0.31071086887E+02  0.58127503826E+01  0.33180439567E+02  0.51100000000E-03 0.  1.
        -12    1    4    4    0    0  0.21694054151E+01 -0.10067261503E+02  0.70118084638E+01  0.12458793359E+02  0.00000000000E+00 0.  1.
</event>
<event>
 8    1  0.5331800E-011  0.9118800E+02  0.7816164E-02  0.1184000E+00
        -11   -1    0    0    0    0  0.00000000000E+00  0.00000000000E+00  0.45593999997E+02  0.45594000000E+02  0.51100000000E-03 0. -1.
         11   -1    0    0    0    0 -0.00000000000E+00 -0.00000000000E+00 -0.45593999997E+02  0.45594000000E+02  0.51100000000E-03 0.  1.
         23    2    1    2    0    0  0.00000000000E+00  0.00000000000E+00  0.71054273576E-14  0.91188000000E+02  0.91188000000E+02 0.  0.
    9900012    2    3    3    0    0 -0.84279615464E+01  0.13281700987E+02 -0.40449828176E+02  0.47787277467E+02  0.20000029282E+02 0.  0.
         12    1    3    3    0    0  0.84279615464E+01 -0.13281700987E+02  0.40449828176E+02  0.43400722533E+02  0.00000000000E+00 0. -1.
         11    1    4    4    0    0 -0.10043984285E+02  0.15552401336E+02 -0.24766295586E+02  0.30921322820E+02  0.51100000000E-03 0. -1.
        -11    1    4    4    0    0  0.15134544125E+01 -0.82930446046E-01 -0.14055452742E+02  0.14136943579E+02  0.51100000000E-03 0.  1.
         12    1    4    4    0    0  0.10256832617E+00 -0.21877699037E+01 -0.16280798484E+01  0.27290110674E+01  0.00000000000E+00 0. -1.
</event>
<event>
 8    1  0.5331800E-011  0.9118800E+02  0.7816164E-02  0.1184000E+00
        -11   -1    0    0    0    0  0.00000000000E+00  0.00000000000E+00  0.45593999997E+02  0.45594000000E+02  0.51100000000E-03 0. -1.
         11   -1    0    0    0    0 -0.00000000000E+00 -0.00000000000E+00 -0.45593999997E+02  0.45594000000E+02  0.51100000000E-03 0.  1.
         23    2    1    2    0    0  0.00000000000E+00  0.00000000000E+00  0.35527136788E-14  0.91188000000E+02  0.91188000000E+02 0.  0.
    9900012    2    3    3    0    0  0.34840218297E+02 -0.26109644092E+00 -0.25878852140E+02  0.47787263020E+02  0.19999963414E+02 0.  0.
         12    1    3    3    0    0 -0.34840218297E+02  0.26109644092E+00  0.25878852140E+02  0.43400736980E+02  0.00000000000E+00 0. -1.
         11    1    4    4    0    0 -0.20076889705E+01  0.11256202080E+01 -0.42035947285E+01  0.47924988010E+01  0.51100000000E-03 0. -1.
        -11    1    4    4    0    0  0.28003974854E+02 -0.10535451603E+01 -0.18558603216E+02  0.33611818139E+02  0.51100000000E-03 0.  1.
        -12    1    4    4    0    0  0.88439324131E+01 -0.33317148852E+00 -0.31166541958E+01  0.93829460803E+01  0.00000000000E+00 0.  1.
</event>
<event>
 8    1  0.5331800E-011  0.9118800E+02  0.7816164E-02  0.1184000E+00
        -11   -1    0    0    0    0  0.00000000000E+00  0.00000000000E+00  0.45593999997E+02  0.45594000000E+02  0.51100000000E-03 0. -1.
         11   -1    0    0    0    0 -0.00000000000E+00 -0.00000000000E+00 -0.45593999997E+02  0.45594000000E+02  0.51100000000E-03 0.  1.
         23    2    1    2    0    0  0.00000000000E+00  0.00000000000E+00  0.00000000000E+00  0.91188000000E+02  0.91188000000E+02 0.  0.
    9900012    2    3    3    0    0 -0.57836510819E+01 -0.10863111390E+02  0.41619294280E+02  0.47787268840E+02  0.19999989947E+02 0.  0.
        -12    1    3    3    0    0  0.57836510819E+01  0.10863111390E+02 -0.41619294280E+02  0.43400731160E+02  0.00000000000E+00 0.  1.
         11    1    4    4    0    0 -0.20551532889E+01 -0.68245079501E+01  0.26864981535E+02  0.27794330302E+02  0.51100000000E-03 0. -1.
        -11    1    4    4    0    0 -0.14155702005E+01 -0.83857216682E+00 -0.21082526332E+01  0.26742796597E+01  0.51100000000E-03 0.  1.
        -12    1    4    4    0    0 -0.23129275925E+01 -0.32000312732E+01  0.16862565378E+02  0.17318658878E+02  0.00000000000E+00 0.  1.
</event>
<event>
 8    1  0.5331800E-011  0.9118800E+02  0.7816164E-02  0.1184000E+00
        -11   -1    0    0    0    0  0.00000000000E+00  0.00000000000E+00  0.45593999997E+02  0.45594000000E+02  0.51100000000E-03 0.  1.
         11   -1    0    0    0    0 -0.00000000000E+00 -0.00000000000E+00 -0.45593999997E+02  0.45594000000E+02  0.51100000000E-03 0. -1.
         23    2    1    2    0    0  0.00000000000E+00  0.00000000000E+00  0.88817841970E-15  0.91188000000E+02  0.91188000000E+02 0.  0.
    9900012    2    3    3    0    0  0.13263858457E+02  0.40620179158E+02 -0.75958713259E+01  0.47787237827E+02  0.19999848548E+02 0.  0.
        -12    1    3    3    0    0 -0.13263858457E+02 -0.40620179158E+02  0.75958713259E+01  0.43400762173E+02  0.00000000000E+00 0.  1.
         11    1    4    4    0    0  0.11603838599E+02  0.25078588304E+02  0.14913060528E+00  0.27633438110E+02  0.51100000000E-03 0. -1.
        -11    1    4    4    0    0 -0.32867077961E+01  0.86546127618E+01 -0.98579554712E+00  0.93100248826E+01  0.51100000000E-03 0.  1.
         12    1    4    4    0    0  0.49467276545E+01  0.68869780918E+01 -0.67592063841E+01  0.10843774835E+02  0.00000000000E+00 0. -1.
</event>
<event>
 8    1  0.5614883E-011  0.9118800E+02  0.7816164E-02  0.1184000E+00
        -11   -1    0    0    0    0  0.00000000000E+00  0.00000000000E+00  0.45593999997E+02  0.45594000000E+02  0.51100000000E-03 0. -1.
         11   -1    0    0    0    0 -0.00000000000E+00 -0.00000000000E+00 -0.45593999997E+02  0.45594000000E+02  0.51100000000E-03 0.  1.
         23    2    1    2    0    0 -0.35527136788E-14  0.35527136788E-14  0.00000000000E+00  0.91188000000E+02  0.91188000000E+02 0.  0.
    9900012    2    3    3    0    0 -0.26016932970E+02  0.16847000714E+02 -0.30379619066E+02  0.47787268568E+02  0.19999988709E+02 0.  0.
         12    1    3    3    0    0  0.26016932970E+02 -0.16847000714E+02  0.30379619066E+02  0.43400731432E+02  0.00000000000E+00 0. -1.
         11    1    4    4    0    0  0.14486535985E+01 -0.17197814308E+00 -0.94227880452E+00  0.17366817027E+01  0.51100000000E-03 0. -1.
        -11    1    4    4    0    0 -0.17234265678E+02  0.46886799645E+01 -0.87633920274E+01  0.19894739841E+02  0.51100000000E-03 0.  1.
        -12    1    4    4    0    0 -0.10231320891E+02  0.12330298892E+02 -0.20673948234E+02  0.26155847024E+02  0.00000000000E+00 0.  1.
</event>
<event>
 8    1  0.5331800E-011  0.9118800E+02  0.7816164E-02  0.1184000E+00
        -11   -1    0    0    0    0  0.00000000000E+00  0.00000000000E+00  0.45593999997E+02  0.45594000000E+02  0.51100000000E-03 0. -1.
         11   -1    0    0    0    0 -0.00000000000E+00 -0.00000000000E+00 -0.45593999997E+02  0.45594000000E+02  0.51100000000E-03 0.  1.
         23    2    1    2    0    0  0.35527136788E-14 -0.35527136788E-14 -0.35527136788E-14  0.91188000000E+02  0.91188000000E+02 0.  0.
    9900012    2    3    3    0    0 -0.27725522015E+02  0.17130668870E+02  0.28661102331E+02  0.47787272198E+02  0.20000005260E+02 0.  0.
        -12    1    3    3    0    0  0.27725522015E+02 -0.17130668870E+02 -0.28661102331E+02  0.43400727802E+02  0.00000000000E+00 0.  1.
         11    1    4    4    0    0 -0.93676384635E+01  0.55103016391E+01  0.14292180730E+01  0.10961694171E+02  0.51100000000E-03 0. -1.
        -11    1    4    4    0    0 -0.73184731520E+01  0.83370859871E+01  0.58558562642E+01  0.12544245887E+02  0.51100000000E-03 0.  1.
         12    1    4    4    0    0 -0.11039410399E+02  0.32832812438E+01  0.21376027994E+02  0.24281332140E+02  0.00000000000E+00 0. -1.
</event>
<event>
 8    1  0.5331800E-011  0.9118800E+02  0.7816164E-02  0.1184000E+00
        -11   -1    0    0    0    0  0.00000000000E+00  0.00000000000E+00  0.45593999997E+02  0.45594000000E+02  0.51100000000E-03 0. -1.
         11   -1    0    0    0    0 -0.00000000000E+00 -0.00000000000E+00 -0.45593999997E+02  0.45594000000E+02  0.51100000000E-03 0.  1.
         23    2    1    2    0    0  0.00000000000E+00  0.00000000000E+00  0.00000000000E+00  0.91188000000E+02  0.91188000000E+02 0.  0.
    9900012    2    3    3    0    0  0.40553185160E+02 -0.10963962874E+02  0.10901968339E+02  0.47787283161E+02  0.20000055242E+02 0.  0.
        -12    1    3    3    0    0 -0.40553185160E+02  0.10963962874E+02 -0.10901968339E+02  0.43400716839E+02  0.00000000000E+00 0.  1.
         11    1    4    4    0    0  0.29785517105E+02 -0.37821068941E+01  0.73173784805E+01  0.30903485076E+02  0.51100000000E-03 0. -1.
        -11    1    4    4    0    0  0.12656687998E+02 -0.72905911658E+01  0.32120987692E+01  0.14955335148E+02  0.51100000000E-03 0.  1.
         12    1    4    4    0    0 -0.18890199430E+01  0.10873518564E+00  0.37249108882E+00  0.19284629364E+01  0.00000000000E+00 0. -1.
</event>
<event>
 8    1  0.5331800E-011  0.9118800E+02  0.7816164E-02  0.1184000E+00
        -11   -1    0    0    0    0  0.00000000000E+00  0.00000000000E+00  0.45593999997E+02  0.45594000000E+02  0.51100000000E-03 0. -1.
         11   -1    0    0    0    0 -0.00000000000E+00 -0.00000000000E+00 -0.45593999997E+02  0.45594000000E+02  0.51100000000E-03 0.  1.
         23    2    1    2    0    0  0.35527136788E-14  0.17763568394E-14  0.00000000000E+00  0.91188000000E+02  0.91188000000E+02 0.  0.
    9900012    2    3    3    0    0 -0.17497312884E+02 -0.15944647126E+02  0.36376300966E+02  0.47787274175E+02  0.20000014275E+02 0.  0.
        -12    1    3    3    0    0  0.17497312884E+02  0.15944647126E+02 -0.36376300966E+02  0.43400725825E+02  0.00000000000E+00 0.  1.
         11    1    4    4    0    0 -0.27911149815E+01 -0.13130443499E+02  0.12653910887E+02  0.18447773045E+02  0.51100000000E-03 0. -1.
        -11    1    4    4    0    0 -0.31055760003E+01  0.24670550876E+01  0.28538892355E+01  0.48862712910E+01  0.51100000000E-03 0.  1.
         12    1    4    4    0    0 -0.11600621902E+02 -0.52812587150E+01  0.20868500843E+02  0.24453229839E+02  0.00000000000E+00 0. -1.
</event>
<event>
 8    1  0.5331800E-011  0.9118800E+02  0.7816164E-02  0.1184000E+00
        -11   -1    0    0    0    0  0.00000000000E+00  0.00000000000E+00  0.45593999997E+02  0.45594000000E+02  0.51100000000E-03 0. -1.
         11   -1    0    0    0    0 -0.00000000000E+00 -0.00000000000E+00 -0.45593999997E+02  0.45594000000E+02  0.51100000000E-03 0.  1.
         23    2    1    2    0    0  0.44408920985E-15  0.00000000000E+00  0.35527136788E-14  0.91188000000E+02  0.91188000000E+02 0.  0.
    9900012    2    3    3    0    0  0.39133965292E+01 -0.39336774569E+02 -0.17914420891E+02  0.47787274410E+02  0.20000015344E+02 0.  0.
        -12    1    3    3    0    0 -0.39133965292E+01  0.39336774569E+02  0.17914420891E+02  0.43400725590E+02  0.00000000000E+00 0.  1.
         11    1    4    4    0    0  0.13593475304E+01 -0.68516576057E+01 -0.52361634233E+00  0.70047992112E+01  0.51100000000E-03 0. -1.
        -11    1    4    4    0    0 -0.87701753271E-01 -0.54849586704E+01  0.35303046663E+01  0.65234587844E+01  0.51100000000E-03 0.  1.
        -12    1    4    4    0    0  0.26417507521E+01 -0.27000158293E+02 -0.20921109215E+02  0.34259016414E+02  0.00000000000E+00 0.  1.
</event>
<event>
 8    1  0.5331800E-011  0.9118800E+02  0.7816164E-02  0.1184000E+00
        -11   -1    0    0    0    0  0.00000000000E+00  0.00000000000E+00  0.45593999997E+02  0.45594000000E+02  0.51100000000E-03 0. -1.
         11   -1    0    0    0    0 -0.00000000000E+00 -0.00000000000E+00 -0.45593999997E+02  0.45594000000E+02  0.51100000000E-03 0.  1.
         23    2    1    2    0    0  0.00000000000E+00  0.00000000000E+00  0.00000000000E+00  0.91188000000E+02  0.91188000000E+02 0.  0.
    9900012    2    3    3    0    0  0.11349647987E+01 -0.23695453706E+02 -0.36343645356E+02  0.47787271560E+02  0.20000002349E+02 0.  0.
         12    1    3    3    0    0 -0.11349647987E+01  0.23695453706E+02  0.36343645356E+02  0.43400728440E+02  0.00000000000E+00 0. -1.
         11    1    4    4    0    0  0.19228016937E+01 -0.97605895072E+01 -0.84358655251E+01  0.13043393013E+02  0.51100000000E-03 0. -1.
        -11    1    4    4    0    0 -0.49596666267E+01 -0.35978391335E+01 -0.18475909270E+01  0.63997134289E+01  0.51100000000E-03 0.  1.
        -12    1    4    4    0    0  0.41718297316E+01 -0.10337025065E+02 -0.26060188904E+02  0.28344165117E+02  0.00000000000E+00 0.  1.
</event>
<event>
 8    1  0.5331800E-011  0.9118800E+02  0.7816164E-02  0.1184000E+00
        -11   -1    0    0    0    0  0.00000000000E+00  0.00000000000E+00  0.45593999997E+02  0.45594000000E+02  0.51100000000E-03 0. -1.
         11   -1    0    0    0    0 -0.00000000000E+00 -0.00000000000E+00 -0.45593999997E+02  0.45594000000E+02  0.51100000000E-03 0.  1.
         23    2    1    2    0    0  0.00000000000E+00  0.00000000000E+00  0.00000000000E+00  0.91188000000E+02  0.91188000000E+02 0.  0.
    9900012    2    3    3    0    0  0.16223533142E+02  0.36116925479E+02 -0.17776044673E+02  0.47787273072E+02  0.20000009244E+02 0.  0.
         12    1    3    3    0    0 -0.16223533142E+02 -0.36116925479E+02  0.17776044673E+02  0.43400726928E+02  0.00000000000E+00 0. -1.
         11    1    4    4    0    0  0.14546605983E+02  0.18166307975E+02 -0.67920104707E+01  0.24243553732E+02  0.51100000000E-03 0. -1.
        -11    1    4    4    0    0 -0.14333066716E+01  0.13131102965E+02 -0.27234189530E+01  0.13486928640E+02  0.51100000000E-03 0.  1.
         12    1    4    4    0    0  0.31102338300E+01  0.48195145387E+01 -0.82606152495E+01  0.10056790699E+02  0.00000000000E+00 0. -1.
</event>
<event>
 8    1  0.5331800E-011  0.9118800E+02  0.7816164E-02  0.1184000E+00
        -11   -1    0    0    0    0  0.00000000000E+00  0.00000000000E+00  0.45593999997E+02  0.45594000000E+02  0.51100000000E-03 0. -1.
         11   -1    0    0    0    0 -0.00000000000E+00 -0.00000000000E+00 -0.45593999997E+02  0.45594000000E+02  0.51100000000E-03 0.  1.
         23    2    1    2    0    0  0.00000000000E+00  0.00000000000E+00  0.71054273576E-14  0.91188000000E+02  0.91188000000E+02 0.  0.
    9900012    2    3    3    0    0 -0.42529064895E+01  0.27208351480E+02 -0.33544615736E+02  0.47787275942E+02  0.20000022331E+02 0.  0.
         12    1    3    3    0    0  0.42529064895E+01 -0.27208351480E+02  0.33544615736E+02  0.43400724058E+02  0.00000000000E+00 0. -1.
         11    1    4    4    0    0  0.16572791672E+00  0.33634590209E+00  0.27089577747E+00  0.46257874097E+00  0.51100000000E-03 0. -1.
        -11    1    4    4    0    0  0.20488257529E+01 -0.22009043322E+01 -0.14418940705E+01  0.33347751974E+01  0.51100000000E-03 0.  1.
        -12    1    4    4    0    0 -0.64674601591E+01  0.29072909911E+02 -0.32373617443E+02  0.43989922004E+02  0.00000000000E+00 0.  1.
</event>
<event>
 8    1  0.5331800E-011  0.9118800E+02  0.7816164E-02  0.1184000E+00
        -11   -1    0    0    0    0  0.00000000000E+00  0.00000000000E+00  0.45593999997E+02  0.45594000000E+02  0.51100000000E-03 0. -1.
         11   -1    0    0    0    0 -0.00000000000E+00 -0.00000000000E+00 -0.45593999997E+02  0.45594000000E+02  0.51100000000E-03 0.  1.
         23    2    1    2    0    0  0.00000000000E+00  0.00000000000E+00  0.00000000000E+00  0.91188000000E+02  0.91188000000E+02 0.  0.
    9900012    2    3    3    0    0  0.20883525239E+02  0.16791184057E+02 -0.34140313181E+02  0.47787234194E+02  0.19999831983E+02 0.  0.
         12    1    3    3    0    0 -0.20883525239E+02 -0.16791184057E+02  0.34140313181E+02  0.43400765806E+02  0.00000000000E+00 0. -1.
         11    1    4    4    0    0  0.86050952353E+01 -0.29629452513E+01 -0.12373934559E+02  0.15360369960E+02  0.51100000000E-03 0. -1.
        -11    1    4    4    0    0  0.44561424823E+01  0.79235826067E+01 -0.12610236105E+02  0.15545366578E+02  0.51100000000E-03 0.  1.
         12    1    4    4    0    0  0.78222875214E+01  0.11830546702E+02 -0.91561425165E+01  0.16881497656E+02  0.00000000000E+00 0. -1.
</event>
<event>
 8    1  0.5331800E-011  0.9118800E+02  0.7816164E-02  0.1184000E+00
        -11   -1    0    0    0    0  0.00000000000E+00  0.00000000000E+00  0.45593999997E+02  0.45594000000E+02  0.51100000000E-03 0. -1.
         11   -1    0    0    0    0 -0.00000000000E+00 -0.00000000000E+00 -0.45593999997E+02  0.45594000000E+02  0.51100000000E-03 0.  1.
         23    2    1    2    0    0  0.00000000000E+00  0.17763568394E-14 -0.71054273576E-14  0.91188000000E+02  0.91188000000E+02 0.  0.
    9900012    2    3    3    0    0 -0.50298385320E+01  0.12487051410E+02 -0.41260118789E+02  0.47787272689E+02  0.20000007499E+02 0.  0.
         12    1    3    3    0    0  0.50298385320E+01 -0.12487051410E+02  0.41260118789E+02  0.43400727311E+02  0.00000000000E+00 0. -1.
         11    1    4    4    0    0 -0.72832612556E+01 -0.35376353129E+00 -0.13332912343E+02  0.15196631040E+02  0.51100000000E-03 0. -1.
        -11    1    4    4    0    0 -0.11751400778E+01  0.13218363997E+02 -0.20802361914E+02  0.24674771781E+02  0.51100000000E-03 0.  1.
         12    1    4    4    0    0  0.34285628014E+01 -0.37754905515E+00 -0.71248445323E+01  0.79158698689E+01  0.00000000000E+00 0. -1.
</event>
<event>
 8    1  0.5331800E-011  0.9118800E+02  0.7816164E-02  0.1184000E+00
        -11   -1    0    0    0    0  0.00000000000E+00  0.00000000000E+00  0.45593999997E+02  0.45594000000E+02  0.51100000000E-03 0. -1.
         11   -1    0    0    0    0 -0.00000000000E+00 -0.00000000000E+00 -0.45593999997E+02  0.45594000000E+02  0.51100000000E-03 0.  1.
         23    2    1    2    0    0  0.00000000000E+00  0.00000000000E+00 -0.35527136788E-14  0.91188000000E+02  0.91188000000E+02 0.  0.
    9900012    2    3    3    0    0  0.24786572961E+02  0.26976188108E+02  0.23270875693E+02  0.47787279044E+02  0.20000036474E+02 0.  0.
        -12    1    3    3    0    0 -0.24786572961E+02 -0.26976188108E+02 -0.23270875693E+02  0.43400720956E+02  0.00000000000E+00 0.  1.
         11    1    4    4    0    0  0.20226247062E+02  0.11462893544E+02  0.83001519585E+01  0.24685856707E+02  0.51100000000E-03 0. -1.
        -11    1    4    4    0    0 -0.85618967843E+00  0.92704575620E+01  0.73919262436E+01  0.11887599338E+02  0.51100000000E-03 0.  1.
        -12    1    4    4    0    0  0.54165155777E+01  0.62428370021E+01  0.75787974907E+01  0.11213822999E+02  0.00000000000E+00 0.  1.
</event>
<event>
 8    1  0.5331800E-011  0.9118800E+02  0.7816164E-02  0.1184000E+00
        -11   -1    0    0    0    0  0.00000000000E+00  0.00000000000E+00  0.45593999997E+02  0.45594000000E+02  0.51100000000E-03 0.  1.
         11   -1    0    0    0    0 -0.00000000000E+00 -0.00000000000E+00 -0.45593999997E+02  0.45594000000E+02  0.51100000000E-03 0. -1.
         23    2    1    2    0    0 -0.71054273576E-14  0.00000000000E+00 -0.17763568394E-14  0.91188000000E+02  0.91188000000E+02 0.  0.
    9900012    2    3    3    0    0 -0.42269661311E+02  0.34245451385E+01 -0.92288541326E+01  0.47787268147E+02  0.19999986789E+02 0.  0.
        -12    1    3    3    0    0  0.42269661311E+02 -0.34245451385E+01  0.92288541326E+01  0.43400731853E+02  0.00000000000E+00 0.  1.
         11    1    4    4    0    0 -0.62687889224E+01  0.43548516650E+01 -0.65563972745E+00  0.76610907377E+01  0.51100000000E-03 0. -1.
        -11    1    4    4    0    0 -0.31913790839E+02  0.33133461068E+01 -0.10760303578E+02  0.33841578590E+02  0.51100000000E-03 0.  1.
        -12    1    4    4    0    0 -0.40870815502E+01 -0.42436526333E+01  0.21870891727E+01  0.62845988193E+01  0.00000000000E+00 0.  1.
</event>
<event>
 8    1  0.5331800E-011  0.9118800E+02  0.7816164E-02  0.1184000E+00
        -11   -1    0    0    0    0  0.00000000000E+00  0.00000000000E+00  0.45593999997E+02  0.45594000000E+02  0.51100000000E-03 0. -1.
         11   -1    0    0    0    0 -0.00000000000E+00 -0.00000000000E+00 -0.45593999997E+02  0.45594000000E+02  0.51100000000E-03 0.  1.
         23    2    1    2    0    0  0.00000000000E+00  0.35527136788E-14  0.71054273576E-14  0.91188000000E+02  0.91188000000E+02 0.  0.
    9900012    2    3    3    0    0 -0.79488912514E+01  0.25002297538E+02  0.34573457576E+02  0.47787265870E+02  0.19999976408E+02 0.  0.
        -12    1    3    3    0    0  0.79488912514E+01 -0.25002297538E+02 -0.34573457576E+02  0.43400734130E+02  0.00000000000E+00 0.  1.
         11    1    4    4    0    0 -0.74571265816E+01  0.12663919038E+02  0.13802983053E+02  0.20161992057E+02  0.51100000000E-03 0. -1.
        -11    1    4    4    0    0  0.27839036448E+01 -0.58812037095E+00 -0.11276408093E+00  0.28475816183E+01  0.51100000000E-03 0.  1.
        -12    1    4    4    0    0 -0.32756683145E+01  0.12926498870E+02  0.20883238603E+02  0.24777692195E+02  0.00000000000E+00 0.  1.
</event>
<event>
 8    1  0.5331800E-011  0.9118800E+02  0.7816164E-02  0.1184000E+00
        -11   -1    0    0    0    0  0.00000000000E+00  0.00000000000E+00  0.45593999997E+02  0.45594000000E+02  0.51100000000E-03 0. -1.
         11   -1    0    0    0    0 -0.00000000000E+00 -0.00000000000E+00 -0.45593999997E+02  0.45594000000E+02  0.51100000000E-03 0.  1.
         23    2    1    2    0    0 -0.35527136788E-14  0.00000000000E+00  0.00000000000E+00  0.91188000000E+02  0.91188000000E+02 0.  0.
    9900012    2    3    3    0    0  0.25930467028E+02 -0.24141212137E+02 -0.25068626018E+02  0.47787271272E+02  0.20000001036E+02 0.  0.
         12    1    3    3    0    0 -0.25930467028E+02  0.24141212137E+02  0.25068626018E+02  0.43400728728E+02  0.00000000000E+00 0. -1.
         11    1    4    4    0    0  0.19981211133E+02 -0.74565951520E+01 -0.83514544239E+01  0.22904069526E+02  0.51100000000E-03 0. -1.
        -11    1    4    4    0    0  0.60208039335E+01 -0.14576103422E+02 -0.12341991761E+02  0.20025923995E+02  0.51100000000E-03 0.  1.
         12    1    4    4    0    0 -0.71548038773E-01 -0.21085135622E+01 -0.43751798340E+01  0.48572777503E+01  0.00000000000E+00 0. -1.
</event>
<event>
 8    1  0.5331800E-011  0.9118800E+02  0.7816164E-02  0.1184000E+00
        -11   -1    0    0    0    0  0.00000000000E+00  0.00000000000E+00  0.45593999997E+02  0.45594000000E+02  0.51100000000E-03 0. -1.
         11   -1    0    0    0    0 -0.00000000000E+00 -0.00000000000E+00 -0.45593999997E+02  0.45594000000E+02  0.51100000000E-03 0.  1.
         23    2    1    2    0    0  0.35527136788E-14  0.71054273576E-14  0.35527136788E-14  0.91188000000E+02  0.91188000000E+02 0.  0.
    9900012    2    3    3    0    0  0.25802425420E+02  0.29317728391E+02  0.18929576056E+02  0.47787271835E+02  0.20000003606E+02 0.  0.
        -12    1    3    3    0    0 -0.25802425420E+02 -0.29317728391E+02 -0.18929576056E+02  0.43400728165E+02  0.00000000000E+00 0.  1.
         11    1    4    4    0    0 -0.14286973091E+01 -0.83536101634E+00  0.25397631962E+01  0.30314025438E+01  0.51100000000E-03 0. -1.
        -11    1    4    4    0    0  0.19368041890E+02  0.18588949054E+02  0.64797635947E+01  0.27616252643E+02  0.51100000000E-03 0.  1.
         12    1    4    4    0    0  0.78630808396E+01  0.11564140354E+02  0.99100492648E+01  0.17139616648E+02  0.00000000000E+00 0. -1.
</event>
<event>
 8    1  0.5331800E-011  0.9118800E+02  0.7816164E-02  0.1184000E+00
        -11   -1    0    0    0    0  0.00000000000E+00  0.00000000000E+00  0.45593999997E+02  0.45594000000E+02  0.51100000000E-03 0. -1.
         11   -1    0    0    0    0 -0.00000000000E+00 -0.00000000000E+00 -0.45593999997E+02  0.45594000000E+02  0.51100000000E-03 0.  1.
         23    2    1    2    0    0  0.00000000000E+00  0.00000000000E+00  0.71054273576E-14  0.91188000000E+02  0.91188000000E+02 0.  0.
    9900012    2    3    3    0    0 -0.89745410046E+01 -0.66529142028E+01  0.41938285216E+02  0.47787269355E+02  0.19999992299E+02 0.  0.
        -12    1    3    3    0    0  0.89745410046E+01  0.66529142028E+01 -0.41938285216E+02  0.43400730645E+02  0.00000000000E+00 0.  1.
         11    1    4    4    0    0 -0.35611461135E+01  0.46702072816E+01  0.55267176500E+01  0.80645648326E+01  0.51100000000E-03 0. -1.
        -11    1    4    4    0    0 -0.34831510351E+01 -0.12148804383E+02  0.34949308129E+02  0.37164229146E+02  0.51100000000E-03 0.  1.
        -12    1    4    4    0    0 -0.19302438559E+01  0.82568289867E+00  0.14622594372E+01  0.25584753769E+01  0.00000000000E+00 0.  1.
</event>
<event>
 8    1  0.5331800E-011  0.9118800E+02  0.7816164E-02  0.1184000E+00
        -11   -1    0    0    0    0  0.00000000000E+00  0.00000000000E+00  0.45593999997E+02  0.45594000000E+02  0.51100000000E-03 0. -1.
         11   -1    0    0    0    0 -0.00000000000E+00 -0.00000000000E+00 -0.45593999997E+02  0.45594000000E+02  0.51100000000E-03 0.  1.
         23    2    1    2    0    0  0.00000000000E+00  0.00000000000E+00  0.17763568394E-14  0.91188000000E+02  0.91188000000E+02 0.  0.
    9900012    2    3    3    0    0 -0.38304558379E+02  0.13540999922E+02  0.15265162156E+02  0.47787273656E+02  0.20000011909E+02 0.  0.
        -12    1    3    3    0    0  0.38304558379E+02 -0.13540999922E+02 -0.15265162156E+02  0.43400726344E+02  0.00000000000E+00 0.  1.
         11    1    4    4    0    0 -0.15390986478E+02  0.11181321520E+02  0.16227219317E+01  0.19092868889E+02  0.51100000000E-03 0. -1.
        -11    1    4    4    0    0 -0.42404703194E+01 -0.25789134187E+01  0.63246820462E+01  0.80395264909E+01  0.51100000000E-03 0.  1.
         12    1    4    4    0    0 -0.18673101581E+02  0.49385918213E+01  0.73177581783E+01  0.20654878276E+02  0.00000000000E+00 0. -1.
</event>
<event>
 8    1  0.5331800E-011  0.9118800E+02  0.7816164E-02  0.1184000E+00
        -11   -1    0    0    0    0  0.00000000000E+00  0.00000000000E+00  0.45593999997E+02  0.45594000000E+02  0.51100000000E-03 0. -1.
         11   -1    0    0    0    0 -0.00000000000E+00 -0.00000000000E+00 -0.45593999997E+02  0.45594000000E+02  0.51100000000E-03 0.  1.
         23    2    1    2    0    0  0.00000000000E+00 -0.88817841970E-15  0.71054273576E-14  0.91188000000E+02  0.91188000000E+02 0.  0.
    9900012    2    3    3    0    0  0.21858037658E+01  0.53617722856E+01 -0.43012752720E+02  0.47787271472E+02  0.20000001951E+02 0.  0.
         12    1    3    3    0    0 -0.21858037658E+01 -0.53617722856E+01  0.43012752720E+02  0.43400728528E+02  0.00000000000E+00 0. -1.
         11    1    4    4    0    0  0.63092706108E+01 -0.31488317950E+01 -0.18027669296E+02  0.19357657343E+02  0.51100000000E-03 0. -1.
        -11    1    4    4    0    0 -0.47813963345E+01  0.36692560578E+01 -0.21750468262E+02  0.22570070022E+02  0.51100000000E-03 0.  1.
         12    1    4    4    0    0  0.65792948953E+00  0.48413480228E+01 -0.32346151622E+01  0.58595441067E+01  0.00000000000E+00 0. -1.
</event>
<event>
 8    1  0.5331800E-011  0.9118800E+02  0.7816164E-02  0.1184000E+00
        -11   -1    0    0    0    0  0.00000000000E+00  0.00000000000E+00  0.45593999997E+02  0.45594000000E+02  0.51100000000E-03 0. -1.
         11   -1    0    0    0    0 -0.00000000000E+00 -0.00000000000E+00 -0.45593999997E+02  0.45594000000E+02  0.51100000000E-03 0.  1.
         23    2    1    2    0    0  0.35527136788E-14  0.00000000000E+00  0.00000000000E+00  0.91188000000E+02  0.91188000000E+02 0.  0.
    9900012    2    3    3    0    0 -0.26816323965E+02  0.69543021744E+01 -0.33408769393E+02  0.47787269337E+02  0.19999992214E+02 0.  0.
         12    1    3    3    0    0  0.26816323965E+02 -0.69543021744E+01  0.33408769393E+02  0.43400730663E+02  0.00000000000E+00 0. -1.
         11    1    4    4    0    0  0.11779993903E+01  0.44758647623E+00 -0.10952824814E+02  0.11025079950E+02  0.51100000000E-03 0. -1.
        -11    1    4    4    0    0 -0.19388299670E+02  0.38835241847E+01 -0.12749440979E+02  0.23527349399E+02  0.51100000000E-03 0.  1.
         12    1    4    4    0    0 -0.86060236852E+01  0.26231915135E+01 -0.97065035993E+01  0.13234839988E+02  0.00000000000E+00 0. -1.
</event>
<event>
 8    1  0.5331800E-011  0.9118800E+02  0.7816164E-02  0.1184000E+00
        -11   -1    0    0    0    0  0.00000000000E+00  0.00000000000E+00  0.45593999997E+02  0.45594000000E+02  0.51100000000E-03 0. -1.
         11   -1    0    0    0    0 -0.00000000000E+00 -0.00000000000E+00 -0.45593999997E+02  0.45594000000E+02  0.51100000000E-03 0.  1.
         23    2    1    2    0    0  0.00000000000E+00  0.00000000000E+00  0.00000000000E+00  0.91188000000E+02  0.91188000000E+02 0.  0.
    9900012    2    3    3    0    0 -0.19591169591E+02 -0.90958289885E+01 -0.37644037698E+02  0.47787290269E+02  0.20000087654E+02 0.  0.
         12    1    3    3    0    0  0.19591169591E+02  0.90958289885E+01  0.37644037698E+02  0.43400709731E+02  0.00000000000E+00 0. -1.
         11    1    4    4    0    0 -0.15773707829E+01 -0.56311311733E+01 -0.48851123625E+00  0.58682519004E+01  0.51100000000E-03 0. -1.
        -11    1    4    4    0    0 -0.12216559199E+02 -0.33753486969E+01 -0.30855407412E+02  0.33357060187E+02  0.51100000000E-03 0.  1.
         12    1    4    4    0    0 -0.57972396094E+01 -0.89349118256E-01 -0.63001190492E+01  0.85619781819E+01  0.00000000000E+00 0. -1.
</event>
<event>
 8    1  0.5331800E-011  0.9118800E+02  0.7816164E-02  0.1184000E+00
        -11   -1    0    0    0    0  0.00000000000E+00  0.00000000000E+00  0.45593999997E+02  0.45594000000E+02  0.51100000000E-03 0. -1.
         11   -1    0    0    0    0 -0.00000000000E+00 -0.00000000000E+00 -0.45593999997E+02  0.45594000000E+02  0.51100000000E-03 0.  1.
         23    2    1    2    0    0  0.22204460493E-15 -0.71054273576E-14  0.00000000000E+00  0.91188000000E+02  0.91188000000E+02 0.  0.
    9900012    2    3    3    0    0 -0.17762334711E+01 -0.35149964578E+02  0.25395827273E+02  0.47787273531E+02  0.20000011338E+02 0.  0.
        -12    1    3    3    0    0  0.17762334711E+01  0.35149964578E+02 -0.25395827273E+02  0.43400726469E+02  0.00000000000E+00 0.  1.
         11    1    4    4    0    0  0.13183521440E+01 -0.23193498075E+02  0.12095543612E+02  0.26191192811E+02  0.51100000000E-03 0. -1.
        -11    1    4    4    0    0 -0.52012522388E+01 -0.55522489670E+01  0.12730050421E+02  0.14830194787E+02  0.51100000000E-03 0.  1.
        -12    1    4    4    0    0  0.21066666237E+01 -0.64042175354E+01  0.57023323909E+00  0.67658859325E+01  0.00000000000E+00 0.  1.
</event>
<event>
 8    1  0.5331800E-011  0.9118800E+02  0.7816164E-02  0.1184000E+00
        -11   -1    0    0    0    0  0.00000000000E+00  0.00000000000E+00  0.45593999997E+02  0.45594000000E+02  0.51100000000E-03 0. -1.
         11   -1    0    0    0    0 -0.00000000000E+00 -0.00000000000E+00 -0.45593999997E+02  0.45594000000E+02  0.51100000000E-03 0.  1.
         23    2    1    2    0    0 -0.71054273576E-14  0.35527136788E-14 -0.35527136788E-14  0.91188000000E+02  0.91188000000E+02 0.  0.
    9900012    2    3    3    0    0  0.38873114121E+02 -0.11127992671E+02  0.15769334492E+02  0.47787272671E+02  0.20000007416E+02 0.  0.
        -12    1    3    3    0    0 -0.38873114121E+02  0.11127992671E+02 -0.15769334492E+02  0.43400727329E+02  0.00000000000E+00 0.  1.
         11    1    4    4    0    0  0.87898518308E+00 -0.31349581073E+01  0.43395820882E+01  0.54251774393E+01  0.51100000000E-03 0.  1.
        -11    1    4    4    0    0  0.20335445212E+02 -0.49212826908E+01 -0.32957883306E+00  0.20925056219E+02  0.51100000000E-03 0. -1.
         12    1    4    4    0    0  0.17658683727E+02 -0.30717518727E+01  0.11759331237E+02  0.21437039013E+02  0.00000000000E+00 0. -1.
</event>
<event>
 8    1  0.5331800E-011  0.9118800E+02  0.7816164E-02  0.1184000E+00
        -11   -1    0    0    0    0  0.00000000000E+00  0.00000000000E+00  0.45593999997E+02  0.45594000000E+02  0.51100000000E-03 0. -1.
         11   -1    0    0    0    0 -0.00000000000E+00 -0.00000000000E+00 -0.45593999997E+02  0.45594000000E+02  0.51100000000E-03 0.  1.
         23    2    1    2    0    0 -0.13322676296E-14  0.88817841970E-15  0.00000000000E+00  0.91188000000E+02  0.91188000000E+02 0.  0.
    9900012    2    3    3    0    0 -0.29225359466E+01  0.53312097387E+01 -0.42972784453E+02  0.47787271696E+02  0.20000002971E+02 0.  0.
         12    1    3    3    0    0  0.29225359466E+01 -0.53312097387E+01  0.42972784453E+02  0.43400728304E+02  0.00000000000E+00 0. -1.
         11    1    4    4    0    0  0.73181220722E+01  0.48266088567E+01 -0.18898783659E+02  0.20833028771E+02  0.51100000000E-03 0. -1.
        -11    1    4    4    0    0 -0.62234890820E+01 -0.19321563266E+01 -0.18767311773E+02  0.19866480209E+02  0.51100000000E-03 0.  1.
         12    1    4    4    0    0 -0.40171689368E+01  0.24367572086E+01 -0.53066890207E+01  0.70877627163E+01  0.00000000000E+00 0. -1.
</event>
<event>
 8    1  0.5331800E-011  0.9118800E+02  0.7816164E-02  0.1184000E+00
        -11   -1    0    0    0    0  0.00000000000E+00  0.00000000000E+00  0.45593999997E+02  0.45594000000E+02  0.51100000000E-03 0. -1.
         11   -1    0    0    0    0 -0.00000000000E+00 -0.00000000000E+00 -0.45593999997E+02  0.45594000000E+02  0.51100000000E-03 0.  1.
         23    2    1    2    0    0 -0.88817841970E-15  0.00000000000E+00  0.00000000000E+00  0.91188000000E+02  0.91188000000E+02 0.  0.
    9900012    2    3    3    0    0  0.74140159128E+01 -0.38710625108E+02  0.18169830554E+02  0.47787275691E+02  0.20000021185E+02 0.  0.
        -12    1    3    3    0    0 -0.74140159128E+01  0.38710625108E+02 -0.18169830554E+02  0.43400724309E+02  0.00000000000E+00 0.  1.
         11    1    4    4    0    0  0.36930221685E+01 -0.32471443822E+02  0.98575968432E+01  0.34135103521E+02  0.51100000000E-03 0. -1.
        -11    1    4    4    0    0  0.42432861265E+00 -0.16840223935E+01  0.78168597736E+01  0.80074517279E+01  0.51100000000E-03 0.  1.
         12    1    4    4    0    0  0.32966651316E+01 -0.45551588930E+01  0.49537393680E+00  0.56447204420E+01  0.00000000000E+00 0. -1.
</event>
<event>
 8    1  0.5331800E-011  0.9118800E+02  0.7816164E-02  0.1184000E+00
        -11   -1    0    0    0    0  0.00000000000E+00  0.00000000000E+00  0.45593999997E+02  0.45594000000E+02  0.51100000000E-03 0. -1.
         11   -1    0    0    0    0 -0.00000000000E+00 -0.00000000000E+00 -0.45593999997E+02  0.45594000000E+02  0.51100000000E-03 0.  1.
         23    2    1    2    0    0 -0.35527136788E-14  0.00000000000E+00  0.00000000000E+00  0.91188000000E+02  0.91188000000E+02 0.  0.
    9900012    2    3    3    0    0 -0.20938180412E+02  0.84759545270E+01  0.37059069003E+02  0.47787264989E+02  0.19999972392E+02 0.  0.
        -12    1    3    3    0    0  0.20938180412E+02 -0.84759545270E+01 -0.37059069003E+02  0.43400735011E+02  0.00000000000E+00 0.  1.
         11    1    4    4    0    0 -0.86037449260E+01 -0.40950814959E+01  0.10014687425E+02  0.13823461350E+02  0.51100000000E-03 0.  1.
        -11    1    4    4    0    0 -0.13947628416E+02  0.11606194692E+02  0.21632762648E+02  0.28235022821E+02  0.51100000000E-03 0. -1.
        -12    1    4    4    0    0  0.16131929301E+01  0.96484133081E+00  0.54116189297E+01  0.57287808183E+01  0.00000000000E+00 0.  1.
</event>
<event>
 8    1  0.5331800E-011  0.9118800E+02  0.7816164E-02  0.1184000E+00
        -11   -1    0    0    0    0  0.00000000000E+00  0.00000000000E+00  0.45593999997E+02  0.45594000000E+02  0.51100000000E-03 0. -1.
         11   -1    0    0    0    0 -0.00000000000E+00 -0.00000000000E+00 -0.45593999997E+02  0.45594000000E+02  0.51100000000E-03 0.  1.
         23    2    1    2    0    0  0.00000000000E+00  0.71054273576E-14  0.00000000000E+00  0.91188000000E+02  0.91188000000E+02 0.  0.
    9900012    2    3    3    0    0  0.43951180136E+01  0.38407597803E+02 -0.19727218080E+02  0.47787265392E+02  0.19999974229E+02 0.  0.
         12    1    3    3    0    0 -0.43951180136E+01 -0.38407597803E+02  0.19727218080E+02  0.43400734608E+02  0.00000000000E+00 0. -1.
         11    1    4    4    0    0  0.37252448669E+01  0.25599176500E+02 -0.24984009443E+01  0.25989176484E+02  0.51100000000E-03 0. -1.
        -11    1    4    4    0    0  0.15950279057E+01  0.12056397958E+02 -0.15717465341E+02  0.19873086392E+02  0.51100000000E-03 0.  1.
         12    1    4    4    0    0 -0.92515475907E+00  0.75202334527E+00 -0.15113517943E+01  0.19250025159E+01  0.00000000000E+00 0. -1.
</event>
<event>
 8    1  0.5331800E-011  0.9118800E+02  0.7816164E-02  0.1184000E+00
        -11   -1    0    0    0    0  0.00000000000E+00  0.00000000000E+00  0.45593999997E+02  0.45594000000E+02  0.51100000000E-03 0. -1.
         11   -1    0    0    0    0 -0.00000000000E+00 -0.00000000000E+00 -0.45593999997E+02  0.45594000000E+02  0.51100000000E-03 0.  1.
         23    2    1    2    0    0  0.00000000000E+00  0.00000000000E+00  0.00000000000E+00  0.91188000000E+02  0.91188000000E+02 0.  0.
    9900012    2    3    3    0    0  0.21030777089E+02 -0.26027246002E+02  0.27638963456E+02  0.47787269357E+02  0.19999992307E+02 0.  0.
        -12    1    3    3    0    0 -0.21030777089E+02  0.26027246002E+02 -0.27638963456E+02  0.43400730643E+02  0.00000000000E+00 0.  1.
         11    1    4    4    0    0  0.12984007182E+02 -0.28132872105E+01  0.14028860342E+02  0.19321178799E+02  0.51100000000E-03 0. -1.
        -11    1    4    4    0    0  0.35831445917E+01 -0.13420374965E+02  0.99936179654E+01  0.17111919520E+02  0.51100000000E-03 0.  1.
         12    1    4    4    0    0  0.44636253157E+01 -0.97935838265E+01  0.36164851480E+01  0.11354171038E+02  0.00000000000E+00 0. -1.
</event>
<event>
 8    1  0.5331800E-011  0.9118800E+02  0.7816164E-02  0.1184000E+00
        -11   -1    0    0    0    0  0.00000000000E+00  0.00000000000E+00  0.45593999997E+02  0.45594000000E+02  0.51100000000E-03 0. -1.
         11   -1    0    0    0    0 -0.00000000000E+00 -0.00000000000E+00 -0.45593999997E+02  0.45594000000E+02  0.51100000000E-03 0.  1.
         23    2    1    2    0    0  0.00000000000E+00 -0.35527136788E-14  0.00000000000E+00  0.91188000000E+02  0.91188000000E+02 0.  0.
    9900012    2    3    3    0    0 -0.25981892245E+02  0.27508764737E+02 -0.21256301627E+02  0.47787294697E+02  0.20000107840E+02 0.  0.
         12    1    3    3    0    0  0.25981892245E+02 -0.27508764737E+02  0.21256301627E+02  0.43400705303E+02  0.00000000000E+00 0. -1.
         11    1    4    4    0    0 -0.21185660479E+02  0.25683056628E+02 -0.17570894388E+02  0.37645556677E+02  0.51100000000E-03 0.  1.
        -11    1    4    4    0    0  0.13165149240E+01 -0.15850521857E+01  0.30712186270E+00  0.20832489233E+01  0.51100000000E-03 0. -1.
         12    1    4    4    0    0 -0.61127466900E+01  0.34107602942E+01 -0.39925291020E+01  0.80584890960E+01  0.00000000000E+00 0. -1.
</event>
<event>
 8    1  0.5331800E-011  0.9118800E+02  0.7816164E-02  0.1184000E+00
        -11   -1    0    0    0    0  0.00000000000E+00  0.00000000000E+00  0.45593999997E+02  0.45594000000E+02  0.51100000000E-03 0. -1.
         11   -1    0    0    0    0 -0.00000000000E+00 -0.00000000000E+00 -0.45593999997E+02  0.45594000000E+02  0.51100000000E-03 0.  1.
         23    2    1    2    0    0  0.17763568394E-14  0.00000000000E+00 -0.71054273576E-14  0.91188000000E+02  0.91188000000E+02 0.  0.
    9900012    2    3    3    0    0  0.10964625522E+02  0.94936398325E+01  0.40905661446E+02  0.47787247145E+02  0.19999891030E+02 0.  0.
        -12    1    3    3    0    0 -0.10964625522E+02 -0.94936398325E+01 -0.40905661446E+02  0.43400752855E+02  0.00000000000E+00 0.  1.
         11    1    4    4    0    0 -0.29793293833E+01  0.71972743766E+01  0.19199253263E+02  0.20719278176E+02  0.51100000000E-03 0. -1.
        -11    1    4    4    0    0  0.40723002900E+01 -0.27384772997E+01  0.48834896899E+01  0.69232477484E+01  0.51100000000E-03 0.  1.
         12    1    4    4    0    0  0.98716546148E+01  0.50348427557E+01  0.16822918493E+02  0.20144721220E+02  0.00000000000E+00 0. -1.
</event>
<event>
 8    1  0.5331800E-011  0.9118800E+02  0.7816164E-02  0.1184000E+00
        -11   -1    0    0    0    0  0.00000000000E+00  0.00000000000E+00  0.45593999997E+02  0.45594000000E+02  0.51100000000E-03 0. -1.
         11   -1    0    0    0    0 -0.00000000000E+00 -0.00000000000E+00 -0.45593999997E+02  0.45594000000E+02  0.51100000000E-03 0.  1.
         23    2    1    2    0    0 -0.88817841970E-15 -0.33306690739E-15  0.00000000000E+00  0.91188000000E+02  0.91188000000E+02 0.  0.
    9900012    2    3    3    0    0  0.75030648491E+01  0.66051554110E+00 -0.42742142236E+02  0.47787274363E+02  0.20000015130E+02 0.  0.
         12    1    3    3    0    0 -0.75030648491E+01 -0.66051554110E+00  0.42742142236E+02  0.43400725637E+02  0.00000000000E+00 0. -1.
         11    1    4    4    0    0  0.34401302808E+01 -0.25448618684E+01 -0.32939136606E+01  0.54000634943E+01  0.51100000000E-03 0. -1.
        -11    1    4    4    0    0  0.35578381305E+01  0.51258190043E+01 -0.53154592392E+01  0.81967273843E+01  0.51100000000E-03 0.  1.
        -12    1    4    4    0    0  0.50509643778E+00 -0.19204415947E+01 -0.34132769336E+02  0.34190483484E+02  0.00000000000E+00 0.  1.
</event>
<event>
 8    1  0.7178210E-011  0.9118800E+02  0.7816164E-02  0.1184000E+00
        -11   -1    0    0    0    0  0.00000000000E+00  0.00000000000E+00  0.45593999997E+02  0.45594000000E+02  0.51100000000E-03 0. -1.
         11   -1    0    0    0    0 -0.00000000000E+00 -0.00000000000E+00 -0.45593999997E+02  0.45594000000E+02  0.51100000000E-03 0.  1.
         23    2    1    2    0    0  0.00000000000E+00  0.00000000000E+00  0.00000000000E+00  0.91188000000E+02  0.91188000000E+02 0.  0.
    9900012    2    3    3    0    0 -0.18795306327E+02  0.17561338083E+02 -0.34956517358E+02  0.47787282944E+02  0.20000054254E+02 0.  0.
         12    1    3    3    0    0  0.18795306327E+02 -0.17561338083E+02  0.34956517358E+02  0.43400717056E+02  0.00000000000E+00 0. -1.
         11    1    4    4    0    0 -0.17690182081E+01 -0.14975986959E+01  0.51511748337E+00  0.23743575041E+01  0.51100000000E-03 0. -1.
        -11    1    4    4    0    0 -0.11937119542E+02  0.14894430115E+02 -0.33485328756E+02  0.38543561247E+02  0.51100000000E-03 0.  1.
        -12    1    4    4    0    0 -0.50891685762E+01  0.41645066641E+01 -0.19863060854E+01  0.68693641931E+01  0.00000000000E+00 0.  1.
</event>
<event>
 8    1  0.5331800E-011  0.9118800E+02  0.7816164E-02  0.1184000E+00
        -11   -1    0    0    0    0  0.00000000000E+00  0.00000000000E+00  0.45593999997E+02  0.45594000000E+02  0.51100000000E-03 0. -1.
         11   -1    0    0    0    0 -0.00000000000E+00 -0.00000000000E+00 -0.45593999997E+02  0.45594000000E+02  0.51100000000E-03 0.  1.
         23    2    1    2    0    0  0.00000000000E+00 -0.35527136788E-14  0.00000000000E+00  0.91188000000E+02  0.91188000000E+02 0.  0.
    9900012    2    3    3    0    0  0.21967779099E+02 -0.28774635839E+02  0.23938685405E+02  0.47787266768E+02  0.19999980500E+02 0.  0.
        -12    1    3    3    0    0 -0.21967779099E+02  0.28774635839E+02 -0.23938685405E+02  0.43400733232E+02  0.00000000000E+00 0.  1.
         11    1    4    4    0    0  0.68510793715E+01 -0.21033221848E+02  0.19458371596E+02  0.29461193718E+02  0.51100000000E-03 0. -1.
        -11    1    4    4    0    0  0.12237378888E+02 -0.57198792653E+01  0.56161760539E+01  0.14629145381E+02  0.51100000000E-03 0.  1.
         12    1    4    4    0    0  0.28793208397E+01 -0.20215347253E+01 -0.11358622453E+01  0.36969276682E+01  0.00000000000E+00 0. -1.
</event>
<event>
 8    1  0.5331800E-011  0.9118800E+02  0.7816164E-02  0.1184000E+00
        -11   -1    0    0    0    0  0.00000000000E+00  0.00000000000E+00  0.45593999997E+02  0.45594000000E+02  0.51100000000E-03 0.  1.
         11   -1    0    0    0    0 -0.00000000000E+00 -0.00000000000E+00 -0.45593999997E+02  0.45594000000E+02  0.51100000000E-03 0. -1.
         23    2    1    2    0    0  0.88817841970E-15  0.00000000000E+00 -0.88817841970E-15  0.91188000000E+02  0.91188000000E+02 0.  0.
    9900012    2    3    3    0    0  0.55440338214E+01 -0.42395693207E+02 -0.74495038488E+01  0.47787237091E+02  0.19999845192E+02 0.  0.
        -12    1    3    3    0    0 -0.55440338214E+01  0.42395693207E+02  0.74495038488E+01  0.43400762909E+02  0.00000000000E+00 0.  1.
         11    1    4    4    0    0  0.10305902562E+02 -0.24476539961E+02 -0.93504720881E+01  0.28155709272E+02  0.51100000000E-03 0. -1.
        -11    1    4    4    0    0 -0.32393195941E+01 -0.35893873609E+01  0.19700991658E+01  0.52209370848E+01  0.51100000000E-03 0.  1.
         12    1    4    4    0    0 -0.15225491469E+01 -0.14329765885E+02 -0.69130926503E-01  0.14410590734E+02  0.00000000000E+00 0. -1.
</event>
<event>
 8    1  0.5331800E-011  0.9118800E+02  0.7816164E-02  0.1184000E+00
        -11   -1    0    0    0    0  0.00000000000E+00  0.00000000000E+00  0.45593999997E+02  0.45594000000E+02  0.51100000000E-03 0. -1.
         11   -1    0    0    0    0 -0.00000000000E+00 -0.00000000000E+00 -0.45593999997E+02  0.45594000000E+02  0.51100000000E-03 0.  1.
         23    2    1    2    0    0  0.00000000000E+00  0.00000000000E+00  0.00000000000E+00  0.91188000000E+02  0.91188000000E+02 0.  0.
    9900012    2    3    3    0    0 -0.10581510528E+02  0.36896502482E+02  0.20255938218E+02  0.47787270818E+02  0.19999998967E+02 0.  0.
        -12    1    3    3    0    0  0.10581510528E+02 -0.36896502482E+02 -0.20255938218E+02  0.43400729182E+02  0.00000000000E+00 0.  1.
         11    1    4    4    0    0 -0.10398047479E+02  0.28780846952E+02  0.17250045364E+02  0.35128629464E+02  0.51100000000E-03 0. -1.
        -11    1    4    4    0    0 -0.96371440365E+00 -0.19007138837E+01 -0.12682723995E+00  0.21348405396E+01  0.51100000000E-03 0.  1.
         12    1    4    4    0    0  0.78025135447E+00  0.10016369413E+02  0.31327200942E+01  0.10523800815E+02  0.00000000000E+00 0. -1.
</event>
<event>
 8    1  0.5331800E-011  0.9118800E+02  0.7816164E-02  0.1184000E+00
        -11   -1    0    0    0    0  0.00000000000E+00  0.00000000000E+00  0.45593999997E+02  0.45594000000E+02  0.51100000000E-03 0. -1.
         11   -1    0    0    0    0 -0.00000000000E+00 -0.00000000000E+00 -0.45593999997E+02  0.45594000000E+02  0.51100000000E-03 0.  1.
         23    2    1    2    0    0 -0.35527136788E-14  0.44408920985E-15  0.00000000000E+00  0.91188000000E+02  0.91188000000E+02 0.  0.
    9900012    2    3    3    0    0 -0.21708583517E+02  0.94995126189E+00 -0.37569375724E+02  0.47787274223E+02  0.20000014491E+02 0.  0.
         12    1    3    3    0    0  0.21708583517E+02 -0.94995126189E+00  0.37569375724E+02  0.43400725777E+02  0.00000000000E+00 0. -1.
         11    1    4    4    0    0 -0.13733680825E+02  0.75466063348E+01 -0.22482223425E+02  0.27404664321E+02  0.51100000000E-03 0. -1.
        -11    1    4    4    0    0 -0.82515959501E+01 -0.55215713359E+01 -0.16076737066E+02  0.18895450794E+02  0.51100000000E-03 0.  1.
         12    1    4    4    0    0  0.27669325793E+00 -0.10750837370E+01  0.98958476716E+00  0.14871591078E+01  0.00000000000E+00 0. -1.
</event>
<event>
 8    1  0.5331800E-011  0.9118800E+02  0.7816164E-02  0.1184000E+00
        -11   -1    0    0    0    0  0.00000000000E+00  0.00000000000E+00  0.45593999997E+02  0.45594000000E+02  0.51100000000E-03 0. -1.
         11   -1    0    0    0    0 -0.00000000000E+00 -0.00000000000E+00 -0.45593999997E+02  0.45594000000E+02  0.51100000000E-03 0.  1.
         23    2    1    2    0    0 -0.17763568394E-14 -0.17763568394E-14 -0.71054273576E-14  0.91188000000E+02  0.91188000000E+02 0.  0.
    9900012    2    3    3    0    0  0.13956730364E+02  0.10914051785E+02  0.39619642065E+02  0.47787275511E+02  0.20000020366E+02 0.  0.
        -12    1    3    3    0    0 -0.13956730364E+02 -0.10914051785E+02 -0.39619642065E+02  0.43400724489E+02  0.00000000000E+00 0.  1.
         11    1    4    4    0    0  0.31556303886E+01 -0.39813405478E+01  0.41123549996E+01  0.65360951348E+01  0.51100000000E-03 0.  1.
        -11    1    4    4    0    0  0.47593489353E+01 -0.17227593855E+00  0.78750496005E+01  0.92031238043E+01  0.51100000000E-03 0. -1.
         12    1    4    4    0    0  0.60417510404E+01  0.15067668271E+02  0.27632237464E+02  0.32048056572E+02  0.00000000000E+00 0. -1.
</event>
<event>
 8    1  0.5331800E-011  0.9118800E+02  0.7816164E-02  0.1184000E+00
        -11   -1    0    0    0    0  0.00000000000E+00  0.00000000000E+00  0.45593999997E+02  0.45594000000E+02  0.51100000000E-03 0. -1.
         11   -1    0    0    0    0 -0.00000000000E+00 -0.00000000000E+00 -0.45593999997E+02  0.45594000000E+02  0.51100000000E-03 0.  1.
         23    2    1    2    0    0  0.00000000000E+00  0.88817841970E-15  0.71054273576E-14  0.91188000000E+02  0.91188000000E+02 0.  0.
    9900012    2    3    3    0    0 -0.14444071918E+02  0.49484951477E+01  0.40626402117E+02  0.47787269974E+02  0.19999995118E+02 0.  0.
        -12    1    3    3    0    0  0.14444071918E+02 -0.49484951477E+01 -0.40626402117E+02  0.43400730026E+02  0.00000000000E+00 0.  1.
         11    1    4    4    0    0 -0.49627808008E+01 -0.58008310703E+01  0.25433805740E+02  0.26554798230E+02  0.51100000000E-03 0. -1.
        -11    1    4    4    0    0 -0.37594771451E+01  0.62402150627E+01  0.56086789466E+01  0.91940868073E+01  0.51100000000E-03 0.  1.
         12    1    4    4    0    0 -0.57218139724E+01  0.45091111553E+01  0.95839174310E+01  0.12038384936E+02  0.00000000000E+00 0. -1.
</event>
<event>
 8    1  0.5331800E-011  0.9118800E+02  0.7816164E-02  0.1184000E+00
        -11   -1    0    0    0    0  0.00000000000E+00  0.00000000000E+00  0.45593999997E+02  0.45594000000E+02  0.51100000000E-03 0. -1.
         11   -1    0    0    0    0 -0.00000000000E+00 -0.00000000000E+00 -0.45593999997E+02  0.45594000000E+02  0.51100000000E-03 0.  1.
         23    2    1    2    0    0  0.00000000000E+00  0.00000000000E+00  0.71054273576E-14  0.91188000000E+02  0.91188000000E+02 0.  0.
    9900012    2    3    3    0    0 -0.11414763093E+02 -0.13327990856E+02  0.39694973836E+02  0.47787272995E+02  0.20000008894E+02 0.  0.
        -12    1    3    3    0    0  0.11414763093E+02  0.13327990856E+02 -0.39694973836E+02  0.43400727005E+02  0.00000000000E+00 0.  1.
         11    1    4    4    0    0 -0.58836834901E+01 -0.96435230809E+01  0.37253406067E+02  0.38928543932E+02  0.51100000000E-03 0. -1.
        -11    1    4    4    0    0 -0.23332668595E+01 -0.43025281357E+01  0.18796747957E+00  0.48980827505E+01  0.51100000000E-03 0.  1.
         12    1    4    4    0    0 -0.31978127433E+01  0.61806036059E+00  0.22536002897E+01  0.39606463130E+01  0.00000000000E+00 0. -1.
</event>
<event>
 8    1  0.5331800E-011  0.9118800E+02  0.7816164E-02  0.1184000E+00
        -11   -1    0    0    0    0  0.00000000000E+00  0.00000000000E+00  0.45593999997E+02  0.45594000000E+02  0.51100000000E-03 0.  1.
         11   -1    0    0    0    0 -0.00000000000E+00 -0.00000000000E+00 -0.45593999997E+02  0.45594000000E+02  0.51100000000E-03 0. -1.
         23    2    1    2    0    0  0.17763568394E-14  0.71054273576E-14  0.00000000000E+00  0.91188000000E+02  0.91188000000E+02 0.  0.
    9900012    2    3    3    0    0 -0.85419448395E+01  0.39929718112E+02  0.14706336585E+02  0.47787267910E+02  0.19999985710E+02 0.  0.
        -12    1    3    3    0    0  0.85419448395E+01 -0.39929718112E+02 -0.14706336585E+02  0.43400732090E+02  0.00000000000E+00 0.  1.
         11    1    4    4    0    0 -0.11734739857E+02  0.29218913614E+02  0.15934173672E+02  0.35289473263E+02  0.51100000000E-03 0. -1.
        -11    1    4    4    0    0 -0.75596452729E+00  0.86538794385E+00  0.11511691100E+01  0.16265205934E+01  0.51100000000E-03 0.  1.
         12    1    4    4    0    0  0.39487595443E+01  0.98454165545E+01 -0.23790061971E+01  0.10871274054E+02  0.00000000000E+00 0. -1.
</event>
<event>
 8    1  0.5331800E-011  0.9118800E+02  0.7816164E-02  0.1184000E+00
        -11   -1    0    0    0    0  0.00000000000E+00  0.00000000000E+00  0.45593999997E+02  0.45594000000E+02  0.51100000000E-03 0. -1.
         11   -1    0    0    0    0 -0.00000000000E+00 -0.00000000000E+00 -0.45593999997E+02  0.45594000000E+02  0.51100000000E-03 0.  1.
         23    2    1    2    0    0  0.00000000000E+00  0.88817841970E-15  0.00000000000E+00  0.91188000000E+02  0.91188000000E+02 0.  0.
    9900012    2    3    3    0    0  0.12458218093E+02 -0.65934944376E+01  0.41048012665E+02  0.47787300574E+02  0.20000134634E+02 0.  0.
        -12    1    3    3    0    0 -0.12458218093E+02  0.65934944376E+01 -0.41048012665E+02  0.43400699426E+02  0.00000000000E+00 0.  1.
         11    1    4    4    0    0 -0.20962047510E+01 -0.19468868101E+01  0.19422467248E+02  0.19632031909E+02  0.51100000000E-03 0. -1.
        -11    1    4    4    0    0  0.15816304371E+02 -0.47638611398E+01  0.18604969594E+02  0.24879605117E+02  0.51100000000E-03 0.  1.
        -12    1    4    4    0    0 -0.12618815272E+01  0.11725351229E+00  0.30205758234E+01  0.32756635480E+01  0.00000000000E+00 0.  1.
</event>
<event>
 8    1  0.5331800E-011  0.9118800E+02  0.7816164E-02  0.1184000E+00
        -11   -1    0    0    0    0  0.00000000000E+00  0.00000000000E+00  0.45593999997E+02  0.45594000000E+02  0.51100000000E-03 0. -1.
         11   -1    0    0    0    0 -0.00000000000E+00 -0.00000000000E+00 -0.45593999997E+02  0.45594000000E+02  0.51100000000E-03 0.  1.
         23    2    1    2    0    0  0.00000000000E+00  0.00000000000E+00  0.00000000000E+00  0.91188000000E+02  0.91188000000E+02 0.  0.
    9900012    2    3    3    0    0 -0.86348633782E+01 -0.12578846622E+02  0.40630459582E+02  0.47787280032E+02  0.20000040977E+02 0.  0.
        -12    1    3    3    0    0  0.86348633782E+01  0.12578846622E+02 -0.40630459582E+02  0.43400719968E+02  0.00000000000E+00 0.  1.
         11    1    4    4    0    0 -0.73983241627E+01 -0.11344162568E+02  0.15681017569E+02  0.20720027438E+02  0.51100000000E-03 0. -1.
        -11    1    4    4    0    0  0.15454586431E+01  0.21133143639E+01  0.11270160517E+01  0.28503868966E+01  0.51100000000E-03 0.  1.
         12    1    4    4    0    0 -0.27819978586E+01 -0.33479984178E+01  0.23822425962E+02  0.24216865697E+02  0.00000000000E+00 0. -1.
</event>
<event>
 8    1  0.5331800E-011  0.9118800E+02  0.7816164E-02  0.1184000E+00
        -11   -1    0    0    0    0  0.00000000000E+00  0.00000000000E+00  0.45593999997E+02  0.45594000000E+02  0.51100000000E-03 0. -1.
         11   -1    0    0    0    0 -0.00000000000E+00 -0.00000000000E+00 -0.45593999997E+02  0.45594000000E+02  0.51100000000E-03 0.  1.
         23    2    1    2    0    0  0.00000000000E+00  0.00000000000E+00  0.00000000000E+00  0.91188000000E+02  0.91188000000E+02 0.  0.
    9900012    2    3    3    0    0  0.26460748819E+02  0.18850553944E+02 -0.28776878611E+02  0.47787270114E+02  0.19999995757E+02 0.  0.
         12    1    3    3    0    0 -0.26460748819E+02 -0.18850553944E+02  0.28776878611E+02  0.43400729886E+02  0.00000000000E+00 0. -1.
         11    1    4    4    0    0  0.58610073140E+01  0.54973005710E+01 -0.49088922227E+01  0.94164188212E+01  0.51100000000E-03 0. -1.
        -11    1    4    4    0    0  0.20146045487E+02  0.72250539021E+01 -0.10894666326E+02  0.24015792872E+02  0.51100000000E-03 0.  1.
        -12    1    4    4    0    0  0.45369601822E+00  0.61281994712E+01 -0.12973320062E+02  0.14355058421E+02  0.00000000000E+00 0.  1.
</event>
<event>
 8    1  0.5331800E-011  0.9118800E+02  0.7816164E-02  0.1184000E+00
        -11   -1    0    0    0    0  0.00000000000E+00  0.00000000000E+00  0.45593999997E+02  0.45594000000E+02  0.51100000000E-03 0. -1.
         11   -1    0    0    0    0 -0.00000000000E+00 -0.00000000000E+00 -0.45593999997E+02  0.45594000000E+02  0.51100000000E-03 0.  1.
         23    2    1    2    0    0  0.17763568394E-14 -0.35527136788E-14 -0.71054273576E-14  0.91188000000E+02  0.91188000000E+02 0.  0.
    9900012    2    3    3    0    0 -0.13833635294E+02  0.18088580748E+02  0.36946675705E+02  0.47787273456E+02  0.20000010994E+02 0.  0.
        -12    1    3    3    0    0  0.13833635294E+02 -0.18088580748E+02 -0.36946675705E+02  0.43400726544E+02  0.00000000000E+00 0.  1.
         11    1    4    4    0    0 -0.64333459228E+01  0.73375174643E+01  0.29509193359E+02  0.31080855768E+02  0.51100000000E-03 0. -1.
        -11    1    4    4    0    0 -0.31735535903E+01  0.10205306650E+02  0.55957151918E+01  0.12063654296E+02  0.51100000000E-03 0.  1.
         12    1    4    4    0    0 -0.42267357807E+01  0.54575663409E+00  0.18417671545E+01  0.46427633921E+01  0.00000000000E+00 0. -1.
</event>
<event>
 8    1  0.5331800E-011  0.9118800E+02  0.7816164E-02  0.1184000E+00
        -11   -1    0    0    0    0  0.00000000000E+00  0.00000000000E+00  0.45593999997E+02  0.45594000000E+02  0.51100000000E-03 0. -1.
         11   -1    0    0    0    0 -0.00000000000E+00 -0.00000000000E+00 -0.45593999997E+02  0.45594000000E+02  0.51100000000E-03 0.  1.
         23    2    1    2    0    0  0.00000000000E+00  0.35527136788E-14  0.00000000000E+00  0.91188000000E+02  0.91188000000E+02 0.  0.
    9900012    2    3    3    0    0 -0.18595665024E+02 -0.31133094554E+02  0.23844417630E+02  0.47787255924E+02  0.19999931059E+02 0.  0.
        -12    1    3    3    0    0  0.18595665024E+02  0.31133094554E+02 -0.23844417630E+02  0.43400744076E+02  0.00000000000E+00 0.  1.
         11    1    4    4    0    0 -0.18540951321E+01 -0.13777392379E+02  0.10913104379E+02  0.17673427991E+02  0.51100000000E-03 0. -1.
        -11    1    4    4    0    0 -0.13466207163E+02 -0.82162880713E+01  0.12943220295E+02  0.20405221804E+02  0.51100000000E-03 0.  1.
        -12    1    4    4    0    0 -0.32753627298E+01 -0.91394141036E+01 -0.11907043524E-01  0.97086061279E+01  0.00000000000E+00 0.  1.
</event>
<event>
 8    1  0.5331800E-011  0.9118800E+02  0.7816164E-02  0.1184000E+00
        -11   -1    0    0    0    0  0.00000000000E+00  0.00000000000E+00  0.45593999997E+02  0.45594000000E+02  0.51100000000E-03 0. -1.
         11   -1    0    0    0    0 -0.00000000000E+00 -0.00000000000E+00 -0.45593999997E+02  0.45594000000E+02  0.51100000000E-03 0.  1.
         23    2    1    2    0    0  0.11102230246E-15  0.16653345369E-15  0.71054273576E-14  0.91188000000E+02  0.91188000000E+02 0.  0.
    9900012    2    3    3    0    0 -0.68735360150E+00 -0.31752860084E+00 -0.43394118652E+02  0.47787276354E+02  0.20000024210E+02 0.  0.
         12    1    3    3    0    0  0.68735360150E+00  0.31752860084E+00  0.43394118652E+02  0.43400723646E+02  0.00000000000E+00 0. -1.
         11    1    4    4    0    0  0.44517468293E+00 -0.58241719722E+01 -0.89895897604E+01  0.10720628899E+02  0.51100000000E-03 0. -1.
        -11    1    4    4    0    0  0.14613259314E+01 -0.36332932938E+01 -0.64946985833E+01  0.75840229157E+01  0.51100000000E-03 0.  1.
         12    1    4    4    0    0 -0.25938542158E+01  0.91399366651E+01 -0.27909830308E+02  0.29482624540E+02  0.00000000000E+00 0. -1.
</event>
<event>
 8    1  0.5331800E-011  0.9118800E+02  0.7816164E-02  0.1184000E+00
        -11   -1    0    0    0    0  0.00000000000E+00  0.00000000000E+00  0.45593999997E+02  0.45594000000E+02  0.51100000000E-03 0. -1.
         11   -1    0    0    0    0 -0.00000000000E+00 -0.00000000000E+00 -0.45593999997E+02  0.45594000000E+02  0.51100000000E-03 0.  1.
         23    2    1    2    0    0  0.00000000000E+00 -0.17763568394E-14  0.00000000000E+00  0.91188000000E+02  0.91188000000E+02 0.  0.
    9900012    2    3    3    0    0 -0.20549087117E+02  0.87034358056E+01 -0.37223768643E+02  0.47787265811E+02  0.19999976138E+02 0.  0.
         12    1    3    3    0    0  0.20549087117E+02 -0.87034358056E+01  0.37223768643E+02  0.43400734189E+02  0.00000000000E+00 0. -1.
         11    1    4    4    0    0 -0.20599247473E+02  0.56494252372E+01 -0.25695299729E+02  0.33413970587E+02  0.51100000000E-03 0. -1.
        -11    1    4    4    0    0  0.56055045497E+00  0.56093447299E+01 -0.58428726667E+01  0.81189978675E+01  0.51100000000E-03 0.  1.
        -12    1    4    4    0    0 -0.51039009851E+00 -0.25553341615E+01 -0.56855962474E+01  0.62542973561E+01  0.00000000000E+00 0.  1.
</event>
<event>
 8    1  0.5331800E-011  0.9118800E+02  0.7816164E-02  0.1184000E+00
        -11   -1    0    0    0    0  0.00000000000E+00  0.00000000000E+00  0.45593999997E+02  0.45594000000E+02  0.51100000000E-03 0. -1.
         11   -1    0    0    0    0 -0.00000000000E+00 -0.00000000000E+00 -0.45593999997E+02  0.45594000000E+02  0.51100000000E-03 0.  1.
         23    2    1    2    0    0  0.00000000000E+00 -0.35527136788E-14  0.00000000000E+00  0.91188000000E+02  0.91188000000E+02 0.  0.
    9900012    2    3    3    0    0  0.11582501803E+02  0.16223468108E+02  0.38552148921E+02  0.47787268994E+02  0.19999990650E+02 0.  0.
        -12    1    3    3    0    0 -0.11582501803E+02 -0.16223468108E+02 -0.38552148921E+02  0.43400731006E+02  0.00000000000E+00 0.  1.
         11    1    4    4    0    0  0.14217306125E+02  0.45415611291E+01  0.18196789516E+02  0.23534670592E+02  0.51100000000E-03 0. -1.
        -11    1    4    4    0    0 -0.49898024473E+00 -0.56101142569E+00  0.13454558275E+01  0.15407682335E+01  0.51100000000E-03 0.  1.
         12    1    4    4    0    0 -0.21358240778E+01  0.12242918404E+02  0.19009903578E+02  0.22711830168E+02  0.00000000000E+00 0. -1.
</event>
<event>
 8    1  0.5331800E-011  0.9118800E+02  0.7816164E-02  0.1184000E+00
        -11   -1    0    0    0    0  0.00000000000E+00  0.00000000000E+00  0.45593999997E+02  0.45594000000E+02  0.51100000000E-03 0. -1.
         11   -1    0    0    0    0 -0.00000000000E+00 -0.00000000000E+00 -0.45593999997E+02  0.45594000000E+02  0.51100000000E-03 0.  1.
         23    2    1    2    0    0  0.00000000000E+00 -0.71054273576E-14  0.00000000000E+00  0.91188000000E+02  0.91188000000E+02 0.  0.
    9900012    2    3    3    0    0  0.17411537187E+02  0.36317161166E+02 -0.16171749384E+02  0.47787270737E+02  0.19999998599E+02 0.  0.
         12    1    3    3    0    0 -0.17411537187E+02 -0.36317161166E+02  0.16171749384E+02  0.43400729263E+02  0.00000000000E+00 0. -1.
         11    1    4    4    0    0  0.91793759600E+00  0.27414828633E+01 -0.59942508920E+01  0.66550268022E+01  0.51100000000E-03 0. -1.
        -11    1    4    4    0    0  0.14620137054E+02  0.14184553326E+02 -0.53802683181E+01  0.21068869167E+02  0.51100000000E-03 0.  1.
        -12    1    4    4    0    0  0.18734625378E+01  0.19391124977E+02 -0.47972301735E+01  0.20063374768E+02  0.00000000000E+00 0.  1.
</event>
<event>
 8    1  0.5331800E-011  0.9118800E+02  0.7816164E-02  0.1184000E+00
        -11   -1    0    0    0    0  0.00000000000E+00  0.00000000000E+00  0.45593999997E+02  0.45594000000E+02  0.51100000000E-03 0. -1.
         11   -1    0    0    0    0 -0.00000000000E+00 -0.00000000000E+00 -0.45593999997E+02  0.45594000000E+02  0.51100000000E-03 0.  1.
         23    2    1    2    0    0  0.00000000000E+00 -0.71054273576E-14  0.00000000000E+00  0.91188000000E+02  0.91188000000E+02 0.  0.
    9900012    2    3    3    0    0  0.16702766887E+01 -0.37684698279E+02 -0.21463865687E+02  0.47787264536E+02  0.19999970327E+02 0.  0.
         12    1    3    3    0    0 -0.16702766887E+01  0.37684698279E+02  0.21463865687E+02  0.43400735464E+02  0.00000000000E+00 0. -1.
         11    1    4    4    0    0  0.39198991910E+01 -0.12376573486E+01 -0.15123970638E+01  0.43800400134E+01  0.51100000000E-03 0. -1.
        -11    1    4    4    0    0 -0.40419648903E+01 -0.35695669687E+02 -0.16692117888E+02  0.39612436361E+02  0.51100000000E-03 0.  1.
        -12    1    4    4    0    0  0.17923423880E+01 -0.75137124308E+00 -0.32593507353E+01  0.37947881623E+01  0.00000000000E+00 0.  1.
</event>
<event>
 8    1  0.5331800E-011  0.9118800E+02  0.7816164E-02  0.1184000E+00
        -11   -1    0    0    0    0  0.00000000000E+00  0.00000000000E+00  0.45593999997E+02  0.45594000000E+02  0.51100000000E-03 0. -1.
         11   -1    0    0    0    0 -0.00000000000E+00 -0.00000000000E+00 -0.45593999997E+02  0.45594000000E+02  0.51100000000E-03 0.  1.
         23    2    1    2    0    0  0.00000000000E+00  0.00000000000E+00  0.00000000000E+00  0.91188000000E+02  0.91188000000E+02 0.  0.
    9900012    2    3    3    0    0  0.16017522435E+02 -0.95707725538E+01 -0.39184970278E+02  0.47787278716E+02  0.20000034979E+02 0.  0.
         12    1    3    3    0    0 -0.16017522435E+02  0.95707725538E+01  0.39184970278E+02  0.43400721284E+02  0.00000000000E+00 0. -1.
         11    1    4    4    0    0  0.12415594280E+02 -0.87157339106E+01 -0.27049443252E+02  0.31012632578E+02  0.51100000000E-03 0. -1.
        -11    1    4    4    0    0  0.75914953713E+00  0.50077772751E+01 -0.53630334534E+01  0.73767383944E+01  0.51100000000E-03 0.  1.
        -12    1    4    4    0    0  0.28427786185E+01 -0.58628159182E+01 -0.67724935733E+01  0.93979077440E+01  0.00000000000E+00 0.  1.
</event>
<event>
 8    1  0.5331800E-011  0.9118800E+02  0.7816164E-02  0.1184000E+00
        -11   -1    0    0    0    0  0.00000000000E+00  0.00000000000E+00  0.45593999997E+02  0.45594000000E+02  0.51100000000E-03 0. -1.
         11   -1    0    0    0    0 -0.00000000000E+00 -0.00000000000E+00 -0.45593999997E+02  0.45594000000E+02  0.51100000000E-03 0.  1.
         23    2    1    2    0    0  0.00000000000E+00  0.00000000000E+00 -0.35527136788E-14  0.91188000000E+02  0.91188000000E+02 0.  0.
    9900012    2    3    3    0    0 -0.34533851380E+02 -0.84659173418E+01 -0.24887028724E+02  0.47787275971E+02  0.20000022461E+02 0.  0.
         12    1    3    3    0    0  0.34533851380E+02  0.84659173418E+01  0.24887028724E+02  0.43400724029E+02  0.00000000000E+00 0. -1.
         11    1    4    4    0    0 -0.17468761680E+01  0.11560169427E+01  0.14060332953E+00  0.20994573288E+01  0.51100000000E-03 0. -1.
        -11    1    4    4    0    0  0.17890845596E+01 -0.12435743230E+01  0.18808582844E-01  0.21789113525E+01  0.51100000000E-03 0.  1.
        -12    1    4    4    0    0 -0.34576059771E+02 -0.83783599615E+01 -0.25046440636E+02  0.43508907289E+02  0.00000000000E+00 0.  1.
</event>
<event>
 8    1  0.5331800E-011  0.9118800E+02  0.7816164E-02  0.1184000E+00
        -11   -1    0    0    0    0  0.00000000000E+00  0.00000000000E+00  0.45593999997E+02  0.45594000000E+02  0.51100000000E-03 0. -1.
         11   -1    0    0    0    0 -0.00000000000E+00 -0.00000000000E+00 -0.45593999997E+02  0.45594000000E+02  0.51100000000E-03 0.  1.
         23    2    1    2    0    0  0.00000000000E+00  0.00000000000E+00  0.00000000000E+00  0.91188000000E+02  0.91188000000E+02 0.  0.
    9900012    2    3    3    0    0 -0.22748893641E+02 -0.12082924071E+02  0.34930130065E+02  0.47787271868E+02  0.20000003754E+02 0.  0.
        -12    1    3    3    0    0  0.22748893641E+02  0.12082924071E+02 -0.34930130065E+02  0.43400728132E+02  0.00000000000E+00 0.  1.
         11    1    4    4    0    0 -0.15403707997E+02 -0.12887122523E+02  0.25239877779E+02  0.32255287591E+02  0.51100000000E-03 0. -1.
        -11    1    4    4    0    0 -0.73848118838E+00 -0.15424925794E+01 -0.15344071010E+01  0.22976168601E+01  0.51100000000E-03 0.  1.
         12    1    4    4    0    0 -0.66067044559E+01  0.23466910321E+01  0.11224659387E+02  0.13234367417E+02  0.00000000000E+00 0. -1.
</event>
<event>
 8    1  0.7630701E-011  0.9118800E+02  0.7816164E-02  0.1184000E+00
        -11   -1    0    0    0    0  0.00000000000E+00  0.00000000000E+00  0.45593999997E+02  0.45594000000E+02  0.51100000000E-03 0. -1.
         11   -1    0    0    0    0 -0.00000000000E+00 -0.00000000000E+00 -0.45593999997E+02  0.45594000000E+02  0.51100000000E-03 0.  1.
         23    2    1    2    0    0  0.00000000000E+00  0.00000000000E+00  0.00000000000E+00  0.91188000000E+02  0.91188000000E+02 0.  0.
    9900012    2    3    3    0    0  0.17545375611E+02  0.25595316231E+02 -0.30342437478E+02  0.47787263481E+02  0.19999965515E+02 0.  0.
         12    1    3    3    0    0 -0.17545375611E+02 -0.25595316231E+02  0.30342437478E+02  0.43400736519E+02  0.00000000000E+00 0. -1.
         11    1    4    4    0    0 -0.24382704269E+01  0.32168271153E+01 -0.12146171774E+01  0.42152620931E+01  0.51100000000E-03 0. -1.
        -11    1    4    4    0    0  0.12821663695E+02  0.75919609816E+01 -0.19457242172E+02  0.24507492827E+02  0.51100000000E-03 0.  1.
        -12    1    4    4    0    0  0.71619823428E+01  0.14786528134E+02 -0.96705781285E+01  0.19064508561E+02  0.00000000000E+00 0.  1.
</event>
<event>
 8    1  0.5331800E-011  0.9118800E+02  0.7816164E-02  0.1184000E+00
        -11   -1    0    0    0    0  0.00000000000E+00  0.00000000000E+00  0.45593999997E+02  0.45594000000E+02  0.51100000000E-03 0.  1.
         11   -1    0    0    0    0 -0.00000000000E+00 -0.00000000000E+00 -0.45593999997E+02  0.45594000000E+02  0.51100000000E-03 0. -1.
         23    2    1    2    0    0  0.00000000000E+00  0.71054273576E-14  0.00000000000E+00  0.91188000000E+02  0.91188000000E+02 0.  0.
    9900012    2    3    3    0    0  0.22160852685E+02  0.36446051791E+02  0.80128203047E+01  0.47787269913E+02  0.19999994842E+02 0.  0.
         12    1    3    3    0    0 -0.22160852685E+02 -0.36446051791E+02 -0.80128203047E+01  0.43400730087E+02  0.00000000000E+00 0. -1.
         11    1    4    4    0    0  0.10488012905E+02  0.61402582921E+01  0.23497659504E+01  0.12378311148E+02  0.51100000000E-03 0. -1.
        -11    1    4    4    0    0  0.11780124971E+02  0.22776255907E+02  0.89952740483E+01  0.27174328565E+02  0.51100000000E-03 0.  1.
        -12    1    4    4    0    0 -0.10728519156E+00  0.75295375914E+01 -0.33322196939E+01  0.82346302006E+01  0.00000000000E+00 0.  1.
</event>
<event>
 8    1  0.5331800E-011  0.9118800E+02  0.7816164E-02  0.1184000E+00
        -11   -1    0    0    0    0  0.00000000000E+00  0.00000000000E+00  0.45593999997E+02  0.45594000000E+02  0.51100000000E-03 0. -1.
         11   -1    0    0    0    0 -0.00000000000E+00 -0.00000000000E+00 -0.45593999997E+02  0.45594000000E+02  0.51100000000E-03 0.  1.
         23    2    1    2    0    0  0.00000000000E+00  0.00000000000E+00  0.00000000000E+00  0.91188000000E+02  0.91188000000E+02 0.  0.
    9900012    2    3    3    0    0 -0.83488580691E+01  0.25752334631E+02  0.33922509777E+02  0.47787276047E+02  0.20000022811E+02 0.  0.
        -12    1    3    3    0    0  0.83488580691E+01 -0.25752334631E+02 -0.33922509777E+02  0.43400723953E+02  0.00000000000E+00 0.  1.
         11    1    4    4    0    0  0.21808000152E+01  0.15110521676E+01 -0.71864515764E+00  0.27487485304E+01  0.51100000000E-03 0.  1.
        -11    1    4    4    0    0 -0.10538018326E+02  0.23622584056E+02  0.27067465639E+02  0.37439604754E+02  0.51100000000E-03 0. -1.
         12    1    4    4    0    0  0.83602416743E-02  0.61869840738E+00  0.75736892957E+01  0.75989227632E+01  0.00000000000E+00 0. -1.
</event>
<event>
 8    1  0.5331800E-011  0.9118800E+02  0.7816164E-02  0.1184000E+00
        -11   -1    0    0    0    0  0.00000000000E+00  0.00000000000E+00  0.45593999997E+02  0.45594000000E+02  0.51100000000E-03 0.  1.
         11   -1    0    0    0    0 -0.00000000000E+00 -0.00000000000E+00 -0.45593999997E+02  0.45594000000E+02  0.51100000000E-03 0. -1.
         23    2    1    2    0    0  0.00000000000E+00  0.00000000000E+00  0.00000000000E+00  0.91188000000E+02  0.91188000000E+02 0.  0.
    9900012    2    3    3    0    0  0.40482324099E+02 -0.15035220804E+02  0.43297761918E+01  0.47787269695E+02  0.19999993849E+02 0.  0.
        -12    1    3    3    0    0 -0.40482324099E+02  0.15035220804E+02 -0.43297761918E+01  0.43400730305E+02  0.00000000000E+00 0.  1.
         11    1    4    4    0    0  0.33549126839E+02 -0.35326606758E+01  0.44103962342E+01  0.34021687176E+02  0.51100000000E-03 0. -1.
        -11    1    4    4    0    0  0.59616800641E+01 -0.81272430229E+01 -0.10170227331E+01  0.10130550027E+02  0.51100000000E-03 0.  1.
         12    1    4    4    0    0  0.97151719653E+00 -0.33753171054E+01  0.93640269069E+00  0.36350324929E+01  0.00000000000E+00 0. -1.
</event>
<event>
 8    1  0.5331800E-011  0.9118800E+02  0.7816164E-02  0.1184000E+00
        -11   -1    0    0    0    0  0.00000000000E+00  0.00000000000E+00  0.45593999997E+02  0.45594000000E+02  0.51100000000E-03 0.  1.
         11   -1    0    0    0    0 -0.00000000000E+00 -0.00000000000E+00 -0.45593999997E+02  0.45594000000E+02  0.51100000000E-03 0. -1.
         23    2    1    2    0    0  0.00000000000E+00  0.88817841970E-15  0.17763568394E-14  0.91188000000E+02  0.91188000000E+02 0.  0.
    9900012    2    3    3    0    0 -0.40958300617E+02  0.41363420837E+01  0.13745240933E+02  0.47787270011E+02  0.19999995290E+02 0.  0.
        -12    1    3    3    0    0  0.40958300617E+02 -0.41363420837E+01 -0.13745240933E+02  0.43400729989E+02  0.00000000000E+00 0.  1.
         11    1    4    4    0    0 -0.16273866092E+02  0.59533809343E+01  0.12665120780E+02  0.21463614486E+02  0.51100000000E-03 0. -1.
        -11    1    4    4    0    0 -0.17318781317E+01  0.20767534289E+01  0.13913518402E+01  0.30410798858E+01  0.51100000000E-03 0.  1.
         12    1    4    4    0    0 -0.22952556393E+02 -0.38937922796E+01 -0.31123168779E+00  0.23282575640E+02  0.00000000000E+00 0. -1.
</event>
<event>
 8    1  0.5331800E-011  0.9118800E+02  0.7816164E-02  0.1184000E+00
        -11   -1    0    0    0    0  0.00000000000E+00  0.00000000000E+00  0.45593999997E+02  0.45594000000E+02  0.51100000000E-03 0.  1.
         11   -1    0    0    0    0 -0.00000000000E+00 -0.00000000000E+00 -0.45593999997E+02  0.45594000000E+02  0.51100000000E-03 0. -1.
         23    2    1    2    0    0  0.17763568394E-14  0.71054273576E-14  0.00000000000E+00  0.91188000000E+02  0.91188000000E+02 0.  0.
    9900012    2    3    3    0    0  0.15819477439E+02  0.38399344133E+02 -0.12603876632E+02  0.47787271868E+02  0.20000003754E+02 0.  0.
         12    1    3    3    0    0 -0.15819477439E+02 -0.38399344133E+02  0.12603876632E+02  0.43400728132E+02  0.00000000000E+00 0. -1.
         11    1    4    4    0    0  0.98822231588E+01  0.25649587769E+02 -0.14189552637E+02  0.30933850255E+02  0.51100000000E-03 0. -1.
        -11    1    4    4    0    0  0.64936060301E+01  0.33753660570E+01 -0.63941703032E-01  0.73187501730E+01  0.51100000000E-03 0.  1.
         12    1    4    4    0    0 -0.55635175033E+00  0.93743903063E+01  0.16496177080E+01  0.95346714399E+01  0.00000000000E+00 0. -1.
</event>
<event>
 8    1  0.5331800E-011  0.9118800E+02  0.7816164E-02  0.1184000E+00
        -11   -1    0    0    0    0  0.00000000000E+00  0.00000000000E+00  0.45593999997E+02  0.45594000000E+02  0.51100000000E-03 0. -1.
         11   -1    0    0    0    0 -0.00000000000E+00 -0.00000000000E+00 -0.45593999997E+02  0.45594000000E+02  0.51100000000E-03 0.  1.
         23    2    1    2    0    0  0.00000000000E+00  0.00000000000E+00  0.00000000000E+00  0.91188000000E+02  0.91188000000E+02 0.  0.
    9900012    2    3    3    0    0  0.16935234224E+02 -0.16016929135E+02 -0.36609825339E+02  0.47787268572E+02  0.19999988727E+02 0.  0.
         12    1    3    3    0    0 -0.16935234224E+02  0.16016929135E+02  0.36609825339E+02  0.43400731428E+02  0.00000000000E+00 0. -1.
         11    1    4    4    0    0 -0.10044690582E+01 -0.91242691705E+01 -0.83395671676E+01  0.12402000919E+02  0.51100000000E-03 0. -1.
        -11    1    4    4    0    0  0.59945621020E+01 -0.63024870936E+01 -0.16234672994E+02  0.18417945755E+02  0.51100000000E-03 0.  1.
         12    1    4    4    0    0  0.11945141180E+02 -0.59017287100E+00 -0.12035585178E+02  0.16967321898E+02  0.00000000000E+00 0. -1.
</event>
<event>
 8    1  0.5331800E-011  0.9118800E+02  0.7816164E-02  0.1184000E+00
        -11   -1    0    0    0    0  0.00000000000E+00  0.00000000000E+00  0.45593999997E+02  0.45594000000E+02  0.51100000000E-03 0. -1.
         11   -1    0    0    0    0 -0.00000000000E+00 -0.00000000000E+00 -0.45593999997E+02  0.45594000000E+02  0.51100000000E-03 0.  1.
         23    2    1    2    0    0 -0.13322676296E-14 -0.88817841970E-15  0.00000000000E+00  0.91188000000E+02  0.91188000000E+02 0.  0.
    9900012    2    3    3    0    0 -0.16389897759E+01  0.62161201371E+01  0.42921986748E+02  0.47787269783E+02  0.19999994247E+02 0.  0.
        -12    1    3    3    0    0  0.16389897759E+01 -0.62161201371E+01 -0.42921986748E+02  0.43400730217E+02  0.00000000000E+00 0.  1.
         11    1    4    4    0    0 -0.21066881593E+01  0.41714485992E+01  0.19233398713E+02  0.19792997366E+02  0.51100000000E-03 0. -1.
        -11    1    4    4    0    0  0.63958971749E+01  0.50286656823E+01  0.14957187253E+02  0.17026815028E+02  0.51100000000E-03 0.  1.
        -12    1    4    4    0    0 -0.59281987915E+01 -0.29839941444E+01  0.87314007821E+01  0.10967457389E+02  0.00000000000E+00 0.  1.
</event>
<event>
 8    1  0.5331800E-011  0.9118800E+02  0.7816164E-02  0.1184000E+00
        -11   -1    0    0    0    0  0.00000000000E+00  0.00000000000E+00  0.45593999997E+02  0.45594000000E+02  0.51100000000E-03 0. -1.
         11   -1    0    0    0    0 -0.00000000000E+00 -0.00000000000E+00 -0.45593999997E+02  0.45594000000E+02  0.51100000000E-03 0.  1.
         23    2    1    2    0    0  0.00000000000E+00  0.00000000000E+00  0.00000000000E+00  0.91188000000E+02  0.91188000000E+02 0.  0.
    9900012    2    3    3    0    0 -0.17144951984E+02  0.20304875750E+02  0.34313057469E+02  0.47787271082E+02  0.20000000171E+02 0.  0.
        -12    1    3    3    0    0  0.17144951984E+02 -0.20304875750E+02 -0.34313057469E+02  0.43400728918E+02  0.00000000000E+00 0.  1.
         11    1    4    4    0    0 -0.41106065449E+01  0.30992656583E+01  0.79989371517E+01  0.95123882178E+01  0.51100000000E-03 0. -1.
        -11    1    4    4    0    0 -0.54965400097E+01  0.11009110346E+02  0.25704587936E+02  0.28498040352E+02  0.51100000000E-03 0.  1.
        -12    1    4    4    0    0 -0.75378054292E+01  0.61964997450E+01  0.60953238126E+00  0.97768425118E+01  0.00000000000E+00 0.  1.
</event>
<event>
 8    1  0.5331800E-011  0.9118800E+02  0.7816164E-02  0.1184000E+00
        -11   -1    0    0    0    0  0.00000000000E+00  0.00000000000E+00  0.45593999997E+02  0.45594000000E+02  0.51100000000E-03 0. -1.
         11   -1    0    0    0    0 -0.00000000000E+00 -0.00000000000E+00 -0.45593999997E+02  0.45594000000E+02  0.51100000000E-03 0.  1.
         23    2    1    2    0    0  0.00000000000E+00 -0.88817841970E-15  0.00000000000E+00  0.91188000000E+02  0.91188000000E+02 0.  0.
    9900012    2    3    3    0    0  0.24658078097E+02 -0.40530316371E+01 -0.35484863625E+02  0.47787269276E+02  0.19999991937E+02 0.  0.
         12    1    3    3    0    0 -0.24658078097E+02  0.40530316371E+01  0.35484863625E+02  0.43400730724E+02  0.00000000000E+00 0. -1.
         11    1    4    4    0    0  0.46177734440E+01  0.60483837456E+01 -0.86143488009E+01  0.11494075998E+02  0.51100000000E-03 0. -1.
        -11    1    4    4    0    0  0.15321224038E+02 -0.82597453234E+01 -0.25789065190E+02  0.31113328052E+02  0.51100000000E-03 0.  1.
        -12    1    4    4    0    0  0.47190806145E+01 -0.18416700594E+01 -0.10814496344E+01  0.51798652266E+01  0.00000000000E+00 0.  1.
</event>
<event>
 8    1  0.5331800E-011  0.9118800E+02  0.7816164E-02  0.1184000E+00
        -11   -1    0    0    0    0  0.00000000000E+00  0.00000000000E+00  0.45593999997E+02  0.45594000000E+02  0.51100000000E-03 0. -1.
         11   -1    0    0    0    0 -0.00000000000E+00 -0.00000000000E+00 -0.45593999997E+02  0.45594000000E+02  0.51100000000E-03 0.  1.
         23    2    1    2    0    0 -0.35527136788E-14  0.00000000000E+00 -0.35527136788E-14  0.91188000000E+02  0.91188000000E+02 0.  0.
    9900012    2    3    3    0    0  0.29872821765E+02  0.83858147990E+01 -0.30346598372E+02  0.47787269559E+02  0.19999993229E+02 0.  0.
         12    1    3    3    0    0 -0.29872821765E+02 -0.83858147990E+01  0.30346598372E+02  0.43400730441E+02  0.00000000000E+00 0. -1.
         11    1    4    4    0    0 -0.52012273027E+00 -0.94152149861E+00 -0.34105324553E+01  0.35761323069E+01  0.51100000000E-03 0. -1.
        -11    1    4    4    0    0  0.30182678659E+02  0.10167811897E+02 -0.20857563770E+02  0.38071202456E+02  0.51100000000E-03 0.  1.
        -12    1    4    4    0    0  0.21026583630E+00 -0.84047559934E+00 -0.60785021469E+01  0.61399347965E+01  0.00000000000E+00 0.  1.
</event>
<event>
 8    1  0.5331800E-011  0.9118800E+02  0.7816164E-02  0.1184000E+00
        -11   -1    0    0    0    0  0.00000000000E+00  0.00000000000E+00  0.45593999997E+02  0.45594000000E+02  0.51100000000E-03 0. -1.
         11   -1    0    0    0    0 -0.00000000000E+00 -0.00000000000E+00 -0.45593999997E+02  0.45594000000E+02  0.51100000000E-03 0.  1.
         23    2    1    2    0    0  0.71054273576E-14  0.00000000000E+00  0.00000000000E+00  0.91188000000E+02  0.91188000000E+02 0.  0.
    9900012    2    3    3    0    0  0.18557024675E+02  0.18042824256E+02  0.34838435913E+02  0.47787270873E+02  0.19999999216E+02 0.  0.
        -12    1    3    3    0    0 -0.18557024675E+02 -0.18042824256E+02 -0.34838435913E+02  0.43400729127E+02  0.00000000000E+00 0.  1.
         11    1    4    4    0    0  0.12427912623E+02  0.11364615728E+02  0.19137694628E+02  0.25492329410E+02  0.51100000000E-03 0. -1.
        -11    1    4    4    0    0  0.18063561523E+01 -0.37476643876E+01  0.65750664849E+01  0.77807075805E+01  0.51100000000E-03 0.  1.
        -12    1    4    4    0    0  0.43227558990E+01  0.10425872916E+02  0.91256748005E+01  0.14514233882E+02  0.00000000000E+00 0.  1.
</event>
<event>
 8    1  0.5331800E-011  0.9118800E+02  0.7816164E-02  0.1184000E+00
        -11   -1    0    0    0    0  0.00000000000E+00  0.00000000000E+00  0.45593999997E+02  0.45594000000E+02  0.51100000000E-03 0. -1.
         11   -1    0    0    0    0 -0.00000000000E+00 -0.00000000000E+00 -0.45593999997E+02  0.45594000000E+02  0.51100000000E-03 0.  1.
         23    2    1    2    0    0  0.35527136788E-14  0.00000000000E+00 -0.35527136788E-14  0.91188000000E+02  0.91188000000E+02 0.  0.
    9900012    2    3    3    0    0 -0.24786668803E+02 -0.31046604092E+02  0.17474340916E+02  0.47787272282E+02  0.20000005642E+02 0.  0.
        -12    1    3    3    0    0  0.24786668803E+02  0.31046604092E+02 -0.17474340916E+02  0.43400727718E+02  0.00000000000E+00 0.  1.
         11    1    4    4    0    0 -0.16170309800E+02 -0.12788911996E+02  0.63596000793E+01  0.21574978621E+02  0.51100000000E-03 0. -1.
        -11    1    4    4    0    0  0.14956827859E+01 -0.21144283711E+01  0.59293041462E+01  0.64702799206E+01  0.51100000000E-03 0.  1.
        -12    1    4    4    0    0 -0.10112041789E+02 -0.16143263725E+02  0.51854366909E+01  0.19742013740E+02  0.00000000000E+00 0.  1.
</event>
<event>
 8    1  0.5331800E-011  0.9118800E+02  0.7816164E-02  0.1184000E+00
        -11   -1    0    0    0    0  0.00000000000E+00  0.00000000000E+00  0.45593999997E+02  0.45594000000E+02  0.51100000000E-03 0. -1.
         11   -1    0    0    0    0 -0.00000000000E+00 -0.00000000000E+00 -0.45593999997E+02  0.45594000000E+02  0.51100000000E-03 0.  1.
         23    2    1    2    0    0  0.88817841970E-15  0.00000000000E+00  0.00000000000E+00  0.91188000000E+02  0.91188000000E+02 0.  0.
    9900012    2    3    3    0    0 -0.48789704181E+01 -0.38376770605E+02 -0.19673399259E+02  0.47787268292E+02  0.19999987451E+02 0.  0.
         12    1    3    3    0    0  0.48789704181E+01  0.38376770605E+02  0.19673399259E+02  0.43400731708E+02  0.00000000000E+00 0. -1.
         11    1    4    4    0    0  0.48940174499E+01 -0.15348941994E+02 -0.35558889079E+01  0.16498053622E+02  0.51100000000E-03 0. -1.
        -11    1    4    4    0    0 -0.10695072290E+02 -0.19079387401E+02 -0.10245229854E+02  0.24153101869E+02  0.51100000000E-03 0.  1.
         12    1    4    4    0    0  0.92208442253E+00 -0.39484412099E+01 -0.58722804969E+01  0.71361128007E+01  0.00000000000E+00 0. -1.
</event>
<event>
 8    1  0.8453437E-011  0.9118800E+02  0.7816164E-02  0.1184000E+00
        -11   -1    0    0    0    0  0.00000000000E+00  0.00000000000E+00  0.45593999997E+02  0.45594000000E+02  0.51100000000E-03 0. -1.
         11   -1    0    0    0    0 -0.00000000000E+00 -0.00000000000E+00 -0.45593999997E+02  0.45594000000E+02  0.51100000000E-03 0.  1.
         23    2    1    2    0    0  0.00000000000E+00  0.00000000000E+00  0.00000000000E+00  0.91188000000E+02  0.91188000000E+02 0.  0.
    9900012    2    3    3    0    0 -0.89792071117E+01  0.14436136721E+02 -0.39932404809E+02  0.47787249343E+02  0.19999901055E+02 0.  0.
         12    1    3    3    0    0  0.89792071117E+01 -0.14436136721E+02  0.39932404809E+02  0.43400750657E+02  0.00000000000E+00 0. -1.
         11    1    4    4    0    0 -0.34006682757E+01 -0.28008498894E+00  0.46027780051E+00  0.34430870214E+01  0.51100000000E-03 0. -1.
        -11    1    4    4    0    0 -0.60018051201E+01  0.14410720770E+02 -0.28958783609E+02  0.32898353852E+02  0.51100000000E-03 0.  1.
        -12    1    4    4    0    0  0.42326628418E+00  0.30550093938E+00 -0.11433899000E+02  0.11445808469E+02  0.00000000000E+00 0.  1.
</event>
<event>
 8    1  0.5331800E-011  0.9118800E+02  0.7816164E-02  0.1184000E+00
        -11   -1    0    0    0    0  0.00000000000E+00  0.00000000000E+00  0.45593999997E+02  0.45594000000E+02  0.51100000000E-03 0. -1.
         11   -1    0    0    0    0 -0.00000000000E+00 -0.00000000000E+00 -0.45593999997E+02  0.45594000000E+02  0.51100000000E-03 0.  1.
         23    2    1    2    0    0  0.00000000000E+00  0.00000000000E+00  0.00000000000E+00  0.91188000000E+02  0.91188000000E+02 0.  0.
    9900012    2    3    3    0    0  0.25067615580E+02 -0.82553769504E+01  0.34454121636E+02  0.47787273080E+02  0.20000009282E+02 0.  0.
        -12    1    3    3    0    0 -0.25067615580E+02  0.82553769504E+01 -0.34454121636E+02  0.43400726920E+02  0.00000000000E+00 0.  1.
         11    1    4    4    0    0  0.21615720994E+02 -0.55737628690E+01  0.31322971751E+02  0.38463421405E+02  0.51100000000E-03 0. -1.
        -11    1    4    4    0    0 -0.51499962171E+00 -0.36441705242E+01  0.36806408797E+01  0.52050284308E+01  0.51100000000E-03 0.  1.
         12    1    4    4    0    0  0.39668942080E+01  0.96255644280E+00 -0.54949099491E+00  0.41188232442E+01  0.00000000000E+00 0. -1.
</event>
<event>
 8    1  0.5331800E-011  0.9118800E+02  0.7816164E-02  0.1184000E+00
        -11   -1    0    0    0    0  0.00000000000E+00  0.00000000000E+00  0.45593999997E+02  0.45594000000E+02  0.51100000000E-03 0. -1.
         11   -1    0    0    0    0 -0.00000000000E+00 -0.00000000000E+00 -0.45593999997E+02  0.45594000000E+02  0.51100000000E-03 0.  1.
         23    2    1    2    0    0  0.00000000000E+00  0.00000000000E+00 -0.35527136788E-14  0.91188000000E+02  0.91188000000E+02 0.  0.
    9900012    2    3    3    0    0  0.20617042539E+02 -0.21742065960E+02  0.31398137319E+02  0.47787275325E+02  0.20000019515E+02 0.  0.
        -12    1    3    3    0    0 -0.20617042539E+02  0.21742065960E+02 -0.31398137319E+02  0.43400724675E+02  0.00000000000E+00 0.  1.
         11    1    4    4    0    0  0.13201604969E+02 -0.97673308910E+01  0.39482804864E+01  0.16889998388E+02  0.51100000000E-03 0. -1.
        -11    1    4    4    0    0  0.62342121497E+01 -0.92099551037E+01  0.22657989471E+02  0.25240308264E+02  0.51100000000E-03 0.  1.
         12    1    4    4    0    0  0.11812254201E+01 -0.27647799654E+01  0.47918673615E+01  0.56569686724E+01  0.00000000000E+00 0. -1.
</event>
<event>
 8    1  0.5331800E-011  0.9118800E+02  0.7816164E-02  0.1184000E+00
        -11   -1    0    0    0    0  0.00000000000E+00  0.00000000000E+00  0.45593999997E+02  0.45594000000E+02  0.51100000000E-03 0. -1.
         11   -1    0    0    0    0 -0.00000000000E+00 -0.00000000000E+00 -0.45593999997E+02  0.45594000000E+02  0.51100000000E-03 0.  1.
         23    2    1    2    0    0  0.35527136788E-14 -0.17763568394E-14  0.00000000000E+00  0.91188000000E+02  0.91188000000E+02 0.  0.
    9900012    2    3    3    0    0  0.29831304861E+02  0.14860206418E+02  0.27800911683E+02  0.47787272184E+02  0.20000005195E+02 0.  0.
        -12    1    3    3    0    0 -0.29831304861E+02 -0.14860206418E+02 -0.27800911683E+02  0.43400727816E+02  0.00000000000E+00 0.  1.
         11    1    4    4    0    0 -0.70590578566E+00  0.28329854013E+01  0.76819265633E+01  0.82180353642E+01  0.51100000000E-03 0.  1.
        -11    1    4    4    0    0  0.56920333520E+01  0.31477273877E+01  0.19511398572E+00  0.65073420930E+01  0.51100000000E-03 0. -1.
         12    1    4    4    0    0  0.24845177295E+02  0.88794936294E+01  0.19923871134E+02  0.33061894727E+02  0.00000000000E+00 0. -1.
</event>
<event>
 8    1  0.5331800E-011  0.9118800E+02  0.7816164E-02  0.1184000E+00
        -11   -1    0    0    0    0  0.00000000000E+00  0.00000000000E+00  0.45593999997E+02  0.45594000000E+02  0.51100000000E-03 0. -1.
         11   -1    0    0    0    0 -0.00000000000E+00 -0.00000000000E+00 -0.45593999997E+02  0.45594000000E+02  0.51100000000E-03 0.  1.
         23    2    1    2    0    0  0.17763568394E-14 -0.71054273576E-14  0.00000000000E+00  0.91188000000E+02  0.91188000000E+02 0.  0.
    9900012    2    3    3    0    0  0.14442994694E+02 -0.36208559752E+02  0.19077824411E+02  0.47787270981E+02  0.19999999712E+02 0.  0.
        -12    1    3    3    0    0 -0.14442994694E+02  0.36208559752E+02 -0.19077824411E+02  0.43400729019E+02  0.00000000000E+00 0.  1.
         11    1    4    4    0    0  0.19202834538E+00 -0.69235635740E+01  0.11067400760E+02  0.13056031836E+02  0.51100000000E-03 0. -1.
        -11    1    4    4    0    0  0.59064511888E+01 -0.59648219380E+01 -0.82396601792E+00  0.84347013378E+01  0.51100000000E-03 0.  1.
         12    1    4    4    0    0  0.83445151603E+01 -0.23320174240E+02  0.88343896690E+01  0.26296537808E+02  0.00000000000E+00 0. -1.
</event>
<event>
 8    1  0.5331800E-011  0.9118800E+02  0.7816164E-02  0.1184000E+00
        -11   -1    0    0    0    0  0.00000000000E+00  0.00000000000E+00  0.45593999997E+02  0.45594000000E+02  0.51100000000E-03 0. -1.
         11   -1    0    0    0    0 -0.00000000000E+00 -0.00000000000E+00 -0.45593999997E+02  0.45594000000E+02  0.51100000000E-03 0.  1.
         23    2    1    2    0    0  0.00000000000E+00  0.00000000000E+00  0.00000000000E+00  0.91188000000E+02  0.91188000000E+02 0.  0.
    9900012    2    3    3    0    0 -0.20255062355E+02  0.12788234873E+02 -0.36191384844E+02  0.47787276053E+02  0.20000022835E+02 0.  0.
         12    1    3    3    0    0  0.20255062355E+02 -0.12788234873E+02  0.36191384844E+02  0.43400723947E+02  0.00000000000E+00 0. -1.
         11    1    4    4    0    0 -0.48228171746E+01 -0.32091274050E+01 -0.16226537259E+02  0.17229584321E+02  0.51100000000E-03 0. -1.
        -11    1    4    4    0    0 -0.15141667545E+02  0.12983106290E+02 -0.18455358218E+02  0.27174094138E+02  0.51100000000E-03 0.  1.
        -12    1    4    4    0    0 -0.29057763496E+00  0.30142559887E+01 -0.15094893672E+01  0.33835975938E+01  0.00000000000E+00 0.  1.
</event>
<event>
 8    1  0.5331800E-011  0.9118800E+02  0.7816164E-02  0.1184000E+00
        -11   -1    0    0    0    0  0.00000000000E+00  0.00000000000E+00  0.45593999997E+02  0.45594000000E+02  0.51100000000E-03 0. -1.
         11   -1    0    0    0    0 -0.00000000000E+00 -0.00000000000E+00 -0.45593999997E+02  0.45594000000E+02  0.51100000000E-03 0.  1.
         23    2    1    2    0    0  0.00000000000E+00  0.17763568394E-14 -0.71054273576E-14  0.91188000000E+02  0.91188000000E+02 0.  0.
    9900012    2    3    3    0    0 -0.96393812477E+01 -0.85166450942E+01  0.41450840314E+02  0.47787273309E+02  0.20000010327E+02 0.  0.
        -12    1    3    3    0    0  0.96393812477E+01  0.85166450942E+01 -0.41450840314E+02  0.43400726691E+02  0.00000000000E+00 0.  1.
         11    1    4    4    0    0 -0.21887753897E+01 -0.77210498577E+01  0.15790207947E+02  0.17712594837E+02  0.51100000000E-03 0. -1.
        -11    1    4    4    0    0 -0.94430041612E+01 -0.18521636528E+01  0.87247670945E+01  0.12989318646E+02  0.51100000000E-03 0.  1.
        -12    1    4    4    0    0  0.19923983032E+01  0.10565684163E+01  0.16935865273E+02  0.17085359825E+02  0.00000000000E+00 0.  1.
</event>
<event>
 8    1  0.5331800E-011  0.9118800E+02  0.7816164E-02  0.1184000E+00
        -11   -1    0    0    0    0  0.00000000000E+00  0.00000000000E+00  0.45593999997E+02  0.45594000000E+02  0.51100000000E-03 0. -1.
         11   -1    0    0    0    0 -0.00000000000E+00 -0.00000000000E+00 -0.45593999997E+02  0.45594000000E+02  0.51100000000E-03 0.  1.
         23    2    1    2    0    0  0.00000000000E+00 -0.88817841970E-15  0.00000000000E+00  0.91188000000E+02  0.91188000000E+02 0.  0.
    9900012    2    3    3    0    0 -0.20910568488E+02 -0.74674433528E+01  0.37290866603E+02  0.47787270551E+02  0.19999997748E+02 0.  0.
        -12    1    3    3    0    0  0.20910568488E+02  0.74674433528E+01 -0.37290866603E+02  0.43400729449E+02  0.00000000000E+00 0.  1.
         11    1    4    4    0    0 -0.20462264088E+02 -0.73708674400E+01  0.39384491021E+02  0.44990799856E+02  0.51100000000E-03 0. -1.
        -11    1    4    4    0    0 -0.66606869906E+00 -0.79617812412E+00 -0.16198903227E+01  0.19239521917E+01  0.51100000000E-03 0.  1.
         12    1    4    4    0    0  0.21776429908E+00  0.69960221138E+00 -0.47373409555E+00  0.87251850262E+00  0.00000000000E+00 0. -1.
</event>
<event>
 8    1  0.5331800E-011  0.9118800E+02  0.7816164E-02  0.1184000E+00
        -11   -1    0    0    0    0  0.00000000000E+00  0.00000000000E+00  0.45593999997E+02  0.45594000000E+02  0.51100000000E-03 0. -1.
         11   -1    0    0    0    0 -0.00000000000E+00 -0.00000000000E+00 -0.45593999997E+02  0.45594000000E+02  0.51100000000E-03 0.  1.
         23    2    1    2    0    0  0.00000000000E+00 -0.71054273576E-14 -0.35527136788E-14  0.91188000000E+02  0.91188000000E+02 0.  0.
    9900012    2    3    3    0    0  0.10557401198E+02  0.34276355066E+02 -0.24439671864E+02  0.47787253492E+02  0.19999919969E+02 0.  0.
         12    1    3    3    0    0 -0.10557401198E+02 -0.34276355066E+02  0.24439671864E+02  0.43400746508E+02  0.00000000000E+00 0. -1.
         11    1    4    4    0    0  0.97313322036E+01  0.54428607928E+01 -0.60798063388E+01  0.12699905726E+02  0.51100000000E-03 0. -1.
        -11    1    4    4    0    0  0.39448528255E+01  0.22221266599E+02 -0.14425231544E+02  0.26784955823E+02  0.51100000000E-03 0.  1.
         12    1    4    4    0    0 -0.31187838314E+01  0.66122276743E+01 -0.39346339805E+01  0.83023919423E+01  0.00000000000E+00 0. -1.
</event>
<event>
 8    1  0.5331800E-011  0.9118800E+02  0.7816164E-02  0.1184000E+00
        -11   -1    0    0    0    0  0.00000000000E+00  0.00000000000E+00  0.45593999997E+02  0.45594000000E+02  0.51100000000E-03 0. -1.
         11   -1    0    0    0    0 -0.00000000000E+00 -0.00000000000E+00 -0.45593999997E+02  0.45594000000E+02  0.51100000000E-03 0.  1.
         23    2    1    2    0    0  0.00000000000E+00  0.35527136788E-14  0.00000000000E+00  0.91188000000E+02  0.91188000000E+02 0.  0.
    9900012    2    3    3    0    0 -0.18408195139E+02  0.29883588590E+02 -0.25529058743E+02  0.47787270103E+02  0.19999995706E+02 0.  0.
         12    1    3    3    0    0  0.18408195139E+02 -0.29883588590E+02  0.25529058743E+02  0.43400729897E+02  0.00000000000E+00 0. -1.
         11    1    4    4    0    0  0.22230920606E+01  0.76590550169E+01 -0.91817401450E+01  0.12161727444E+02  0.51100000000E-03 0. -1.
        -11    1    4    4    0    0 -0.18597334129E+02  0.16572847758E+02 -0.98768554528E+01  0.26796872829E+02  0.51100000000E-03 0.  1.
        -12    1    4    4    0    0 -0.20339530704E+01  0.56516858152E+01 -0.64704631457E+01  0.88286698299E+01  0.00000000000E+00 0.  1.
</event>
<event>
 8    1  0.5331800E-011  0.9118800E+02  0.7816164E-02  0.1184000E+00
        -11   -1    0    0    0    0  0.00000000000E+00  0.00000000000E+00  0.45593999997E+02  0.45594000000E+02  0.51100000000E-03 0. -1.
         11   -1    0    0    0    0 -0.00000000000E+00 -0.00000000000E+00 -0.45593999997E+02  0.45594000000E+02  0.51100000000E-03 0.  1.
         23    2    1    2    0    0  0.00000000000E+00  0.00000000000E+00 -0.35527136788E-14  0.91188000000E+02  0.91188000000E+02 0.  0.
    9900012    2    3    3    0    0  0.94189546162E+01 -0.30238586754E+02  0.29673802017E+02  0.47787270040E+02  0.19999995420E+02 0.  0.
        -12    1    3    3    0    0 -0.94189546162E+01  0.30238586754E+02 -0.29673802017E+02  0.43400729960E+02  0.00000000000E+00 0.  1.
         11    1    4    4    0    0  0.53868356156E+00  0.24261426044E+01  0.33054586323E+01  0.41355054041E+01  0.51100000000E-03 0. -1.
        -11    1    4    4    0    0 -0.29001114244E+00  0.38206578672E+00  0.23548012783E+00  0.53435183152E+00  0.51100000000E-03 0.  1.
         12    1    4    4    0    0  0.91702821971E+01 -0.33046795145E+02  0.26132863257E+02  0.43117412804E+02  0.00000000000E+00 0. -1.
</event>
<event>
 8    1  0.5331800E-011  0.9118800E+02  0.7816164E-02  0.1184000E+00
        -11   -1    0    0    0    0  0.00000000000E+00  0.00000000000E+00  0.45593999997E+02  0.45594000000E+02  0.51100000000E-03 0. -1.
         11   -1    0    0    0    0 -0.00000000000E+00 -0.00000000000E+00 -0.45593999997E+02  0.45594000000E+02  0.51100000000E-03 0.  1.
         23    2    1    2    0    0 -0.71054273576E-14  0.00000000000E+00 -0.88817841970E-15  0.91188000000E+02  0.91188000000E+02 0.  0.
    9900012    2    3    3    0    0 -0.24392534000E+02  0.35481223208E+02 -0.54511644414E+01  0.47787215341E+02  0.19999746023E+02 0.  0.
         12    1    3    3    0    0  0.24392534000E+02 -0.35481223208E+02  0.54511644414E+01  0.43400784659E+02  0.00000000000E+00 0. -1.
         11    1    4    4    0    0 -0.24850246883E+01  0.27253178511E+01 -0.57771873133E+00  0.37331574149E+01  0.51100000000E-03 0. -1.
        -11    1    4    4    0    0  0.25833233375E+01 -0.13983120083E+00  0.66296989961E+00  0.26707005784E+01  0.51100000000E-03 0.  1.
        -12    1    4    4    0    0 -0.24490832649E+02  0.32895736558E+02 -0.55364156097E+01  0.41383357347E+02  0.00000000000E+00 0.  1.
</event>
<event>
 8    1  0.5331800E-011  0.9118800E+02  0.7816164E-02  0.1184000E+00
        -11   -1    0    0    0    0  0.00000000000E+00  0.00000000000E+00  0.45593999997E+02  0.45594000000E+02  0.51100000000E-03 0. -1.
         11   -1    0    0    0    0 -0.00000000000E+00 -0.00000000000E+00 -0.45593999997E+02  0.45594000000E+02  0.51100000000E-03 0.  1.
         23    2    1    2    0    0  0.44408920985E-15  0.00000000000E+00  0.00000000000E+00  0.91188000000E+02  0.91188000000E+02 0.  0.
    9900012    2    3    3    0    0 -0.22766967366E+01 -0.40572668022E+02  0.15241305637E+02  0.47787284153E+02  0.20000059769E+02 0.  0.
        -12    1    3    3    0    0  0.22766967366E+01  0.40572668022E+02 -0.15241305637E+02  0.43400715847E+02  0.00000000000E+00 0.  1.
         11    1    4    4    0    0  0.61642280830E+01 -0.28576397248E+02  0.10026174129E+02  0.30905215668E+02  0.51100000000E-03 0. -1.
        -11    1    4    4    0    0 -0.79913603098E+01 -0.95172869666E+01  0.16791552262E+01  0.12540341038E+02  0.51100000000E-03 0.  1.
         12    1    4    4    0    0 -0.44956450979E+00 -0.24789838074E+01  0.35359762817E+01  0.43417274477E+01  0.00000000000E+00 0. -1.
</event>
<event>
 8    1  0.5331800E-011  0.9118800E+02  0.7816164E-02  0.1184000E+00
        -11   -1    0    0    0    0  0.00000000000E+00  0.00000000000E+00  0.45593999997E+02  0.45594000000E+02  0.51100000000E-03 0. -1.
         11   -1    0    0    0    0 -0.00000000000E+00 -0.00000000000E+00 -0.45593999997E+02  0.45594000000E+02  0.51100000000E-03 0.  1.
         23    2    1    2    0    0  0.00000000000E+00  0.17763568394E-14  0.17763568394E-14  0.91188000000E+02  0.91188000000E+02 0.  0.
    9900012    2    3    3    0    0  0.41043714320E+02  0.12719701738E+02 -0.61029412663E+01  0.47787272015E+02  0.20000004427E+02 0.  0.
         12    1    3    3    0    0 -0.41043714320E+02 -0.12719701738E+02  0.61029412663E+01  0.43400727985E+02  0.00000000000E+00 0. -1.
         11    1    4    4    0    0  0.20949933897E+02  0.51811621296E+01  0.50827593309E+01  0.22171572203E+02  0.51100000000E-03 0. -1.
        -11    1    4    4    0    0  0.19547952539E+02  0.51982078766E+01 -0.83092598438E+01  0.21867501298E+02  0.51100000000E-03 0.  1.
         12    1    4    4    0    0  0.54582788426E+00  0.23403317323E+01 -0.28764407534E+01  0.37481985145E+01  0.00000000000E+00 0. -1.
</event>
<event>
 8    1  0.5331800E-011  0.9118800E+02  0.7816164E-02  0.1184000E+00
        -11   -1    0    0    0    0  0.00000000000E+00  0.00000000000E+00  0.45593999997E+02  0.45594000000E+02  0.51100000000E-03 0. -1.
         11   -1    0    0    0    0 -0.00000000000E+00 -0.00000000000E+00 -0.45593999997E+02  0.45594000000E+02  0.51100000000E-03 0.  1.
         23    2    1    2    0    0  0.00000000000E+00  0.00000000000E+00  0.88817841970E-15  0.91188000000E+02  0.91188000000E+02 0.  0.
    9900012    2    3    3    0    0 -0.42240617286E+02  0.84261834253E+01 -0.53247176438E+01  0.47787274962E+02  0.20000017864E+02 0.  0.
         12    1    3    3    0    0  0.42240617286E+02 -0.84261834253E+01  0.53247176438E+01  0.43400725038E+02  0.00000000000E+00 0. -1.
         11    1    4    4    0    0 -0.31110795354E+01  0.38826376180E+01 -0.81518718422E+00  0.50416486544E+01  0.51100000000E-03 0. -1.
        -11    1    4    4    0    0  0.26314805264E+00 -0.22455023888E+01 -0.13825281049E+01  0.26500777531E+01  0.51100000000E-03 0.  1.
        -12    1    4    4    0    0 -0.39392685803E+02  0.67890481961E+01 -0.31270023547E+01  0.40095548555E+02  0.00000000000E+00 0.  1.
</event>
<event>
 8    1  0.5331800E-011  0.9118800E+02  0.7816164E-02  0.1184000E+00
        -11   -1    0    0    0    0  0.00000000000E+00  0.00000000000E+00  0.45593999997E+02  0.45594000000E+02  0.51100000000E-03 0. -1.
         11   -1    0    0    0    0 -0.00000000000E+00 -0.00000000000E+00 -0.45593999997E+02  0.45594000000E+02  0.51100000000E-03 0.  1.
         23    2    1    2    0    0  0.88817841970E-15 -0.88817841970E-15 -0.71054273576E-14  0.91188000000E+02  0.91188000000E+02 0.  0.
    9900012    2    3    3    0    0 -0.62817105260E+01  0.49908507961E+01  0.42652723124E+02  0.47787271104E+02  0.20000000270E+02 0.  0.
        -12    1    3    3    0    0  0.62817105260E+01 -0.49908507961E+01 -0.42652723124E+02  0.43400728896E+02  0.00000000000E+00 0.  1.
         11    1    4    4    0    0 -0.62070511857E+01  0.99255450721E+01  0.13186303198E+02  0.17632995256E+02  0.51100000000E-03 0.  1.
        -11    1    4    4    0    0  0.44000750342E+00 -0.14245589049E+01  0.19822989896E+02  0.19878981447E+02  0.51100000000E-03 0. -1.
        -12    1    4    4    0    0 -0.51466684373E+00 -0.35101353711E+01  0.96434300298E+01  0.10275294401E+02  0.00000000000E+00 0.  1.
</event>
<event>
 8    1  0.5331800E-011  0.9118800E+02  0.7816164E-02  0.1184000E+00
        -11   -1    0    0    0    0  0.00000000000E+00  0.00000000000E+00  0.45593999997E+02  0.45594000000E+02  0.51100000000E-03 0. -1.
         11   -1    0    0    0    0 -0.00000000000E+00 -0.00000000000E+00 -0.45593999997E+02  0.45594000000E+02  0.51100000000E-03 0.  1.
         23    2    1    2    0    0  0.00000000000E+00  0.00000000000E+00  0.35527136788E-14  0.91188000000E+02  0.91188000000E+02 0.  0.
    9900012    2    3    3    0    0 -0.19782472220E+02 -0.28760900058E+02  0.25789280169E+02  0.47787279374E+02  0.20000037976E+02 0.  0.
        -12    1    3    3    0    0  0.19782472220E+02  0.28760900058E+02 -0.25789280169E+02  0.43400720626E+02  0.00000000000E+00 0.  1.
         11    1    4    4    0    0 -0.13590083127E+02 -0.70254750577E+01  0.53997100506E+01  0.16223579385E+02  0.51100000000E-03 0. -1.
        -11    1    4    4    0    0 -0.75874048666E+01 -0.20822216287E+02  0.17542516959E+02  0.28264346892E+02  0.51100000000E-03 0.  1.
        -12    1    4    4    0    0  0.13950157735E+01 -0.91320871332E+00  0.28470531591E+01  0.32993530962E+01  0.00000000000E+00 0.  1.
</event>
<event>
 8    1  0.5331800E-011  0.9118800E+02  0.7816164E-02  0.1184000E+00
        -11   -1    0    0    0    0  0.00000000000E+00  0.00000000000E+00  0.45593999997E+02  0.45594000000E+02  0.51100000000E-03 0. -1.
         11   -1    0    0    0    0 -0.00000000000E+00 -0.00000000000E+00 -0.45593999997E+02  0.45594000000E+02  0.51100000000E-03 0.  1.
         23    2    1    2    0    0 -0.71054273576E-14  0.00000000000E+00  0.00000000000E+00  0.91188000000E+02  0.91188000000E+02 0.  0.
    9900012    2    3    3    0    0 -0.39061921127E+02 -0.34939205564E+01  0.18589839107E+02  0.47787270962E+02  0.19999999624E+02 0.  0.
        -12    1    3    3    0    0  0.39061921127E+02  0.34939205564E+01 -0.18589839107E+02  0.43400729038E+02  0.00000000000E+00 0.  1.
         11    1    4    4    0    0 -0.83465216629E+01 -0.63543921162E+01  0.12521980785E+02  0.16335321425E+02  0.51100000000E-03 0. -1.
        -11    1    4    4    0    0 -0.16963567511E+02  0.17877891104E+01  0.29574355320E+01  0.17311996932E+02  0.51100000000E-03 0.  1.
         12    1    4    4    0    0 -0.13751831954E+02  0.10726824494E+01  0.31104227898E+01  0.14139952604E+02  0.00000000000E+00 0. -1.
</event>
<event>
 8    1  0.5331800E-011  0.9118800E+02  0.7816164E-02  0.1184000E+00
        -11   -1    0    0    0    0  0.00000000000E+00  0.00000000000E+00  0.45593999997E+02  0.45594000000E+02  0.51100000000E-03 0.  1.
         11   -1    0    0    0    0 -0.00000000000E+00 -0.00000000000E+00 -0.45593999997E+02  0.45594000000E+02  0.51100000000E-03 0. -1.
         23    2    1    2    0    0 -0.71054273576E-14  0.00000000000E+00  0.66613381478E-15  0.91188000000E+02  0.91188000000E+02 0.  0.
    9900012    2    3    3    0    0  0.37529672225E+02 -0.21787843791E+02  0.66069394546E+00  0.47787274765E+02  0.20000016964E+02 0.  0.
        -12    1    3    3    0    0 -0.37529672225E+02  0.21787843791E+02 -0.66069394546E+00  0.43400725235E+02  0.00000000000E+00 0.  1.
         11    1    4    4    0    0  0.70769230893E+01 -0.94792953424E+01  0.62931257463E+01  0.13399377318E+02  0.51100000000E-03 0. -1.
        -11    1    4    4    0    0  0.31021773762E+02 -0.11914371997E+02 -0.54998236924E+01  0.33683093212E+02  0.51100000000E-03 0.  1.
        -12    1    4    4    0    0 -0.56902462533E+00 -0.39417645147E+00 -0.13260810839E+00  0.70480423490E+00  0.00000000000E+00 0.  1.
</event>
<event>
 8    1  0.5331800E-011  0.9118800E+02  0.7816164E-02  0.1184000E+00
        -11   -1    0    0    0    0  0.00000000000E+00  0.00000000000E+00  0.45593999997E+02  0.45594000000E+02  0.51100000000E-03 0. -1.
         11   -1    0    0    0    0 -0.00000000000E+00 -0.00000000000E+00 -0.45593999997E+02  0.45594000000E+02  0.51100000000E-03 0.  1.
         23    2    1    2    0    0  0.00000000000E+00  0.00000000000E+00  0.00000000000E+00  0.91188000000E+02  0.91188000000E+02 0.  0.
    9900012    2    3    3    0    0  0.44653180040E+01 -0.59683262216E+01  0.42755859385E+02  0.47787268503E+02  0.19999988411E+02 0.  0.
        -12    1    3    3    0    0 -0.44653180040E+01  0.59683262216E+01 -0.42755859385E+02  0.43400731497E+02  0.00000000000E+00 0.  1.
         11    1    4    4    0    0 -0.18861109559E+01 -0.58106888089E+00  0.61714401181E+00  0.20678304028E+01  0.51100000000E-03 0.  1.
        -11    1    4    4    0    0  0.10519477150E+01 -0.10015212190E+02  0.30498692953E+02  0.32118240009E+02  0.51100000000E-03 0. -1.
        -12    1    4    4    0    0  0.52994812449E+01  0.46279548492E+01  0.11640022420E+02  0.13601198091E+02  0.00000000000E+00 0.  1.
</event>
<event>
 8    1  0.5331800E-011  0.9118800E+02  0.7816164E-02  0.1184000E+00
        -11   -1    0    0    0    0  0.00000000000E+00  0.00000000000E+00  0.45593999997E+02  0.45594000000E+02  0.51100000000E-03 0. -1.
         11   -1    0    0    0    0 -0.00000000000E+00 -0.00000000000E+00 -0.45593999997E+02  0.45594000000E+02  0.51100000000E-03 0.  1.
         23    2    1    2    0    0 -0.35527136788E-14 -0.71054273576E-14  0.00000000000E+00  0.91188000000E+02  0.91188000000E+02 0.  0.
    9900012    2    3    3    0    0 -0.23440703835E+02 -0.36061052293E+02 -0.58101114553E+01  0.47787268625E+02  0.19999988969E+02 0.  0.
        -12    1    3    3    0    0  0.23440703835E+02  0.36061052293E+02  0.58101114553E+01  0.43400731375E+02  0.00000000000E+00 0.  1.
         11    1    4    4    0    0 -0.13717374114E+02 -0.78763442948E+01 -0.22747719188E+01  0.15980542531E+02  0.51100000000E-03 0. -1.
        -11    1    4    4    0    0  0.76330270772E+00 -0.71827375283E+01  0.23677993263E+01  0.76013698328E+01  0.51100000000E-03 0.  1.
         12    1    4    4    0    0 -0.10486632429E+02 -0.21001970470E+02 -0.59031388628E+01  0.24205356261E+02  0.00000000000E+00 0. -1.
</event>
<event>
 8    1  0.5331800E-011  0.9118800E+02  0.7816164E-02  0.1184000E+00
        -11   -1    0    0    0    0  0.00000000000E+00  0.00000000000E+00  0.45593999997E+02  0.45594000000E+02  0.51100000000E-03 0. -1.
         11   -1    0    0    0    0 -0.00000000000E+00 -0.00000000000E+00 -0.45593999997E+02  0.45594000000E+02  0.51100000000E-03 0.  1.
         23    2    1    2    0    0 -0.35527136788E-14  0.00000000000E+00 -0.35527136788E-14  0.91188000000E+02  0.91188000000E+02 0.  0.
    9900012    2    3    3    0    0  0.28919929705E+02  0.13210848848E+02 -0.29542072647E+02  0.47787275147E+02  0.20000018705E+02 0.  0.
         12    1    3    3    0    0 -0.28919929705E+02 -0.13210848848E+02  0.29542072647E+02  0.43400724853E+02  0.00000000000E+00 0. -1.
         11    1    4    4    0    0  0.19827765223E+00  0.17514956594E+01  0.20269468742E+01  0.26861803670E+01  0.51100000000E-03 0. -1.
        -11    1    4    4    0    0  0.20058015299E+02  0.11626831809E+02 -0.19814927835E+02  0.30498173077E+02  0.51100000000E-03 0.  1.
         12    1    4    4    0    0  0.86636367544E+01 -0.16747862001E+00 -0.11754091687E+02  0.14602921703E+02  0.00000000000E+00 0. -1.
</event>
<event>
 8    1  0.5331800E-011  0.9118800E+02  0.7816164E-02  0.1184000E+00
        -11   -1    0    0    0    0  0.00000000000E+00  0.00000000000E+00  0.45593999997E+02  0.45594000000E+02  0.51100000000E-03 0. -1.
         11   -1    0    0    0    0 -0.00000000000E+00 -0.00000000000E+00 -0.45593999997E+02  0.45594000000E+02  0.51100000000E-03 0.  1.
         23    2    1    2    0    0  0.71054273576E-14  0.00000000000E+00 -0.26367796835E-15  0.91188000000E+02  0.91188000000E+02 0.  0.
    9900012    2    3    3    0    0  0.37773473652E+02 -0.21372527971E+02  0.50968733537E-01  0.47787275796E+02  0.20000021663E+02 0.  0.
         12    1    3    3    0    0 -0.37773473652E+02  0.21372527971E+02 -0.50968733537E-01  0.43400724204E+02  0.00000000000E+00 0. -1.
         11    1    4    4    0    0  0.44140901277E+01  0.28165698426E+01 -0.12236414029E+01  0.53772256674E+01  0.51100000000E-03 0. -1.
        -11    1    4    4    0    0  0.20880819742E+02 -0.17128493357E+02 -0.36444627947E+01  0.27252082987E+02  0.51100000000E-03 0.  1.
        -12    1    4    4    0    0  0.12478563783E+02 -0.70606044566E+01  0.49190729311E+01  0.15157967142E+02  0.00000000000E+00 0.  1.
</event>
<event>
 8    1  0.5331800E-011  0.9118800E+02  0.7816164E-02  0.1184000E+00
        -11   -1    0    0    0    0  0.00000000000E+00  0.00000000000E+00  0.45593999997E+02  0.45594000000E+02  0.51100000000E-03 0. -1.
         11   -1    0    0    0    0 -0.00000000000E+00 -0.00000000000E+00 -0.45593999997E+02  0.45594000000E+02  0.51100000000E-03 0.  1.
         23    2    1    2    0    0  0.00000000000E+00  0.88817841970E-15  0.00000000000E+00  0.91188000000E+02  0.91188000000E+02 0.  0.
    9900012    2    3    3    0    0 -0.40566610652E+02  0.79010818544E+01 -0.13249368563E+02  0.47787276946E+02  0.20000026909E+02 0.  0.
         12    1    3    3    0    0  0.40566610652E+02 -0.79010818544E+01  0.13249368563E+02  0.43400723054E+02  0.00000000000E+00 0. -1.
         11    1    4    4    0    0 -0.21823969934E+02  0.88365701849E+01 -0.14016460940E+01  0.23586760022E+02  0.51100000000E-03 0. -1.
        -11    1    4    4    0    0 -0.15553726180E+02  0.63522731635E+00 -0.13187391820E+02  0.20401696378E+02  0.51100000000E-03 0.  1.
        -12    1    4    4    0    0 -0.31889145385E+01 -0.15707156468E+01  0.13396693509E+01  0.37988205468E+01  0.00000000000E+00 0.  1.
</event>
<event>
 8    1  0.5331800E-011  0.9118800E+02  0.7816164E-02  0.1184000E+00
        -11   -1    0    0    0    0  0.00000000000E+00  0.00000000000E+00  0.45593999997E+02  0.45594000000E+02  0.51100000000E-03 0. -1.
         11   -1    0    0    0    0 -0.00000000000E+00 -0.00000000000E+00 -0.45593999997E+02  0.45594000000E+02  0.51100000000E-03 0.  1.
         23    2    1    2    0    0 -0.35527136788E-14  0.00000000000E+00  0.00000000000E+00  0.91188000000E+02  0.91188000000E+02 0.  0.
    9900012    2    3    3    0    0  0.17340758009E+02  0.19843944822E+02 -0.34483898791E+02  0.47787270625E+02  0.19999998088E+02 0.  0.
         12    1    3    3    0    0 -0.17340758009E+02 -0.19843944822E+02  0.34483898791E+02  0.43400729375E+02  0.00000000000E+00 0. -1.
         11    1    4    4    0    0  0.63590509832E+01  0.39928380932E+01 -0.12208104867E+02  0.14332414665E+02  0.51100000000E-03 0. -1.
        -11    1    4    4    0    0 -0.39835854031E+00  0.35548627787E+01 -0.14589565714E+02  0.15021689881E+02  0.51100000000E-03 0.  1.
        -12    1    4    4    0    0  0.11380065567E+02  0.12296243950E+02 -0.76862282106E+01  0.18433166079E+02  0.00000000000E+00 0.  1.
</event>
<event>
 8    1  0.5331800E-011  0.9118800E+02  0.7816164E-02  0.1184000E+00
        -11   -1    0    0    0    0  0.00000000000E+00  0.00000000000E+00  0.45593999997E+02  0.45594000000E+02  0.51100000000E-03 0.  1.
         11   -1    0    0    0    0 -0.00000000000E+00 -0.00000000000E+00 -0.45593999997E+02  0.45594000000E+02  0.51100000000E-03 0. -1.
         23    2    1    2    0    0  0.00000000000E+00 -0.83266726847E-16  0.00000000000E+00  0.91188000000E+02  0.91188000000E+02 0.  0.
    9900012    2    3    3    0    0 -0.42747947956E+02 -0.87316889707E-01 -0.74985822105E+01  0.47787269432E+02  0.19999992648E+02 0.  0.
        -12    1    3    3    0    0  0.42747947956E+02  0.87316889707E-01  0.74985822105E+01  0.43400730568E+02  0.00000000000E+00 0.  1.
         11    1    4    4    0    0 -0.19535656008E+02  0.85620735251E+01 -0.16807882447E+01  0.21395700692E+02  0.51100000000E-03 0. -1.
        -11    1    4    4    0    0 -0.14743299639E+02 -0.78029626781E+01 -0.63859250184E+01  0.17861443094E+02  0.51100000000E-03 0.  1.
        -12    1    4    4    0    0 -0.84689923087E+01 -0.84642773670E+00  0.56813105260E+00  0.85301256457E+01  0.00000000000E+00 0.  1.
</event>
<event>
 8    1  0.5331800E-011  0.9118800E+02  0.7816164E-02  0.1184000E+00
        -11   -1    0    0    0    0  0.00000000000E+00  0.00000000000E+00  0.45593999997E+02  0.45594000000E+02  0.51100000000E-03 0. -1.
         11   -1    0    0    0    0 -0.00000000000E+00 -0.00000000000E+00 -0.45593999997E+02  0.45594000000E+02  0.51100000000E-03 0.  1.
         23    2    1    2    0    0 -0.35527136788E-14  0.35527136788E-14 -0.35527136788E-14  0.91188000000E+02  0.91188000000E+02 0.  0.
    9900012    2    3    3    0    0  0.24168119723E+02 -0.23492182776E+02  0.27343053900E+02  0.47787271215E+02  0.20000000776E+02 0.  0.
        -12    1    3    3    0    0 -0.24168119723E+02  0.23492182776E+02 -0.27343053900E+02  0.43400728785E+02  0.00000000000E+00 0.  1.
         11    1    4    4    0    0  0.33078638575E+01 -0.47281493725E+01  0.11763818098E+01  0.58890775349E+01  0.51100000000E-03 0. -1.
        -11    1    4    4    0    0  0.13163742067E+02 -0.15721319124E+02  0.81379152886E+01  0.22060590330E+02  0.51100000000E-03 0.  1.
        -12    1    4    4    0    0  0.76965137985E+01 -0.30427142790E+01  0.18028756801E+02  0.19837603349E+02  0.00000000000E+00 0.  1.
</event>
<event>
 8    1  0.5331800E-011  0.9118800E+02  0.7816164E-02  0.1184000E+00
        -11   -1    0    0    0    0  0.00000000000E+00  0.00000000000E+00  0.45593999997E+02  0.45594000000E+02  0.51100000000E-03 0.  1.
         11   -1    0    0    0    0 -0.00000000000E+00 -0.00000000000E+00 -0.45593999997E+02  0.45594000000E+02  0.51100000000E-03 0. -1.
         23    2    1    2    0    0  0.00000000000E+00  0.00000000000E+00  0.00000000000E+00  0.91188000000E+02  0.91188000000E+02 0.  0.
    9900012    2    3    3    0    0 -0.35679334333E+02  0.21918625982E+02 -0.11409754272E+02  0.47787267795E+02  0.19999985183E+02 0.  0.
         12    1    3    3    0    0  0.35679334333E+02 -0.21918625982E+02  0.11409754272E+02  0.43400732205E+02  0.00000000000E+00 0. -1.
         11    1    4    4    0    0 -0.28387041272E+02  0.11059120795E+02 -0.40731431571E+01  0.30736277595E+02  0.51100000000E-03 0. -1.
        -11    1    4    4    0    0 -0.29391508055E+01  0.80039804111E+01 -0.61461119984E+00  0.85486874470E+01  0.51100000000E-03 0.  1.
         12    1    4    4    0    0 -0.43531422555E+01  0.28555247764E+01 -0.67219999151E+01  0.85023027530E+01  0.00000000000E+00 0. -1.
</event>
<event>
 8    1  0.5331800E-011  0.9118800E+02  0.7816164E-02  0.1184000E+00
        -11   -1    0    0    0    0  0.00000000000E+00  0.00000000000E+00  0.45593999997E+02  0.45594000000E+02  0.51100000000E-03 0. -1.
         11   -1    0    0    0    0 -0.00000000000E+00 -0.00000000000E+00 -0.45593999997E+02  0.45594000000E+02  0.51100000000E-03 0.  1.
         23    2    1    2    0    0 -0.88817841970E-15  0.00000000000E+00  0.00000000000E+00  0.91188000000E+02  0.91188000000E+02 0.  0.
    9900012    2    3    3    0    0 -0.32832751730E+01  0.29188928865E+02 -0.31950740898E+02  0.47787270650E+02  0.19999998201E+02 0.  0.
         12    1    3    3    0    0  0.32832751730E+01 -0.29188928865E+02  0.31950740898E+02  0.43400729350E+02  0.00000000000E+00 0. -1.
         11    1    4    4    0    0 -0.71342504397E+01  0.62284969376E+01 -0.29224500552E+01  0.99112268678E+01  0.51100000000E-03 0. -1.
        -11    1    4    4    0    0  0.48826746966E+01  0.10558571821E+02 -0.16754697712E+02  0.20397152909E+02  0.51100000000E-03 0.  1.
        -12    1    4    4    0    0 -0.10316994299E+01  0.12401860106E+02 -0.12273593131E+02  0.17478890873E+02  0.00000000000E+00 0.  1.
</event>
<event>
 8    1  0.5331800E-011  0.9118800E+02  0.7816164E-02  0.1184000E+00
        -11   -1    0    0    0    0  0.00000000000E+00  0.00000000000E+00  0.45593999997E+02  0.45594000000E+02  0.51100000000E-03 0.  1.
         11   -1    0    0    0    0 -0.00000000000E+00 -0.00000000000E+00 -0.45593999997E+02  0.45594000000E+02  0.51100000000E-03 0. -1.
         23    2    1    2    0    0  0.00000000000E+00  0.13877787808E-15 -0.35527136788E-14  0.91188000000E+02  0.91188000000E+02 0.  0.
    9900012    2    3    3    0    0  0.41470298831E+02  0.20206800687E+00  0.12798331464E+02  0.47787264927E+02  0.19999972110E+02 0.  0.
        -12    1    3    3    0    0 -0.41470298831E+02 -0.20206800687E+00 -0.12798331464E+02  0.43400735073E+02  0.00000000000E+00 0.  1.
         11    1    4    4    0    0  0.29147701644E+02  0.41561077931E+01  0.10487109952E+02  0.31254459178E+02  0.51100000000E-03 0. -1.
        -11    1    4    4    0    0  0.10729973377E+01 -0.39144672484E+01  0.33120464865E+01  0.52387049273E+01  0.51100000000E-03 0.  1.
        -12    1    4    4    0    0  0.11249599849E+02 -0.39572537841E-01 -0.10008249741E+01  0.11294100822E+02  0.00000000000E+00 0.  1.
</event>
<event>
 8    1  0.5331800E-011  0.9118800E+02  0.7816164E-02  0.1184000E+00
        -11   -1    0    0    0    0  0.00000000000E+00  0.00000000000E+00  0.45593999997E+02  0.45594000000E+02  0.51100000000E-03 0. -1.
         11   -1    0    0    0    0 -0.00000000000E+00 -0.00000000000E+00 -0.45593999997E+02  0.45594000000E+02  0.51100000000E-03 0.  1.
         23    2    1    2    0    0  0.00000000000E+00  0.17763568394E-14 -0.71054273576E-14  0.91188000000E+02  0.91188000000E+02 0.  0.
    9900012    2    3    3    0    0  0.24508401684E+01 -0.15170689316E+02  0.40588995781E+02  0.47787274081E+02  0.20000013844E+02 0.  0.
        -12    1    3    3    0    0 -0.24508401684E+01  0.15170689316E+02 -0.40588995781E+02  0.43400725919E+02  0.00000000000E+00 0.  1.
         11    1    4    4    0    0  0.33092048191E+01  0.19981519185E+01  0.19609204432E+02  0.19986604172E+02  0.51100000000E-03 0. -1.
        -11    1    4    4    0    0 -0.98478637857E+00 -0.58686143080E+01  0.32632393341E+01  0.67866906014E+01  0.51100000000E-03 0.  1.
         12    1    4    4    0    0  0.12642172779E+00 -0.11300226926E+02  0.17716552015E+02  0.21013979307E+02  0.00000000000E+00 0. -1.
</event>
<event>
 8    1  0.5331800E-011  0.9118800E+02  0.7816164E-02  0.1184000E+00
        -11   -1    0    0    0    0  0.00000000000E+00  0.00000000000E+00  0.45593999997E+02  0.45594000000E+02  0.51100000000E-03 0. -1.
         11   -1    0    0    0    0 -0.00000000000E+00 -0.00000000000E+00 -0.45593999997E+02  0.45594000000E+02  0.51100000000E-03 0.  1.
         23    2    1    2    0    0  0.35527136788E-14  0.35527136788E-14  0.00000000000E+00  0.91188000000E+02  0.91188000000E+02 0.  0.
    9900012    2    3    3    0    0 -0.25929996839E+02 -0.28522359346E+02 -0.19943238526E+02  0.47787280171E+02  0.20000041612E+02 0.  0.
         12    1    3    3    0    0  0.25929996839E+02  0.28522359346E+02  0.19943238526E+02  0.43400719829E+02  0.00000000000E+00 0. -1.
         11    1    4    4    0    0 -0.13977612405E+02 -0.46967798666E+01 -0.13989834473E+02  0.20326063527E+02  0.51100000000E-03 0. -1.
        -11    1    4    4    0    0 -0.75485805063E+01 -0.12571088553E+02 -0.23531511597E+01  0.14850947973E+02  0.51100000000E-03 0.  1.
         12    1    4    4    0    0 -0.44038039282E+01 -0.11254490927E+02 -0.36002528934E+01  0.12610268671E+02  0.00000000000E+00 0. -1.
</event>
<event>
 8    1  0.5331800E-011  0.9118800E+02  0.7816164E-02  0.1184000E+00
        -11   -1    0    0    0    0  0.00000000000E+00  0.00000000000E+00  0.45593999997E+02  0.45594000000E+02  0.51100000000E-03 0. -1.
         11   -1    0    0    0    0 -0.00000000000E+00 -0.00000000000E+00 -0.45593999997E+02  0.45594000000E+02  0.51100000000E-03 0.  1.
         23    2    1    2    0    0  0.00000000000E+00 -0.71054273576E-14 -0.44408920985E-15  0.91188000000E+02  0.91188000000E+02 0.  0.
    9900012    2    3    3    0    0 -0.22014728938E+02 -0.37216553332E+02 -0.37286571448E+01  0.47787274012E+02  0.20000013532E+02 0.  0.
        -12    1    3    3    0    0  0.22014728938E+02  0.37216553332E+02  0.37286571448E+01  0.43400725988E+02  0.00000000000E+00 0.  1.
         11    1    4    4    0    0 -0.10131981762E+02 -0.14017956121E+02 -0.39324573434E+01  0.17737653995E+02  0.51100000000E-03 0. -1.
        -11    1    4    4    0    0  0.10199953486E+01 -0.33222414417E+01  0.47849288224E+01  0.59138162640E+01  0.51100000000E-03 0.  1.
        -12    1    4    4    0    0 -0.12902742525E+02 -0.19876355769E+02 -0.45811286239E+01  0.24135803753E+02  0.00000000000E+00 0.  1.
</event>
<event>
 8    1  0.5331800E-011  0.9118800E+02  0.7816164E-02  0.1184000E+00
        -11   -1    0    0    0    0  0.00000000000E+00  0.00000000000E+00  0.45593999997E+02  0.45594000000E+02  0.51100000000E-03 0. -1.
         11   -1    0    0    0    0 -0.00000000000E+00 -0.00000000000E+00 -0.45593999997E+02  0.45594000000E+02  0.51100000000E-03 0.  1.
         23    2    1    2    0    0  0.00000000000E+00  0.00000000000E+00  0.00000000000E+00  0.91188000000E+02  0.91188000000E+02 0.  0.
    9900012    2    3    3    0    0 -0.48406932342E+01  0.12334906840E+02 -0.41328451646E+02  0.47787272435E+02  0.20000006338E+02 0.  0.
         12    1    3    3    0    0  0.48406932342E+01 -0.12334906840E+02  0.41328451646E+02  0.43400727565E+02  0.00000000000E+00 0. -1.
         11    1    4    4    0    0 -0.30717328909E+00  0.25081260349E+01 -0.23846360339E+01  0.34744123117E+01  0.51100000000E-03 0. -1.
        -11    1    4    4    0    0 -0.17415259989E+01  0.96197964741E+01 -0.64804763715E+01  0.11729022605E+02  0.51100000000E-03 0.  1.
        -12    1    4    4    0    0 -0.27919939463E+01  0.20698433075E+00 -0.32463339241E+02  0.32583837518E+02  0.00000000000E+00 0.  1.
</event>
<event>
 8    1  0.5331800E-011  0.9118800E+02  0.7816164E-02  0.1184000E+00
        -11   -1    0    0    0    0  0.00000000000E+00  0.00000000000E+00  0.45593999997E+02  0.45594000000E+02  0.51100000000E-03 0. -1.
         11   -1    0    0    0    0 -0.00000000000E+00 -0.00000000000E+00 -0.45593999997E+02  0.45594000000E+02  0.51100000000E-03 0.  1.
         23    2    1    2    0    0  0.00000000000E+00  0.17763568394E-14  0.71054273576E-14  0.91188000000E+02  0.91188000000E+02 0.  0.
    9900012    2    3    3    0    0  0.10456501487E+02 -0.10978521922E+02  0.40666411691E+02  0.47787269514E+02  0.19999993022E+02 0.  0.
        -12    1    3    3    0    0 -0.10456501487E+02  0.10978521922E+02 -0.40666411691E+02  0.43400730486E+02  0.00000000000E+00 0.  1.
         11    1    4    4    0    0  0.67187416112E+01 -0.16073745658E+02  0.35161658669E+02  0.39240910144E+02  0.51100000000E-03 0. -1.
        -11    1    4    4    0    0  0.24465971849E+01  0.44858772773E+01  0.42963647553E+01  0.66759031676E+01  0.51100000000E-03 0.  1.
         12    1    4    4    0    0  0.12911626911E+01  0.60934645924E+00  0.12083882666E+01  0.18704562024E+01  0.00000000000E+00 0. -1.
</event>
<event>
 8    1  0.5331800E-011  0.9118800E+02  0.7816164E-02  0.1184000E+00
        -11   -1    0    0    0    0  0.00000000000E+00  0.00000000000E+00  0.45593999997E+02  0.45594000000E+02  0.51100000000E-03 0. -1.
         11   -1    0    0    0    0 -0.00000000000E+00 -0.00000000000E+00 -0.45593999997E+02  0.45594000000E+02  0.51100000000E-03 0.  1.
         23    2    1    2    0    0 -0.35527136788E-14 -0.17763568394E-14 -0.71054273576E-14  0.91188000000E+02  0.91188000000E+02 0.  0.
    9900012    2    3    3    0    0 -0.28508690550E+02 -0.10628978907E+02 -0.30950006574E+02  0.47787268020E+02  0.19999986208E+02 0.  0.
         12    1    3    3    0    0  0.28508690550E+02  0.10628978907E+02  0.30950006574E+02  0.43400731980E+02  0.00000000000E+00 0. -1.
         11    1    4    4    0    0 -0.16593983521E+01 -0.31437000040E+00  0.25480404041E+01  0.30569497134E+01  0.51100000000E-03 0. -1.
        -11    1    4    4    0    0 -0.12406068078E+02 -0.11614825091E+01 -0.15786498406E+02  0.20111516575E+02  0.51100000000E-03 0.  1.
         12    1    4    4    0    0 -0.14443224121E+02 -0.91531263976E+01 -0.17711548572E+02  0.24618801731E+02  0.00000000000E+00 0. -1.
</event>
<event>
 8    1  0.5331800E-011  0.9118800E+02  0.7816164E-02  0.1184000E+00
        -11   -1    0    0    0    0  0.00000000000E+00  0.00000000000E+00  0.45593999997E+02  0.45594000000E+02  0.51100000000E-03 0. -1.
         11   -1    0    0    0    0 -0.00000000000E+00 -0.00000000000E+00 -0.45593999997E+02  0.45594000000E+02  0.51100000000E-03 0.  1.
         23    2    1    2    0    0  0.00000000000E+00  0.44408920985E-15  0.00000000000E+00  0.91188000000E+02  0.91188000000E+02 0.  0.
    9900012    2    3    3    0    0 -0.22884549288E+02 -0.22080506723E+01  0.36810947142E+02  0.47787263677E+02  0.19999966408E+02 0.  0.
        -12    1    3    3    0    0  0.22884549288E+02  0.22080506723E+01 -0.36810947142E+02  0.43400736323E+02  0.00000000000E+00 0.  1.
         11    1    4    4    0    0 -0.42405803322E+01  0.46801390623E+01  0.18409783730E+01  0.65784059487E+01  0.51100000000E-03 0. -1.
        -11    1    4    4    0    0 -0.10369697662E+02 -0.60844021835E+01  0.12944034493E+02  0.17666312822E+02  0.51100000000E-03 0.  1.
         12    1    4    4    0    0 -0.82742712945E+01 -0.80378755105E+00  0.22025934277E+02  0.23542544906E+02  0.00000000000E+00 0. -1.
</event>
<event>
 8    1  0.7892851E-011  0.9118800E+02  0.7816164E-02  0.1184000E+00
        -11   -1    0    0    0    0  0.00000000000E+00  0.00000000000E+00  0.45593999997E+02  0.45594000000E+02  0.51100000000E-03 0. -1.
         11   -1    0    0    0    0 -0.00000000000E+00 -0.00000000000E+00 -0.45593999997E+02  0.45594000000E+02  0.51100000000E-03 0.  1.
         23    2    1    2    0    0  0.00000000000E+00  0.00000000000E+00  0.00000000000E+00  0.91188000000E+02  0.91188000000E+02 0.  0.
    9900012    2    3    3    0    0 -0.21957670875E+02  0.21173957671E+02 -0.30873040357E+02  0.47787303985E+02  0.20000150189E+02 0.  0.
         12    1    3    3    0    0  0.21957670875E+02 -0.21173957671E+02  0.30873040357E+02  0.43400696015E+02  0.00000000000E+00 0. -1.
         11    1    4    4    0    0 -0.11681795069E+01  0.20800952971E+01  0.17737431992E+01  0.29728109598E+01  0.51100000000E-03 0. -1.
        -11    1    4    4    0    0 -0.16547472763E+02  0.17232793130E+02 -0.32291254733E+02  0.40168559178E+02  0.51100000000E-03 0.  1.
        -12    1    4    4    0    0 -0.42420186044E+01  0.18610692441E+01 -0.35552882321E+00  0.46459338476E+01  0.00000000000E+00 0.  1.
</event>
<event>
 8    1  0.5331800E-011  0.9118800E+02  0.7816164E-02  0.1184000E+00
        -11   -1    0    0    0    0  0.00000000000E+00  0.00000000000E+00  0.45593999997E+02  0.45594000000E+02  0.51100000000E-03 0. -1.
         11   -1    0    0    0    0 -0.00000000000E+00 -0.00000000000E+00 -0.45593999997E+02  0.45594000000E+02  0.51100000000E-03 0.  1.
         23    2    1    2    0    0  0.31918911958E-15  0.00000000000E+00  0.35527136788E-14  0.91188000000E+02  0.91188000000E+02 0.  0.
    9900012    2    3    3    0    0 -0.21093971862E-01 -0.32770960697E+02  0.28454991631E+02  0.47787275828E+02  0.20000021809E+02 0.  0.
        -12    1    3    3    0    0  0.21093971862E-01  0.32770960697E+02 -0.28454991631E+02  0.43400724172E+02  0.00000000000E+00 0.  1.
         11    1    4    4    0    0 -0.31223680631E+01 -0.24311812024E+02  0.29416340273E+02  0.38290135303E+02  0.51100000000E-03 0. -1.
        -11    1    4    4    0    0  0.34634240141E+01 -0.65088214529E+01 -0.20990420965E+00  0.73759150379E+01  0.51100000000E-03 0.  1.
         12    1    4    4    0    0 -0.36214992295E+00 -0.19503272201E+01 -0.75144443213E+00  0.21212254870E+01  0.00000000000E+00 0. -1.
</event>
<event>
 8    1  0.5331800E-011  0.9118800E+02  0.7816164E-02  0.1184000E+00
        -11   -1    0    0    0    0  0.00000000000E+00  0.00000000000E+00  0.45593999997E+02  0.45594000000E+02  0.51100000000E-03 0. -1.
         11   -1    0    0    0    0 -0.00000000000E+00 -0.00000000000E+00 -0.45593999997E+02  0.45594000000E+02  0.51100000000E-03 0.  1.
         23    2    1    2    0    0  0.00000000000E+00  0.00000000000E+00  0.00000000000E+00  0.91188000000E+02  0.91188000000E+02 0.  0.
    9900012    2    3    3    0    0  0.10314506922E+02 -0.84457722800E+01 -0.41302580511E+02  0.47787270981E+02  0.19999999712E+02 0.  0.
         12    1    3    3    0    0 -0.10314506922E+02  0.84457722800E+01  0.41302580511E+02  0.43400729019E+02  0.00000000000E+00 0. -1.
         11    1    4    4    0    0  0.46274233971E+01 -0.37770611218E-01 -0.41767234052E+01  0.62337382508E+01  0.51100000000E-03 0. -1.
        -11    1    4    4    0    0 -0.12449291714E+01  0.39564542972E+01 -0.12111188197E+02  0.12801728752E+02  0.51100000000E-03 0.  1.
        -12    1    4    4    0    0  0.69320126965E+01 -0.12364455966E+02 -0.25014668909E+02  0.28751803978E+02  0.00000000000E+00 0.  1.
</event>
<event>
 8    1  0.5331800E-011  0.9118800E+02  0.7816164E-02  0.1184000E+00
        -11   -1    0    0    0    0  0.00000000000E+00  0.00000000000E+00  0.45593999997E+02  0.45594000000E+02  0.51100000000E-03 0. -1.
         11   -1    0    0    0    0 -0.00000000000E+00 -0.00000000000E+00 -0.45593999997E+02  0.45594000000E+02  0.51100000000E-03 0.  1.
         23    2    1    2    0    0  0.00000000000E+00  0.00000000000E+00  0.00000000000E+00  0.91188000000E+02  0.91188000000E+02 0.  0.
    9900012    2    3    3    0    0  0.96922338364E+01  0.31195221029E+02 -0.28575202472E+02  0.47787269498E+02  0.19999992949E+02 0.  0.
         12    1    3    3    0    0 -0.96922338364E+01 -0.31195221029E+02  0.28575202472E+02  0.43400730502E+02  0.00000000000E+00 0. -1.
         11    1    4    4    0    0 -0.11328567576E+01  0.10283926050E+02 -0.11518079844E+02  0.15482527668E+02  0.51100000000E-03 0. -1.
        -11    1    4    4    0    0  0.93980148934E+01  0.64390388896E+01 -0.23702424005E+01  0.11636234574E+02  0.51100000000E-03 0.  1.
        -12    1    4    4    0    0  0.14270757006E+01  0.14472256089E+02 -0.14686880228E+02  0.20668507256E+02  0.00000000000E+00 0.  1.
</event>
<event>
 8    1  0.5331800E-011  0.9118800E+02  0.7816164E-02  0.1184000E+00
        -11   -1    0    0    0    0  0.00000000000E+00  0.00000000000E+00  0.45593999997E+02  0.45594000000E+02  0.51100000000E-03 0. -1.
         11   -1    0    0    0    0 -0.00000000000E+00 -0.00000000000E+00 -0.45593999997E+02  0.45594000000E+02  0.51100000000E-03 0.  1.
         23    2    1    2    0    0  0.35527136788E-14  0.00000000000E+00 -0.35527136788E-14  0.91188000000E+02  0.91188000000E+02 0.  0.
    9900012    2    3    3    0    0  0.29537836845E+02 -0.10084173052E+02 -0.30157073528E+02  0.47787269184E+02  0.19999991516E+02 0.  0.
         12    1    3    3    0    0 -0.29537836845E+02  0.10084173052E+02  0.30157073528E+02  0.43400730816E+02  0.00000000000E+00 0. -1.
         11    1    4    4    0    0 -0.18679680088E+01  0.12209852439E+00 -0.44392978322E+01  0.48178395610E+01  0.51100000000E-03 0. -1.
        -11    1    4    4    0    0  0.14344729525E+02 -0.23733383310E+01 -0.59567696101E+01  0.15712641549E+02  0.51100000000E-03 0.  1.
         12    1    4    4    0    0  0.17061075328E+02 -0.78329332452E+01 -0.19761006086E+02  0.27256788074E+02  0.00000000000E+00 0. -1.
</event>
<event>
 8    1  0.5331800E-011  0.9118800E+02  0.7816164E-02  0.1184000E+00
        -11   -1    0    0    0    0  0.00000000000E+00  0.00000000000E+00  0.45593999997E+02  0.45594000000E+02  0.51100000000E-03 0. -1.
         11   -1    0    0    0    0 -0.00000000000E+00 -0.00000000000E+00 -0.45593999997E+02  0.45594000000E+02  0.51100000000E-03 0.  1.
         23    2    1    2    0    0 -0.22204460493E-15  0.00000000000E+00 -0.35527136788E-14  0.91188000000E+02  0.91188000000E+02 0.  0.
    9900012    2    3    3    0    0  0.66112045848E+00  0.31254653971E+02 -0.30105362694E+02  0.47787270306E+02  0.19999996631E+02 0.  0.
         12    1    3    3    0    0 -0.66112045848E+00 -0.31254653971E+02  0.30105362694E+02  0.43400729694E+02  0.00000000000E+00 0. -1.
         11    1    4    4    0    0  0.79225618711E+00  0.19330689043E+01 -0.15051238560E+00  0.20945356273E+01  0.51100000000E-03 0. -1.
        -11    1    4    4    0    0  0.25325523288E+01  0.30491940399E+02 -0.29903124942E+02  0.42782813514E+02  0.51100000000E-03 0.  1.
        -12    1    4    4    0    0 -0.26636880574E+01 -0.11703553325E+01 -0.51725366265E-01  0.29099211648E+01  0.00000000000E+00 0.  1.
</event>
<event>
 8    1  0.5331800E-011  0.9118800E+02  0.7816164E-02  0.1184000E+00
        -11   -1    0    0    0    0  0.00000000000E+00  0.00000000000E+00  0.45593999997E+02  0.45594000000E+02  0.51100000000E-03 0.  1.
         11   -1    0    0    0    0 -0.00000000000E+00 -0.00000000000E+00 -0.45593999997E+02  0.45594000000E+02  0.51100000000E-03 0. -1.
         23    2    1    2    0    0  0.00000000000E+00 -0.71054273576E-14  0.00000000000E+00  0.91188000000E+02  0.91188000000E+02 0.  0.
    9900012    2    3    3    0    0 -0.19835082022E+02 -0.33043914915E+02 -0.19957250968E+02  0.47787278140E+02  0.20000032354E+02 0.  0.
         12    1    3    3    0    0  0.19835082022E+02  0.33043914915E+02  0.19957250968E+02  0.43400721860E+02  0.00000000000E+00 0. -1.
         11    1    4    4    0    0  0.51997530849E+00 -0.29653367091E+01 -0.30864893104E+01  0.43116136938E+01  0.51100000000E-03 0. -1.
        -11    1    4    4    0    0 -0.78251811710E+00 -0.15530885285E+02 -0.82967225181E+01  0.17625445729E+02  0.51100000000E-03 0.  1.
        -12    1    4    4    0    0 -0.19572539214E+02 -0.14547692920E+02 -0.85740391394E+01  0.25850218717E+02  0.00000000000E+00 0.  1.
</event>
<event>
 8    1  0.5331800E-011  0.9118800E+02  0.7816164E-02  0.1184000E+00
        -11   -1    0    0    0    0  0.00000000000E+00  0.00000000000E+00  0.45593999997E+02  0.45594000000E+02  0.51100000000E-03 0. -1.
         11   -1    0    0    0    0 -0.00000000000E+00 -0.00000000000E+00 -0.45593999997E+02  0.45594000000E+02  0.51100000000E-03 0.  1.
         23    2    1    2    0    0 -0.71054273576E-14 -0.44408920985E-15 -0.35527136788E-14  0.91188000000E+02  0.91188000000E+02 0.  0.
    9900012    2    3    3    0    0  0.33736780474E+02  0.37530804961E+01  0.27043798994E+02  0.47787273808E+02  0.20000012600E+02 0.  0.
        -12    1    3    3    0    0 -0.33736780474E+02 -0.37530804961E+01 -0.27043798994E+02  0.43400726192E+02  0.00000000000E+00 0.  1.
         11    1    4    4    0    0  0.23524498499E+02 -0.44111833763E+01  0.14106118532E+02  0.27782065235E+02  0.51100000000E-03 0. -1.
        -11    1    4    4    0    0 -0.10181611048E+01  0.24600689579E+01  0.22303367216E+01  0.34731820375E+01  0.51100000000E-03 0.  1.
        -12    1    4    4    0    0  0.11230443079E+02  0.57041949144E+01  0.10707343741E+02  0.16532026536E+02  0.00000000000E+00 0.  1.
</event>
<event>
 8    1  0.5331800E-011  0.9118800E+02  0.7816164E-02  0.1184000E+00
        -11   -1    0    0    0    0  0.00000000000E+00  0.00000000000E+00  0.45593999997E+02  0.45594000000E+02  0.51100000000E-03 0. -1.
         11   -1    0    0    0    0 -0.00000000000E+00 -0.00000000000E+00 -0.45593999997E+02  0.45594000000E+02  0.51100000000E-03 0.  1.
         23    2    1    2    0    0  0.88817841970E-15  0.00000000000E+00  0.35527136788E-14  0.91188000000E+02  0.91188000000E+02 0.  0.
    9900012    2    3    3    0    0 -0.69813427542E+01 -0.34884346986E+02 -0.24858929689E+02  0.47787271935E+02  0.20000004059E+02 0.  0.
         12    1    3    3    0    0  0.69813427542E+01  0.34884346986E+02  0.24858929689E+02  0.43400728065E+02  0.00000000000E+00 0. -1.
         11    1    4    4    0    0 -0.41810549155E+01 -0.11816745307E+02  0.89430619736E+00  0.12566482152E+02  0.51100000000E-03 0. -1.
        -11    1    4    4    0    0  0.97807732571E+00 -0.15846648691E+02 -0.17007578286E+02  0.23266513048E+02  0.51100000000E-03 0.  1.
         12    1    4    4    0    0 -0.37783651644E+01 -0.72209529886E+01 -0.87456576008E+01  0.11954276735E+02  0.00000000000E+00 0. -1.
</event>
<event>
 8    1  0.5331800E-011  0.9118800E+02  0.7816164E-02  0.1184000E+00
        -11   -1    0    0    0    0  0.00000000000E+00  0.00000000000E+00  0.45593999997E+02  0.45594000000E+02  0.51100000000E-03 0. -1.
         11   -1    0    0    0    0 -0.00000000000E+00 -0.00000000000E+00 -0.45593999997E+02  0.45594000000E+02  0.51100000000E-03 0.  1.
         23    2    1    2    0    0  0.35527136788E-14  0.35527136788E-14  0.17763568394E-14  0.91188000000E+02  0.91188000000E+02 0.  0.
    9900012    2    3    3    0    0  0.29315706138E+02  0.29206230618E+02  0.13084683526E+02  0.47787268713E+02  0.19999989370E+02 0.  0.
        -12    1    3    3    0    0 -0.29315706138E+02 -0.29206230618E+02 -0.13084683526E+02  0.43400731287E+02  0.00000000000E+00 0.  1.
         11    1    4    4    0    0  0.52114236209E+01  0.12198346927E+02  0.39530670010E+01  0.13841435723E+02  0.51100000000E-03 0. -1.
        -11    1    4    4    0    0  0.25173632290E+02  0.15256527971E+02  0.57529327236E+01  0.29992826535E+02  0.51100000000E-03 0.  1.
        -12    1    4    4    0    0 -0.10693497730E+01  0.17513557201E+01  0.33786838017E+01  0.39530064543E+01  0.00000000000E+00 0.  1.
</event>
<event>
 8    1  0.5331800E-011  0.9118800E+02  0.7816164E-02  0.1184000E+00
        -11   -1    0    0    0    0  0.00000000000E+00  0.00000000000E+00  0.45593999997E+02  0.45594000000E+02  0.51100000000E-03 0. -1.
         11   -1    0    0    0    0 -0.00000000000E+00 -0.00000000000E+00 -0.45593999997E+02  0.45594000000E+02  0.51100000000E-03 0.  1.
         23    2    1    2    0    0 -0.35527136788E-14  0.00000000000E+00  0.00000000000E+00  0.91188000000E+02  0.91188000000E+02 0.  0.
    9900012    2    3    3    0    0  0.24000647653E+02 -0.23435754828E+02 -0.27538314065E+02  0.47787257682E+02  0.19999939077E+02 0.  0.
         12    1    3    3    0    0 -0.24000647653E+02  0.23435754828E+02  0.27538314065E+02  0.43400742318E+02  0.00000000000E+00 0. -1.
         11    1    4    4    0    0  0.11513391545E+02 -0.19363031020E+02 -0.22830670213E+02  0.32073737821E+02  0.51100000000E-03 0. -1.
        -11    1    4    4    0    0  0.67654172951E+01 -0.56105028043E+01 -0.42728437018E+01  0.97727072224E+01  0.51100000000E-03 0.  1.
         12    1    4    4    0    0  0.57218388129E+01  0.15377789961E+01 -0.43480015014E+00  0.59408126391E+01  0.00000000000E+00 0. -1.
</event>
<event>
 8    1  0.5331800E-011  0.9118800E+02  0.7816164E-02  0.1184000E+00
        -11   -1    0    0    0    0  0.00000000000E+00  0.00000000000E+00  0.45593999997E+02  0.45594000000E+02  0.51100000000E-03 0. -1.
         11   -1    0    0    0    0 -0.00000000000E+00 -0.00000000000E+00 -0.45593999997E+02  0.45594000000E+02  0.51100000000E-03 0.  1.
         23    2    1    2    0    0  0.88817841970E-15 -0.44408920985E-15  0.00000000000E+00  0.91188000000E+02  0.91188000000E+02 0.  0.
    9900012    2    3    3    0    0  0.77056609424E+01 -0.35788341005E+01  0.42560997047E+02  0.47787265747E+02  0.19999975848E+02 0.  0.
        -12    1    3    3    0    0 -0.77056609424E+01  0.35788341005E+01 -0.42560997047E+02  0.43400734253E+02  0.00000000000E+00 0.  1.
         11    1    4    4    0    0  0.38251157356E+00 -0.97154977454E+01  0.30104612979E+02  0.31635817271E+02  0.51100000000E-03 0. -1.
        -11    1    4    4    0    0  0.36363770520E+01  0.47070527327E+01  0.95229627250E+01  0.11227929587E+02  0.51100000000E-03 0.  1.
        -12    1    4    4    0    0  0.36867723169E+01  0.14296109123E+01  0.29334213428E+01  0.49235188891E+01  0.00000000000E+00 0.  1.
</event>
<event>
 8    1  0.5331800E-011  0.9118800E+02  0.7816164E-02  0.1184000E+00
        -11   -1    0    0    0    0  0.00000000000E+00  0.00000000000E+00  0.45593999997E+02  0.45594000000E+02  0.51100000000E-03 0. -1.
         11   -1    0    0    0    0 -0.00000000000E+00 -0.00000000000E+00 -0.45593999997E+02  0.45594000000E+02  0.51100000000E-03 0.  1.
         23    2    1    2    0    0  0.00000000000E+00  0.35527136788E-14  0.00000000000E+00  0.91188000000E+02  0.91188000000E+02 0.  0.
    9900012    2    3    3    0    0  0.14739426351E+02  0.28821138084E+02 -0.28908727264E+02  0.47787271877E+02  0.20000003795E+02 0.  0.
         12    1    3    3    0    0 -0.14739426351E+02 -0.28821138084E+02  0.28908727264E+02  0.43400728123E+02  0.00000000000E+00 0. -1.
         11    1    4    4    0    0  0.11969626923E+02  0.21377303296E+02 -0.21966639046E+02  0.32905839849E+02  0.51100000000E-03 0. -1.
        -11    1    4    4    0    0  0.47470343892E+01  0.43728487523E+01 -0.86962095910E+01  0.10829598479E+02  0.51100000000E-03 0.  1.
         12    1    4    4    0    0 -0.19772349613E+01  0.30709860352E+01  0.17541213730E+01  0.40518335494E+01  0.00000000000E+00 0. -1.
</event>
<event>
 8    1  0.5331800E-011  0.9118800E+02  0.7816164E-02  0.1184000E+00
        -11   -1    0    0    0    0  0.00000000000E+00  0.00000000000E+00  0.45593999997E+02  0.45594000000E+02  0.51100000000E-03 0. -1.
         11   -1    0    0    0    0 -0.00000000000E+00 -0.00000000000E+00 -0.45593999997E+02  0.45594000000E+02  0.51100000000E-03 0.  1.
         23    2    1    2    0    0  0.00000000000E+00  0.00000000000E+00  0.00000000000E+00  0.91188000000E+02  0.91188000000E+02 0.  0.
    9900012    2    3    3    0    0 -0.12065577845E+02  0.39903842712E+02 -0.12071770399E+02  0.47787280277E+02  0.20000042096E+02 0.  0.
         12    1    3    3    0    0  0.12065577845E+02 -0.39903842712E+02  0.12071770399E+02  0.43400719723E+02  0.00000000000E+00 0. -1.
         11    1    4    4    0    0 -0.93945014450E+01  0.27319661777E+02 -0.35198693040E+01  0.29103437205E+02  0.51100000000E-03 0. -1.
        -11    1    4    4    0    0 -0.19309735618E+00  0.12791503115E+02 -0.95908604381E+01  0.15988884975E+02  0.51100000000E-03 0.  1.
         12    1    4    4    0    0 -0.24779790437E+01 -0.20732218016E+00  0.10389593432E+01  0.26949580969E+01  0.00000000000E+00 0. -1.
</event>
<event>
 8    1  0.5331800E-011  0.9118800E+02  0.7816164E-02  0.1184000E+00
        -11   -1    0    0    0    0  0.00000000000E+00  0.00000000000E+00  0.45593999997E+02  0.45594000000E+02  0.51100000000E-03 0. -1.
         11   -1    0    0    0    0 -0.00000000000E+00 -0.00000000000E+00 -0.45593999997E+02  0.45594000000E+02  0.51100000000E-03 0.  1.
         23    2    1    2    0    0 -0.17763568394E-14 -0.35527136788E-14  0.00000000000E+00  0.91188000000E+02  0.91188000000E+02 0.  0.
    9900012    2    3    3    0    0 -0.13430037246E+02  0.26138451928E+02 -0.31938048697E+02  0.47787268161E+02  0.19999986851E+02 0.  0.
         12    1    3    3    0    0  0.13430037246E+02 -0.26138451928E+02  0.31938048697E+02  0.43400731839E+02  0.00000000000E+00 0. -1.
         11    1    4    4    0    0  0.39098658667E+01  0.51275876651E+01 -0.17855162786E+01  0.66908351497E+01  0.51100000000E-03 0. -1.
        -11    1    4    4    0    0 -0.11606557375E+02  0.11955068956E+02 -0.22164360923E+02  0.27728951354E+02  0.51100000000E-03 0.  1.
         12    1    4    4    0    0 -0.57333457378E+01  0.90557953069E+01 -0.79881714958E+01  0.13367481656E+02  0.00000000000E+00 0. -1.
</event>
<event>
 8    1  0.5331800E-011  0.9118800E+02  0.7816164E-02  0.1184000E+00
        -11   -1    0    0    0    0  0.00000000000E+00  0.00000000000E+00  0.45593999997E+02  0.45594000000E+02  0.51100000000E-03 0.  1.
         11   -1    0    0    0    0 -0.00000000000E+00 -0.00000000000E+00 -0.45593999997E+02  0.45594000000E+02  0.51100000000E-03 0. -1.
         23    2    1    2    0    0  0.35527136788E-14 -0.71054273576E-14  0.44408920985E-15  0.91188000000E+02  0.91188000000E+02 0.  0.
    9900012    2    3    3    0    0 -0.17335771197E+02  0.39645821280E+02  0.33620492273E+01  0.47787268636E+02  0.19999989017E+02 0.  0.
        -12    1    3    3    0    0  0.17335771197E+02 -0.39645821280E+02 -0.33620492273E+01  0.43400731364E+02  0.00000000000E+00 0.  1.
         11    1    4    4    0    0 -0.72372529445E+01  0.18340431741E+02 -0.49179072883E+01  0.20320804093E+02  0.51100000000E-03 0. -1.
        -11    1    4    4    0    0 -0.84537339988E+01  0.15120388711E+02  0.10991299273E+02  0.20515858092E+02  0.51100000000E-03 0.  1.
        -12    1    4    4    0    0 -0.16447842533E+01  0.61850008278E+01 -0.27113427570E+01  0.69506064502E+01  0.00000000000E+00 0.  1.
</event>
<event>
 8    1  0.5331800E-011  0.9118800E+02  0.7816164E-02  0.1184000E+00
        -11   -1    0    0    0    0  0.00000000000E+00  0.00000000000E+00  0.45593999997E+02  0.45594000000E+02  0.51100000000E-03 0. -1.
         11   -1    0    0    0    0 -0.00000000000E+00 -0.00000000000E+00 -0.45593999997E+02  0.45594000000E+02  0.51100000000E-03 0.  1.
         23    2    1    2    0    0  0.00000000000E+00  0.17763568394E-14  0.00000000000E+00  0.91188000000E+02  0.91188000000E+02 0.  0.
    9900012    2    3    3    0    0  0.38894940856E+01  0.14150038751E+02 -0.40844445666E+02  0.47787302971E+02  0.20000145564E+02 0.  0.
         12    1    3    3    0    0 -0.38894940856E+01 -0.14150038751E+02  0.40844445666E+02  0.43400697029E+02  0.00000000000E+00 0. -1.
         11    1    4    4    0    0 -0.19605485574E+01 -0.45557530932E+01 -0.82095201277E+01  0.95913949914E+01  0.51100000000E-03 0. -1.
        -11    1    4    4    0    0  0.60288440380E+01  0.16750033653E+02 -0.28249118608E+02  0.33390467056E+02  0.51100000000E-03 0.  1.
         12    1    4    4    0    0 -0.17880139504E+00  0.19557581908E+01 -0.43858069303E+01  0.48054409235E+01  0.00000000000E+00 0. -1.
</event>
<event>
 8    1  0.5331800E-011  0.9118800E+02  0.7816164E-02  0.1184000E+00
        -11   -1    0    0    0    0  0.00000000000E+00  0.00000000000E+00  0.45593999997E+02  0.45594000000E+02  0.51100000000E-03 0. -1.
         11   -1    0    0    0    0 -0.00000000000E+00 -0.00000000000E+00 -0.45593999997E+02  0.45594000000E+02  0.51100000000E-03 0.  1.
         23    2    1    2    0    0 -0.35527136788E-14 -0.17763568394E-14 -0.35527136788E-14  0.91188000000E+02  0.91188000000E+02 0.  0.
    9900012    2    3    3    0    0 -0.28979045892E+02  0.10663769021E+02 -0.30497903130E+02  0.47787272289E+02  0.20000005673E+02 0.  0.
         12    1    3    3    0    0  0.28979045892E+02 -0.10663769021E+02  0.30497903130E+02  0.43400727711E+02  0.00000000000E+00 0. -1.
         11    1    4    4    0    0 -0.19498631568E+02 -0.28746674000E+01 -0.16123110926E+02  0.25463995207E+02  0.51100000000E-03 0. -1.
        -11    1    4    4    0    0 -0.73196209560E+01  0.80012238224E+01 -0.11179769056E+02  0.15575097753E+02  0.51100000000E-03 0.  1.
         12    1    4    4    0    0 -0.21607933675E+01  0.55372125990E+01 -0.31950231474E+01  0.67481793290E+01  0.00000000000E+00 0. -1.
</event>
<event>
 8    1  0.5331800E-011  0.9118800E+02  0.7816164E-02  0.1184000E+00
        -11   -1    0    0    0    0  0.00000000000E+00  0.00000000000E+00  0.45593999997E+02  0.45594000000E+02  0.51100000000E-03 0. -1.
         11   -1    0    0    0    0 -0.00000000000E+00 -0.00000000000E+00 -0.45593999997E+02  0.45594000000E+02  0.51100000000E-03 0.  1.
         23    2    1    2    0    0  0.00000000000E+00  0.00000000000E+00  0.00000000000E+00  0.91188000000E+02  0.91188000000E+02 0.  0.
    9900012    2    3    3    0    0  0.27298447677E+02 -0.23654809458E+02 -0.24059675552E+02  0.47787271392E+02  0.20000001584E+02 0.  0.
         12    1    3    3    0    0 -0.27298447677E+02  0.23654809458E+02  0.24059675552E+02  0.43400728608E+02  0.00000000000E+00 0. -1.
         11    1    4    4    0    0  0.19190913936E+02 -0.42943534967E+01 -0.11257934667E+02  0.22659959022E+02  0.51100000000E-03 0. -1.
        -11    1    4    4    0    0  0.86289936923E+01 -0.17624663290E+02 -0.10697208114E+02  0.22349911631E+02  0.51100000000E-03 0.  1.
         12    1    4    4    0    0 -0.52145995132E+00 -0.17357926716E+01 -0.21045327709E+01  0.27774007387E+01  0.00000000000E+00 0. -1.
</event>
<event>
 8    1  0.5331800E-011  0.9118800E+02  0.7816164E-02  0.1184000E+00
        -11   -1    0    0    0    0  0.00000000000E+00  0.00000000000E+00  0.45593999997E+02  0.45594000000E+02  0.51100000000E-03 0. -1.
         11   -1    0    0    0    0 -0.00000000000E+00 -0.00000000000E+00 -0.45593999997E+02  0.45594000000E+02  0.51100000000E-03 0.  1.
         23    2    1    2    0    0 -0.88817841970E-15  0.44408920985E-15  0.14210854715E-13  0.91188000000E+02  0.91188000000E+02 0.  0.
    9900012    2    3    3    0    0 -0.52999660763E+01  0.21395361005E+01  0.43022740124E+02  0.47787269328E+02  0.19999992173E+02 0.  0.
        -12    1    3    3    0    0  0.52999660763E+01 -0.21395361005E+01 -0.43022740124E+02  0.43400730672E+02  0.00000000000E+00 0.  1.
         11    1    4    4    0    0 -0.10965229462E+02  0.15375432248E+01  0.33005354823E+02  0.34813126025E+02  0.51100000000E-03 0. -1.
        -11    1    4    4    0    0  0.37945493180E+01  0.69077021280E+00  0.13186763086E+01  0.40761103372E+01  0.51100000000E-03 0.  1.
        -12    1    4    4    0    0  0.18707140679E+01 -0.88777337118E-01  0.86987089917E+01  0.88980329658E+01  0.00000000000E+00 0.  1.
</event>
<event>
 8    1  0.5331800E-011  0.9118800E+02  0.7816164E-02  0.1184000E+00
        -11   -1    0    0    0    0  0.00000000000E+00  0.00000000000E+00  0.45593999997E+02  0.45594000000E+02  0.51100000000E-03 0.  1.
         11   -1    0    0    0    0 -0.00000000000E+00 -0.00000000000E+00 -0.45593999997E+02  0.45594000000E+02  0.51100000000E-03 0. -1.
         23    2    1    2    0    0  0.00000000000E+00  0.00000000000E+00 -0.17763568394E-14  0.91188000000E+02  0.91188000000E+02 0.  0.
    9900012    2    3    3    0    0 -0.39486772597E+02 -0.13834373019E+02 -0.11533771669E+02  0.47787274478E+02  0.20000015654E+02 0.  0.
        -12    1    3    3    0    0  0.39486772597E+02  0.13834373019E+02  0.11533771669E+02  0.43400725522E+02  0.00000000000E+00 0.  1.
         11    1    4    4    0    0 -0.13441363710E+02 -0.62406586412E+01 -0.66476455315E+01  0.16242144872E+02  0.51100000000E-03 0. -1.
        -11    1    4    4    0    0 -0.14535056571E+01  0.12817417467E+01  0.35742448383E+01  0.40658045976E+01  0.51100000000E-03 0.  1.
        -12    1    4    4    0    0 -0.24591903229E+02 -0.88754561249E+01 -0.84603709754E+01  0.27479325008E+02  0.00000000000E+00 0.  1.
</event>
<event>
 8    1  0.5331800E-011  0.9118800E+02  0.7816164E-02  0.1184000E+00
        -11   -1    0    0    0    0  0.00000000000E+00  0.00000000000E+00  0.45593999997E+02  0.45594000000E+02  0.51100000000E-03 0.  1.
         11   -1    0    0    0    0 -0.00000000000E+00 -0.00000000000E+00 -0.45593999997E+02  0.45594000000E+02  0.51100000000E-03 0. -1.
         23    2    1    2    0    0  0.00000000000E+00  0.00000000000E+00 -0.44408920985E-15  0.91188000000E+02  0.91188000000E+02 0.  0.
    9900012    2    3    3    0    0 -0.98337523245E+01  0.42209266403E+02  0.23018109964E+01  0.47787272023E+02  0.20000004460E+02 0.  0.
        -12    1    3    3    0    0  0.98337523245E+01 -0.42209266403E+02 -0.23018109964E+01  0.43400727977E+02  0.00000000000E+00 0.  1.
         11    1    4    4    0    0 -0.92372570752E+01  0.22612755649E+02  0.69976113394E+01  0.25409254240E+02  0.51100000000E-03 0. -1.
        -11    1    4    4    0    0 -0.36181081534E+01  0.97075630497E+01 -0.59741564277E+01  0.11959014686E+02  0.51100000000E-03 0.  1.
         12    1    4    4    0    0  0.30216129042E+01  0.98889477049E+01  0.12783560847E+01  0.10419003097E+02  0.00000000000E+00 0. -1.
</event>
<event>
 8    1  0.6288764E-011  0.9118800E+02  0.7816164E-02  0.1184000E+00
        -11   -1    0    0    0    0  0.00000000000E+00  0.00000000000E+00  0.45593999997E+02  0.45594000000E+02  0.51100000000E-03 0. -1.
         11   -1    0    0    0    0 -0.00000000000E+00 -0.00000000000E+00 -0.45593999997E+02  0.45594000000E+02  0.51100000000E-03 0.  1.
         23    2    1    2    0    0 -0.17763568394E-14  0.00000000000E+00  0.00000000000E+00  0.91188000000E+02  0.91188000000E+02 0.  0.
    9900012    2    3    3    0    0  0.13313024122E+02  0.91260736203E+00  0.41298350809E+02  0.47787271400E+02  0.20000001620E+02 0.  0.
        -12    1    3    3    0    0 -0.13313024122E+02 -0.91260736203E+00 -0.41298350809E+02  0.43400728600E+02  0.00000000000E+00 0.  1.
         11    1    4    4    0    0  0.27994192663E+01  0.51022696635E+00  0.24223945289E+02  0.24390502361E+02  0.51100000000E-03 0. -1.
        -11    1    4    4    0    0  0.73326919995E+01  0.36375556878E+01  0.31817086950E+01  0.87819960045E+01  0.51100000000E-03 0.  1.
        -12    1    4    4    0    0  0.31809128561E+01 -0.32351752921E+01  0.13892696825E+02  0.14614773034E+02  0.00000000000E+00 0.  1.
</event>
<event>
 8    1  0.5331800E-011  0.9118800E+02  0.7816164E-02  0.1184000E+00
        -11   -1    0    0    0    0  0.00000000000E+00  0.00000000000E+00  0.45593999997E+02  0.45594000000E+02  0.51100000000E-03 0. -1.
         11   -1    0    0    0    0 -0.00000000000E+00 -0.00000000000E+00 -0.45593999997E+02  0.45594000000E+02  0.51100000000E-03 0.  1.
         23    2    1    2    0    0  0.00000000000E+00  0.00000000000E+00  0.00000000000E+00  0.91188000000E+02  0.91188000000E+02 0.  0.
    9900012    2    3    3    0    0  0.21020909953E+02 -0.28097407982E+02  0.25539781895E+02  0.47787269018E+02  0.19999990759E+02 0.  0.
        -12    1    3    3    0    0 -0.21020909953E+02  0.28097407982E+02 -0.25539781895E+02  0.43400730982E+02  0.00000000000E+00 0.  1.
         11    1    4    4    0    0  0.70024587716E+01 -0.98258482551E+01 -0.13091071738E+01  0.12136535117E+02  0.51100000000E-03 0. -1.
        -11    1    4    4    0    0  0.12774634235E+01 -0.14102512943E+00  0.17143365874E+01  0.21426038088E+01  0.51100000000E-03 0.  1.
         12    1    4    4    0    0  0.12740987758E+02 -0.18130534598E+02  0.25134552481E+02  0.33508130092E+02  0.00000000000E+00 0. -1.
</event>
<event>
 8    1  0.1009256E-010  0.9118800E+02  0.7816164E-02  0.1184000E+00
        -11   -1    0    0    0    0  0.00000000000E+00  0.00000000000E+00  0.45593999997E+02  0.45594000000E+02  0.51100000000E-03 0. -1.
         11   -1    0    0    0    0 -0.00000000000E+00 -0.00000000000E+00 -0.45593999997E+02  0.45594000000E+02  0.51100000000E-03 0.  1.
         23    2    1    2    0    0  0.00000000000E+00  0.88817841970E-15  0.00000000000E+00  0.91188000000E+02  0.91188000000E+02 0.  0.
    9900012    2    3    3    0    0 -0.58458086225E+01  0.31203451666E+01 -0.42891872712E+02  0.47787276767E+02  0.20000026089E+02 0.  0.
         12    1    3    3    0    0  0.58458086225E+01 -0.31203451666E+01  0.42891872712E+02  0.43400723233E+02  0.00000000000E+00 0. -1.
         11    1    4    4    0    0 -0.33599270607E+01 -0.20073014100E+01 -0.14016347079E+01  0.41572766229E+01  0.51100000000E-03 0. -1.
        -11    1    4    4    0    0  0.17921812906E+01  0.80766314879E+01 -0.26802176654E+02  0.28049965484E+02  0.51100000000E-03 0.  1.
        -12    1    4    4    0    0 -0.42780628524E+01 -0.29489849113E+01 -0.14688061350E+02  0.15580034660E+02  0.00000000000E+00 0.  1.
</event>
<event>
 8    1  0.5331800E-011  0.9118800E+02  0.7816164E-02  0.1184000E+00
        -11   -1    0    0    0    0  0.00000000000E+00  0.00000000000E+00  0.45593999997E+02  0.45594000000E+02  0.51100000000E-03 0. -1.
         11   -1    0    0    0    0 -0.00000000000E+00 -0.00000000000E+00 -0.45593999997E+02  0.45594000000E+02  0.51100000000E-03 0.  1.
         23    2    1    2    0    0  0.00000000000E+00  0.00000000000E+00 -0.17763568394E-14  0.91188000000E+02  0.91188000000E+02 0.  0.
    9900012    2    3    3    0    0  0.37764320245E+02  0.18078133973E+02  0.11430675563E+02  0.47787272410E+02  0.20000006227E+02 0.  0.
        -12    1    3    3    0    0 -0.37764320245E+02 -0.18078133973E+02 -0.11430675563E+02  0.43400727590E+02  0.00000000000E+00 0.  1.
         11    1    4    4    0    0  0.51081340281E+01  0.38214899466E+01  0.78977114555E+01  0.10152372391E+02  0.51100000000E-03 0. -1.
        -11    1    4    4    0    0 -0.80373646833E+00 -0.36405045939E+00 -0.26965509242E+00  0.92262623933E+00  0.51100000000E-03 0.  1.
         12    1    4    4    0    0  0.33459922685E+02  0.14620694485E+02  0.38026192000E+01  0.36712273780E+02  0.00000000000E+00 0. -1.
</event>
<event>
 8    1  0.5331800E-011  0.9118800E+02  0.7816164E-02  0.1184000E+00
        -11   -1    0    0    0    0  0.00000000000E+00  0.00000000000E+00  0.45593999997E+02  0.45594000000E+02  0.51100000000E-03 0. -1.
         11   -1    0    0    0    0 -0.00000000000E+00 -0.00000000000E+00 -0.45593999997E+02  0.45594000000E+02  0.51100000000E-03 0.  1.
         23    2    1    2    0    0  0.00000000000E+00  0.44408920985E-15  0.00000000000E+00  0.91188000000E+02  0.91188000000E+02 0.  0.
    9900012    2    3    3    0    0 -0.20552128511E+01  0.20385353025E+01 -0.43304082923E+02  0.47787272773E+02  0.20000007882E+02 0.  0.
         12    1    3    3    0    0  0.20552128511E+01 -0.20385353025E+01  0.43304082923E+02  0.43400727227E+02  0.00000000000E+00 0. -1.
         11    1    4    4    0    0  0.32144900402E+01  0.75395279753E+01 -0.11954162487E+02  0.14494117059E+02  0.51100000000E-03 0. -1.
        -11    1    4    4    0    0 -0.11350796984E+01 -0.63954289371E+01 -0.23437361067E+02  0.24320769134E+02  0.51100000000E-03 0.  1.
         12    1    4    4    0    0 -0.41346231929E+01  0.89443626431E+00 -0.79125593688E+01  0.89723865801E+01  0.00000000000E+00 0. -1.
</event>
<event>
 8    1  0.5331800E-011  0.9118800E+02  0.7816164E-02  0.1184000E+00
        -11   -1    0    0    0    0  0.00000000000E+00  0.00000000000E+00  0.45593999997E+02  0.45594000000E+02  0.51100000000E-03 0. -1.
         11   -1    0    0    0    0 -0.00000000000E+00 -0.00000000000E+00 -0.45593999997E+02  0.45594000000E+02  0.51100000000E-03 0.  1.
         23    2    1    2    0    0 -0.33306690739E-15 -0.71054273576E-14  0.00000000000E+00  0.91188000000E+02  0.91188000000E+02 0.  0.
    9900012    2    3    3    0    0 -0.76872453096E+00  0.39455365358E+02  0.18063953821E+02  0.47787271658E+02  0.20000002800E+02 0.  0.
        -12    1    3    3    0    0  0.76872453096E+00 -0.39455365358E+02 -0.18063953821E+02  0.43400728342E+02  0.00000000000E+00 0.  1.
         11    1    4    4    0    0  0.48074814079E+01  0.22161664306E+02  0.88711489421E+01  0.24350534411E+02  0.51100000000E-03 0. -1.
        -11    1    4    4    0    0 -0.40149876555E+00  0.14763780061E+02  0.31752111001E+01  0.15106699466E+02  0.51100000000E-03 0.  1.
        -12    1    4    4    0    0 -0.51747071733E+01  0.25299209902E+01  0.60175937791E+01  0.83300377812E+01  0.00000000000E+00 0.  1.
</event>
<event>
 8    1  0.5331800E-011  0.9118800E+02  0.7816164E-02  0.1184000E+00
        -11   -1    0    0    0    0  0.00000000000E+00  0.00000000000E+00  0.45593999997E+02  0.45594000000E+02  0.51100000000E-03 0. -1.
         11   -1    0    0    0    0 -0.00000000000E+00 -0.00000000000E+00 -0.45593999997E+02  0.45594000000E+02  0.51100000000E-03 0.  1.
         23    2    1    2    0    0  0.00000000000E+00  0.00000000000E+00  0.71054273576E-14  0.91188000000E+02  0.91188000000E+02 0.  0.
    9900012    2    3    3    0    0  0.21469051881E+02 -0.55344898937E+01  0.37310484253E+02  0.47787274173E+02  0.20000014266E+02 0.  0.
        -12    1    3    3    0    0 -0.21469051881E+02  0.55344898937E+01 -0.37310484253E+02  0.43400725827E+02  0.00000000000E+00 0.  1.
         11    1    4    4    0    0  0.84879133616E+01 -0.10907476778E+02  0.26061577912E+02  0.29499551970E+02  0.51100000000E-03 0. -1.
        -11    1    4    4    0    0  0.11330568405E+02  0.35717991687E+01  0.84867474571E+01  0.14600151107E+02  0.51100000000E-03 0.  1.
         12    1    4    4    0    0  0.16505701138E+01  0.18011877159E+01  0.27621588846E+01  0.36875710966E+01  0.00000000000E+00 0. -1.
</event>
<event>
 8    1  0.5331800E-011  0.9118800E+02  0.7816164E-02  0.1184000E+00
        -11   -1    0    0    0    0  0.00000000000E+00  0.00000000000E+00  0.45593999997E+02  0.45594000000E+02  0.51100000000E-03 0.  1.
         11   -1    0    0    0    0 -0.00000000000E+00 -0.00000000000E+00 -0.45593999997E+02  0.45594000000E+02  0.51100000000E-03 0. -1.
         23    2    1    2    0    0  0.00000000000E+00  0.00000000000E+00  0.35527136788E-14  0.91188000000E+02  0.91188000000E+02 0.  0.
    9900012    2    3    3    0    0  0.27890282685E+02  0.26834555582E+02  0.19638280631E+02  0.47787270655E+02  0.19999998225E+02 0.  0.
        -12    1    3    3    0    0 -0.27890282685E+02 -0.26834555582E+02 -0.19638280631E+02  0.43400729345E+02  0.00000000000E+00 0.  1.
         11    1    4    4    0    0  0.14440579545E+02  0.11801215429E+02 -0.12334313811E+01  0.18690114404E+02  0.51100000000E-03 0. -1.
        -11    1    4    4    0    0  0.30314113690E+01  0.38715047666E+01  0.62942234766E+01  0.79871930914E+01  0.51100000000E-03 0.  1.
         12    1    4    4    0    0  0.10418291771E+02  0.11161835386E+02  0.14577488535E+02  0.21109963160E+02  0.00000000000E+00 0. -1.
</event>
<event>
 8    1  0.5331800E-011  0.9118800E+02  0.7816164E-02  0.1184000E+00
        -11   -1    0    0    0    0  0.00000000000E+00  0.00000000000E+00  0.45593999997E+02  0.45594000000E+02  0.51100000000E-03 0. -1.
         11   -1    0    0    0    0 -0.00000000000E+00 -0.00000000000E+00 -0.45593999997E+02  0.45594000000E+02  0.51100000000E-03 0.  1.
         23    2    1    2    0    0  0.00000000000E+00  0.00000000000E+00  0.00000000000E+00  0.91188000000E+02  0.91188000000E+02 0.  0.
    9900012    2    3    3    0    0  0.28744450228E+02  0.22353947280E+02  0.23615240854E+02  0.47787285968E+02  0.20000068040E+02 0.  0.
        -12    1    3    3    0    0 -0.28744450228E+02 -0.22353947280E+02 -0.23615240854E+02  0.43400714032E+02  0.00000000000E+00 0.  1.
         11    1    4    4    0    0 -0.18934561407E+01  0.77326892295E+00  0.39565761728E+01  0.44539438991E+01  0.51100000000E-03 0. -1.
        -11    1    4    4    0    0  0.31043284720E+00  0.26126860276E+01  0.26704638232E+00  0.26445814155E+01  0.51100000000E-03 0.  1.
         12    1    4    4    0    0  0.30327473522E+02  0.18967992329E+02  0.19391618299E+02  0.40688760653E+02  0.00000000000E+00 0. -1.
</event>
<event>
 8    1  0.5331800E-011  0.9118800E+02  0.7816164E-02  0.1184000E+00
        -11   -1    0    0    0    0  0.00000000000E+00  0.00000000000E+00  0.45593999997E+02  0.45594000000E+02  0.51100000000E-03 0. -1.
         11   -1    0    0    0    0 -0.00000000000E+00 -0.00000000000E+00 -0.45593999997E+02  0.45594000000E+02  0.51100000000E-03 0.  1.
         23    2    1    2    0    0  0.00000000000E+00  0.00000000000E+00  0.00000000000E+00  0.91188000000E+02  0.91188000000E+02 0.  0.
    9900012    2    3    3    0    0 -0.17836668445E+02 -0.10066100250E+01  0.39553283050E+02  0.47787283358E+02  0.20000056143E+02 0.  0.
        -12    1    3    3    0    0  0.17836668445E+02  0.10066100250E+01 -0.39553283050E+02  0.43400716642E+02  0.00000000000E+00 0.  1.
         11    1    4    4    0    0 -0.17935272250E+02 -0.44998749711E+01  0.35341673356E+02  0.39886799085E+02  0.51100000000E-03 0. -1.
        -11    1    4    4    0    0  0.22371097211E+01  0.27392654600E+01  0.52941677253E+00  0.35761036820E+01  0.51100000000E-03 0.  1.
         12    1    4    4    0    0 -0.21385059167E+01  0.75399948611E+00  0.36821929220E+01  0.43243805910E+01  0.00000000000E+00 0. -1.
</event>
<event>
 8    1  0.5331800E-011  0.9118800E+02  0.7816164E-02  0.1184000E+00
        -11   -1    0    0    0    0  0.00000000000E+00  0.00000000000E+00  0.45593999997E+02  0.45594000000E+02  0.51100000000E-03 0. -1.
         11   -1    0    0    0    0 -0.00000000000E+00 -0.00000000000E+00 -0.45593999997E+02  0.45594000000E+02  0.51100000000E-03 0.  1.
         23    2    1    2    0    0  0.00000000000E+00  0.88817841970E-15  0.00000000000E+00  0.91188000000E+02  0.91188000000E+02 0.  0.
    9900012    2    3    3    0    0 -0.42657859680E+02  0.79013776718E+01 -0.12240926109E+01  0.47787272307E+02  0.20000005756E+02 0.  0.
        -12    1    3    3    0    0  0.42657859680E+02 -0.79013776718E+01  0.12240926109E+01  0.43400727693E+02  0.00000000000E+00 0.  1.
         11    1    4    4    0    0 -0.22143476753E+02  0.27641604119E+01 -0.23457069939E+01  0.22438281731E+02  0.51100000000E-03 0. -1.
        -11    1    4    4    0    0 -0.24243414682E+01  0.57233633593E+01 -0.28196633621E+01  0.68253074241E+01  0.51100000000E-03 0.  1.
        -12    1    4    4    0    0 -0.18090041459E+02 -0.58614609946E+00  0.39412777451E+01  0.18523683151E+02  0.00000000000E+00 0.  1.
</event>
<event>
 8    1  0.5331800E-011  0.9118800E+02  0.7816164E-02  0.1184000E+00
        -11   -1    0    0    0    0  0.00000000000E+00  0.00000000000E+00  0.45593999997E+02  0.45594000000E+02  0.51100000000E-03 0. -1.
         11   -1    0    0    0    0 -0.00000000000E+00 -0.00000000000E+00 -0.45593999997E+02  0.45594000000E+02  0.51100000000E-03 0.  1.
         23    2    1    2    0    0  0.22204460493E-15  0.00000000000E+00  0.00000000000E+00  0.91188000000E+02  0.91188000000E+02 0.  0.
    9900012    2    3    3    0    0 -0.11986071744E+01  0.21781072409E+02 -0.37520240870E+02  0.47787305888E+02  0.20000158866E+02 0.  0.
         12    1    3    3    0    0  0.11986071744E+01 -0.21781072409E+02  0.37520240870E+02  0.43400694112E+02  0.00000000000E+00 0. -1.
         11    1    4    4    0    0 -0.29193603364E+01  0.75923849001E+01 -0.82108844574E+01  0.11557923563E+02  0.51100000000E-03 0.  1.
        -11    1    4    4    0    0 -0.89399964366E+00  0.12042960706E+02 -0.76230215414E+01  0.14280847160E+02  0.51100000000E-03 0. -1.
        -12    1    4    4    0    0  0.26147528057E+01  0.21457268027E+01 -0.21686334871E+02  0.21948535165E+02  0.00000000000E+00 0.  1.
</event>
<event>
 8    1  0.5331800E-011  0.9118800E+02  0.7816164E-02  0.1184000E+00
        -11   -1    0    0    0    0  0.00000000000E+00  0.00000000000E+00  0.45593999997E+02  0.45594000000E+02  0.51100000000E-03 0. -1.
         11   -1    0    0    0    0 -0.00000000000E+00 -0.00000000000E+00 -0.45593999997E+02  0.45594000000E+02  0.51100000000E-03 0.  1.
         23    2    1    2    0    0  0.00000000000E+00  0.00000000000E+00 -0.35527136788E-14  0.91188000000E+02  0.91188000000E+02 0.  0.
    9900012    2    3    3    0    0  0.33199169355E+02  0.88194407103E+01  0.26526510242E+02  0.47787272749E+02  0.20000007771E+02 0.  0.
        -12    1    3    3    0    0 -0.33199169355E+02 -0.88194407103E+01 -0.26526510242E+02  0.43400727251E+02  0.00000000000E+00 0.  1.
         11    1    4    4    0    0  0.95259848444E+01  0.26294447351E+01 -0.10321301325E+01  0.99359780466E+01  0.51100000000E-03 0. -1.
        -11    1    4    4    0    0  0.49889542225E+00  0.21818299181E+01  0.12517908851E+01  0.25644217896E+01  0.51100000000E-03 0.  1.
         12    1    4    4    0    0  0.23174289088E+02  0.40081660570E+01  0.26306849490E+02  0.35286872913E+02  0.00000000000E+00 0. -1.
</event>
<event>
 8    1  0.5331800E-011  0.9118800E+02  0.7816164E-02  0.1184000E+00
        -11   -1    0    0    0    0  0.00000000000E+00  0.00000000000E+00  0.45593999997E+02  0.45594000000E+02  0.51100000000E-03 0. -1.
         11   -1    0    0    0    0 -0.00000000000E+00 -0.00000000000E+00 -0.45593999997E+02  0.45594000000E+02  0.51100000000E-03 0.  1.
         23    2    1    2    0    0 -0.35527136788E-14  0.00000000000E+00  0.00000000000E+00  0.91188000000E+02  0.91188000000E+02 0.  0.
    9900012    2    3    3    0    0 -0.28683068814E+02 -0.17013441839E+02 -0.27774962918E+02  0.47787260319E+02  0.19999951096E+02 0.  0.
         12    1    3    3    0    0  0.28683068814E+02  0.17013441839E+02  0.27774962918E+02  0.43400739681E+02  0.00000000000E+00 0. -1.
         11    1    4    4    0    0 -0.37737191997E+01  0.22311047525E+01  0.11843599888E+01  0.45410895013E+01  0.51100000000E-03 0. -1.
        -11    1    4    4    0    0 -0.22175067764E+02 -0.14509301884E+02 -0.25496197944E+02  0.36773762133E+02  0.51100000000E-03 0.  1.
         12    1    4    4    0    0 -0.27342818498E+01 -0.47352447071E+01 -0.34631249629E+01  0.64724086844E+01  0.00000000000E+00 0. -1.
</event>
<event>
 8    1  0.5331800E-011  0.9118800E+02  0.7816164E-02  0.1184000E+00
        -11   -1    0    0    0    0  0.00000000000E+00  0.00000000000E+00  0.45593999997E+02  0.45594000000E+02  0.51100000000E-03 0. -1.
         11   -1    0    0    0    0 -0.00000000000E+00 -0.00000000000E+00 -0.45593999997E+02  0.45594000000E+02  0.51100000000E-03 0.  1.
         23    2    1    2    0    0 -0.71054273576E-14  0.00000000000E+00  0.00000000000E+00  0.91188000000E+02  0.91188000000E+02 0.  0.
    9900012    2    3    3    0    0 -0.34595311360E+02 -0.40731818767E+01 -0.25888158056E+02  0.47787272976E+02  0.20000008807E+02 0.  0.
         12    1    3    3    0    0  0.34595311360E+02  0.40731818767E+01  0.25888158056E+02  0.43400727024E+02  0.00000000000E+00 0. -1.
         11    1    4    4    0    0 -0.11378839368E+02 -0.36609760993E+01 -0.20045523260E+02  0.23338888885E+02  0.51100000000E-03 0. -1.
        -11    1    4    4    0    0 -0.22226478255E+02  0.60625462478E+00 -0.59702399994E+01  0.23022329295E+02  0.51100000000E-03 0.  1.
         12    1    4    4    0    0 -0.98999373737E+00 -0.10184604022E+01  0.12760520409E+00  0.14260547952E+01  0.00000000000E+00 0. -1.
</event>
<event>
 8    1  0.5331800E-011  0.9118800E+02  0.7816164E-02  0.1184000E+00
        -11   -1    0    0    0    0  0.00000000000E+00  0.00000000000E+00  0.45593999997E+02  0.45594000000E+02  0.51100000000E-03 0. -1.
         11   -1    0    0    0    0 -0.00000000000E+00 -0.00000000000E+00 -0.45593999997E+02  0.45594000000E+02  0.51100000000E-03 0.  1.
         23    2    1    2    0    0  0.00000000000E+00  0.00000000000E+00  0.00000000000E+00  0.91188000000E+02  0.91188000000E+02 0.  0.
    9900012    2    3    3    0    0 -0.26278845838E+02  0.20780809838E+02  0.27589936594E+02  0.47787258102E+02  0.19999940990E+02 0.  0.
        -12    1    3    3    0    0  0.26278845838E+02 -0.20780809838E+02 -0.27589936594E+02  0.43400741898E+02  0.00000000000E+00 0.  1.
         11    1    4    4    0    0 -0.13282590168E+02  0.57189913349E+01  0.68331785772E+01  0.15994573867E+02  0.51100000000E-03 0.  1.
        -11    1    4    4    0    0 -0.65845736234E+01  0.61178920016E+01  0.18487313676E+02  0.20556409695E+02  0.51100000000E-03 0. -1.
        -12    1    4    4    0    0 -0.64116820462E+01  0.89439265012E+01  0.22694443408E+01  0.11236274540E+02  0.00000000000E+00 0.  1.
</event>
<event>
 8    1  0.5331800E-011  0.9118800E+02  0.7816164E-02  0.1184000E+00
        -11   -1    0    0    0    0  0.00000000000E+00  0.00000000000E+00  0.45593999997E+02  0.45594000000E+02  0.51100000000E-03 0. -1.
         11   -1    0    0    0    0 -0.00000000000E+00 -0.00000000000E+00 -0.45593999997E+02  0.45594000000E+02  0.51100000000E-03 0.  1.
         23    2    1    2    0    0 -0.17763568394E-14  0.00000000000E+00 -0.27755575616E-15  0.91188000000E+02  0.91188000000E+02 0.  0.
    9900012    2    3    3    0    0 -0.13540029255E+02  0.41232672708E+02  0.39852094555E+00  0.47787256805E+02  0.19999935078E+02 0.  0.
         12    1    3    3    0    0  0.13540029255E+02 -0.41232672708E+02 -0.39852094555E+00  0.43400743195E+02  0.00000000000E+00 0. -1.
         11    1    4    4    0    0 -0.14105562143E+02  0.31956638666E+02 -0.11043295787E+01  0.34948722184E+02  0.51100000000E-03 0. -1.
        -11    1    4    4    0    0 -0.30405128026E+01  0.35683547233E+01 -0.21553177382E+01  0.51597740598E+01  0.51100000000E-03 0.  1.
         12    1    4    4    0    0  0.36060456900E+01  0.57076793190E+01  0.36581682625E+01  0.76787605617E+01  0.00000000000E+00 0. -1.
</event>
<event>
 8    1  0.5331800E-011  0.9118800E+02  0.7816164E-02  0.1184000E+00
        -11   -1    0    0    0    0  0.00000000000E+00  0.00000000000E+00  0.45593999997E+02  0.45594000000E+02  0.51100000000E-03 0. -1.
         11   -1    0    0    0    0 -0.00000000000E+00 -0.00000000000E+00 -0.45593999997E+02  0.45594000000E+02  0.51100000000E-03 0.  1.
         23    2    1    2    0    0  0.00000000000E+00  0.00000000000E+00  0.00000000000E+00  0.91188000000E+02  0.91188000000E+02 0.  0.
    9900012    2    3    3    0    0  0.68910395936E+01 -0.29996183322E+02  0.30600115677E+02  0.47787256688E+02  0.19999934544E+02 0.  0.
        -12    1    3    3    0    0 -0.68910395936E+01  0.29996183322E+02 -0.30600115677E+02  0.43400743312E+02  0.00000000000E+00 0.  1.
         11    1    4    4    0    0  0.58786291847E+01 -0.21019962579E+02  0.18889440125E+02  0.28865343518E+02  0.51100000000E-03 0. -1.
        -11    1    4    4    0    0 -0.50695229503E+01 -0.57227973105E+01  0.41936274421E+01  0.87199187717E+01  0.51100000000E-03 0.  1.
         12    1    4    4    0    0  0.60819333592E+01 -0.32534234324E+01  0.75170481102E+01  0.10201994399E+02  0.00000000000E+00 0. -1.
</event>
<event>
 8    1  0.5331800E-011  0.9118800E+02  0.7816164E-02  0.1184000E+00
        -11   -1    0    0    0    0  0.00000000000E+00  0.00000000000E+00  0.45593999997E+02  0.45594000000E+02  0.51100000000E-03 0. -1.
         11   -1    0    0    0    0 -0.00000000000E+00 -0.00000000000E+00 -0.45593999997E+02  0.45594000000E+02  0.51100000000E-03 0.  1.
         23    2    1    2    0    0  0.00000000000E+00  0.35527136788E-14 -0.17763568394E-14  0.91188000000E+02  0.91188000000E+02 0.  0.
    9900012    2    3    3    0    0  0.35829735060E+02 -0.19992804895E+02  0.14147116231E+02  0.47787273512E+02  0.20000011250E+02 0.  0.
         12    1    3    3    0    0 -0.35829735060E+02  0.19992804895E+02 -0.14147116231E+02  0.43400726488E+02  0.00000000000E+00 0. -1.
         11    1    4    4    0    0  0.13047454714E+02  0.76260610813E+00 -0.85815094185E+00  0.13097864936E+02  0.51100000000E-03 0. -1.
        -11    1    4    4    0    0  0.15134628476E+02 -0.15622153687E+02  0.82333623359E+01  0.23257190728E+02  0.51100000000E-03 0.  1.
         12    1    4    4    0    0  0.76476518704E+01 -0.51332573156E+01  0.67719048374E+01  0.11432217848E+02  0.00000000000E+00 0. -1.
</event>
<event>
 8    1  0.7048214E-011  0.9118800E+02  0.7816164E-02  0.1184000E+00
        -11   -1    0    0    0    0  0.00000000000E+00  0.00000000000E+00  0.45593999997E+02  0.45594000000E+02  0.51100000000E-03 0. -1.
         11   -1    0    0    0    0 -0.00000000000E+00 -0.00000000000E+00 -0.45593999997E+02  0.45594000000E+02  0.51100000000E-03 0.  1.
         23    2    1    2    0    0  0.88817841970E-15  0.00000000000E+00 -0.71054273576E-14  0.91188000000E+02  0.91188000000E+02 0.  0.
    9900012    2    3    3    0    0  0.64064881425E+01  0.53093964167E+01 -0.42595670308E+02  0.47787263720E+02  0.19999966606E+02 0.  0.
         12    1    3    3    0    0 -0.64064881425E+01 -0.53093964167E+01  0.42595670308E+02  0.43400736280E+02  0.00000000000E+00 0. -1.
         11    1    4    4    0    0  0.37856801923E+00 -0.33696148615E+00  0.68022402293E+00  0.84826986910E+00  0.51100000000E-03 0. -1.
        -11    1    4    4    0    0  0.16134364240E+01 -0.54042220245E+01 -0.20240047072E+02  0.21011147006E+02  0.51100000000E-03 0.  1.
        -12    1    4    4    0    0  0.44144836992E+01  0.11050579927E+02 -0.23035847259E+02  0.25927846845E+02  0.00000000000E+00 0.  1.
</event>
<event>
 8    1  0.5331800E-011  0.9118800E+02  0.7816164E-02  0.1184000E+00
        -11   -1    0    0    0    0  0.00000000000E+00  0.00000000000E+00  0.45593999997E+02  0.45594000000E+02  0.51100000000E-03 0. -1.
         11   -1    0    0    0    0 -0.00000000000E+00 -0.00000000000E+00 -0.45593999997E+02  0.45594000000E+02  0.51100000000E-03 0.  1.
         23    2    1    2    0    0  0.00000000000E+00  0.00000000000E+00  0.00000000000E+00  0.91188000000E+02  0.91188000000E+02 0.  0.
    9900012    2    3    3    0    0 -0.19431881775E+02 -0.12334919444E+02  0.36795037796E+02  0.47787273354E+02  0.20000010531E+02 0.  0.
        -12    1    3    3    0    0  0.19431881775E+02  0.12334919444E+02 -0.36795037796E+02  0.43400726646E+02  0.00000000000E+00 0.  1.
         11    1    4    4    0    0 -0.11888128665E+02 -0.11919246189E+02  0.22280723225E+02  0.27925376641E+02  0.51100000000E-03 0. -1.
        -11    1    4    4    0    0 -0.15254705912E+01  0.44931772757E+01  0.94952418405E+01  0.10614863184E+02  0.51100000000E-03 0.  1.
         12    1    4    4    0    0 -0.60182825184E+01 -0.49088505302E+01  0.50190727309E+01  0.92470335285E+01  0.00000000000E+00 0. -1.
</event>
<event>
 8    1  0.5331800E-011  0.9118800E+02  0.7816164E-02  0.1184000E+00
        -11   -1    0    0    0    0  0.00000000000E+00  0.00000000000E+00  0.45593999997E+02  0.45594000000E+02  0.51100000000E-03 0. -1.
         11   -1    0    0    0    0 -0.00000000000E+00 -0.00000000000E+00 -0.45593999997E+02  0.45594000000E+02  0.51100000000E-03 0.  1.
         23    2    1    2    0    0  0.71054273576E-14  0.00000000000E+00  0.17763568394E-14  0.91188000000E+02  0.91188000000E+02 0.  0.
    9900012    2    3    3    0    0 -0.32784515275E+02  0.23785793291E+02 -0.15589562274E+02  0.47787275856E+02  0.20000021939E+02 0.  0.
         12    1    3    3    0    0  0.32784515275E+02 -0.23785793291E+02  0.15589562274E+02  0.43400724144E+02  0.00000000000E+00 0. -1.
         11    1    4    4    0    0  0.56164271881E+00  0.20753356639E+01 -0.63627397141E+01  0.67161683714E+01  0.51100000000E-03 0. -1.
        -11    1    4    4    0    0 -0.13601233450E+02  0.10887952582E+02 -0.27208326878E+01  0.17633604100E+02  0.51100000000E-03 0.  1.
         12    1    4    4    0    0 -0.19744924543E+02  0.10822505045E+02 -0.65059898721E+01  0.23437503385E+02  0.00000000000E+00 0. -1.
</event>
<event>
 8    1  0.5331800E-011  0.9118800E+02  0.7816164E-02  0.1184000E+00
        -11   -1    0    0    0    0  0.00000000000E+00  0.00000000000E+00  0.45593999997E+02  0.45594000000E+02  0.51100000000E-03 0. -1.
         11   -1    0    0    0    0 -0.00000000000E+00 -0.00000000000E+00 -0.45593999997E+02  0.45594000000E+02  0.51100000000E-03 0.  1.
         23    2    1    2    0    0  0.00000000000E+00  0.00000000000E+00  0.00000000000E+00  0.91188000000E+02  0.91188000000E+02 0.  0.
    9900012    2    3    3    0    0  0.25789798752E+02  0.11218465914E+02  0.33055340560E+02  0.47787271474E+02  0.20000001956E+02 0.  0.
        -12    1    3    3    0    0 -0.25789798752E+02 -0.11218465914E+02 -0.33055340560E+02  0.43400728526E+02  0.00000000000E+00 0.  1.
         11    1    4    4    0    0  0.17370514151E+02  0.14720905704E+02  0.15383513630E+02  0.27478943183E+02  0.51100000000E-03 0. -1.
        -11    1    4    4    0    0  0.51942988039E+01 -0.30553980734E+01  0.74597038053E+01  0.95897538329E+01  0.51100000000E-03 0.  1.
         12    1    4    4    0    0  0.32249857969E+01 -0.44704171649E+00  0.10212123125E+02  0.10718574457E+02  0.00000000000E+00 0. -1.
</event>
<event>
 8    1  0.5331800E-011  0.9118800E+02  0.7816164E-02  0.1184000E+00
        -11   -1    0    0    0    0  0.00000000000E+00  0.00000000000E+00  0.45593999997E+02  0.45594000000E+02  0.51100000000E-03 0. -1.
         11   -1    0    0    0    0 -0.00000000000E+00 -0.00000000000E+00 -0.45593999997E+02  0.45594000000E+02  0.51100000000E-03 0.  1.
         23    2    1    2    0    0  0.00000000000E+00  0.00000000000E+00  0.00000000000E+00  0.91188000000E+02  0.91188000000E+02 0.  0.
    9900012    2    3    3    0    0  0.19656597995E+02  0.24875454754E+02 -0.29638708529E+02  0.47787272619E+02  0.20000007179E+02 0.  0.
         12    1    3    3    0    0 -0.19656597995E+02 -0.24875454754E+02  0.29638708529E+02  0.43400727381E+02  0.00000000000E+00 0. -1.
         11    1    4    4    0    0  0.13523215371E+02  0.11108513838E+02 -0.46247248327E+01  0.18101505840E+02  0.51100000000E-03 0. -1.
        -11    1    4    4    0    0  0.55142122073E+01  0.13331913027E+02 -0.20260107037E+02  0.24872040098E+02  0.51100000000E-03 0.  1.
         12    1    4    4    0    0  0.61917041714E+00  0.43502788973E+00 -0.47538766588E+01  0.48137266808E+01  0.00000000000E+00 0. -1.
</event>
<event>
 8    1  0.5331800E-011  0.9118800E+02  0.7816164E-02  0.1184000E+00
        -11   -1    0    0    0    0  0.00000000000E+00  0.00000000000E+00  0.45593999997E+02  0.45594000000E+02  0.51100000000E-03 0. -1.
         11   -1    0    0    0    0 -0.00000000000E+00 -0.00000000000E+00 -0.45593999997E+02  0.45594000000E+02  0.51100000000E-03 0.  1.
         23    2    1    2    0    0  0.00000000000E+00  0.00000000000E+00  0.00000000000E+00  0.91188000000E+02  0.91188000000E+02 0.  0.
    9900012    2    3    3    0    0  0.93395327111E+01 -0.20690504336E+02 -0.36990531047E+02  0.47787271572E+02  0.20000002406E+02 0.  0.
         12    1    3    3    0    0 -0.93395327111E+01  0.20690504336E+02  0.36990531047E+02  0.43400728428E+02  0.00000000000E+00 0. -1.
         11    1    4    4    0    0 -0.41355723351E+01 -0.16323004090E+01 -0.12427324797E+02  0.13198703157E+02  0.51100000000E-03 0. -1.
        -11    1    4    4    0    0  0.12439966106E+02 -0.17604792368E+02 -0.18960459856E+02  0.28708544186E+02  0.51100000000E-03 0.  1.
         12    1    4    4    0    0  0.10351389401E+01 -0.14534115591E+01 -0.56027463939E+01  0.58800242295E+01  0.00000000000E+00 0. -1.
</event>
<event>
 8    1  0.5331800E-011  0.9118800E+02  0.7816164E-02  0.1184000E+00
        -11   -1    0    0    0    0  0.00000000000E+00  0.00000000000E+00  0.45593999997E+02  0.45594000000E+02  0.51100000000E-03 0.  1.
         11   -1    0    0    0    0 -0.00000000000E+00 -0.00000000000E+00 -0.45593999997E+02  0.45594000000E+02  0.51100000000E-03 0. -1.
         23    2    1    2    0    0  0.00000000000E+00  0.00000000000E+00  0.00000000000E+00  0.91188000000E+02  0.91188000000E+02 0.  0.
    9900012    2    3    3    0    0  0.28599561123E+02 -0.30056431279E+02 -0.12739657671E+02  0.47787276098E+02  0.20000023039E+02 0.  0.
         12    1    3    3    0    0 -0.28599561123E+02  0.30056431279E+02  0.12739657671E+02  0.43400723902E+02  0.00000000000E+00 0. -1.
         11    1    4    4    0    0  0.11602126912E+02 -0.38026567495E+01 -0.48801089498E+01  0.13148574480E+02  0.51100000000E-03 0. -1.
        -11    1    4    4    0    0  0.12040105251E+02 -0.22247658612E+02 -0.10599217537E+01  0.25318883912E+02  0.51100000000E-03 0.  1.
        -12    1    4    4    0    0  0.49573289605E+01 -0.40061159177E+01 -0.67996269677E+01  0.93198177058E+01  0.00000000000E+00 0.  1.
</event>
<event>
 8    1  0.5331800E-011  0.9118800E+02  0.7816164E-02  0.1184000E+00
        -11   -1    0    0    0    0  0.00000000000E+00  0.00000000000E+00  0.45593999997E+02  0.45594000000E+02  0.51100000000E-03 0. -1.
         11   -1    0    0    0    0 -0.00000000000E+00 -0.00000000000E+00 -0.45593999997E+02  0.45594000000E+02  0.51100000000E-03 0.  1.
         23    2    1    2    0    0  0.00000000000E+00  0.00000000000E+00  0.00000000000E+00  0.91188000000E+02  0.91188000000E+02 0.  0.
    9900012    2    3    3    0    0  0.39453289979E+02  0.12944770089E+02  0.12629052292E+02  0.47787284284E+02  0.20000060366E+02 0.  0.
        -12    1    3    3    0    0 -0.39453289979E+02 -0.12944770089E+02 -0.12629052292E+02  0.43400715716E+02  0.00000000000E+00 0.  1.
         11    1    4    4    0    0  0.28921044593E+02  0.63401375702E+01  0.14998701370E+02  0.33190137206E+02  0.51100000000E-03 0. -1.
        -11    1    4    4    0    0  0.53389867304E+01  0.74108688045E+01 -0.11905743002E+01  0.92110381158E+01  0.51100000000E-03 0.  1.
         12    1    4    4    0    0  0.51932586563E+01 -0.80623628581E+00 -0.11790747780E+01  0.53861089621E+01  0.00000000000E+00 0. -1.
</event>
<event>
 8    1  0.5331800E-011  0.9118800E+02  0.7816164E-02  0.1184000E+00
        -11   -1    0    0    0    0  0.00000000000E+00  0.00000000000E+00  0.45593999997E+02  0.45594000000E+02  0.51100000000E-03 0.  1.
         11   -1    0    0    0    0 -0.00000000000E+00 -0.00000000000E+00 -0.45593999997E+02  0.45594000000E+02  0.51100000000E-03 0. -1.
         23    2    1    2    0    0  0.00000000000E+00  0.00000000000E+00 -0.17763568394E-14  0.91188000000E+02  0.91188000000E+02 0.  0.
    9900012    2    3    3    0    0 -0.33312256565E+02 -0.23089150512E+02 -0.15517989993E+02  0.47787270487E+02  0.19999997459E+02 0.  0.
         12    1    3    3    0    0  0.33312256565E+02  0.23089150512E+02  0.15517989993E+02  0.43400729513E+02  0.00000000000E+00 0. -1.
         11    1    4    4    0    0 -0.10918649331E+01 -0.10299564566E+01 -0.70509592772E+01  0.72089532059E+01  0.51100000000E-03 0. -1.
        -11    1    4    4    0    0 -0.15480159905E+02 -0.11899765050E+02 -0.77769069240E+00  0.19540843432E+02  0.51100000000E-03 0.  1.
        -12    1    4    4    0    0 -0.16740231727E+02 -0.10159429005E+02 -0.76893400233E+01  0.21037473850E+02  0.00000000000E+00 0.  1.
</event>
<event>
 8    1  0.5331800E-011  0.9118800E+02  0.7816164E-02  0.1184000E+00
        -11   -1    0    0    0    0  0.00000000000E+00  0.00000000000E+00  0.45593999997E+02  0.45594000000E+02  0.51100000000E-03 0. -1.
         11   -1    0    0    0    0 -0.00000000000E+00 -0.00000000000E+00 -0.45593999997E+02  0.45594000000E+02  0.51100000000E-03 0.  1.
         23    2    1    2    0    0  0.00000000000E+00  0.00000000000E+00 -0.71054273576E-14  0.91188000000E+02  0.91188000000E+02 0.  0.
    9900012    2    3    3    0    0  0.97873395941E+01 -0.52196992983E+01 -0.41959337732E+02  0.47787270743E+02  0.19999998625E+02 0.  0.
         12    1    3    3    0    0 -0.97873395941E+01  0.52196992983E+01  0.41959337732E+02  0.43400729257E+02  0.00000000000E+00 0. -1.
         11    1    4    4    0    0  0.83547458209E+01 -0.66751472668E+01 -0.32728959147E+02  0.34431731526E+02  0.51100000000E-03 0. -1.
        -11    1    4    4    0    0  0.45797599450E+01  0.41410402802E+00 -0.13285297338E+01  0.47865096693E+01  0.51100000000E-03 0.  1.
         12    1    4    4    0    0 -0.31471661719E+01  0.10413439404E+01 -0.79018488519E+01  0.85690295480E+01  0.00000000000E+00 0. -1.
</event>
<event>
 8    1  0.5331800E-011  0.9118800E+02  0.7816164E-02  0.1184000E+00
        -11   -1    0    0    0    0  0.00000000000E+00  0.00000000000E+00  0.45593999997E+02  0.45594000000E+02  0.51100000000E-03 0.  1.
         11   -1    0    0    0    0 -0.00000000000E+00 -0.00000000000E+00 -0.45593999997E+02  0.45594000000E+02  0.51100000000E-03 0. -1.
         23    2    1    2    0    0  0.00000000000E+00  0.00000000000E+00 -0.35527136788E-14  0.91188000000E+02  0.91188000000E+02 0.  0.
    9900012    2    3    3    0    0 -0.27511365514E+02  0.21667104749E+02 -0.25637547044E+02  0.47787280201E+02  0.20000041748E+02 0.  0.
         12    1    3    3    0    0  0.27511365514E+02 -0.21667104749E+02  0.25637547044E+02  0.43400719799E+02  0.00000000000E+00 0. -1.
         11    1    4    4    0    0  0.51437760166E+00 -0.13406477582E+01  0.24594819199E+00  0.14568498560E+01  0.51100000000E-03 0. -1.
        -11    1    4    4    0    0 -0.27614542272E+02  0.24293441278E+02 -0.23670237016E+02  0.43738019556E+02  0.51100000000E-03 0.  1.
        -12    1    4    4    0    0 -0.41120084381E+00 -0.12856887708E+01 -0.22132582206E+01  0.25924107893E+01  0.00000000000E+00 0.  1.
</event>
<event>
 8    1  0.5331800E-011  0.9118800E+02  0.7816164E-02  0.1184000E+00
        -11   -1    0    0    0    0  0.00000000000E+00  0.00000000000E+00  0.45593999997E+02  0.45594000000E+02  0.51100000000E-03 0. -1.
         11   -1    0    0    0    0 -0.00000000000E+00 -0.00000000000E+00 -0.45593999997E+02  0.45594000000E+02  0.51100000000E-03 0.  1.
         23    2    1    2    0    0  0.00000000000E+00  0.44408920985E-15  0.00000000000E+00  0.91188000000E+02  0.91188000000E+02 0.  0.
    9900012    2    3    3    0    0  0.19734154185E+02  0.37324016527E+01  0.38474089473E+02  0.47787271616E+02  0.20000002607E+02 0.  0.
        -12    1    3    3    0    0 -0.19734154185E+02 -0.37324016527E+01 -0.38474089473E+02  0.43400728384E+02  0.00000000000E+00 0.  1.
         11    1    4    4    0    0  0.18209115387E+02  0.62603122859E+01  0.16094872530E+02  0.25095982051E+02  0.51100000000E-03 0. -1.
        -11    1    4    4    0    0  0.16987284664E+01 -0.18153733435E+01  0.10535201375E+02  0.10824589002E+02  0.51100000000E-03 0.  1.
         12    1    4    4    0    0 -0.17368966870E+00 -0.71253728978E+00  0.11844015568E+02  0.11866700563E+02  0.00000000000E+00 0. -1.
</event>
<event>
 8    1  0.5331800E-011  0.9118800E+02  0.7816164E-02  0.1184000E+00
        -11   -1    0    0    0    0  0.00000000000E+00  0.00000000000E+00  0.45593999997E+02  0.45594000000E+02  0.51100000000E-03 0. -1.
         11   -1    0    0    0    0 -0.00000000000E+00 -0.00000000000E+00 -0.45593999997E+02  0.45594000000E+02  0.51100000000E-03 0.  1.
         23    2    1    2    0    0  0.00000000000E+00  0.00000000000E+00  0.00000000000E+00  0.91188000000E+02  0.91188000000E+02 0.  0.
    9900012    2    3    3    0    0 -0.18738090201E+02  0.39006739362E+02 -0.33138574247E+01  0.47787269694E+02  0.19999993843E+02 0.  0.
         12    1    3    3    0    0  0.18738090201E+02 -0.39006739362E+02  0.33138574247E+01  0.43400730306E+02  0.00000000000E+00 0. -1.
         11    1    4    4    0    0 -0.15114219600E+02  0.24310279352E+02 -0.13967414937E+01  0.28659731390E+02  0.51100000000E-03 0.  1.
        -11    1    4    4    0    0 -0.11725109459E+01  0.99572634018E+00  0.37856422247E+01  0.40862379002E+01  0.51100000000E-03 0. -1.
         12    1    4    4    0    0 -0.24513596552E+01  0.13700733670E+02 -0.57027581557E+01  0.15041300404E+02  0.00000000000E+00 0. -1.
</event>
<event>
 8    1  0.5331800E-011  0.9118800E+02  0.7816164E-02  0.1184000E+00
        -11   -1    0    0    0    0  0.00000000000E+00  0.00000000000E+00  0.45593999997E+02  0.45594000000E+02  0.51100000000E-03 0. -1.
         11   -1    0    0    0    0 -0.00000000000E+00 -0.00000000000E+00 -0.45593999997E+02  0.45594000000E+02  0.51100000000E-03 0.  1.
         23    2    1    2    0    0 -0.35527136788E-14 -0.88817841970E-15  0.00000000000E+00  0.91188000000E+02  0.91188000000E+02 0.  0.
    9900012    2    3    3    0    0 -0.27774170325E+02 -0.50002694619E+01 -0.32972951148E+02  0.47787277202E+02  0.20000028077E+02 0.  0.
         12    1    3    3    0    0  0.27774170325E+02  0.50002694619E+01  0.32972951148E+02  0.43400722798E+02  0.00000000000E+00 0. -1.
         11    1    4    4    0    0 -0.13362712514E+02  0.34468414928E+01 -0.98138645909E+01  0.16933834193E+02  0.51100000000E-03 0. -1.
        -11    1    4    4    0    0 -0.10269446544E+02 -0.78293817940E+01 -0.23326308367E+02  0.26662284484E+02  0.51100000000E-03 0.  1.
        -12    1    4    4    0    0 -0.41420112672E+01 -0.61772916080E+00  0.16722180994E+00  0.41911585256E+01  0.00000000000E+00 0.  1.
</event>
<event>
 8    1  0.5331800E-011  0.9118800E+02  0.7816164E-02  0.1184000E+00
        -11   -1    0    0    0    0  0.00000000000E+00  0.00000000000E+00  0.45593999997E+02  0.45594000000E+02  0.51100000000E-03 0. -1.
         11   -1    0    0    0    0 -0.00000000000E+00 -0.00000000000E+00 -0.45593999997E+02  0.45594000000E+02  0.51100000000E-03 0.  1.
         23    2    1    2    0    0  0.00000000000E+00  0.00000000000E+00 -0.35527136788E-14  0.91188000000E+02  0.91188000000E+02 0.  0.
    9900012    2    3    3    0    0  0.27176408678E+02 -0.19781632873E+02  0.27454559578E+02  0.47787273861E+02  0.20000012843E+02 0.  0.
        -12    1    3    3    0    0 -0.27176408678E+02  0.19781632873E+02 -0.27454559578E+02  0.43400726139E+02  0.00000000000E+00 0.  1.
         11    1    4    4    0    0  0.22280769084E+02 -0.18689550841E+02  0.24069410199E+02  0.37750079327E+02  0.51100000000E-03 0. -1.
        -11    1    4    4    0    0  0.45840091437E+01  0.23083475294E+01  0.40751398831E+01  0.65535008563E+01  0.51100000000E-03 0.  1.
         12    1    4    4    0    0  0.31163044981E+00 -0.34004295622E+01 -0.68999050426E+00  0.34836936778E+01  0.00000000000E+00 0. -1.
</event>
<event>
 8    1  0.5331800E-011  0.9118800E+02  0.7816164E-02  0.1184000E+00
        -11   -1    0    0    0    0  0.00000000000E+00  0.00000000000E+00  0.45593999997E+02  0.45594000000E+02  0.51100000000E-03 0. -1.
         11   -1    0    0    0    0 -0.00000000000E+00 -0.00000000000E+00 -0.45593999997E+02  0.45594000000E+02  0.51100000000E-03 0.  1.
         23    2    1    2    0    0  0.00000000000E+00  0.00000000000E+00  0.00000000000E+00  0.91188000000E+02  0.91188000000E+02 0.  0.
    9900012    2    3    3    0    0 -0.19718023533E+02  0.11838441922E+02 -0.36805898863E+02  0.47787270164E+02  0.19999995985E+02 0.  0.
         12    1    3    3    0    0  0.19718023533E+02 -0.11838441922E+02  0.36805898863E+02  0.43400729836E+02  0.00000000000E+00 0. -1.
         11    1    4    4    0    0 -0.17974289463E+02  0.86494910428E+01 -0.21388531113E+02  0.29246504755E+02  0.51100000000E-03 0. -1.
        -11    1    4    4    0    0 -0.46622415441E+01  0.13347937589E+01 -0.13978167543E+02  0.14795517521E+02  0.51100000000E-03 0.  1.
         12    1    4    4    0    0  0.29185074737E+01  0.18541571208E+01 -0.14392002076E+01  0.37452478877E+01  0.00000000000E+00 0. -1.
</event>
<event>
 8    1  0.5331800E-011  0.9118800E+02  0.7816164E-02  0.1184000E+00
        -11   -1    0    0    0    0  0.00000000000E+00  0.00000000000E+00  0.45593999997E+02  0.45594000000E+02  0.51100000000E-03 0. -1.
         11   -1    0    0    0    0 -0.00000000000E+00 -0.00000000000E+00 -0.45593999997E+02  0.45594000000E+02  0.51100000000E-03 0.  1.
         23    2    1    2    0    0  0.44408920985E-15  0.00000000000E+00  0.35527136788E-14  0.91188000000E+02  0.91188000000E+02 0.  0.
    9900012    2    3    3    0    0 -0.25333163373E+01 -0.32220976170E+02 -0.28965753465E+02  0.47787264167E+02  0.19999968644E+02 0.  0.
         12    1    3    3    0    0  0.25333163373E+01  0.32220976170E+02  0.28965753465E+02  0.43400735833E+02  0.00000000000E+00 0. -1.
         11    1    4    4    0    0  0.48118558733E+01 -0.15128775382E+02 -0.18255082391E+02  0.24192598762E+02  0.51100000000E-03 0. -1.
        -11    1    4    4    0    0 -0.45165618464E+01 -0.28487238659E+01  0.33371510659E+00  0.53503200474E+01  0.51100000000E-03 0.  1.
        -12    1    4    4    0    0 -0.28286103642E+01 -0.14243476922E+02 -0.11044386181E+02  0.18244345358E+02  0.00000000000E+00 0.  1.
</event>
<event>
 8    1  0.5331800E-011  0.9118800E+02  0.7816164E-02  0.1184000E+00
        -11   -1    0    0    0    0  0.00000000000E+00  0.00000000000E+00  0.45593999997E+02  0.45594000000E+02  0.51100000000E-03 0.  1.
         11   -1    0    0    0    0 -0.00000000000E+00 -0.00000000000E+00 -0.45593999997E+02  0.45594000000E+02  0.51100000000E-03 0. -1.
         23    2    1    2    0    0  0.00000000000E+00  0.00000000000E+00  0.17763568394E-14  0.91188000000E+02  0.91188000000E+02 0.  0.
    9900012    2    3    3    0    0  0.19316372525E+02 -0.36135034250E+02 -0.14309448204E+02  0.47787271255E+02  0.20000000958E+02 0.  0.
         12    1    3    3    0    0 -0.19316372525E+02  0.36135034250E+02  0.14309448204E+02  0.43400728745E+02  0.00000000000E+00 0. -1.
         11    1    4    4    0    0  0.82652374143E+01 -0.97448279437E+01  0.43709557455E+01  0.13504853778E+02  0.51100000000E-03 0. -1.
        -11    1    4    4    0    0  0.81270752326E+01 -0.21993826725E+02 -0.14761981064E+02  0.27707288771E+02  0.51100000000E-03 0.  1.
         12    1    4    4    0    0  0.29240598777E+01 -0.43963795810E+01 -0.39184228854E+01  0.65751287058E+01  0.00000000000E+00 0. -1.
</event>
<event>
 8    1  0.5331800E-011  0.9118800E+02  0.7816164E-02  0.1184000E+00
        -11   -1    0    0    0    0  0.00000000000E+00  0.00000000000E+00  0.45593999997E+02  0.45594000000E+02  0.51100000000E-03 0. -1.
         11   -1    0    0    0    0 -0.00000000000E+00 -0.00000000000E+00 -0.45593999997E+02  0.45594000000E+02  0.51100000000E-03 0.  1.
         23    2    1    2    0    0 -0.71054273576E-14  0.35527136788E-14  0.00000000000E+00  0.91188000000E+02  0.91188000000E+02 0.  0.
    9900012    2    3    3    0    0 -0.35885123677E+02  0.14413414180E+02 -0.19701154464E+02  0.47787261563E+02  0.19999956771E+02 0.  0.
         12    1    3    3    0    0  0.35885123677E+02 -0.14413414180E+02  0.19701154464E+02  0.43400738437E+02  0.00000000000E+00 0. -1.
         11    1    4    4    0    0 -0.82211462125E+01  0.22349549948E+00 -0.19951255407E+01  0.84627254162E+01  0.51100000000E-03 0. -1.
        -11    1    4    4    0    0 -0.24115130933E+01  0.50389686790E+01 -0.98771192770E+01  0.11347426414E+02  0.51100000000E-03 0.  1.
        -12    1    4    4    0    0 -0.25252464371E+02  0.91509500019E+01 -0.78289096465E+01  0.27977109733E+02  0.00000000000E+00 0.  1.
</event>
<event>
 8    1  0.5331800E-011  0.9118800E+02  0.7816164E-02  0.1184000E+00
        -11   -1    0    0    0    0  0.00000000000E+00  0.00000000000E+00  0.45593999997E+02  0.45594000000E+02  0.51100000000E-03 0. -1.
         11   -1    0    0    0    0 -0.00000000000E+00 -0.00000000000E+00 -0.45593999997E+02  0.45594000000E+02  0.51100000000E-03 0.  1.
         23    2    1    2    0    0  0.00000000000E+00  0.00000000000E+00  0.00000000000E+00  0.91188000000E+02  0.91188000000E+02 0.  0.
    9900012    2    3    3    0    0 -0.10578364019E+02 -0.41568134631E+02  0.66191885259E+01  0.47787248177E+02  0.19999895739E+02 0.  0.
        -12    1    3    3    0    0  0.10578364019E+02  0.41568134631E+02 -0.66191885259E+01  0.43400751823E+02  0.00000000000E+00 0.  1.
         11    1    4    4    0    0 -0.12617313668E+02 -0.24111926250E+02  0.99132806612E+01  0.28962988890E+02  0.51100000000E-03 0. -1.
        -11    1    4    4    0    0  0.24575708144E+01 -0.47902022168E+01 -0.29666906217E+01  0.61471086774E+01  0.51100000000E-03 0.  1.
         12    1    4    4    0    0 -0.41862116513E+00 -0.12666006164E+02 -0.32740151358E+00  0.12677150610E+02  0.00000000000E+00 0. -1.
</event>
<event>
 8    1  0.5331800E-011  0.9118800E+02  0.7816164E-02  0.1184000E+00
        -11   -1    0    0    0    0  0.00000000000E+00  0.00000000000E+00  0.45593999997E+02  0.45594000000E+02  0.51100000000E-03 0. -1.
         11   -1    0    0    0    0 -0.00000000000E+00 -0.00000000000E+00 -0.45593999997E+02  0.45594000000E+02  0.51100000000E-03 0.  1.
         23    2    1    2    0    0 -0.88817841970E-15  0.00000000000E+00  0.71054273576E-14  0.91188000000E+02  0.91188000000E+02 0.  0.
    9900012    2    3    3    0    0 -0.62594960443E+01 -0.11943314536E+02  0.41252868595E+02  0.47787271663E+02  0.20000002823E+02 0.  0.
        -12    1    3    3    0    0  0.62594960443E+01  0.11943314536E+02 -0.41252868595E+02  0.43400728337E+02  0.00000000000E+00 0.  1.
         11    1    4    4    0    0 -0.59041006626E+00  0.26738017519E+01  0.14048560704E+02  0.14312926255E+02  0.51100000000E-03 0. -1.
        -11    1    4    4    0    0 -0.33531599051E+01 -0.12176663507E+02  0.10470513247E+02  0.16405683876E+02  0.51100000000E-03 0.  1.
         12    1    4    4    0    0 -0.23159260729E+01 -0.24404527806E+01  0.16733794644E+02  0.17068661533E+02  0.00000000000E+00 0. -1.
</event>
<event>
 8    1  0.5331800E-011  0.9118800E+02  0.7816164E-02  0.1184000E+00
        -11   -1    0    0    0    0  0.00000000000E+00  0.00000000000E+00  0.45593999997E+02  0.45594000000E+02  0.51100000000E-03 0. -1.
         11   -1    0    0    0    0 -0.00000000000E+00 -0.00000000000E+00 -0.45593999997E+02  0.45594000000E+02  0.51100000000E-03 0.  1.
         23    2    1    2    0    0 -0.11102230246E-15  0.00000000000E+00  0.00000000000E+00  0.91188000000E+02  0.91188000000E+02 0.  0.
    9900012    2    3    3    0    0 -0.67101703205E+00  0.25431613751E+01  0.43320964921E+02  0.47787263425E+02  0.19999965258E+02 0.  0.
        -12    1    3    3    0    0  0.67101703205E+00 -0.25431613751E+01 -0.43320964921E+02  0.43400736575E+02  0.00000000000E+00 0.  1.
         11    1    4    4    0    0 -0.28047599212E+01  0.53258108657E+01  0.80015383591E+01  0.10012769645E+02  0.51100000000E-03 0. -1.
        -11    1    4    4    0    0  0.49014198423E-01 -0.78831979666E+01  0.21140936882E+02  0.22562943626E+02  0.51100000000E-03 0.  1.
         12    1    4    4    0    0  0.20847286907E+01  0.51005484760E+01  0.14178489680E+02  0.15211550153E+02  0.00000000000E+00 0. -1.
</event>
<event>
 8    1  0.5331800E-011  0.9118800E+02  0.7816164E-02  0.1184000E+00
        -11   -1    0    0    0    0  0.00000000000E+00  0.00000000000E+00  0.45593999997E+02  0.45594000000E+02  0.51100000000E-03 0. -1.
         11   -1    0    0    0    0 -0.00000000000E+00 -0.00000000000E+00 -0.45593999997E+02  0.45594000000E+02  0.51100000000E-03 0.  1.
         23    2    1    2    0    0  0.00000000000E+00  0.00000000000E+00  0.00000000000E+00  0.91188000000E+02  0.91188000000E+02 0.  0.
    9900012    2    3    3    0    0 -0.38796516271E+02 -0.14951569677E+02 -0.12446043595E+02  0.47787272912E+02  0.20000008516E+02 0.  0.
         12    1    3    3    0    0  0.38796516271E+02  0.14951569677E+02  0.12446043595E+02  0.43400727088E+02  0.00000000000E+00 0. -1.
         11    1    4    4    0    0  0.19181531215E+00 -0.29524406324E+01  0.19959046045E+01  0.35689402143E+01  0.51100000000E-03 0. -1.
        -11    1    4    4    0    0 -0.36172791696E+02 -0.10730307504E+02 -0.10411745524E+02  0.39140960685E+02  0.51100000000E-03 0.  1.
        -12    1    4    4    0    0 -0.28155398875E+01 -0.12688215414E+01 -0.40302026747E+01  0.50773720133E+01  0.00000000000E+00 0.  1.
</event>
<event>
 8    1  0.5331800E-011  0.9118800E+02  0.7816164E-02  0.1184000E+00
        -11   -1    0    0    0    0  0.00000000000E+00  0.00000000000E+00  0.45593999997E+02  0.45594000000E+02  0.51100000000E-03 0. -1.
         11   -1    0    0    0    0 -0.00000000000E+00 -0.00000000000E+00 -0.45593999997E+02  0.45594000000E+02  0.51100000000E-03 0.  1.
         23    2    1    2    0    0  0.00000000000E+00 -0.17763568394E-14  0.35527136788E-14  0.91188000000E+02  0.91188000000E+02 0.  0.
    9900012    2    3    3    0    0 -0.29122237209E+02  0.12167533422E+02 -0.29790424173E+02  0.47787274867E+02  0.20000017430E+02 0.  0.
         12    1    3    3    0    0  0.29122237209E+02 -0.12167533422E+02  0.29790424173E+02  0.43400725133E+02  0.00000000000E+00 0. -1.
         11    1    4    4    0    0 -0.21545901909E+02  0.99498439000E+01 -0.18676184406E+02  0.30199754087E+02  0.51100000000E-03 0. -1.
        -11    1    4    4    0    0 -0.39609361602E+01 -0.35289608587E+01 -0.98844124186E+00  0.53962576252E+01  0.51100000000E-03 0.  1.
        -12    1    4    4    0    0 -0.36153991395E+01  0.57466503809E+01 -0.10125798525E+02  0.12191263155E+02  0.00000000000E+00 0.  1.
</event>
<event>
 8    1  0.5331800E-011  0.9118800E+02  0.7816164E-02  0.1184000E+00
        -11   -1    0    0    0    0  0.00000000000E+00  0.00000000000E+00  0.45593999997E+02  0.45594000000E+02  0.51100000000E-03 0. -1.
         11   -1    0    0    0    0 -0.00000000000E+00 -0.00000000000E+00 -0.45593999997E+02  0.45594000000E+02  0.51100000000E-03 0.  1.
         23    2    1    2    0    0 -0.35527136788E-14  0.00000000000E+00  0.00000000000E+00  0.91188000000E+02  0.91188000000E+02 0.  0.
    9900012    2    3    3    0    0  0.26811194934E+02  0.21430628857E+01 -0.34061569605E+02  0.47787269404E+02  0.19999992520E+02 0.  0.
         12    1    3    3    0    0 -0.26811194934E+02 -0.21430628857E+01  0.34061569605E+02  0.43400730596E+02  0.00000000000E+00 0. -1.
         11    1    4    4    0    0  0.23994829646E+01 -0.62256528974E+01 -0.82479435265E+01  0.10608715529E+02  0.51100000000E-03 0. -1.
        -11    1    4    4    0    0  0.12631870217E+02  0.50975275992E+01 -0.87593861314E+01  0.16194930641E+02  0.51100000000E-03 0.  1.
        -12    1    4    4    0    0  0.11779841752E+02  0.32711881839E+01 -0.17054239948E+02  0.20983623234E+02  0.00000000000E+00 0.  1.
</event>
<event>
 8    1  0.5331800E-011  0.9118800E+02  0.7816164E-02  0.1184000E+00
        -11   -1    0    0    0    0  0.00000000000E+00  0.00000000000E+00  0.45593999997E+02  0.45594000000E+02  0.51100000000E-03 0. -1.
         11   -1    0    0    0    0 -0.00000000000E+00 -0.00000000000E+00 -0.45593999997E+02  0.45594000000E+02  0.51100000000E-03 0.  1.
         23    2    1    2    0    0  0.88817841970E-15  0.00000000000E+00  0.00000000000E+00  0.91188000000E+02  0.91188000000E+02 0.  0.
    9900012    2    3    3    0    0 -0.67853174843E+01  0.26318194889E+02  0.33836890689E+02  0.47787273196E+02  0.20000009812E+02 0.  0.
        -12    1    3    3    0    0  0.67853174843E+01 -0.26318194889E+02 -0.33836890689E+02  0.43400726804E+02  0.00000000000E+00 0.  1.
         11    1    4    4    0    0 -0.95619443018E+01  0.49968115210E+01  0.14120409136E+02  0.17770336481E+02  0.51100000000E-03 0. -1.
        -11    1    4    4    0    0  0.19823272209E+01  0.19413406236E+02  0.14222953680E+02  0.24147512803E+02  0.51100000000E-03 0.  1.
        -12    1    4    4    0    0  0.79429959662E+00  0.19079771318E+01  0.54935278725E+01  0.58694239130E+01  0.00000000000E+00 0.  1.
</event>
<event>
 8    1  0.5331800E-011  0.9118800E+02  0.7816164E-02  0.1184000E+00
        -11   -1    0    0    0    0  0.00000000000E+00  0.00000000000E+00  0.45593999997E+02  0.45594000000E+02  0.51100000000E-03 0. -1.
         11   -1    0    0    0    0 -0.00000000000E+00 -0.00000000000E+00 -0.45593999997E+02  0.45594000000E+02  0.51100000000E-03 0.  1.
         23    2    1    2    0    0  0.00000000000E+00 -0.17763568394E-14  0.00000000000E+00  0.91188000000E+02  0.91188000000E+02 0.  0.
    9900012    2    3    3    0    0  0.25236807072E+01  0.10103212256E+02 -0.42132877997E+02  0.47787271084E+02  0.20000000179E+02 0.  0.
         12    1    3    3    0    0 -0.25236807072E+01 -0.10103212256E+02  0.42132877997E+02  0.43400728916E+02  0.00000000000E+00 0. -1.
         11    1    4    4    0    0  0.36163881832E+01 -0.60862494673E+00 -0.37731012578E+00  0.36866042653E+01  0.51100000000E-03 0. -1.
        -11    1    4    4    0    0 -0.32967752273E+01  0.90391554720E+01 -0.20269722080E+02  0.22437394947E+02  0.51100000000E-03 0.  1.
         12    1    4    4    0    0  0.22040677513E+01  0.16726817309E+01 -0.21485845791E+02  0.21663271871E+02  0.00000000000E+00 0. -1.
</event>
<event>
 8    1  0.5331800E-011  0.9118800E+02  0.7816164E-02  0.1184000E+00
        -11   -1    0    0    0    0  0.00000000000E+00  0.00000000000E+00  0.45593999997E+02  0.45594000000E+02  0.51100000000E-03 0. -1.
         11   -1    0    0    0    0 -0.00000000000E+00 -0.00000000000E+00 -0.45593999997E+02  0.45594000000E+02  0.51100000000E-03 0.  1.
         23    2    1    2    0    0  0.00000000000E+00  0.00000000000E+00  0.00000000000E+00  0.91188000000E+02  0.91188000000E+02 0.  0.
    9900012    2    3    3    0    0 -0.19856594955E+02 -0.19812736741E+02  0.33117887628E+02  0.47787269807E+02  0.19999994356E+02 0.  0.
        -12    1    3    3    0    0  0.19856594955E+02  0.19812736741E+02 -0.33117887628E+02  0.43400730193E+02  0.00000000000E+00 0.  1.
         11    1    4    4    0    0 -0.23096476039E+02 -0.19750047090E+02  0.28601510583E+02  0.41731977827E+02  0.51100000000E-03 0. -1.
        -11    1    4    4    0    0  0.19952332331E+01 -0.96159706288E+00  0.15132079353E+01  0.26824285792E+01  0.51100000000E-03 0.  1.
         12    1    4    4    0    0  0.12446478512E+01  0.89890741258E+00  0.30031691104E+01  0.33728634001E+01  0.00000000000E+00 0. -1.
</event>
<event>
 8    1  0.5331800E-011  0.9118800E+02  0.7816164E-02  0.1184000E+00
        -11   -1    0    0    0    0  0.00000000000E+00  0.00000000000E+00  0.45593999997E+02  0.45594000000E+02  0.51100000000E-03 0. -1.
         11   -1    0    0    0    0 -0.00000000000E+00 -0.00000000000E+00 -0.45593999997E+02  0.45594000000E+02  0.51100000000E-03 0.  1.
         23    2    1    2    0    0 -0.88817841970E-15  0.00000000000E+00  0.00000000000E+00  0.91188000000E+02  0.91188000000E+02 0.  0.
    9900012    2    3    3    0    0  0.69825426888E+01 -0.13098274269E+02  0.40783607537E+02  0.47787270340E+02  0.19999996790E+02 0.  0.
        -12    1    3    3    0    0 -0.69825426888E+01  0.13098274269E+02 -0.40783607537E+02  0.43400729660E+02  0.00000000000E+00 0.  1.
         11    1    4    4    0    0  0.12922266135E+02 -0.85550826093E+01  0.32863608712E+02  0.36334435159E+02  0.51100000000E-03 0. -1.
        -11    1    4    4    0    0 -0.29711739498E+01 -0.12028440189E+01  0.12853235161E+01  0.34535149017E+01  0.51100000000E-03 0.  1.
         12    1    4    4    0    0 -0.29685494964E+01 -0.33403476412E+01  0.66346753092E+01  0.79993202796E+01  0.00000000000E+00 0. -1.
</event>
<event>
 8    1  0.5331800E-011  0.9118800E+02  0.7816164E-02  0.1184000E+00
        -11   -1    0    0    0    0  0.00000000000E+00  0.00000000000E+00  0.45593999997E+02  0.45594000000E+02  0.51100000000E-03 0. -1.
         11   -1    0    0    0    0 -0.00000000000E+00 -0.00000000000E+00 -0.45593999997E+02  0.45594000000E+02  0.51100000000E-03 0.  1.
         23    2    1    2    0    0  0.00000000000E+00 -0.44408920985E-15 -0.35527136788E-14  0.91188000000E+02  0.91188000000E+02 0.  0.
    9900012    2    3    3    0    0 -0.36588376219E+02 -0.33755288030E+01 -0.23098047330E+02  0.47787271210E+02  0.20000000755E+02 0.  0.
         12    1    3    3    0    0  0.36588376219E+02  0.33755288030E+01  0.23098047330E+02  0.43400728790E+02  0.00000000000E+00 0. -1.
         11    1    4    4    0    0 -0.11795154567E+02 -0.47531589657E+00  0.92136036276E+00  0.11840629276E+02  0.51100000000E-03 0. -1.
        -11    1    4    4    0    0 -0.54077822943E+01 -0.44260876692E+01 -0.40650906850E+01  0.80845113604E+01  0.51100000000E-03 0.  1.
         12    1    4    4    0    0 -0.19385439357E+02  0.15258747627E+01 -0.19954317008E+02  0.27862130574E+02  0.00000000000E+00 0. -1.
</event>
<event>
 8    1  0.5331800E-011  0.9118800E+02  0.7816164E-02  0.1184000E+00
        -11   -1    0    0    0    0  0.00000000000E+00  0.00000000000E+00  0.45593999997E+02  0.45594000000E+02  0.51100000000E-03 0.  1.
         11   -1    0    0    0    0 -0.00000000000E+00 -0.00000000000E+00 -0.45593999997E+02  0.45594000000E+02  0.51100000000E-03 0. -1.
         23    2    1    2    0    0 -0.71054273576E-14  0.00000000000E+00 -0.17763568394E-14  0.91188000000E+02  0.91188000000E+02 0.  0.
    9900012    2    3    3    0    0  0.42298931671E+02 -0.91209533816E+01  0.33513519581E+01  0.47787274534E+02  0.20000015909E+02 0.  0.
         12    1    3    3    0    0 -0.42298931671E+02  0.91209533816E+01 -0.33513519581E+01  0.43400725466E+02  0.00000000000E+00 0. -1.
         11    1    4    4    0    0  0.12269221220E+01 -0.14726309254E+01  0.30491627757E+01  0.36015793243E+01  0.51100000000E-03 0. -1.
        -11    1    4    4    0    0  0.36996282033E+02 -0.63734453526E+01 -0.44413511706E+01  0.37803059274E+02  0.51100000000E-03 0.  1.
        -12    1    4    4    0    0  0.40757275153E+01 -0.12748771036E+01  0.47435403530E+01  0.63826359358E+01  0.00000000000E+00 0.  1.
</event>
<event>
 8    1  0.5331800E-011  0.9118800E+02  0.7816164E-02  0.1184000E+00
        -11   -1    0    0    0    0  0.00000000000E+00  0.00000000000E+00  0.45593999997E+02  0.45594000000E+02  0.51100000000E-03 0. -1.
         11   -1    0    0    0    0 -0.00000000000E+00 -0.00000000000E+00 -0.45593999997E+02  0.45594000000E+02  0.51100000000E-03 0.  1.
         23    2    1    2    0    0  0.00000000000E+00  0.22204460493E-14 -0.71054273576E-14  0.91188000000E+02  0.91188000000E+02 0.  0.
    9900012    2    3    3    0    0 -0.11049100641E+02  0.24108447857E+01 -0.41901413162E+02  0.47787271636E+02  0.20000002696E+02 0.  0.
         12    1    3    3    0    0  0.11049100641E+02 -0.24108447857E+01  0.41901413162E+02  0.43400728364E+02  0.00000000000E+00 0. -1.
         11    1    4    4    0    0 -0.71376733767E+01 -0.68566768482E+01 -0.91131932853E+01  0.13454021360E+02  0.51100000000E-03 0. -1.
        -11    1    4    4    0    0 -0.14938804953E+01  0.40218152022E+01 -0.16599807447E+02  0.17145270018E+02  0.51100000000E-03 0.  1.
         12    1    4    4    0    0 -0.24175467689E+01  0.52457064317E+01 -0.16188412430E+02  0.17187980258E+02  0.00000000000E+00 0. -1.
</event>
<event>
 8    1  0.5331800E-011  0.9118800E+02  0.7816164E-02  0.1184000E+00
        -11   -1    0    0    0    0  0.00000000000E+00  0.00000000000E+00  0.45593999997E+02  0.45594000000E+02  0.51100000000E-03 0. -1.
         11   -1    0    0    0    0 -0.00000000000E+00 -0.00000000000E+00 -0.45593999997E+02  0.45594000000E+02  0.51100000000E-03 0.  1.
         23    2    1    2    0    0  0.00000000000E+00  0.00000000000E+00  0.00000000000E+00  0.91188000000E+02  0.91188000000E+02 0.  0.
    9900012    2    3    3    0    0  0.21095556911E+02  0.10293189781E+02  0.36505443468E+02  0.47787312447E+02  0.20000188770E+02 0.  0.
        -12    1    3    3    0    0 -0.21095556911E+02 -0.10293189781E+02 -0.36505443468E+02  0.43400687553E+02  0.00000000000E+00 0.  1.
         11    1    4    4    0    0  0.55229637633E+01  0.98988382666E+01  0.85944702854E+01  0.14225155448E+02  0.51100000000E-03 0.  1.
        -11    1    4    4    0    0  0.26959183755E+01 -0.17985074851E+01  0.14436298814E+02  0.14795584773E+02  0.51100000000E-03 0. -1.
         12    1    4    4    0    0  0.12876674772E+02  0.21928589995E+01  0.13474674368E+02  0.18766572226E+02  0.00000000000E+00 0. -1.
</event>
<event>
 8    1  0.5331800E-011  0.9118800E+02  0.7816164E-02  0.1184000E+00
        -11   -1    0    0    0    0  0.00000000000E+00  0.00000000000E+00  0.45593999997E+02  0.45594000000E+02  0.51100000000E-03 0. -1.
         11   -1    0    0    0    0 -0.00000000000E+00 -0.00000000000E+00 -0.45593999997E+02  0.45594000000E+02  0.51100000000E-03 0.  1.
         23    2    1    2    0    0  0.35527136788E-14  0.00000000000E+00  0.00000000000E+00  0.91188000000E+02  0.91188000000E+02 0.  0.
    9900012    2    3    3    0    0  0.30849785367E+02  0.16410774454E+02  0.25741010115E+02  0.47787281375E+02  0.20000047102E+02 0.  0.
        -12    1    3    3    0    0 -0.30849785367E+02 -0.16410774454E+02 -0.25741010115E+02  0.43400718625E+02  0.00000000000E+00 0.  1.
         11    1    4    4    0    0  0.84347545908E+01  0.96495507254E+01  0.26736421673E+01  0.13092260191E+02  0.51100000000E-03 0. -1.
        -11    1    4    4    0    0  0.13021930008E+02 -0.18668810540E+01  0.12102616626E+02  0.17875380708E+02  0.51100000000E-03 0.  1.
        -12    1    4    4    0    0  0.93931007680E+01  0.86281047830E+01  0.10964751322E+02  0.16819640476E+02  0.00000000000E+00 0.  1.
</event>
<event>
 8    1  0.5331800E-011  0.9118800E+02  0.7816164E-02  0.1184000E+00
        -11   -1    0    0    0    0  0.00000000000E+00  0.00000000000E+00  0.45593999997E+02  0.45594000000E+02  0.51100000000E-03 0. -1.
         11   -1    0    0    0    0 -0.00000000000E+00 -0.00000000000E+00 -0.45593999997E+02  0.45594000000E+02  0.51100000000E-03 0.  1.
         23    2    1    2    0    0  0.88817841970E-15  0.00000000000E+00  0.00000000000E+00  0.91188000000E+02  0.91188000000E+02 0.  0.
    9900012    2    3    3    0    0 -0.25597029361E+01  0.32304225289E+02 -0.28870534264E+02  0.47787276511E+02  0.20000024926E+02 0.  0.
         12    1    3    3    0    0  0.25597029361E+01 -0.32304225289E+02  0.28870534264E+02  0.43400723489E+02  0.00000000000E+00 0. -1.
         11    1    4    4    0    0 -0.95053707979E+00  0.11024526336E+01  0.40911591810E+00  0.15120511383E+01  0.51100000000E-03 0. -1.
        -11    1    4    4    0    0 -0.49753752669E+01  0.91038434452E+00 -0.64417672507E+01  0.81902090495E+01  0.51100000000E-03 0.  1.
        -12    1    4    4    0    0  0.33662094106E+01  0.30291388310E+02 -0.22837882932E+02  0.38085016324E+02  0.00000000000E+00 0.  1.
</event>
<event>
 8    1  0.5331800E-011  0.9118800E+02  0.7816164E-02  0.1184000E+00
        -11   -1    0    0    0    0  0.00000000000E+00  0.00000000000E+00  0.45593999997E+02  0.45594000000E+02  0.51100000000E-03 0. -1.
         11   -1    0    0    0    0 -0.00000000000E+00 -0.00000000000E+00 -0.45593999997E+02  0.45594000000E+02  0.51100000000E-03 0.  1.
         23    2    1    2    0    0  0.35527136788E-14  0.17763568394E-14  0.35527136788E-14  0.91188000000E+02  0.91188000000E+02 0.  0.
    9900012    2    3    3    0    0 -0.26025812328E+02 -0.14227696366E+02 -0.31683641714E+02  0.47787269552E+02  0.19999993195E+02 0.  0.
         12    1    3    3    0    0  0.26025812328E+02  0.14227696366E+02  0.31683641714E+02  0.43400730448E+02  0.00000000000E+00 0. -1.
         11    1    4    4    0    0 -0.18363527453E+02 -0.48561393920E+01 -0.24358156508E+02  0.30888849429E+02  0.51100000000E-03 0. -1.
        -11    1    4    4    0    0 -0.65012256770E+01 -0.11068275917E+02 -0.49523776643E+01  0.13758586841E+02  0.51100000000E-03 0.  1.
         12    1    4    4    0    0 -0.11610591975E+01  0.16967189433E+01 -0.23731075413E+01  0.31398332814E+01  0.00000000000E+00 0. -1.
</event>
<event>
 8    1  0.5331800E-011  0.9118800E+02  0.7816164E-02  0.1184000E+00
        -11   -1    0    0    0    0  0.00000000000E+00  0.00000000000E+00  0.45593999997E+02  0.45594000000E+02  0.51100000000E-03 0. -1.
         11   -1    0    0    0    0 -0.00000000000E+00 -0.00000000000E+00 -0.45593999997E+02  0.45594000000E+02  0.51100000000E-03 0.  1.
         23    2    1    2    0    0  0.00000000000E+00 -0.44408920985E-15  0.00000000000E+00  0.91188000000E+02  0.91188000000E+02 0.  0.
    9900012    2    3    3    0    0  0.31744421154E+02 -0.20471707228E+01  0.29524976229E+02  0.47787269548E+02  0.19999993179E+02 0.  0.
        -12    1    3    3    0    0 -0.31744421154E+02  0.20471707228E+01 -0.29524976229E+02  0.43400730452E+02  0.00000000000E+00 0.  1.
         11    1    4    4    0    0  0.25038912461E+02  0.19614626827E+01  0.21875883643E+02  0.33306887553E+02  0.51100000000E-03 0. -1.
        -11    1    4    4    0    0 -0.12770131905E+00 -0.23454671137E+01  0.70397947206E+01  0.74213363741E+01  0.51100000000E-03 0.  1.
        -12    1    4    4    0    0  0.68332100127E+01 -0.16631662918E+01  0.60929786597E+00  0.70590456212E+01  0.00000000000E+00 0.  1.
</event>
<event>
 8    1  0.5331800E-011  0.9118800E+02  0.7816164E-02  0.1184000E+00
        -11   -1    0    0    0    0  0.00000000000E+00  0.00000000000E+00  0.45593999997E+02  0.45594000000E+02  0.51100000000E-03 0. -1.
         11   -1    0    0    0    0 -0.00000000000E+00 -0.00000000000E+00 -0.45593999997E+02  0.45594000000E+02  0.51100000000E-03 0.  1.
         23    2    1    2    0    0  0.00000000000E+00  0.44408920985E-15  0.00000000000E+00  0.91188000000E+02  0.91188000000E+02 0.  0.
    9900012    2    3    3    0    0  0.16409510523E+02  0.30289644027E+01  0.40064653881E+02  0.47787272454E+02  0.20000006426E+02 0.  0.
        -12    1    3    3    0    0 -0.16409510523E+02 -0.30289644027E+01 -0.40064653881E+02  0.43400727546E+02  0.00000000000E+00 0.  1.
         11    1    4    4    0    0  0.59050725168E+01 -0.11138568484E+01  0.73188134847E+01  0.94697196153E+01  0.51100000000E-03 0. -1.
        -11    1    4    4    0    0  0.36654195378E+01  0.46697360300E+01  0.12282674807E+01  0.60622088585E+01  0.51100000000E-03 0.  1.
        -12    1    4    4    0    0  0.68390184687E+01 -0.52691477896E+00  0.31517572915E+02  0.32255343980E+02  0.00000000000E+00 0.  1.
</event>
<event>
 8    1  0.5331800E-011  0.9118800E+02  0.7816164E-02  0.1184000E+00
        -11   -1    0    0    0    0  0.00000000000E+00  0.00000000000E+00  0.45593999997E+02  0.45594000000E+02  0.51100000000E-03 0. -1.
         11   -1    0    0    0    0 -0.00000000000E+00 -0.00000000000E+00 -0.45593999997E+02  0.45594000000E+02  0.51100000000E-03 0.  1.
         23    2    1    2    0    0  0.00000000000E+00  0.17763568394E-14  0.00000000000E+00  0.91188000000E+02  0.91188000000E+02 0.  0.
    9900012    2    3    3    0    0 -0.80095567661E+01  0.12248861575E+02  0.40858734814E+02  0.47787264752E+02  0.19999971309E+02 0.  0.
        -12    1    3    3    0    0  0.80095567661E+01 -0.12248861575E+02 -0.40858734814E+02  0.43400735248E+02  0.00000000000E+00 0.  1.
         11    1    4    4    0    0 -0.56726117094E+01  0.15153541855E+02  0.31870679240E+02  0.35742811163E+02  0.51100000000E-03 0. -1.
        -11    1    4    4    0    0 -0.47528816564E+01 -0.20966820975E+01  0.74040862910E+01  0.90446920303E+01  0.51100000000E-03 0.  1.
         12    1    4    4    0    0  0.24159365997E+01 -0.80799818269E+00  0.15839692830E+01  0.29997615583E+01  0.00000000000E+00 0. -1.
</event>
<event>
 8    1  0.5331800E-011  0.9118800E+02  0.7816164E-02  0.1184000E+00
        -11   -1    0    0    0    0  0.00000000000E+00  0.00000000000E+00  0.45593999997E+02  0.45594000000E+02  0.51100000000E-03 0. -1.
         11   -1    0    0    0    0 -0.00000000000E+00 -0.00000000000E+00 -0.45593999997E+02  0.45594000000E+02  0.51100000000E-03 0.  1.
         23    2    1    2    0    0  0.35527136788E-14  0.00000000000E+00  0.35527136788E-14  0.91188000000E+02  0.91188000000E+02 0.  0.
    9900012    2    3    3    0    0  0.17250095459E+02 -0.32912554601E+02  0.22423661101E+02  0.47787278567E+02  0.20000034298E+02 0.  0.
        -12    1    3    3    0    0 -0.17250095459E+02  0.32912554601E+02 -0.22423661101E+02  0.43400721433E+02  0.00000000000E+00 0.  1.
         11    1    4    4    0    0  0.13128938659E+02 -0.19478675811E+02  0.21925115366E+02  0.32132515086E+02  0.51100000000E-03 0. -1.
        -11    1    4    4    0    0 -0.49204490897E-01 -0.20088389385E+01 -0.24215934433E+01  0.31467395870E+01  0.51100000000E-03 0.  1.
         12    1    4    4    0    0  0.41703612911E+01 -0.11425039852E+02  0.29201391781E+01  0.12508023894E+02  0.00000000000E+00 0. -1.
</event>
<event>
 8    1  0.5331800E-011  0.9118800E+02  0.7816164E-02  0.1184000E+00
        -11   -1    0    0    0    0  0.00000000000E+00  0.00000000000E+00  0.45593999997E+02  0.45594000000E+02  0.51100000000E-03 0. -1.
         11   -1    0    0    0    0 -0.00000000000E+00 -0.00000000000E+00 -0.45593999997E+02  0.45594000000E+02  0.51100000000E-03 0.  1.
         23    2    1    2    0    0  0.88817841970E-15  0.17763568394E-14  0.00000000000E+00  0.91188000000E+02  0.91188000000E+02 0.  0.
    9900012    2    3    3    0    0  0.13657291460E+01  0.13176048779E+02 -0.41329768327E+02  0.47787271579E+02  0.20000002436E+02 0.  0.
         12    1    3    3    0    0 -0.13657291460E+01 -0.13176048779E+02  0.41329768327E+02  0.43400728421E+02  0.00000000000E+00 0. -1.
         11    1    4    4    0    0 -0.67110729195E+01 -0.21870006206E+00 -0.10674442297E+02  0.12610711640E+02  0.51100000000E-03 0. -1.
        -11    1    4    4    0    0  0.35753128928E+01  0.10630334422E+01 -0.10306244466E+02  0.10960455175E+02  0.51100000000E-03 0.  1.
         12    1    4    4    0    0  0.45014891727E+01  0.12331715399E+02 -0.20349081564E+02  0.24216104764E+02  0.00000000000E+00 0. -1.
</event>
<event>
 8    1  0.5331800E-011  0.9118800E+02  0.7816164E-02  0.1184000E+00
        -11   -1    0    0    0    0  0.00000000000E+00  0.00000000000E+00  0.45593999997E+02  0.45594000000E+02  0.51100000000E-03 0. -1.
         11   -1    0    0    0    0 -0.00000000000E+00 -0.00000000000E+00 -0.45593999997E+02  0.45594000000E+02  0.51100000000E-03 0.  1.
         23    2    1    2    0    0  0.00000000000E+00  0.00000000000E+00 -0.17763568394E-14  0.91188000000E+02  0.91188000000E+02 0.  0.
    9900012    2    3    3    0    0 -0.22059288573E+02 -0.35945518231E+02 -0.10243567716E+02  0.47787272209E+02  0.20000005310E+02 0.  0.
         12    1    3    3    0    0  0.22059288573E+02  0.35945518231E+02  0.10243567716E+02  0.43400727791E+02  0.00000000000E+00 0. -1.
         11    1    4    4    0    0 -0.43806347645E+01 -0.21408018868E+01 -0.64019492522E+01  0.80472323284E+01  0.51100000000E-03 0. -1.
        -11    1    4    4    0    0 -0.54766089143E+01 -0.21630432304E+02 -0.24567851761E+01  0.22447820396E+02  0.51100000000E-03 0.  1.
        -12    1    4    4    0    0 -0.12202044894E+02 -0.12174284040E+02 -0.13848332881E+01  0.17292219485E+02  0.00000000000E+00 0.  1.
</event>
<event>
 8    1  0.5331800E-011  0.9118800E+02  0.7816164E-02  0.1184000E+00
        -11   -1    0    0    0    0  0.00000000000E+00  0.00000000000E+00  0.45593999997E+02  0.45594000000E+02  0.51100000000E-03 0. -1.
         11   -1    0    0    0    0 -0.00000000000E+00 -0.00000000000E+00 -0.45593999997E+02  0.45594000000E+02  0.51100000000E-03 0.  1.
         23    2    1    2    0    0  0.35527136788E-14 -0.17763568394E-14 -0.71054273576E-14  0.91188000000E+02  0.91188000000E+02 0.  0.
    9900012    2    3    3    0    0  0.21826424289E+02 -0.14811855672E+02 -0.34465022079E+02  0.47787290184E+02  0.20000087263E+02 0.  0.
         12    1    3    3    0    0 -0.21826424289E+02  0.14811855672E+02  0.34465022079E+02  0.43400709816E+02  0.00000000000E+00 0. -1.
         11    1    4    4    0    0  0.63340104446E+01  0.25357845302E+01 -0.17605610838E+01  0.70462377966E+01  0.51100000000E-03 0. -1.
        -11    1    4    4    0    0  0.96313706709E+01 -0.13506071067E+02 -0.18157690191E+02  0.24594287345E+02  0.51100000000E-03 0.  1.
        -12    1    4    4    0    0  0.58610431736E+01 -0.38415691350E+01 -0.14546770804E+02  0.16146765042E+02  0.00000000000E+00 0.  1.
</event>
<event>
 8    1  0.5331800E-011  0.9118800E+02  0.7816164E-02  0.1184000E+00
        -11   -1    0    0    0    0  0.00000000000E+00  0.00000000000E+00  0.45593999997E+02  0.45594000000E+02  0.51100000000E-03 0. -1.
         11   -1    0    0    0    0 -0.00000000000E+00 -0.00000000000E+00 -0.45593999997E+02  0.45594000000E+02  0.51100000000E-03 0.  1.
         23    2    1    2    0    0  0.00000000000E+00  0.00000000000E+00  0.00000000000E+00  0.91188000000E+02  0.91188000000E+02 0.  0.
    9900012    2    3    3    0    0 -0.18609726643E+02  0.53218139317E+01  0.38845585354E+02  0.47787272694E+02  0.20000007521E+02 0.  0.
        -12    1    3    3    0    0  0.18609726643E+02 -0.53218139317E+01 -0.38845585354E+02  0.43400727306E+02  0.00000000000E+00 0.  1.
         11    1    4    4    0    0 -0.46150419780E+01  0.93485225702E+01  0.17103904061E+02  0.20030901655E+02  0.51100000000E-03 0. -1.
        -11    1    4    4    0    0 -0.13305747986E+02 -0.33140919152E+01  0.12794142345E+02  0.18754098573E+02  0.51100000000E-03 0.  1.
         12    1    4    4    0    0 -0.68893667880E+00 -0.71261672326E+00  0.89475389467E+01  0.90022724656E+01  0.00000000000E+00 0. -1.
</event>
<event>
 8    1  0.5331800E-011  0.9118800E+02  0.7816164E-02  0.1184000E+00
        -11   -1    0    0    0    0  0.00000000000E+00  0.00000000000E+00  0.45593999997E+02  0.45594000000E+02  0.51100000000E-03 0. -1.
         11   -1    0    0    0    0 -0.00000000000E+00 -0.00000000000E+00 -0.45593999997E+02  0.45594000000E+02  0.51100000000E-03 0.  1.
         23    2    1    2    0    0 -0.71054273576E-14  0.00000000000E+00  0.00000000000E+00  0.91188000000E+02  0.91188000000E+02 0.  0.
    9900012    2    3    3    0    0  0.42649168787E+02  0.74980112242E+01 -0.29071375992E+01  0.47787271670E+02  0.20000002852E+02 0.  0.
        -12    1    3    3    0    0 -0.42649168787E+02 -0.74980112242E+01  0.29071375992E+01  0.43400728330E+02  0.00000000000E+00 0.  1.
         11    1    4    4    0    0  0.34861829019E+02  0.69937867784E+01 -0.24148224807E+01  0.35638343732E+02  0.51100000000E-03 0. -1.
        -11    1    4    4    0    0  0.99055199775E+01 -0.16783799068E+00 -0.21328399533E+00  0.99092374046E+01  0.51100000000E-03 0.  1.
         12    1    4    4    0    0 -0.21181802095E+01  0.67206243645E+00 -0.27903112318E+00  0.22396905336E+01  0.00000000000E+00 0. -1.
</event>
<event>
 8    1  0.5331800E-011  0.9118800E+02  0.7816164E-02  0.1184000E+00
        -11   -1    0    0    0    0  0.00000000000E+00  0.00000000000E+00  0.45593999997E+02  0.45594000000E+02  0.51100000000E-03 0. -1.
         11   -1    0    0    0    0 -0.00000000000E+00 -0.00000000000E+00 -0.45593999997E+02  0.45594000000E+02  0.51100000000E-03 0.  1.
         23    2    1    2    0    0 -0.35527136788E-14  0.00000000000E+00 -0.71054273576E-14  0.91188000000E+02  0.91188000000E+02 0.  0.
    9900012    2    3    3    0    0 -0.26215462643E+02  0.83653841308E+01  0.33561783173E+02  0.47787269327E+02  0.19999992169E+02 0.  0.
        -12    1    3    3    0    0  0.26215462643E+02 -0.83653841308E+01 -0.33561783173E+02  0.43400730673E+02  0.00000000000E+00 0.  1.
         11    1    4    4    0    0 -0.70037707608E+01 -0.25869178477E+00  0.37912001499E+01  0.79682447972E+01  0.51100000000E-03 0. -1.
        -11    1    4    4    0    0 -0.26688552502E+01 -0.44978587420E+01  0.73487684008E+01  0.90198624646E+01  0.51100000000E-03 0.  1.
        -12    1    4    4    0    0 -0.16542836632E+02  0.13121934658E+02  0.22421814622E+02  0.30799162065E+02  0.00000000000E+00 0.  1.
</event>
<event>
 8    1  0.5331800E-011  0.9118800E+02  0.7816164E-02  0.1184000E+00
        -11   -1    0    0    0    0  0.00000000000E+00  0.00000000000E+00  0.45593999997E+02  0.45594000000E+02  0.51100000000E-03 0.  1.
         11   -1    0    0    0    0 -0.00000000000E+00 -0.00000000000E+00 -0.45593999997E+02  0.45594000000E+02  0.51100000000E-03 0. -1.
         23    2    1    2    0    0  0.00000000000E+00 -0.88817841970E-15  0.13322676296E-14  0.91188000000E+02  0.91188000000E+02 0.  0.
    9900012    2    3    3    0    0 -0.42829835096E+02  0.68216717982E+01  0.16411924902E+01  0.47787268517E+02  0.19999988477E+02 0.  0.
        -12    1    3    3    0    0  0.42829835096E+02 -0.68216717982E+01 -0.16411924902E+01  0.43400731483E+02  0.00000000000E+00 0.  1.
         11    1    4    4    0    0 -0.67772973856E+00 -0.11545364956E+01 -0.93707698569E+00  0.16341314685E+01  0.51100000000E-03 0. -1.
        -11    1    4    4    0    0 -0.17846222492E+02 -0.12981487069E+01  0.79650813737E+01  0.19586101421E+02  0.51100000000E-03 0.  1.
        -12    1    4    4    0    0 -0.24305882865E+02  0.92743570007E+01 -0.53868118979E+01  0.26567035628E+02  0.00000000000E+00 0.  1.
</event>
<event>
 8    1  0.5331800E-011  0.9118800E+02  0.7816164E-02  0.1184000E+00
        -11   -1    0    0    0    0  0.00000000000E+00  0.00000000000E+00  0.45593999997E+02  0.45594000000E+02  0.51100000000E-03 0.  1.
         11   -1    0    0    0    0 -0.00000000000E+00 -0.00000000000E+00 -0.45593999997E+02  0.45594000000E+02  0.51100000000E-03 0. -1.
         23    2    1    2    0    0  0.00000000000E+00  0.00000000000E+00 -0.17763568394E-14  0.91188000000E+02  0.91188000000E+02 0.  0.
    9900012    2    3    3    0    0  0.32120420978E+02 -0.27065008594E+02  0.10926453165E+02  0.47787268292E+02  0.19999987451E+02 0.  0.
         12    1    3    3    0    0 -0.32120420978E+02  0.27065008594E+02 -0.10926453165E+02  0.43400731708E+02  0.00000000000E+00 0. -1.
         11    1    4    4    0    0  0.15382202953E+02 -0.43235632033E+01  0.10380771784E+02  0.19054285333E+02  0.51100000000E-03 0. -1.
        -11    1    4    4    0    0  0.16324210808E+02 -0.22983623122E+02  0.29645163070E+00  0.28192457753E+02  0.51100000000E-03 0.  1.
        -12    1    4    4    0    0  0.41400721755E+00  0.24217773152E+00  0.24922975039E+00  0.54052520599E+00  0.00000000000E+00 0.  1.
</event>
<event>
 8    1  0.5331800E-011  0.9118800E+02  0.7816164E-02  0.1184000E+00
        -11   -1    0    0    0    0  0.00000000000E+00  0.00000000000E+00  0.45593999997E+02  0.45594000000E+02  0.51100000000E-03 0. -1.
         11   -1    0    0    0    0 -0.00000000000E+00 -0.00000000000E+00 -0.45593999997E+02  0.45594000000E+02  0.51100000000E-03 0.  1.
         23    2    1    2    0    0  0.35527136788E-14 -0.35527136788E-14 -0.71054273576E-14  0.91188000000E+02  0.91188000000E+02 0.  0.
    9900012    2    3    3    0    0  0.20058286560E+02 -0.15971156944E+02 -0.35017290799E+02  0.47787269951E+02  0.19999995016E+02 0.  0.
         12    1    3    3    0    0 -0.20058286560E+02  0.15971156944E+02  0.35017290799E+02  0.43400730049E+02  0.00000000000E+00 0. -1.
         11    1    4    4    0    0  0.35611279537E+01 -0.61681992541E+01 -0.16006183701E+02  0.17519310240E+02  0.51100000000E-03 0.  1.
        -11    1    4    4    0    0  0.81509768189E+01  0.17633968778E+01 -0.30933945104E+01  0.88947783283E+01  0.51100000000E-03 0. -1.
         12    1    4    4    0    0  0.83461817870E+01 -0.11566354568E+02 -0.15917712588E+02  0.21373181383E+02  0.00000000000E+00 0. -1.
</event>
<event>
 8    1  0.5331800E-011  0.9118800E+02  0.7816164E-02  0.1184000E+00
        -11   -1    0    0    0    0  0.00000000000E+00  0.00000000000E+00  0.45593999997E+02  0.45594000000E+02  0.51100000000E-03 0. -1.
         11   -1    0    0    0    0 -0.00000000000E+00 -0.00000000000E+00 -0.45593999997E+02  0.45594000000E+02  0.51100000000E-03 0.  1.
         23    2    1    2    0    0  0.00000000000E+00  0.00000000000E+00  0.71054273576E-14  0.91188000000E+02  0.91188000000E+02 0.  0.
    9900012    2    3    3    0    0  0.32338974999E+02 -0.14848772324E+02  0.24846132016E+02  0.47787244019E+02  0.19999876781E+02 0.  0.
        -12    1    3    3    0    0 -0.32338974999E+02  0.14848772324E+02 -0.24846132016E+02  0.43400755981E+02  0.00000000000E+00 0.  1.
         11    1    4    4    0    0  0.15194008351E+02 -0.37128108925E+01  0.11710653213E+02  0.19539249050E+02  0.51100000000E-03 0. -1.
        -11    1    4    4    0    0  0.35966218690E+01 -0.21353506724E+01 -0.31459616660E+01  0.52337831850E+01  0.51100000000E-03 0.  1.
        -12    1    4    4    0    0  0.13548344779E+02 -0.90006107593E+01  0.16281440469E+02  0.23014211784E+02  0.00000000000E+00 0.  1.
</event>
<event>
 8    1  0.5331800E-011  0.9118800E+02  0.7816164E-02  0.1184000E+00
        -11   -1    0    0    0    0  0.00000000000E+00  0.00000000000E+00  0.45593999997E+02  0.45594000000E+02  0.51100000000E-03 0. -1.
         11   -1    0    0    0    0 -0.00000000000E+00 -0.00000000000E+00 -0.45593999997E+02  0.45594000000E+02  0.51100000000E-03 0.  1.
         23    2    1    2    0    0  0.17763568394E-14  0.00000000000E+00  0.00000000000E+00  0.91188000000E+02  0.91188000000E+02 0.  0.
    9900012    2    3    3    0    0 -0.14065692547E+02 -0.17006240875E+02 -0.37370668547E+02  0.47787276467E+02  0.20000024725E+02 0.  0.
         12    1    3    3    0    0  0.14065692547E+02  0.17006240875E+02  0.37370668547E+02  0.43400723533E+02  0.00000000000E+00 0. -1.
         11    1    4    4    0    0 -0.71308714849E+01 -0.99638476428E+01 -0.58543736897E+01  0.13579443271E+02  0.51100000000E-03 0. -1.
        -11    1    4    4    0    0 -0.60251278874E+00 -0.23443405275E+01 -0.20600179044E+02  0.20741897963E+02  0.51100000000E-03 0.  1.
        -12    1    4    4    0    0 -0.63323082734E+01 -0.46980527048E+01 -0.10916115813E+02  0.13465935234E+02  0.00000000000E+00 0.  1.
</event>
<event>
 8    1  0.5331800E-011  0.9118800E+02  0.7816164E-02  0.1184000E+00
        -11   -1    0    0    0    0  0.00000000000E+00  0.00000000000E+00  0.45593999997E+02  0.45594000000E+02  0.51100000000E-03 0.  1.
         11   -1    0    0    0    0 -0.00000000000E+00 -0.00000000000E+00 -0.45593999997E+02  0.45594000000E+02  0.51100000000E-03 0. -1.
         23    2    1    2    0    0  0.00000000000E+00  0.00000000000E+00  0.17763568394E-14  0.91188000000E+02  0.91188000000E+02 0.  0.
    9900012    2    3    3    0    0 -0.21966631664E+02  0.34528011937E+02  0.14453597172E+02  0.47787274359E+02  0.20000015112E+02 0.  0.
        -12    1    3    3    0    0  0.21966631664E+02 -0.34528011937E+02 -0.14453597172E+02  0.43400725641E+02  0.00000000000E+00 0.  1.
         11    1    4    4    0    0 -0.11571605357E+02  0.55968932005E+01  0.19391044638E+01  0.12999515007E+02  0.51100000000E-03 0. -1.
        -11    1    4    4    0    0 -0.26802377871E+01  0.43243842612E+00  0.22623765847E+01  0.35339815590E+01  0.51100000000E-03 0.  1.
         12    1    4    4    0    0 -0.77147885200E+01  0.28498680310E+02  0.10252116123E+02  0.31253777793E+02  0.00000000000E+00 0. -1.
</event>
<event>
 8    1  0.5331800E-011  0.9118800E+02  0.7816164E-02  0.1184000E+00
        -11   -1    0    0    0    0  0.00000000000E+00  0.00000000000E+00  0.45593999997E+02  0.45594000000E+02  0.51100000000E-03 0. -1.
         11   -1    0    0    0    0 -0.00000000000E+00 -0.00000000000E+00 -0.45593999997E+02  0.45594000000E+02  0.51100000000E-03 0.  1.
         23    2    1    2    0    0  0.35527136788E-14 -0.35527136788E-14  0.00000000000E+00  0.91188000000E+02  0.91188000000E+02 0.  0.
    9900012    2    3    3    0    0 -0.19737228293E+02  0.30827310796E+02 -0.23318274848E+02  0.47787271740E+02  0.20000003172E+02 0.  0.
         12    1    3    3    0    0  0.19737228293E+02 -0.30827310796E+02  0.23318274848E+02  0.43400728260E+02  0.00000000000E+00 0. -1.
         11    1    4    4    0    0 -0.86622334968E+01  0.24906397820E+02 -0.12552590988E+02  0.29204973589E+02  0.51100000000E-03 0. -1.
        -11    1    4    4    0    0 -0.70340967516E+01  0.44029739956E+01 -0.16004072833E+01  0.84513904685E+01  0.51100000000E-03 0.  1.
         12    1    4    4    0    0 -0.40408980446E+01  0.15179389799E+01 -0.91652765770E+01  0.10130907683E+02  0.00000000000E+00 0. -1.
</event>
<event>
 8    1  0.5331800E-011  0.9118800E+02  0.7816164E-02  0.1184000E+00
        -11   -1    0    0    0    0  0.00000000000E+00  0.00000000000E+00  0.45593999997E+02  0.45594000000E+02  0.51100000000E-03 0.  1.
         11   -1    0    0    0    0 -0.00000000000E+00 -0.00000000000E+00 -0.45593999997E+02  0.45594000000E+02  0.51100000000E-03 0. -1.
         23    2    1    2    0    0  0.00000000000E+00  0.00000000000E+00  0.00000000000E+00  0.91188000000E+02  0.91188000000E+02 0.  0.
    9900012    2    3    3    0    0  0.17590696440E+02 -0.22128234381E+02 -0.32932238595E+02  0.47787266170E+02  0.19999977778E+02 0.  0.
         12    1    3    3    0    0 -0.17590696440E+02  0.22128234381E+02  0.32932238595E+02  0.43400733830E+02  0.00000000000E+00 0. -1.
         11    1    4    4    0    0  0.67700702322E+01 -0.95164254085E-01 -0.42240204456E+01  0.79803042655E+01  0.51100000000E-03 0. -1.
        -11    1    4    4    0    0  0.12083891923E+01 -0.15622588112E+02 -0.19607528728E+02  0.25099415269E+02  0.51100000000E-03 0.  1.
        -12    1    4    4    0    0  0.96122370158E+01 -0.64104820146E+01 -0.91006894211E+01  0.14707546636E+02  0.00000000000E+00 0.  1.
</event>
<event>
 8    1  0.5331800E-011  0.9118800E+02  0.7816164E-02  0.1184000E+00
        -11   -1    0    0    0    0  0.00000000000E+00  0.00000000000E+00  0.45593999997E+02  0.45594000000E+02  0.51100000000E-03 0. -1.
         11   -1    0    0    0    0 -0.00000000000E+00 -0.00000000000E+00 -0.45593999997E+02  0.45594000000E+02  0.51100000000E-03 0.  1.
         23    2    1    2    0    0 -0.17763568394E-14 -0.35527136788E-14  0.71054273576E-14  0.91188000000E+02  0.91188000000E+02 0.  0.
    9900012    2    3    3    0    0 -0.13163648074E+02 -0.18573216469E+02  0.36951021358E+02  0.47787262909E+02  0.19999962908E+02 0.  0.
        -12    1    3    3    0    0  0.13163648074E+02  0.18573216469E+02 -0.36951021358E+02  0.43400737091E+02  0.00000000000E+00 0.  1.
         11    1    4    4    0    0  0.15487876278E+01 -0.95097080657E+01  0.17754793370E+02  0.20200643022E+02  0.51100000000E-03 0. -1.
        -11    1    4    4    0    0 -0.13211148120E+02 -0.98267172433E+01  0.19841219345E+02  0.25783188162E+02  0.51100000000E-03 0.  1.
        -12    1    4    4    0    0 -0.15012875816E+01  0.76320884029E+00 -0.64499135717E+00  0.18034317251E+01  0.00000000000E+00 0.  1.
</event>
<event>
 8    1  0.5331800E-011  0.9118800E+02  0.7816164E-02  0.1184000E+00
        -11   -1    0    0    0    0  0.00000000000E+00  0.00000000000E+00  0.45593999997E+02  0.45594000000E+02  0.51100000000E-03 0. -1.
         11   -1    0    0    0    0 -0.00000000000E+00 -0.00000000000E+00 -0.45593999997E+02  0.45594000000E+02  0.51100000000E-03 0.  1.
         23    2    1    2    0    0 -0.88817841970E-15  0.00000000000E+00 -0.71054273576E-14  0.91188000000E+02  0.91188000000E+02 0.  0.
    9900012    2    3    3    0    0  0.45175899395E+01 -0.23542251665E+02 -0.36179786298E+02  0.47787272254E+02  0.20000005514E+02 0.  0.
         12    1    3    3    0    0 -0.45175899395E+01  0.23542251665E+02  0.36179786298E+02  0.43400727746E+02  0.00000000000E+00 0. -1.
         11    1    4    4    0    0 -0.14071428975E+01  0.26747472789E+01 -0.35573217795E+01  0.46678541798E+01  0.51100000000E-03 0. -1.
        -11    1    4    4    0    0  0.78692485557E+01 -0.16464007807E+02 -0.20772443013E+02  0.27649285974E+02  0.51100000000E-03 0.  1.
        -12    1    4    4    0    0 -0.19445157187E+01 -0.97529911370E+01 -0.11850021506E+02  0.15470132100E+02  0.00000000000E+00 0.  1.
</event>
<event>
 8    1  0.5331800E-011  0.9118800E+02  0.7816164E-02  0.1184000E+00
        -11   -1    0    0    0    0  0.00000000000E+00  0.00000000000E+00  0.45593999997E+02  0.45594000000E+02  0.51100000000E-03 0. -1.
         11   -1    0    0    0    0 -0.00000000000E+00 -0.00000000000E+00 -0.45593999997E+02  0.45594000000E+02  0.51100000000E-03 0.  1.
         23    2    1    2    0    0  0.00000000000E+00  0.88817841970E-15  0.00000000000E+00  0.91188000000E+02  0.91188000000E+02 0.  0.
    9900012    2    3    3    0    0  0.53791415219E+01 -0.54977754059E+01 -0.42713728436E+02  0.47787270803E+02  0.19999998898E+02 0.  0.
         12    1    3    3    0    0 -0.53791415219E+01  0.54977754059E+01  0.42713728436E+02  0.43400729197E+02  0.00000000000E+00 0. -1.
         11    1    4    4    0    0 -0.76581067833E+00 -0.77883040177E+01 -0.11568426839E+02  0.13966840919E+02  0.51100000000E-03 0. -1.
        -11    1    4    4    0    0  0.40351734321E+01  0.66558442962E+01 -0.23611563557E+02  0.24861392194E+02  0.51100000000E-03 0.  1.
        -12    1    4    4    0    0  0.21097787681E+01 -0.43653156845E+01 -0.75337380399E+01  0.89590376899E+01  0.00000000000E+00 0.  1.
</event>
<event>
 8    1  0.5331800E-011  0.9118800E+02  0.7816164E-02  0.1184000E+00
        -11   -1    0    0    0    0  0.00000000000E+00  0.00000000000E+00  0.45593999997E+02  0.45594000000E+02  0.51100000000E-03 0. -1.
         11   -1    0    0    0    0 -0.00000000000E+00 -0.00000000000E+00 -0.45593999997E+02  0.45594000000E+02  0.51100000000E-03 0.  1.
         23    2    1    2    0    0  0.44408920985E-15  0.00000000000E+00  0.00000000000E+00  0.91188000000E+02  0.91188000000E+02 0.  0.
    9900012    2    3    3    0    0 -0.15812253075E+01 -0.50235232109E+01 -0.43080012097E+02  0.47787268426E+02  0.19999988060E+02 0.  0.
         12    1    3    3    0    0  0.15812253075E+01  0.50235232109E+01  0.43080012097E+02  0.43400731574E+02  0.00000000000E+00 0. -1.
         11    1    4    4    0    0  0.72684780846E+01  0.21311928585E+01 -0.18671957072E+02  0.20149807389E+02  0.51100000000E-03 0. -1.
        -11    1    4    4    0    0 -0.66045897919E+01 -0.26890430238E+01 -0.92694011828E+01  0.11695014205E+02  0.51100000000E-03 0.  1.
         12    1    4    4    0    0 -0.22451136002E+01 -0.44656730456E+01 -0.15138653842E+02  0.15942446832E+02  0.00000000000E+00 0. -1.
</event>
<event>
 8    1  0.5331800E-011  0.9118800E+02  0.7816164E-02  0.1184000E+00
        -11   -1    0    0    0    0  0.00000000000E+00  0.00000000000E+00  0.45593999997E+02  0.45594000000E+02  0.51100000000E-03 0. -1.
         11   -1    0    0    0    0 -0.00000000000E+00 -0.00000000000E+00 -0.45593999997E+02  0.45594000000E+02  0.51100000000E-03 0.  1.
         23    2    1    2    0    0  0.00000000000E+00  0.00000000000E+00  0.00000000000E+00  0.91188000000E+02  0.91188000000E+02 0.  0.
    9900012    2    3    3    0    0 -0.50107007829E+01 -0.24733520045E+02  0.35309619436E+02  0.47787270042E+02  0.19999995428E+02 0.  0.
        -12    1    3    3    0    0  0.50107007829E+01  0.24733520045E+02 -0.35309619436E+02  0.43400729958E+02  0.00000000000E+00 0.  1.
         11    1    4    4    0    0 -0.63708691830E+00 -0.57582442165E+01  0.63235698144E+01  0.85761758178E+01  0.51100000000E-03 0. -1.
        -11    1    4    4    0    0 -0.49426982146E+01  0.43776475223E-01  0.51845809144E+00  0.49700081564E+01  0.51100000000E-03 0.  1.
        -12    1    4    4    0    0  0.56908434998E+00 -0.19019052304E+02  0.28467591531E+02  0.34241086068E+02  0.00000000000E+00 0.  1.
</event>
<event>
 8    1  0.5331800E-011  0.9118800E+02  0.7816164E-02  0.1184000E+00
        -11   -1    0    0    0    0  0.00000000000E+00  0.00000000000E+00  0.45593999997E+02  0.45594000000E+02  0.51100000000E-03 0. -1.
         11   -1    0    0    0    0 -0.00000000000E+00 -0.00000000000E+00 -0.45593999997E+02  0.45594000000E+02  0.51100000000E-03 0.  1.
         23    2    1    2    0    0  0.00000000000E+00  0.00000000000E+00  0.00000000000E+00  0.91188000000E+02  0.91188000000E+02 0.  0.
    9900012    2    3    3    0    0 -0.17146497713E+02  0.29344199735E+01 -0.39761914830E+02  0.47787273331E+02  0.20000010427E+02 0.  0.
         12    1    3    3    0    0  0.17146497713E+02 -0.29344199735E+01  0.39761914830E+02  0.43400726669E+02  0.00000000000E+00 0. -1.
         11    1    4    4    0    0 -0.13069299487E+02  0.86550648989E+00 -0.36324281907E+02  0.38613587594E+02  0.51100000000E-03 0. -1.
        -11    1    4    4    0    0 -0.41966616345E+01 -0.11438805471E+01 -0.40005962942E+01  0.59097548639E+01  0.51100000000E-03 0.  1.
         12    1    4    4    0    0  0.11946340822E+00  0.32127940306E+01  0.56296337124E+00  0.32639308734E+01  0.00000000000E+00 0. -1.
</event>
<event>
 8    1  0.5331800E-011  0.9118800E+02  0.7816164E-02  0.1184000E+00
        -11   -1    0    0    0    0  0.00000000000E+00  0.00000000000E+00  0.45593999997E+02  0.45594000000E+02  0.51100000000E-03 0. -1.
         11   -1    0    0    0    0 -0.00000000000E+00 -0.00000000000E+00 -0.45593999997E+02  0.45594000000E+02  0.51100000000E-03 0.  1.
         23    2    1    2    0    0  0.38857805862E-15  0.35527136788E-14  0.00000000000E+00  0.91188000000E+02  0.91188000000E+02 0.  0.
    9900012    2    3    3    0    0 -0.29872020599E+00  0.18270737332E+02  0.39366409491E+02  0.47787271059E+02  0.20000000068E+02 0.  0.
        -12    1    3    3    0    0  0.29872020599E+00 -0.18270737332E+02 -0.39366409491E+02  0.43400728941E+02  0.00000000000E+00 0.  1.
         11    1    4    4    0    0  0.27163825012E+01  0.11518435445E+02  0.12688429317E+02  0.17350773118E+02  0.51100000000E-03 0. -1.
        -11    1    4    4    0    0 -0.44742177632E+01  0.78375338093E+00  0.22623539141E+02  0.23075038840E+02  0.51100000000E-03 0.  1.
        -12    1    4    4    0    0  0.14591150560E+01  0.59685485057E+01  0.40544410327E+01  0.73614591012E+01  0.00000000000E+00 0.  1.
</event>
<event>
 8    1  0.5331800E-011  0.9118800E+02  0.7816164E-02  0.1184000E+00
        -11   -1    0    0    0    0  0.00000000000E+00  0.00000000000E+00  0.45593999997E+02  0.45594000000E+02  0.51100000000E-03 0.  1.
         11   -1    0    0    0    0 -0.00000000000E+00 -0.00000000000E+00 -0.45593999997E+02  0.45594000000E+02  0.51100000000E-03 0. -1.
         23    2    1    2    0    0  0.00000000000E+00  0.00000000000E+00  0.00000000000E+00  0.91188000000E+02  0.91188000000E+02 0.  0.
    9900012    2    3    3    0    0  0.33371171519E+02  0.22083408450E+02 -0.16802145350E+02  0.47787261461E+02  0.19999956305E+02 0.  0.
         12    1    3    3    0    0 -0.33371171519E+02 -0.22083408450E+02  0.16802145350E+02  0.43400738539E+02  0.00000000000E+00 0. -1.
         11    1    4    4    0    0  0.30489575286E+01  0.14952172648E+01 -0.87737935116E+01  0.94080428105E+01  0.51100000000E-03 0. -1.
        -11    1    4    4    0    0  0.23824219418E+02  0.16567129055E+02 -0.96245117255E+01  0.30572772564E+02  0.51100000000E-03 0.  1.
        -12    1    4    4    0    0  0.64979945724E+01  0.40210621302E+01  0.15961598866E+01  0.78064460865E+01  0.00000000000E+00 0.  1.
</event>
<event>
 8    1  0.5331800E-011  0.9118800E+02  0.7816164E-02  0.1184000E+00
        -11   -1    0    0    0    0  0.00000000000E+00  0.00000000000E+00  0.45593999997E+02  0.45594000000E+02  0.51100000000E-03 0. -1.
         11   -1    0    0    0    0 -0.00000000000E+00 -0.00000000000E+00 -0.45593999997E+02  0.45594000000E+02  0.51100000000E-03 0.  1.
         23    2    1    2    0    0  0.17763568394E-14  0.00000000000E+00  0.71054273576E-14  0.91188000000E+02  0.91188000000E+02 0.  0.
    9900012    2    3    3    0    0 -0.13502837785E+02 -0.30133330259E+01  0.41136553908E+02  0.47787275679E+02  0.20000021129E+02 0.  0.
        -12    1    3    3    0    0  0.13502837785E+02  0.30133330259E+01 -0.41136553908E+02  0.43400724321E+02  0.00000000000E+00 0.  1.
         11    1    4    4    0    0  0.21546707228E+01  0.25019398137E+01  0.18923294905E+00  0.33072825893E+01  0.51100000000E-03 0. -1.
        -11    1    4    4    0    0 -0.10525314500E+02 -0.45274395151E+01  0.21742808351E+02  0.24577015057E+02  0.51100000000E-03 0.  1.
         12    1    4    4    0    0 -0.51321940077E+01 -0.98783332457E+00  0.19204512608E+02  0.19902978032E+02  0.00000000000E+00 0. -1.
</event>
<event>
 8    1  0.5331800E-011  0.9118800E+02  0.7816164E-02  0.1184000E+00
        -11   -1    0    0    0    0  0.00000000000E+00  0.00000000000E+00  0.45593999997E+02  0.45594000000E+02  0.51100000000E-03 0.  1.
         11   -1    0    0    0    0 -0.00000000000E+00 -0.00000000000E+00 -0.45593999997E+02  0.45594000000E+02  0.51100000000E-03 0. -1.
         23    2    1    2    0    0  0.00000000000E+00  0.00000000000E+00  0.00000000000E+00  0.91188000000E+02  0.91188000000E+02 0.  0.
    9900012    2    3    3    0    0 -0.87817540536E+01 -0.28293358261E+02  0.31717340704E+02  0.47787273885E+02  0.20000012953E+02 0.  0.
        -12    1    3    3    0    0  0.87817540536E+01  0.28293358261E+02 -0.31717340704E+02  0.43400726115E+02  0.00000000000E+00 0.  1.
         11    1    4    4    0    0 -0.76630757544E+01 -0.19202654823E+02  0.22771402567E+02  0.30757136691E+02  0.51100000000E-03 0. -1.
        -11    1    4    4    0    0 -0.15845790545E+01 -0.71558833491E+01 -0.52915125347E+00  0.73483031099E+01  0.51100000000E-03 0.  1.
        -12    1    4    4    0    0  0.46590075539E+00 -0.19348200888E+01  0.94750893904E+01  0.96818340848E+01  0.00000000000E+00 0.  1.
</event>
<event>
 8    1  0.5331800E-011  0.9118800E+02  0.7816164E-02  0.1184000E+00
        -11   -1    0    0    0    0  0.00000000000E+00  0.00000000000E+00  0.45593999997E+02  0.45594000000E+02  0.51100000000E-03 0. -1.
         11   -1    0    0    0    0 -0.00000000000E+00 -0.00000000000E+00 -0.45593999997E+02  0.45594000000E+02  0.51100000000E-03 0.  1.
         23    2    1    2    0    0  0.00000000000E+00  0.00000000000E+00  0.00000000000E+00  0.91188000000E+02  0.91188000000E+02 0.  0.
    9900012    2    3    3    0    0  0.19083358127E+02  0.32714146290E+02 -0.21195118614E+02  0.47787274453E+02  0.20000015543E+02 0.  0.
         12    1    3    3    0    0 -0.19083358127E+02 -0.32714146290E+02  0.21195118614E+02  0.43400725547E+02  0.00000000000E+00 0. -1.
         11    1    4    4    0    0  0.12567233949E+02  0.62773822855E+01 -0.11777850852E+02  0.18331903023E+02  0.51100000000E-03 0. -1.
        -11    1    4    4    0    0  0.60195296867E+01  0.20371590088E+02 -0.97239399372E+01  0.23362179447E+02  0.51100000000E-03 0.  1.
         12    1    4    4    0    0  0.49659449123E+00  0.60651739167E+01  0.30667217437E+00  0.60931919838E+01  0.00000000000E+00 0. -1.
</event>
<event>
 8    1  0.5331800E-011  0.9118800E+02  0.7816164E-02  0.1184000E+00
        -11   -1    0    0    0    0  0.00000000000E+00  0.00000000000E+00  0.45593999997E+02  0.45594000000E+02  0.51100000000E-03 0. -1.
         11   -1    0    0    0    0 -0.00000000000E+00 -0.00000000000E+00 -0.45593999997E+02  0.45594000000E+02  0.51100000000E-03 0.  1.
         23    2    1    2    0    0 -0.17763568394E-14  0.88817841970E-15  0.00000000000E+00  0.91188000000E+02  0.91188000000E+02 0.  0.
    9900012    2    3    3    0    0  0.11839168316E+02  0.35867043351E+01  0.41600395336E+02  0.47787271360E+02  0.20000001438E+02 0.  0.
        -12    1    3    3    0    0 -0.11839168316E+02 -0.35867043351E+01 -0.41600395336E+02  0.43400728640E+02  0.00000000000E+00 0.  1.
         11    1    4    4    0    0  0.45950543358E+01 -0.63752669544E+01  0.22253266228E+02  0.23600135829E+02  0.51100000000E-03 0. -1.
        -11    1    4    4    0    0  0.26518680874E+01  0.34448423286E+01  0.14303272150E+01  0.45765903493E+01  0.51100000000E-03 0.  1.
         12    1    4    4    0    0  0.45922458924E+01  0.65171289609E+01  0.17916801893E+02  0.19610545181E+02  0.00000000000E+00 0. -1.
</event>
<event>
 8    1  0.5331800E-011  0.9118800E+02  0.7816164E-02  0.1184000E+00
        -11   -1    0    0    0    0  0.00000000000E+00  0.00000000000E+00  0.45593999997E+02  0.45594000000E+02  0.51100000000E-03 0. -1.
         11   -1    0    0    0    0 -0.00000000000E+00 -0.00000000000E+00 -0.45593999997E+02  0.45594000000E+02  0.51100000000E-03 0.  1.
         23    2    1    2    0    0  0.35527136788E-14  0.00000000000E+00  0.00000000000E+00  0.91188000000E+02  0.91188000000E+02 0.  0.
    9900012    2    3    3    0    0 -0.29145915090E+02  0.29513641097E+02 -0.12770428352E+02  0.47787271693E+02  0.20000002958E+02 0.  0.
         12    1    3    3    0    0  0.29145915090E+02 -0.29513641097E+02  0.12770428352E+02  0.43400728307E+02  0.00000000000E+00 0. -1.
         11    1    4    4    0    0 -0.11789136278E+02  0.19237875940E+02 -0.14637443749E+02  0.26894876178E+02  0.51100000000E-03 0. -1.
        -11    1    4    4    0    0 -0.17692826308E+02  0.98901035717E+01  0.16492035047E+01  0.20336423576E+02  0.51100000000E-03 0.  1.
        -12    1    4    4    0    0  0.33604749505E+00  0.38566158494E+00  0.21781189157E+00  0.55597193917E+00  0.00000000000E+00 0.  1.
</event>
<event>
 8    1  0.6957367E-011  0.9118800E+02  0.7816164E-02  0.1184000E+00
        -11   -1    0    0    0    0  0.00000000000E+00  0.00000000000E+00  0.45593999997E+02  0.45594000000E+02  0.51100000000E-03 0. -1.
         11   -1    0    0    0    0 -0.00000000000E+00 -0.00000000000E+00 -0.45593999997E+02  0.45594000000E+02  0.51100000000E-03 0.  1.
         23    2    1    2    0    0  0.88817841970E-15 -0.35527136788E-14  0.00000000000E+00  0.91188000000E+02  0.91188000000E+02 0.  0.
    9900012    2    3    3    0    0 -0.55412444675E+01  0.22813884577E+02  0.36502650920E+02  0.47787282910E+02  0.20000054099E+02 0.  0.
        -12    1    3    3    0    0  0.55412444675E+01 -0.22813884577E+02 -0.36502650920E+02  0.43400717090E+02  0.00000000000E+00 0.  1.
         11    1    4    4    0    0  0.38949241141E+00  0.88353089771E+01  0.17930349412E+02  0.19992794186E+02  0.51100000000E-03 0. -1.
        -11    1    4    4    0    0 -0.92074304872E+01  0.14675747641E+02  0.15370587573E+02  0.23160511816E+02  0.51100000000E-03 0.  1.
        -12    1    4    4    0    0  0.32766936083E+01 -0.69717204082E+00  0.32017139348E+01  0.46339769073E+01  0.00000000000E+00 0.  1.
</event>
<event>
 8    1  0.5331800E-011  0.9118800E+02  0.7816164E-02  0.1184000E+00
        -11   -1    0    0    0    0  0.00000000000E+00  0.00000000000E+00  0.45593999997E+02  0.45594000000E+02  0.51100000000E-03 0. -1.
         11   -1    0    0    0    0 -0.00000000000E+00 -0.00000000000E+00 -0.45593999997E+02  0.45594000000E+02  0.51100000000E-03 0.  1.
         23    2    1    2    0    0  0.66613381478E-15 -0.11102230246E-15  0.00000000000E+00  0.91188000000E+02  0.91188000000E+02 0.  0.
    9900012    2    3    3    0    0  0.19196819329E+01  0.49608364201E+00  0.43355426856E+02  0.47787259044E+02  0.19999945284E+02 0.  0.
        -12    1    3    3    0    0 -0.19196819329E+01 -0.49608364201E+00 -0.43355426856E+02  0.43400740956E+02  0.00000000000E+00 0.  1.
         11    1    4    4    0    0 -0.44717501949E+01  0.10792779284E+01  0.32538534352E+02  0.32862099883E+02  0.51100000000E-03 0. -1.
        -11    1    4    4    0    0  0.40637515810E+01 -0.15411575963E+01  0.58161760520E+00  0.43849199477E+01  0.51100000000E-03 0.  1.
         12    1    4    4    0    0  0.23276805469E+01  0.95796330995E+00  0.10235274898E+02  0.10540239213E+02  0.00000000000E+00 0. -1.
</event>
<event>
 8    1  0.5331800E-011  0.9118800E+02  0.7816164E-02  0.1184000E+00
        -11   -1    0    0    0    0  0.00000000000E+00  0.00000000000E+00  0.45593999997E+02  0.45594000000E+02  0.51100000000E-03 0.  1.
         11   -1    0    0    0    0 -0.00000000000E+00 -0.00000000000E+00 -0.45593999997E+02  0.45594000000E+02  0.51100000000E-03 0. -1.
         23    2    1    2    0    0  0.00000000000E+00  0.71054273576E-14  0.00000000000E+00  0.91188000000E+02  0.91188000000E+02 0.  0.
    9900012    2    3    3    0    0  0.79073425520E+01  0.37801670899E+02 -0.19802312490E+02  0.47787263037E+02  0.19999963489E+02 0.  0.
         12    1    3    3    0    0 -0.79073425520E+01 -0.37801670899E+02  0.19802312490E+02  0.43400736963E+02  0.00000000000E+00 0. -1.
         11    1    4    4    0    0 -0.23321422311E+01  0.13285123210E+02 -0.11804326531E+01  0.13539823027E+02  0.51100000000E-03 0. -1.
        -11    1    4    4    0    0  0.96390594065E+01  0.16405352862E+02 -0.17829367325E+02  0.26075532751E+02  0.51100000000E-03 0.  1.
        -12    1    4    4    0    0  0.60042537665E+00  0.81111948274E+01 -0.79251251174E+00  0.81719072585E+01  0.00000000000E+00 0.  1.
</event>
<event>
 8    1  0.5331800E-011  0.9118800E+02  0.7816164E-02  0.1184000E+00
        -11   -1    0    0    0    0  0.00000000000E+00  0.00000000000E+00  0.45593999997E+02  0.45594000000E+02  0.51100000000E-03 0. -1.
         11   -1    0    0    0    0 -0.00000000000E+00 -0.00000000000E+00 -0.45593999997E+02  0.45594000000E+02  0.51100000000E-03 0.  1.
         23    2    1    2    0    0  0.00000000000E+00  0.17763568394E-14  0.00000000000E+00  0.91188000000E+02  0.91188000000E+02 0.  0.
    9900012    2    3    3    0    0 -0.26978622538E+02 -0.11412856622E+02 -0.32023814939E+02  0.47787261601E+02  0.19999956944E+02 0.  0.
         12    1    3    3    0    0  0.26978622538E+02  0.11412856622E+02  0.32023814939E+02  0.43400738399E+02  0.00000000000E+00 0. -1.
         11    1    4    4    0    0 -0.41161758438E+01  0.55899821619E+00 -0.24097155553E+01  0.48023027707E+01  0.51100000000E-03 0. -1.
        -11    1    4    4    0    0 -0.16063377388E+02 -0.23780012148E+01 -0.26052060804E+02  0.30698482947E+02  0.51100000000E-03 0.  1.
        -12    1    4    4    0    0 -0.67990693069E+01 -0.95938536235E+01 -0.35620385798E+01  0.12286475883E+02  0.00000000000E+00 0.  1.
</event>
<event>
 8    1  0.5331800E-011  0.9118800E+02  0.7816164E-02  0.1184000E+00
        -11   -1    0    0    0    0  0.00000000000E+00  0.00000000000E+00  0.45593999997E+02  0.45594000000E+02  0.51100000000E-03 0. -1.
         11   -1    0    0    0    0 -0.00000000000E+00 -0.00000000000E+00 -0.45593999997E+02  0.45594000000E+02  0.51100000000E-03 0.  1.
         23    2    1    2    0    0  0.00000000000E+00 -0.44408920985E-15  0.00000000000E+00  0.91188000000E+02  0.91188000000E+02 0.  0.
    9900012    2    3    3    0    0 -0.65526875097E+01 -0.31702028294E+01  0.42785923950E+02  0.47787272036E+02  0.20000004522E+02 0.  0.
        -12    1    3    3    0    0  0.65526875097E+01  0.31702028294E+01 -0.42785923950E+02  0.43400727964E+02  0.00000000000E+00 0.  1.
         11    1    4    4    0    0 -0.41445446314E+01 -0.49811022111E+01  0.25409347348E+02  0.26222577340E+02  0.51100000000E-03 0. -1.
        -11    1    4    4    0    0 -0.11170493672E+01  0.52231188705E+01  0.19081332602E+01  0.56718376937E+01  0.51100000000E-03 0.  1.
        -12    1    4    4    0    0 -0.12910935111E+01 -0.34122194888E+01  0.15468443341E+02  0.15892857002E+02  0.00000000000E+00 0.  1.
</event>
<event>
 8    1  0.5331800E-011  0.9118800E+02  0.7816164E-02  0.1184000E+00
        -11   -1    0    0    0    0  0.00000000000E+00  0.00000000000E+00  0.45593999997E+02  0.45594000000E+02  0.51100000000E-03 0. -1.
         11   -1    0    0    0    0 -0.00000000000E+00 -0.00000000000E+00 -0.45593999997E+02  0.45594000000E+02  0.51100000000E-03 0.  1.
         23    2    1    2    0    0  0.00000000000E+00  0.00000000000E+00 -0.35527136788E-14  0.91188000000E+02  0.91188000000E+02 0.  0.
    9900012    2    3    3    0    0 -0.10536902063E+02 -0.34046604964E+02 -0.24767432339E+02  0.47787270521E+02  0.19999997614E+02 0.  0.
         12    1    3    3    0    0  0.10536902063E+02  0.34046604964E+02  0.24767432339E+02  0.43400729479E+02  0.00000000000E+00 0. -1.
         11    1    4    4    0    0 -0.44512387822E+01 -0.17413490668E+02 -0.20710844284E+01  0.18092334700E+02  0.51100000000E-03 0. -1.
        -11    1    4    4    0    0 -0.46485960756E+01 -0.15898029478E+02 -0.16842375692E+02  0.23622497878E+02  0.51100000000E-03 0.  1.
         12    1    4    4    0    0 -0.14370672053E+01 -0.73508481775E+00 -0.58539722182E+01  0.60724379432E+01  0.00000000000E+00 0. -1.
</event>
<event>
 8    1  0.5331800E-011  0.9118800E+02  0.7816164E-02  0.1184000E+00
        -11   -1    0    0    0    0  0.00000000000E+00  0.00000000000E+00  0.45593999997E+02  0.45594000000E+02  0.51100000000E-03 0. -1.
         11   -1    0    0    0    0 -0.00000000000E+00 -0.00000000000E+00 -0.45593999997E+02  0.45594000000E+02  0.51100000000E-03 0.  1.
         23    2    1    2    0    0  0.00000000000E+00  0.17763568394E-14  0.35527136788E-14  0.91188000000E+02  0.91188000000E+02 0.  0.
    9900012    2    3    3    0    0  0.33273146861E+02  0.11107044637E+02  0.25556857816E+02  0.47787288899E+02  0.20000081408E+02 0.  0.
        -12    1    3    3    0    0 -0.33273146861E+02 -0.11107044637E+02 -0.25556857816E+02  0.43400711101E+02  0.00000000000E+00 0.  1.
         11    1    4    4    0    0  0.56121691521E+00 -0.37366434995E+01  0.44643613246E+01  0.58487598144E+01  0.51100000000E-03 0. -1.
        -11    1    4    4    0    0  0.23767548971E+02  0.87908981955E+01  0.16241184959E+02  0.30099042581E+02  0.51100000000E-03 0.  1.
        -12    1    4    4    0    0  0.89443809748E+01  0.60527899409E+01  0.48513115329E+01  0.11839486504E+02  0.00000000000E+00 0.  1.
</event>
<event>
 8    1  0.5331800E-011  0.9118800E+02  0.7816164E-02  0.1184000E+00
        -11   -1    0    0    0    0  0.00000000000E+00  0.00000000000E+00  0.45593999997E+02  0.45594000000E+02  0.51100000000E-03 0. -1.
         11   -1    0    0    0    0 -0.00000000000E+00 -0.00000000000E+00 -0.45593999997E+02  0.45594000000E+02  0.51100000000E-03 0.  1.
         23    2    1    2    0    0 -0.17763568394E-14 -0.44408920985E-15  0.00000000000E+00  0.91188000000E+02  0.91188000000E+02 0.  0.
    9900012    2    3    3    0    0 -0.93784092978E+01 -0.22683163386E+01  0.42314596580E+02  0.47787252268E+02  0.19999914390E+02 0.  0.
        -12    1    3    3    0    0  0.93784092978E+01  0.22683163386E+01 -0.42314596580E+02  0.43400747732E+02  0.00000000000E+00 0.  1.
         11    1    4    4    0    0  0.72956891126E+00  0.25812190121E+01 -0.96938138075E+00  0.28521330452E+01  0.51100000000E-03 0. -1.
        -11    1    4    4    0    0 -0.20639205233E-02  0.34601888929E+00  0.25189087232E+00  0.42799836938E+00  0.51100000000E-03 0.  1.
         12    1    4    4    0    0 -0.10105914289E+02 -0.51955542400E+01  0.43032087088E+02  0.44507120853E+02  0.00000000000E+00 0. -1.
</event>
<event>
 8    1  0.5331800E-011  0.9118800E+02  0.7816164E-02  0.1184000E+00
        -11   -1    0    0    0    0  0.00000000000E+00  0.00000000000E+00  0.45593999997E+02  0.45594000000E+02  0.51100000000E-03 0. -1.
         11   -1    0    0    0    0 -0.00000000000E+00 -0.00000000000E+00 -0.45593999997E+02  0.45594000000E+02  0.51100000000E-03 0.  1.
         23    2    1    2    0    0  0.00000000000E+00 -0.44408920985E-15  0.00000000000E+00  0.91188000000E+02  0.91188000000E+02 0.  0.
    9900012    2    3    3    0    0  0.76249177976E+01  0.28029243995E+01 -0.42633644250E+02  0.47787269838E+02  0.19999994499E+02 0.  0.
         12    1    3    3    0    0 -0.76249177976E+01 -0.28029243995E+01  0.42633644250E+02  0.43400730162E+02  0.00000000000E+00 0. -1.
         11    1    4    4    0    0  0.96549192838E+01  0.38938352561E+01 -0.11762613262E+02  0.15707911713E+02  0.51100000000E-03 0. -1.
        -11    1    4    4    0    0  0.30329742105E+01  0.85400159134E+00 -0.86506155841E+01  0.92065955448E+01  0.51100000000E-03 0.  1.
         12    1    4    4    0    0 -0.50629756967E+01 -0.19449124480E+01 -0.22220415403E+02  0.22872762580E+02  0.00000000000E+00 0. -1.
</event>
<event>
 8    1  0.5331800E-011  0.9118800E+02  0.7816164E-02  0.1184000E+00
        -11   -1    0    0    0    0  0.00000000000E+00  0.00000000000E+00  0.45593999997E+02  0.45594000000E+02  0.51100000000E-03 0. -1.
         11   -1    0    0    0    0 -0.00000000000E+00 -0.00000000000E+00 -0.45593999997E+02  0.45594000000E+02  0.51100000000E-03 0.  1.
         23    2    1    2    0    0 -0.17763568394E-14  0.35527136788E-14  0.00000000000E+00  0.91188000000E+02  0.91188000000E+02 0.  0.
    9900012    2    3    3    0    0 -0.10318375529E+02 -0.28750451371E+02 -0.30831270011E+02  0.47787256480E+02  0.19999933597E+02 0.  0.
         12    1    3    3    0    0  0.10318375529E+02  0.28750451371E+02  0.30831270011E+02  0.43400743520E+02  0.00000000000E+00 0. -1.
         11    1    4    4    0    0  0.54157416876E+01 -0.94849233135E+01 -0.98443636821E+01  0.14703928892E+02  0.51100000000E-03 0. -1.
        -11    1    4    4    0    0 -0.10569907092E+02 -0.16714405048E+02 -0.16994153643E+02  0.26074806430E+02  0.51100000000E-03 0.  1.
         12    1    4    4    0    0 -0.51642101255E+01 -0.25511230089E+01 -0.39927526854E+01  0.70085211588E+01  0.00000000000E+00 0. -1.
</event>
<event>
 8    1  0.5331800E-011  0.9118800E+02  0.7816164E-02  0.1184000E+00
        -11   -1    0    0    0    0  0.00000000000E+00  0.00000000000E+00  0.45593999997E+02  0.45594000000E+02  0.51100000000E-03 0.  1.
         11   -1    0    0    0    0 -0.00000000000E+00 -0.00000000000E+00 -0.45593999997E+02  0.45594000000E+02  0.51100000000E-03 0. -1.
         23    2    1    2    0    0  0.00000000000E+00  0.00000000000E+00  0.35527136788E-14  0.91188000000E+02  0.91188000000E+02 0.  0.
    9900012    2    3    3    0    0 -0.33027158031E+02 -0.16567274939E+02  0.22767418561E+02  0.47787272881E+02  0.20000008375E+02 0.  0.
        -12    1    3    3    0    0  0.33027158031E+02  0.16567274939E+02 -0.22767418561E+02  0.43400727119E+02  0.00000000000E+00 0.  1.
         11    1    4    4    0    0 -0.10627081392E+01 -0.49711558199E+01  0.83008577089E+01  0.97337545551E+01  0.51100000000E-03 0. -1.
        -11    1    4    4    0    0  0.57752626354E+00 -0.33334900713E+00  0.70297228179E+00  0.96893159497E+00  0.51100000000E-03 0.  1.
         12    1    4    4    0    0 -0.32541976155E+02 -0.11262770112E+02  0.13763588570E+02  0.37084586731E+02  0.00000000000E+00 0. -1.
</event>
<event>
 8    1  0.5331800E-011  0.9118800E+02  0.7816164E-02  0.1184000E+00
        -11   -1    0    0    0    0  0.00000000000E+00  0.00000000000E+00  0.45593999997E+02  0.45594000000E+02  0.51100000000E-03 0.  1.
         11   -1    0    0    0    0 -0.00000000000E+00 -0.00000000000E+00 -0.45593999997E+02  0.45594000000E+02  0.51100000000E-03 0. -1.
         23    2    1    2    0    0  0.00000000000E+00 -0.35527136788E-14  0.13322676296E-14  0.91188000000E+02  0.91188000000E+02 0.  0.
    9900012    2    3    3    0    0  0.36265149340E+02 -0.23702564814E+02 -0.25788547544E+01  0.47787272734E+02  0.20000007703E+02 0.  0.
        -12    1    3    3    0    0 -0.36265149340E+02  0.23702564814E+02  0.25788547544E+01  0.43400727266E+02  0.00000000000E+00 0.  1.
         11    1    4    4    0    0  0.68783997275E+01 -0.47651256982E+01 -0.60605431909E+01  0.10331940271E+02  0.51100000000E-03 0. -1.
        -11    1    4    4    0    0  0.12635450108E+02 -0.10656011520E+02  0.77990508102E+01  0.18276497880E+02  0.51100000000E-03 0.  1.
         12    1    4    4    0    0  0.16751299504E+02 -0.82814275949E+01 -0.43173623737E+01  0.19178834583E+02  0.00000000000E+00 0. -1.
</event>
<event>
 8    1  0.5331800E-011  0.9118800E+02  0.7816164E-02  0.1184000E+00
        -11   -1    0    0    0    0  0.00000000000E+00  0.00000000000E+00  0.45593999997E+02  0.45594000000E+02  0.51100000000E-03 0. -1.
         11   -1    0    0    0    0 -0.00000000000E+00 -0.00000000000E+00 -0.45593999997E+02  0.45594000000E+02  0.51100000000E-03 0.  1.
         23    2    1    2    0    0 -0.71054273576E-14  0.00000000000E+00 -0.71054273576E-14  0.91188000000E+02  0.91188000000E+02 0.  0.
    9900012    2    3    3    0    0 -0.36974907656E+02  0.95787553393E+01 -0.20608939431E+02  0.47787254218E+02  0.19999923280E+02 0.  0.
         12    1    3    3    0    0  0.36974907656E+02 -0.95787553393E+01  0.20608939431E+02  0.43400745782E+02  0.00000000000E+00 0. -1.
         11    1    4    4    0    0 -0.14237348170E+02  0.66332088118E+01  0.14585454924E+01  0.15774311309E+02  0.51100000000E-03 0. -1.
        -11    1    4    4    0    0 -0.16437825643E+02  0.36181701794E+01 -0.15361518053E+02  0.22787485699E+02  0.51100000000E-03 0.  1.
         12    1    4    4    0    0 -0.62997338424E+01 -0.67262365190E+00 -0.67059668703E+01  0.92254572097E+01  0.00000000000E+00 0. -1.
</event>
<event>
 8    1  0.5331800E-011  0.9118800E+02  0.7816164E-02  0.1184000E+00
        -11   -1    0    0    0    0  0.00000000000E+00  0.00000000000E+00  0.45593999997E+02  0.45594000000E+02  0.51100000000E-03 0. -1.
         11   -1    0    0    0    0 -0.00000000000E+00 -0.00000000000E+00 -0.45593999997E+02  0.45594000000E+02  0.51100000000E-03 0.  1.
         23    2    1    2    0    0 -0.35527136788E-14  0.00000000000E+00  0.17763568394E-14  0.91188000000E+02  0.91188000000E+02 0.  0.
    9900012    2    3    3    0    0  0.30644934257E+02 -0.26936761743E+02  0.14796013620E+02  0.47787272496E+02  0.20000006617E+02 0.  0.
        -12    1    3    3    0    0 -0.30644934257E+02  0.26936761743E+02 -0.14796013620E+02  0.43400727504E+02  0.00000000000E+00 0.  1.
         11    1    4    4    0    0  0.48379640027E+01 -0.12758711753E+02  0.96776480643E+01  0.16728642910E+02  0.51100000000E-03 0. -1.
        -11    1    4    4    0    0  0.10605179425E+02 -0.10162624414E+02  0.60648234326E+00  0.14700904282E+02  0.51100000000E-03 0.  1.
         12    1    4    4    0    0  0.15201790829E+02 -0.40154255763E+01  0.45118832128E+01  0.16357725303E+02  0.00000000000E+00 0. -1.
</event>
<event>
 8    1  0.5331800E-011  0.9118800E+02  0.7816164E-02  0.1184000E+00
        -11   -1    0    0    0    0  0.00000000000E+00  0.00000000000E+00  0.45593999997E+02  0.45594000000E+02  0.51100000000E-03 0. -1.
         11   -1    0    0    0    0 -0.00000000000E+00 -0.00000000000E+00 -0.45593999997E+02  0.45594000000E+02  0.51100000000E-03 0.  1.
         23    2    1    2    0    0  0.00000000000E+00  0.00000000000E+00  0.00000000000E+00  0.91188000000E+02  0.91188000000E+02 0.  0.
    9900012    2    3    3    0    0 -0.14989060164E+02  0.39719659409E+02  0.90166093899E+01  0.47787279809E+02  0.20000039962E+02 0.  0.
        -12    1    3    3    0    0  0.14989060164E+02 -0.39719659409E+02 -0.90166093899E+01  0.43400720191E+02  0.00000000000E+00 0.  1.
         11    1    4    4    0    0 -0.11766921875E+02  0.22035170767E+02 -0.29176153807E+01  0.25149983716E+02  0.51100000000E-03 0. -1.
        -11    1    4    4    0    0  0.18592291892E+01  0.88415481523E+01  0.54387571683E+01  0.10545605090E+02  0.51100000000E-03 0.  1.
         12    1    4    4    0    0 -0.50813674778E+01  0.88429404899E+01  0.64954676023E+01  0.12091691003E+02  0.00000000000E+00 0. -1.
</event>
<event>
 8    1  0.5331800E-011  0.9118800E+02  0.7816164E-02  0.1184000E+00
        -11   -1    0    0    0    0  0.00000000000E+00  0.00000000000E+00  0.45593999997E+02  0.45594000000E+02  0.51100000000E-03 0. -1.
         11   -1    0    0    0    0 -0.00000000000E+00 -0.00000000000E+00 -0.45593999997E+02  0.45594000000E+02  0.51100000000E-03 0.  1.
         23    2    1    2    0    0  0.00000000000E+00  0.17763568394E-14  0.00000000000E+00  0.91188000000E+02  0.91188000000E+02 0.  0.
    9900012    2    3    3    0    0  0.37503224020E+02 -0.58493708914E+01 -0.21045576609E+02  0.47787271360E+02  0.20000001437E+02 0.  0.
         12    1    3    3    0    0 -0.37503224020E+02  0.58493708914E+01  0.21045576609E+02  0.43400728640E+02  0.00000000000E+00 0. -1.
         11    1    4    4    0    0  0.89267916678E+01  0.31644936066E+01 -0.39174465569E+01  0.10249293490E+02  0.51100000000E-03 0. -1.
        -11    1    4    4    0    0  0.14275883740E+02  0.23230087356E+01 -0.11383576916E+02  0.18406060138E+02  0.51100000000E-03 0.  1.
        -12    1    4    4    0    0  0.14300548612E+02 -0.11336873234E+02 -0.57445531359E+01  0.19131917731E+02  0.00000000000E+00 0.  1.
</event>
<event>
 8    1  0.5331800E-011  0.9118800E+02  0.7816164E-02  0.1184000E+00
        -11   -1    0    0    0    0  0.00000000000E+00  0.00000000000E+00  0.45593999997E+02  0.45594000000E+02  0.51100000000E-03 0. -1.
         11   -1    0    0    0    0 -0.00000000000E+00 -0.00000000000E+00 -0.45593999997E+02  0.45594000000E+02  0.51100000000E-03 0.  1.
         23    2    1    2    0    0  0.00000000000E+00  0.00000000000E+00  0.00000000000E+00  0.91188000000E+02  0.91188000000E+02 0.  0.
    9900012    2    3    3    0    0  0.83738192376E+01 -0.20158952432E+02 -0.37511588760E+02  0.47787268404E+02  0.19999987960E+02 0.  0.
         12    1    3    3    0    0 -0.83738192376E+01  0.20158952432E+02  0.37511588760E+02  0.43400731596E+02  0.00000000000E+00 0. -1.
         11    1    4    4    0    0  0.42920757285E+01 -0.50369734941E+01 -0.16822086367E+02  0.18076935748E+02  0.51100000000E-03 0. -1.
        -11    1    4    4    0    0  0.61116169946E+01 -0.59168377979E+01 -0.19404187363E+01  0.87250247535E+01  0.51100000000E-03 0.  1.
        -12    1    4    4    0    0 -0.20298734856E+01 -0.92051411402E+01 -0.18749083657E+02  0.20985307902E+02  0.00000000000E+00 0.  1.
</event>
<event>
 8    1  0.5331800E-011  0.9118800E+02  0.7816164E-02  0.1184000E+00
        -11   -1    0    0    0    0  0.00000000000E+00  0.00000000000E+00  0.45593999997E+02  0.45594000000E+02  0.51100000000E-03 0. -1.
         11   -1    0    0    0    0 -0.00000000000E+00 -0.00000000000E+00 -0.45593999997E+02  0.45594000000E+02  0.51100000000E-03 0.  1.
         23    2    1    2    0    0  0.00000000000E+00  0.00000000000E+00  0.00000000000E+00  0.91188000000E+02  0.91188000000E+02 0.  0.
    9900012    2    3    3    0    0 -0.13630022869E+02  0.40315364270E+02  0.85156934300E+01  0.47787272423E+02  0.20000006286E+02 0.  0.
        -12    1    3    3    0    0  0.13630022869E+02 -0.40315364270E+02 -0.85156934300E+01  0.43400727577E+02  0.00000000000E+00 0.  1.
         11    1    4    4    0    0 -0.29187342292E+01  0.52306623358E+01  0.88734070011E+01  0.10705895107E+02  0.51100000000E-03 0. -1.
        -11    1    4    4    0    0 -0.70682620067E+01  0.20679692472E+02 -0.27670773679E+01  0.22028770414E+02  0.51100000000E-03 0.  1.
         12    1    4    4    0    0 -0.36430266333E+01  0.14405009461E+02  0.24093637967E+01  0.15052606902E+02  0.00000000000E+00 0. -1.
</event>
<event>
 8    1  0.5847708E-011  0.9118800E+02  0.7816164E-02  0.1184000E+00
        -11   -1    0    0    0    0  0.00000000000E+00  0.00000000000E+00  0.45593999997E+02  0.45594000000E+02  0.51100000000E-03 0. -1.
         11   -1    0    0    0    0 -0.00000000000E+00 -0.00000000000E+00 -0.45593999997E+02  0.45594000000E+02  0.51100000000E-03 0.  1.
         23    2    1    2    0    0  0.00000000000E+00 -0.44408920985E-15  0.00000000000E+00  0.91188000000E+02  0.91188000000E+02 0.  0.
    9900012    2    3    3    0    0  0.18381809460E+02 -0.17243264587E+01 -0.39277966360E+02  0.47787275788E+02  0.20000021626E+02 0.  0.
         12    1    3    3    0    0 -0.18381809460E+02  0.17243264587E+01  0.39277966360E+02  0.43400724212E+02  0.00000000000E+00 0. -1.
         11    1    4    4    0    0 -0.17290618696E+01  0.34318128505E+01 -0.28269044239E+01  0.47705747319E+01  0.51100000000E-03 0. -1.
        -11    1    4    4    0    0  0.19963026631E+02 -0.25090286594E+01 -0.31031424332E+02  0.36983333455E+02  0.51100000000E-03 0.  1.
        -12    1    4    4    0    0  0.14784469850E+00 -0.26471106499E+01 -0.54196376039E+01  0.60333676007E+01  0.00000000000E+00 0.  1.
</event>
<event>
 8    1  0.5331800E-011  0.9118800E+02  0.7816164E-02  0.1184000E+00
        -11   -1    0    0    0    0  0.00000000000E+00  0.00000000000E+00  0.45593999997E+02  0.45594000000E+02  0.51100000000E-03 0. -1.
         11   -1    0    0    0    0 -0.00000000000E+00 -0.00000000000E+00 -0.45593999997E+02  0.45594000000E+02  0.51100000000E-03 0.  1.
         23    2    1    2    0    0  0.00000000000E+00  0.00000000000E+00  0.00000000000E+00  0.91188000000E+02  0.91188000000E+02 0.  0.
    9900012    2    3    3    0    0  0.10286294599E+02  0.72321509261E+01 -0.41539277663E+02  0.47787268988E+02  0.19999990624E+02 0.  0.
         12    1    3    3    0    0 -0.10286294599E+02 -0.72321509261E+01  0.41539277663E+02  0.43400731012E+02  0.00000000000E+00 0. -1.
         11    1    4    4    0    0 -0.43367916864E+01  0.24949037882E+01 -0.80876170614E+01  0.95100923779E+01  0.51100000000E-03 0. -1.
        -11    1    4    4    0    0  0.13150646017E+02  0.76930412425E+01 -0.26173167105E+02  0.30284600885E+02  0.51100000000E-03 0.  1.
        -12    1    4    4    0    0  0.14724402683E+01 -0.29557941046E+01 -0.72784934970E+01  0.79925757249E+01  0.00000000000E+00 0.  1.
</event>
<event>
 8    1  0.5331800E-011  0.9118800E+02  0.7816164E-02  0.1184000E+00
        -11   -1    0    0    0    0  0.00000000000E+00  0.00000000000E+00  0.45593999997E+02  0.45594000000E+02  0.51100000000E-03 0. -1.
         11   -1    0    0    0    0 -0.00000000000E+00 -0.00000000000E+00 -0.45593999997E+02  0.45594000000E+02  0.51100000000E-03 0.  1.
         23    2    1    2    0    0  0.44408920985E-15  0.17763568394E-14  0.14210854715E-13  0.91188000000E+02  0.91188000000E+02 0.  0.
    9900012    2    3    3    0    0  0.24760689798E+01  0.85910079506E+01  0.42469847335E+02  0.47787259593E+02  0.19999947788E+02 0.  0.
        -12    1    3    3    0    0 -0.24760689798E+01 -0.85910079506E+01 -0.42469847335E+02  0.43400740407E+02  0.00000000000E+00 0.  1.
         11    1    4    4    0    0 -0.37285916033E+00  0.33353092189E+01  0.35859120462E+01  0.49114231139E+01  0.51100000000E-03 0. -1.
        -11    1    4    4    0    0  0.17829878762E+01  0.65174372571E+01  0.37982738018E+01  0.77513171979E+01  0.51100000000E-03 0.  1.
        -12    1    4    4    0    0  0.10659402640E+01 -0.12617385255E+01  0.35085661487E+02  0.35124519281E+02  0.00000000000E+00 0.  1.
</event>
<event>
 8    1  0.5331800E-011  0.9118800E+02  0.7816164E-02  0.1184000E+00
        -11   -1    0    0    0    0  0.00000000000E+00  0.00000000000E+00  0.45593999997E+02  0.45594000000E+02  0.51100000000E-03 0. -1.
         11   -1    0    0    0    0 -0.00000000000E+00 -0.00000000000E+00 -0.45593999997E+02  0.45594000000E+02  0.51100000000E-03 0.  1.
         23    2    1    2    0    0  0.00000000000E+00 -0.71054273576E-14  0.35527136788E-14  0.91188000000E+02  0.91188000000E+02 0.  0.
    9900012    2    3    3    0    0  0.18661059857E+02  0.34033810072E+02  0.19418749255E+02  0.47787271831E+02  0.20000003585E+02 0.  0.
        -12    1    3    3    0    0 -0.18661059857E+02 -0.34033810072E+02 -0.19418749255E+02  0.43400728169E+02  0.00000000000E+00 0.  1.
         11    1    4    4    0    0 -0.85873033966E+00  0.66742896834E+01 -0.18917040604E+01  0.69901434239E+01  0.51100000000E-03 0. -1.
        -11    1    4    4    0    0  0.51081145030E+00 -0.71116778260E+00  0.71140935537E+00  0.11281806082E+01  0.51100000000E-03 0.  1.
         12    1    4    4    0    0  0.19008978747E+02  0.28070688171E+02  0.20599043960E+02  0.39668947799E+02  0.00000000000E+00 0. -1.
</event>
<event>
 8    1  0.5331800E-011  0.9118800E+02  0.7816164E-02  0.1184000E+00
        -11   -1    0    0    0    0  0.00000000000E+00  0.00000000000E+00  0.45593999997E+02  0.45594000000E+02  0.51100000000E-03 0. -1.
         11   -1    0    0    0    0 -0.00000000000E+00 -0.00000000000E+00 -0.45593999997E+02  0.45594000000E+02  0.51100000000E-03 0.  1.
         23    2    1    2    0    0  0.35527136788E-14 -0.35527136788E-14  0.17763568394E-14  0.91188000000E+02  0.91188000000E+02 0.  0.
    9900012    2    3    3    0    0  0.30063457098E+02  0.29585522454E+02  0.10222939780E+02  0.47787273171E+02  0.20000009695E+02 0.  0.
        -12    1    3    3    0    0 -0.30063457098E+02 -0.29585522454E+02 -0.10222939780E+02  0.43400726829E+02  0.00000000000E+00 0.  1.
         11    1    4    4    0    0  0.23158715347E+02  0.17436782840E+02  0.63122951576E+01  0.29668376477E+02  0.51100000000E-03 0. -1.
        -11    1    4    4    0    0 -0.14341687426E+01 -0.32153865385E+00  0.26930954211E+01  0.30680596957E+01  0.51100000000E-03 0.  1.
        -12    1    4    4    0    0  0.83389104933E+01  0.12470278268E+02  0.12175492012E+01  0.15050836998E+02  0.00000000000E+00 0.  1.
</event>
<event>
 8    1  0.5331800E-011  0.9118800E+02  0.7816164E-02  0.1184000E+00
        -11   -1    0    0    0    0  0.00000000000E+00  0.00000000000E+00  0.45593999997E+02  0.45594000000E+02  0.51100000000E-03 0. -1.
         11   -1    0    0    0    0 -0.00000000000E+00 -0.00000000000E+00 -0.45593999997E+02  0.45594000000E+02  0.51100000000E-03 0.  1.
         23    2    1    2    0    0 -0.53290705182E-14 -0.99920072216E-15  0.71054273576E-14  0.91188000000E+02  0.91188000000E+02 0.  0.
    9900012    2    3    3    0    0 -0.15170418325E+02 -0.54016576148E+00  0.40659445137E+02  0.47787264407E+02  0.19999969736E+02 0.  0.
        -12    1    3    3    0    0  0.15170418325E+02  0.54016576148E+00 -0.40659445137E+02  0.43400735593E+02  0.00000000000E+00 0.  1.
         11    1    4    4    0    0 -0.65977314519E+00  0.53335974392E+01  0.21714308004E+02  0.22369482215E+02  0.51100000000E-03 0. -1.
        -11    1    4    4    0    0 -0.36248647595E+01 -0.38166129295E+01  0.31810272478E+01  0.61502124671E+01  0.51100000000E-03 0.  1.
         12    1    4    4    0    0 -0.10885780421E+02 -0.20571502712E+01  0.15764109885E+02  0.19267569724E+02  0.00000000000E+00 0. -1.
</event>
<event>
 8    1  0.5331800E-011  0.9118800E+02  0.7816164E-02  0.1184000E+00
        -11   -1    0    0    0    0  0.00000000000E+00  0.00000000000E+00  0.45593999997E+02  0.45594000000E+02  0.51100000000E-03 0. -1.
         11   -1    0    0    0    0 -0.00000000000E+00 -0.00000000000E+00 -0.45593999997E+02  0.45594000000E+02  0.51100000000E-03 0.  1.
         23    2    1    2    0    0 -0.35527136788E-14  0.00000000000E+00  0.00000000000E+00  0.91188000000E+02  0.91188000000E+02 0.  0.
    9900012    2    3    3    0    0  0.18895380808E+02 -0.12538472963E+02 -0.37005060936E+02  0.47787271262E+02  0.20000000990E+02 0.  0.
         12    1    3    3    0    0 -0.18895380808E+02  0.12538472963E+02  0.37005060936E+02  0.43400728738E+02  0.00000000000E+00 0. -1.
         11    1    4    4    0    0  0.97866692996E+00 -0.48580191418E+01  0.89161280294E+00  0.50351874437E+01  0.51100000000E-03 0. -1.
        -11    1    4    4    0    0  0.86349512239E+01 -0.55367904548E+01 -0.20116950308E+02  0.22581189542E+02  0.51100000000E-03 0.  1.
         12    1    4    4    0    0  0.92817626543E+01 -0.21436633663E+01 -0.17779723431E+02  0.20170894276E+02  0.00000000000E+00 0. -1.
</event>
<event>
 8    1  0.5331800E-011  0.9118800E+02  0.7816164E-02  0.1184000E+00
        -11   -1    0    0    0    0  0.00000000000E+00  0.00000000000E+00  0.45593999997E+02  0.45594000000E+02  0.51100000000E-03 0. -1.
         11   -1    0    0    0    0 -0.00000000000E+00 -0.00000000000E+00 -0.45593999997E+02  0.45594000000E+02  0.51100000000E-03 0.  1.
         23    2    1    2    0    0  0.00000000000E+00  0.00000000000E+00  0.00000000000E+00  0.91188000000E+02  0.91188000000E+02 0.  0.
    9900012    2    3    3    0    0 -0.17901743578E+02  0.22484268923E+02  0.32520903048E+02  0.47787263749E+02  0.19999966735E+02 0.  0.
        -12    1    3    3    0    0  0.17901743578E+02 -0.22484268923E+02 -0.32520903048E+02  0.43400736251E+02  0.00000000000E+00 0.  1.
         11    1    4    4    0    0 -0.12547706300E+02  0.19153171471E+02  0.16640003369E+02  0.28305098889E+02  0.51100000000E-03 0. -1.
        -11    1    4    4    0    0 -0.63340902459E+01 -0.69641504285E+00  0.12863004051E+02  0.14354879541E+02  0.51100000000E-03 0.  1.
        -12    1    4    4    0    0  0.98005296734E+00  0.40275124946E+01  0.30178956283E+01  0.51272853184E+01  0.00000000000E+00 0.  1.
</event>
<event>
 8    1  0.5331800E-011  0.9118800E+02  0.7816164E-02  0.1184000E+00
        -11   -1    0    0    0    0  0.00000000000E+00  0.00000000000E+00  0.45593999997E+02  0.45594000000E+02  0.51100000000E-03 0. -1.
         11   -1    0    0    0    0 -0.00000000000E+00 -0.00000000000E+00 -0.45593999997E+02  0.45594000000E+02  0.51100000000E-03 0.  1.
         23    2    1    2    0    0  0.00000000000E+00  0.00000000000E+00  0.00000000000E+00  0.91188000000E+02  0.91188000000E+02 0.  0.
    9900012    2    3    3    0    0 -0.16191656200E+02 -0.37150954683E+02  0.15532566068E+02  0.47787265294E+02  0.19999973782E+02 0.  0.
        -12    1    3    3    0    0  0.16191656200E+02  0.37150954683E+02 -0.15532566068E+02  0.43400734706E+02  0.00000000000E+00 0.  1.
         11    1    4    4    0    0 -0.95596273621E+01 -0.12828083137E+02 -0.72293099238E+00  0.16014643979E+02  0.51100000000E-03 0. -1.
        -11    1    4    4    0    0 -0.91871366425E+01 -0.18179876396E+02  0.14121213918E+02  0.24785480996E+02  0.51100000000E-03 0.  1.
        -12    1    4    4    0    0  0.25551078047E+01 -0.61429951498E+01  0.21342831428E+01  0.69871403191E+01  0.00000000000E+00 0.  1.
</event>
<event>
 8    1  0.5331800E-011  0.9118800E+02  0.7816164E-02  0.1184000E+00
        -11   -1    0    0    0    0  0.00000000000E+00  0.00000000000E+00  0.45593999997E+02  0.45594000000E+02  0.51100000000E-03 0. -1.
         11   -1    0    0    0    0 -0.00000000000E+00 -0.00000000000E+00 -0.45593999997E+02  0.45594000000E+02  0.51100000000E-03 0.  1.
         23    2    1    2    0    0  0.88817841970E-15 -0.35527136788E-14  0.00000000000E+00  0.91188000000E+02  0.91188000000E+02 0.  0.
    9900012    2    3    3    0    0  0.37983946771E+01 -0.24815742451E+02  0.35403016461E+02  0.47787280535E+02  0.20000043271E+02 0.  0.
        -12    1    3    3    0    0 -0.37983946771E+01  0.24815742451E+02 -0.35403016461E+02  0.43400719465E+02  0.00000000000E+00 0.  1.
         11    1    4    4    0    0 -0.64466696071E+00  0.20798482983E+01  0.32687937155E+01  0.39276426836E+01  0.51100000000E-03 0. -1.
        -11    1    4    4    0    0  0.48830379271E+01 -0.19034789670E+02  0.29711518908E+02  0.35622207024E+02  0.51100000000E-03 0.  1.
        -12    1    4    4    0    0 -0.43997628923E+00 -0.78608010797E+01  0.24227038373E+01  0.82374308272E+01  0.00000000000E+00 0.  1.
</event>
<event>
 8    1  0.5331800E-011  0.9118800E+02  0.7816164E-02  0.1184000E+00
        -11   -1    0    0    0    0  0.00000000000E+00  0.00000000000E+00  0.45593999997E+02  0.45594000000E+02  0.51100000000E-03 0. -1.
         11   -1    0    0    0    0 -0.00000000000E+00 -0.00000000000E+00 -0.45593999997E+02  0.45594000000E+02  0.51100000000E-03 0.  1.
         23    2    1    2    0    0 -0.35527136788E-14 -0.71054273576E-14  0.00000000000E+00  0.91188000000E+02  0.91188000000E+02 0.  0.
    9900012    2    3    3    0    0  0.25226984666E+02 -0.34661638729E+02 -0.67670633784E+01  0.47787273030E+02  0.20000009053E+02 0.  0.
        -12    1    3    3    0    0 -0.25226984666E+02  0.34661638729E+02  0.67670633784E+01  0.43400726970E+02  0.00000000000E+00 0.  1.
         11    1    4    4    0    0  0.61520372214E+01 -0.10023506293E+02 -0.12222226786E+01  0.11824215361E+02  0.51100000000E-03 0. -1.
        -11    1    4    4    0    0  0.16059388198E+02 -0.27037046302E+02 -0.36165538371E+01  0.31654151133E+02  0.51100000000E-03 0.  1.
        -12    1    4    4    0    0  0.30155592472E+01  0.23989138656E+01 -0.19282868627E+01  0.43089065356E+01  0.00000000000E+00 0.  1.
</event>
<event>
 8    1  0.5331800E-011  0.9118800E+02  0.7816164E-02  0.1184000E+00
        -11   -1    0    0    0    0  0.00000000000E+00  0.00000000000E+00  0.45593999997E+02  0.45594000000E+02  0.51100000000E-03 0. -1.
         11   -1    0    0    0    0 -0.00000000000E+00 -0.00000000000E+00 -0.45593999997E+02  0.45594000000E+02  0.51100000000E-03 0.  1.
         23    2    1    2    0    0 -0.88817841970E-15  0.71054273576E-14  0.00000000000E+00  0.91188000000E+02  0.91188000000E+02 0.  0.
    9900012    2    3    3    0    0 -0.62512466250E+01  0.41865589745E+02 -0.95821537876E+01  0.47787270049E+02  0.19999995461E+02 0.  0.
         12    1    3    3    0    0  0.62512466250E+01 -0.41865589745E+02  0.95821537876E+01  0.43400729951E+02  0.00000000000E+00 0. -1.
         11    1    4    4    0    0  0.57644239829E+01  0.90052859721E+01 -0.23343458819E+01  0.10944081974E+02  0.51100000000E-03 0. -1.
        -11    1    4    4    0    0 -0.10920879633E+02  0.18428574728E+02 -0.63472022942E+01  0.22341999814E+02  0.51100000000E-03 0.  1.
         12    1    4    4    0    0 -0.10947909748E+01  0.14431729045E+02 -0.90060561151E+00  0.14501188261E+02  0.00000000000E+00 0. -1.
</event>
<event>
 8    1  0.5331800E-011  0.9118800E+02  0.7816164E-02  0.1184000E+00
        -11   -1    0    0    0    0  0.00000000000E+00  0.00000000000E+00  0.45593999997E+02  0.45594000000E+02  0.51100000000E-03 0. -1.
         11   -1    0    0    0    0 -0.00000000000E+00 -0.00000000000E+00 -0.45593999997E+02  0.45594000000E+02  0.51100000000E-03 0.  1.
         23    2    1    2    0    0  0.00000000000E+00  0.44408920985E-15  0.00000000000E+00  0.91188000000E+02  0.91188000000E+02 0.  0.
    9900012    2    3    3    0    0  0.24308643483E+02  0.23946005098E+01 -0.35874486996E+02  0.47787273315E+02  0.20000010352E+02 0.  0.
         12    1    3    3    0    0 -0.24308643483E+02 -0.23946005098E+01  0.35874486996E+02  0.43400726685E+02  0.00000000000E+00 0. -1.
         11    1    4    4    0    0  0.11048159833E+02 -0.14539167439E+01 -0.33678171519E+01  0.11641215668E+02  0.51100000000E-03 0. -1.
        -11    1    4    4    0    0  0.13293334174E+02  0.36638792832E+01 -0.24318880596E+02  0.27956120950E+02  0.51100000000E-03 0.  1.
         12    1    4    4    0    0 -0.32850523712E-01  0.18463797043E+00 -0.81877892481E+01  0.81899366975E+01  0.00000000000E+00 0. -1.
</event>
<event>
 8    1  0.5331800E-011  0.9118800E+02  0.7816164E-02  0.1184000E+00
        -11   -1    0    0    0    0  0.00000000000E+00  0.00000000000E+00  0.45593999997E+02  0.45594000000E+02  0.51100000000E-03 0. -1.
         11   -1    0    0    0    0 -0.00000000000E+00 -0.00000000000E+00 -0.45593999997E+02  0.45594000000E+02  0.51100000000E-03 0.  1.
         23    2    1    2    0    0  0.13877787808E-15  0.00000000000E+00  0.88817841970E-15  0.91188000000E+02  0.91188000000E+02 0.  0.
    9900012    2    3    3    0    0  0.11525339071E+00  0.42874055765E+02 -0.67398198629E+01  0.47787272899E+02  0.20000008456E+02 0.  0.
         12    1    3    3    0    0 -0.11525339071E+00 -0.42874055765E+02  0.67398198629E+01  0.43400727101E+02  0.00000000000E+00 0. -1.
         11    1    4    4    0    0  0.55446449479E+01  0.90157949662E+01  0.16614284870E+01  0.10713915780E+02  0.51100000000E-03 0. -1.
        -11    1    4    4    0    0 -0.75062331057E+01  0.18074402187E+02 -0.12210465913E+01  0.19609143400E+02  0.51100000000E-03 0.  1.
         12    1    4    4    0    0  0.20768415485E+01  0.15783858613E+02 -0.71802017586E+01  0.17464213719E+02  0.00000000000E+00 0. -1.
</event>
<event>
 8    1  0.5331800E-011  0.9118800E+02  0.7816164E-02  0.1184000E+00
        -11   -1    0    0    0    0  0.00000000000E+00  0.00000000000E+00  0.45593999997E+02  0.45594000000E+02  0.51100000000E-03 0. -1.
         11   -1    0    0    0    0 -0.00000000000E+00 -0.00000000000E+00 -0.45593999997E+02  0.45594000000E+02  0.51100000000E-03 0.  1.
         23    2    1    2    0    0  0.35527136788E-14  0.00000000000E+00 -0.35527136788E-14  0.91188000000E+02  0.91188000000E+02 0.  0.
    9900012    2    3    3    0    0 -0.26771244651E+02 -0.19446529079E+02 -0.28084816493E+02  0.47787263245E+02  0.19999964440E+02 0.  0.
         12    1    3    3    0    0  0.26771244651E+02  0.19446529079E+02  0.28084816493E+02  0.43400736755E+02  0.00000000000E+00 0. -1.
         11    1    4    4    0    0 -0.86793482490E+01  0.29403496334E+01 -0.10049983217E+02  0.13600695016E+02  0.51100000000E-03 0. -1.
        -11    1    4    4    0    0 -0.73860879822E+01 -0.79479617837E+01 -0.47975083503E+01  0.11863409241E+02  0.51100000000E-03 0.  1.
         12    1    4    4    0    0 -0.10705808420E+02 -0.14438916928E+02 -0.13237324926E+02  0.22323158988E+02  0.00000000000E+00 0. -1.
</event>
<event>
 8    1  0.8296258E-011  0.9118800E+02  0.7816164E-02  0.1184000E+00
        -11   -1    0    0    0    0  0.00000000000E+00  0.00000000000E+00  0.45593999997E+02  0.45594000000E+02  0.51100000000E-03 0. -1.
         11   -1    0    0    0    0 -0.00000000000E+00 -0.00000000000E+00 -0.45593999997E+02  0.45594000000E+02  0.51100000000E-03 0.  1.
         23    2    1    2    0    0 -0.66613381478E-15  0.88817841970E-15  0.71054273576E-14  0.91188000000E+02  0.91188000000E+02 0.  0.
    9900012    2    3    3    0    0  0.80481201264E+00  0.51479738118E+01  0.43086818917E+02  0.47787270500E+02  0.19999997517E+02 0.  0.
        -12    1    3    3    0    0 -0.80481201264E+00 -0.51479738118E+01 -0.43086818917E+02  0.43400729500E+02  0.00000000000E+00 0.  1.
         11    1    4    4    0    0 -0.14499267754E+01  0.51270382856E+00  0.25360508111E+02  0.25407095953E+02  0.51100000000E-03 0. -1.
        -11    1    4    4    0    0 -0.33380880995E+01  0.40587440029E+01  0.19053703308E+01  0.55898722167E+01  0.51100000000E-03 0.  1.
        -12    1    4    4    0    0  0.55928268875E+01  0.57652598041E+00  0.15820940475E+02  0.16790302330E+02  0.00000000000E+00 0.  1.
</event>
<event>
 8    1  0.5331800E-011  0.9118800E+02  0.7816164E-02  0.1184000E+00
        -11   -1    0    0    0    0  0.00000000000E+00  0.00000000000E+00  0.45593999997E+02  0.45594000000E+02  0.51100000000E-03 0. -1.
         11   -1    0    0    0    0 -0.00000000000E+00 -0.00000000000E+00 -0.45593999997E+02  0.45594000000E+02  0.51100000000E-03 0.  1.
         23    2    1    2    0    0  0.88817841970E-15  0.35527136788E-14  0.00000000000E+00  0.91188000000E+02  0.91188000000E+02 0.  0.
    9900012    2    3    3    0    0 -0.54878870383E+01 -0.18592005739E+02  0.38830962802E+02  0.47787271277E+02  0.20000001062E+02 0.  0.
        -12    1    3    3    0    0  0.54878870383E+01  0.18592005739E+02 -0.38830962802E+02  0.43400728723E+02  0.00000000000E+00 0.  1.
         11    1    4    4    0    0 -0.43655118560E+01 -0.16818474423E+01  0.24353170586E+02  0.24798452017E+02  0.51100000000E-03 0. -1.
        -11    1    4    4    0    0 -0.85174783378E+00 -0.15211182223E+02  0.14798097035E+02  0.21238860966E+02  0.51100000000E-03 0.  1.
         12    1    4    4    0    0 -0.27062734860E+00 -0.16989760731E+01 -0.32030481847E+00  0.17499582954E+01  0.00000000000E+00 0. -1.
</event>
<event>
 8    1  0.5331800E-011  0.9118800E+02  0.7816164E-02  0.1184000E+00
        -11   -1    0    0    0    0  0.00000000000E+00  0.00000000000E+00  0.45593999997E+02  0.45594000000E+02  0.51100000000E-03 0. -1.
         11   -1    0    0    0    0 -0.00000000000E+00 -0.00000000000E+00 -0.45593999997E+02  0.45594000000E+02  0.51100000000E-03 0.  1.
         23    2    1    2    0    0  0.00000000000E+00  0.00000000000E+00  0.00000000000E+00  0.91188000000E+02  0.91188000000E+02 0.  0.
    9900012    2    3    3    0    0  0.13466316844E+02 -0.37754499290E+02 -0.16639700024E+02  0.47787268176E+02  0.19999986921E+02 0.  0.
         12    1    3    3    0    0 -0.13466316844E+02  0.37754499290E+02  0.16639700024E+02  0.43400731824E+02  0.00000000000E+00 0. -1.
         11    1    4    4    0    0  0.91217236799E+01 -0.30189619297E+02 -0.61444777423E+01  0.32130570540E+02  0.51100000000E-03 0. -1.
        -11    1    4    4    0    0  0.24922362997E+01  0.55353991811E+00 -0.51880801350E+01  0.57821988865E+01  0.51100000000E-03 0.  1.
        -12    1    4    4    0    0  0.18523568648E+01 -0.81184199106E+01 -0.53071421463E+01  0.98744987498E+01  0.00000000000E+00 0.  1.
</event>
<event>
 8    1  0.5331800E-011  0.9118800E+02  0.7816164E-02  0.1184000E+00
        -11   -1    0    0    0    0  0.00000000000E+00  0.00000000000E+00  0.45593999997E+02  0.45594000000E+02  0.51100000000E-03 0. -1.
         11   -1    0    0    0    0 -0.00000000000E+00 -0.00000000000E+00 -0.45593999997E+02  0.45594000000E+02  0.51100000000E-03 0.  1.
         23    2    1    2    0    0  0.35527136788E-14  0.00000000000E+00  0.00000000000E+00  0.91188000000E+02  0.91188000000E+02 0.  0.
    9900012    2    3    3    0    0  0.20199965862E+02 -0.22865017474E+01  0.38345228951E+02  0.47787270809E+02  0.19999998924E+02 0.  0.
        -12    1    3    3    0    0 -0.20199965862E+02  0.22865017474E+01 -0.38345228951E+02  0.43400729191E+02  0.00000000000E+00 0.  1.
         11    1    4    4    0    0  0.87475373694E+01 -0.39763901662E+01  0.82542346318E+01  0.12667417985E+02  0.51100000000E-03 0. -1.
        -11    1    4    4    0    0 -0.28215801764E+01 -0.16871736913E+01  0.74445349720E+01  0.81381183923E+01  0.51100000000E-03 0.  1.
        -12    1    4    4    0    0  0.14274008669E+02  0.33770621101E+01  0.22646459347E+02  0.26981734431E+02  0.00000000000E+00 0.  1.
</event>
<event>
 8    1  0.5331800E-011  0.9118800E+02  0.7816164E-02  0.1184000E+00
        -11   -1    0    0    0    0  0.00000000000E+00  0.00000000000E+00  0.45593999997E+02  0.45594000000E+02  0.51100000000E-03 0. -1.
         11   -1    0    0    0    0 -0.00000000000E+00 -0.00000000000E+00 -0.45593999997E+02  0.45594000000E+02  0.51100000000E-03 0.  1.
         23    2    1    2    0    0  0.35527136788E-14  0.00000000000E+00  0.00000000000E+00  0.91188000000E+02  0.91188000000E+02 0.  0.
    9900012    2    3    3    0    0 -0.20509395889E+02  0.21889413954E+02 -0.31366255462E+02  0.47787265620E+02  0.19999975268E+02 0.  0.
         12    1    3    3    0    0  0.20509395889E+02 -0.21889413954E+02  0.31366255462E+02  0.43400734380E+02  0.00000000000E+00 0. -1.
         11    1    4    4    0    0 -0.54365911207E+01 -0.16860746716E+01 -0.43683195735E+01  0.71750670359E+01  0.51100000000E-03 0. -1.
        -11    1    4    4    0    0 -0.24475867626E+00  0.10190877297E+02 -0.71400416063E+01  0.12445645073E+02  0.51100000000E-03 0.  1.
         12    1    4    4    0    0 -0.14828046092E+02  0.13384611329E+02 -0.19857894282E+02  0.28166553511E+02  0.00000000000E+00 0. -1.
</event>
<event>
 8    1  0.5331800E-011  0.9118800E+02  0.7816164E-02  0.1184000E+00
        -11   -1    0    0    0    0  0.00000000000E+00  0.00000000000E+00  0.45593999997E+02  0.45594000000E+02  0.51100000000E-03 0. -1.
         11   -1    0    0    0    0 -0.00000000000E+00 -0.00000000000E+00 -0.45593999997E+02  0.45594000000E+02  0.51100000000E-03 0.  1.
         23    2    1    2    0    0  0.00000000000E+00  0.88817841970E-15  0.35527136788E-14  0.91188000000E+02  0.91188000000E+02 0.  0.
    9900012    2    3    3    0    0  0.33160148455E+02 -0.40185208490E+01  0.27710636268E+02  0.47787270539E+02  0.19999997697E+02 0.  0.
        -12    1    3    3    0    0 -0.33160148455E+02  0.40185208490E+01 -0.27710636268E+02  0.43400729461E+02  0.00000000000E+00 0.  1.
         11    1    4    4    0    0  0.87182289395E+01 -0.75094106970E+01  0.12886473206E+02  0.17275993656E+02  0.51100000000E-03 0. -1.
        -11    1    4    4    0    0  0.88666722116E+01  0.58091043978E+01  0.36832887904E+01  0.11221861993E+02  0.51100000000E-03 0.  1.
        -12    1    4    4    0    0  0.15575247304E+02 -0.23182145498E+01  0.11140874271E+02  0.19289414890E+02  0.00000000000E+00 0.  1.
</event>
<event>
 8    1  0.5331800E-011  0.9118800E+02  0.7816164E-02  0.1184000E+00
        -11   -1    0    0    0    0  0.00000000000E+00  0.00000000000E+00  0.45593999997E+02  0.45594000000E+02  0.51100000000E-03 0. -1.
         11   -1    0    0    0    0 -0.00000000000E+00 -0.00000000000E+00 -0.45593999997E+02  0.45594000000E+02  0.51100000000E-03 0.  1.
         23    2    1    2    0    0 -0.71054273576E-14  0.17763568394E-14  0.00000000000E+00  0.91188000000E+02  0.91188000000E+02 0.  0.
    9900012    2    3    3    0    0  0.30062628813E+02 -0.11804858099E+02 -0.28991498862E+02  0.47787270374E+02  0.19999996941E+02 0.  0.
         12    1    3    3    0    0 -0.30062628813E+02  0.11804858099E+02  0.28991498862E+02  0.43400729626E+02  0.00000000000E+00 0. -1.
         11    1    4    4    0    0  0.43799098649E+00 -0.59078036509E+01 -0.10781165809E+02  0.12301524968E+02  0.51100000000E-03 0. -1.
        -11    1    4    4    0    0  0.22572126951E+02 -0.31376356802E+01 -0.12429450672E+02  0.25958368921E+02  0.51100000000E-03 0.  1.
         12    1    4    4    0    0  0.70525108749E+01 -0.27594187678E+01 -0.57808823800E+01  0.95273764840E+01  0.00000000000E+00 0. -1.
</event>
<event>
 8    1  0.5331800E-011  0.9118800E+02  0.7816164E-02  0.1184000E+00
        -11   -1    0    0    0    0  0.00000000000E+00  0.00000000000E+00  0.45593999997E+02  0.45594000000E+02  0.51100000000E-03 0. -1.
         11   -1    0    0    0    0 -0.00000000000E+00 -0.00000000000E+00 -0.45593999997E+02  0.45594000000E+02  0.51100000000E-03 0.  1.
         23    2    1    2    0    0 -0.35527136788E-14 -0.17763568394E-14  0.00000000000E+00  0.91188000000E+02  0.91188000000E+02 0.  0.
    9900012    2    3    3    0    0  0.29255885622E+02 -0.11940785024E+02  0.29751191079E+02  0.47787279256E+02  0.20000037439E+02 0.  0.
        -12    1    3    3    0    0 -0.29255885622E+02  0.11940785024E+02 -0.29751191079E+02  0.43400720744E+02  0.00000000000E+00 0.  1.
         11    1    4    4    0    0  0.17018535459E+01  0.15818112536E+01  0.21933431586E+01  0.31951818111E+01  0.51100000000E-03 0. -1.
        -11    1    4    4    0    0  0.10061651763E+02  0.46610340480E+00  0.17161349523E+02  0.19898894600E+02  0.51100000000E-03 0.  1.
        -12    1    4    4    0    0  0.17492380313E+02 -0.13988699682E+02  0.10396498397E+02  0.24693202845E+02  0.00000000000E+00 0.  1.
</event>
<event>
 8    1  0.5331800E-011  0.9118800E+02  0.7816164E-02  0.1184000E+00
        -11   -1    0    0    0    0  0.00000000000E+00  0.00000000000E+00  0.45593999997E+02  0.45594000000E+02  0.51100000000E-03 0.  1.
         11   -1    0    0    0    0 -0.00000000000E+00 -0.00000000000E+00 -0.45593999997E+02  0.45594000000E+02  0.51100000000E-03 0. -1.
         23    2    1    2    0    0  0.00000000000E+00  0.00000000000E+00  0.00000000000E+00  0.91188000000E+02  0.91188000000E+02 0.  0.
    9900012    2    3    3    0    0 -0.40422053220E+02  0.97290707729E+01 -0.12450945973E+02  0.47787271201E+02  0.20000000714E+02 0.  0.
        -12    1    3    3    0    0  0.40422053220E+02 -0.97290707729E+01  0.12450945973E+02  0.43400728799E+02  0.00000000000E+00 0.  1.
         11    1    4    4    0    0 -0.84315824786E+01  0.12947262912E-01 -0.43295961395E+01  0.94782463419E+01  0.51100000000E-03 0. -1.
        -11    1    4    4    0    0 -0.23275699835E+02 -0.49868963001E+00 -0.14771158603E+01  0.23327853859E+02  0.51100000000E-03 0.  1.
        -12    1    4    4    0    0 -0.87147709069E+01  0.10214813140E+02 -0.66442339728E+01  0.14981171000E+02  0.00000000000E+00 0.  1.
</event>
<event>
 8    1  0.5331800E-011  0.9118800E+02  0.7816164E-02  0.1184000E+00
        -11   -1    0    0    0    0  0.00000000000E+00  0.00000000000E+00  0.45593999997E+02  0.45594000000E+02  0.51100000000E-03 0. -1.
         11   -1    0    0    0    0 -0.00000000000E+00 -0.00000000000E+00 -0.45593999997E+02  0.45594000000E+02  0.51100000000E-03 0.  1.
         23    2    1    2    0    0 -0.17763568394E-14  0.00000000000E+00  0.00000000000E+00  0.91188000000E+02  0.91188000000E+02 0.  0.
    9900012    2    3    3    0    0  0.11593094374E+02 -0.13531307488E+02 -0.39574326914E+02  0.47787268782E+02  0.19999989687E+02 0.  0.
         12    1    3    3    0    0 -0.11593094374E+02  0.13531307488E+02  0.39574326914E+02  0.43400731218E+02  0.00000000000E+00 0. -1.
         11    1    4    4    0    0  0.14558454848E+02 -0.38959555175E+01 -0.16391447230E+02  0.22266715508E+02  0.51100000000E-03 0. -1.
        -11    1    4    4    0    0 -0.61163216371E+00 -0.43881744549E+01 -0.14010915654E+02  0.14694758477E+02  0.51100000000E-03 0.  1.
         12    1    4    4    0    0 -0.23537283104E+01 -0.52471775153E+01 -0.91719640299E+01  0.10825794798E+02  0.00000000000E+00 0. -1.
</event>
<event>
 8    1  0.5331800E-011  0.9118800E+02  0.7816164E-02  0.1184000E+00
        -11   -1    0    0    0    0  0.00000000000E+00  0.00000000000E+00  0.45593999997E+02  0.45594000000E+02  0.51100000000E-03 0. -1.
         11   -1    0    0    0    0 -0.00000000000E+00 -0.00000000000E+00 -0.45593999997E+02  0.45594000000E+02  0.51100000000E-03 0.  1.
         23    2    1    2    0    0  0.00000000000E+00  0.00000000000E+00  0.44408920985E-15  0.91188000000E+02  0.91188000000E+02 0.  0.
    9900012    2    3    3    0    0  0.38508116772E+02  0.19620937920E+02 -0.39707608368E+01  0.47787271852E+02  0.20000003680E+02 0.  0.
        -12    1    3    3    0    0 -0.38508116772E+02 -0.19620937920E+02  0.39707608368E+01  0.43400728148E+02  0.00000000000E+00 0.  1.
         11    1    4    4    0    0  0.87466306141E+01  0.47339508464E+00  0.38443435322E+01  0.95659096515E+01  0.51100000000E-03 0. -1.
        -11    1    4    4    0    0  0.22833276273E+02  0.15444426235E+02 -0.11086119746E+02  0.29711796620E+02  0.51100000000E-03 0.  1.
        -12    1    4    4    0    0  0.69282098843E+01  0.37031166008E+01  0.32710153774E+01  0.85095655799E+01  0.00000000000E+00 0.  1.
</event>
<event>
 8    1  0.5331800E-011  0.9118800E+02  0.7816164E-02  0.1184000E+00
        -11   -1    0    0    0    0  0.00000000000E+00  0.00000000000E+00  0.45593999997E+02  0.45594000000E+02  0.51100000000E-03 0. -1.
         11   -1    0    0    0    0 -0.00000000000E+00 -0.00000000000E+00 -0.45593999997E+02  0.45594000000E+02  0.51100000000E-03 0.  1.
         23    2    1    2    0    0 -0.35527136788E-14  0.00000000000E+00  0.00000000000E+00  0.91188000000E+02  0.91188000000E+02 0.  0.
    9900012    2    3    3    0    0 -0.22756655028E+02  0.26947228297E+02 -0.25290412485E+02  0.47787269308E+02  0.19999992081E+02 0.  0.
         12    1    3    3    0    0  0.22756655028E+02 -0.26947228297E+02  0.25290412485E+02  0.43400730692E+02  0.00000000000E+00 0. -1.
         11    1    4    4    0    0 -0.22889334208E+01  0.75260135633E+00 -0.42707047186E+01  0.49035236372E+01  0.51100000000E-03 0.  1.
        -11    1    4    4    0    0  0.14149706807E+01 -0.33998551834E+00 -0.44977598872E+01  0.47273223334E+01  0.51100000000E-03 0. -1.
        -12    1    4    4    0    0 -0.21882692288E+02  0.26534612459E+02 -0.16521947879E+02  0.38156423337E+02  0.00000000000E+00 0.  1.
</event>
<event>
 8    1  0.5331800E-011  0.9118800E+02  0.7816164E-02  0.1184000E+00
        -11   -1    0    0    0    0  0.00000000000E+00  0.00000000000E+00  0.45593999997E+02  0.45594000000E+02  0.51100000000E-03 0. -1.
         11   -1    0    0    0    0 -0.00000000000E+00 -0.00000000000E+00 -0.45593999997E+02  0.45594000000E+02  0.51100000000E-03 0.  1.
         23    2    1    2    0    0  0.00000000000E+00  0.00000000000E+00 -0.71054273576E-14  0.91188000000E+02  0.91188000000E+02 0.  0.
    9900012    2    3    3    0    0  0.15187028717E+02 -0.16679400754E+02 -0.37077957319E+02  0.47787272244E+02  0.20000005471E+02 0.  0.
         12    1    3    3    0    0 -0.15187028717E+02  0.16679400754E+02  0.37077957319E+02  0.43400727756E+02  0.00000000000E+00 0. -1.
         11    1    4    4    0    0  0.39648698728E+00 -0.37233071258E+00  0.83878585715E+00  0.99969698703E+00  0.51100000000E-03 0. -1.
        -11    1    4    4    0    0  0.99972240738E+00 -0.25405118074E+01  0.12793285740E+01  0.30150169149E+01  0.51100000000E-03 0.  1.
        -12    1    4    4    0    0  0.13790819323E+02 -0.13766558234E+02 -0.39196071750E+02  0.43772558342E+02  0.00000000000E+00 0.  1.
</event>
<event>
 8    1  0.5331800E-011  0.9118800E+02  0.7816164E-02  0.1184000E+00
        -11   -1    0    0    0    0  0.00000000000E+00  0.00000000000E+00  0.45593999997E+02  0.45594000000E+02  0.51100000000E-03 0. -1.
         11   -1    0    0    0    0 -0.00000000000E+00 -0.00000000000E+00 -0.45593999997E+02  0.45594000000E+02  0.51100000000E-03 0.  1.
         23    2    1    2    0    0 -0.71054273576E-14  0.00000000000E+00  0.00000000000E+00  0.91188000000E+02  0.91188000000E+02 0.  0.
    9900012    2    3    3    0    0 -0.31844194785E+02  0.26914623976E+02  0.12048802258E+02  0.47787270039E+02  0.19999995416E+02 0.  0.
        -12    1    3    3    0    0  0.31844194785E+02 -0.26914623976E+02 -0.12048802258E+02  0.43400729961E+02  0.00000000000E+00 0.  1.
         11    1    4    4    0    0 -0.14918192988E+02  0.36418389283E+01  0.80216356195E+01  0.17325187187E+02  0.51100000000E-03 0. -1.
        -11    1    4    4    0    0 -0.53680290987E+01  0.24658634855E+01 -0.13524336726E+01  0.60601399516E+01  0.51100000000E-03 0.  1.
         12    1    4    4    0    0 -0.11557972699E+02  0.20806921562E+02  0.53796003114E+01  0.24401942900E+02  0.00000000000E+00 0. -1.
</event>
<event>
 8    1  0.5331800E-011  0.9118800E+02  0.7816164E-02  0.1184000E+00
        -11   -1    0    0    0    0  0.00000000000E+00  0.00000000000E+00  0.45593999997E+02  0.45594000000E+02  0.51100000000E-03 0. -1.
         11   -1    0    0    0    0 -0.00000000000E+00 -0.00000000000E+00 -0.45593999997E+02  0.45594000000E+02  0.51100000000E-03 0.  1.
         23    2    1    2    0    0  0.35527136788E-14  0.00000000000E+00  0.00000000000E+00  0.91188000000E+02  0.91188000000E+02 0.  0.
    9900012    2    3    3    0    0  0.31908016454E+02  0.22201587895E+02  0.19302623667E+02  0.47787270749E+02  0.19999998655E+02 0.  0.
        -12    1    3    3    0    0 -0.31908016454E+02 -0.22201587895E+02 -0.19302623667E+02  0.43400729251E+02  0.00000000000E+00 0.  1.
         11    1    4    4    0    0  0.31114878078E+02  0.15709984145E+02  0.16802967750E+02  0.38694689107E+02  0.51100000000E-03 0. -1.
        -11    1    4    4    0    0 -0.11007759473E+01  0.35188052277E+01 -0.13002860585E+01  0.39095321986E+01  0.51100000000E-03 0.  1.
         12    1    4    4    0    0  0.18939143233E+01  0.29727985225E+01  0.37999419759E+01  0.51830494440E+01  0.00000000000E+00 0. -1.
</event>
<event>
 8    1  0.5331800E-011  0.9118800E+02  0.7816164E-02  0.1184000E+00
        -11   -1    0    0    0    0  0.00000000000E+00  0.00000000000E+00  0.45593999997E+02  0.45594000000E+02  0.51100000000E-03 0.  1.
         11   -1    0    0    0    0 -0.00000000000E+00 -0.00000000000E+00 -0.45593999997E+02  0.45594000000E+02  0.51100000000E-03 0. -1.
         23    2    1    2    0    0  0.00000000000E+00 -0.35527136788E-14  0.00000000000E+00  0.91188000000E+02  0.91188000000E+02 0.  0.
    9900012    2    3    3    0    0 -0.20337567622E+02  0.28238110706E+02 -0.25934842910E+02  0.47787266943E+02  0.19999981302E+02 0.  0.
         12    1    3    3    0    0  0.20337567622E+02 -0.28238110706E+02  0.25934842910E+02  0.43400733057E+02  0.00000000000E+00 0. -1.
         11    1    4    4    0    0 -0.46398005675E+01  0.16916656520E+02 -0.16126416341E+02  0.23827763667E+02  0.51100000000E-03 0. -1.
        -11    1    4    4    0    0 -0.72938192542E+01  0.29999422457E+01  0.98493532699E+00  0.79479274437E+01  0.51100000000E-03 0.  1.
         12    1    4    4    0    0 -0.84039478007E+01  0.83215119411E+01 -0.10793361897E+02  0.16011575833E+02  0.00000000000E+00 0. -1.
</event>
<event>
 8    1  0.5331800E-011  0.9118800E+02  0.7816164E-02  0.1184000E+00
        -11   -1    0    0    0    0  0.00000000000E+00  0.00000000000E+00  0.45593999997E+02  0.45594000000E+02  0.51100000000E-03 0.  1.
         11   -1    0    0    0    0 -0.00000000000E+00 -0.00000000000E+00 -0.45593999997E+02  0.45594000000E+02  0.51100000000E-03 0. -1.
         23    2    1    2    0    0  0.00000000000E+00  0.00000000000E+00 -0.22204460493E-15  0.91188000000E+02  0.91188000000E+02 0.  0.
    9900012    2    3    3    0    0 -0.42345291172E+02 -0.94997497758E+01 -0.50447350697E+00  0.47787269318E+02  0.19999992127E+02 0.  0.
        -12    1    3    3    0    0  0.42345291172E+02  0.94997497758E+01  0.50447350697E+00  0.43400730682E+02  0.00000000000E+00 0.  1.
         11    1    4    4    0    0 -0.45074148812E+01  0.19807009327E+01 -0.39044666798E+01  0.62836952035E+01  0.51100000000E-03 0. -1.
        -11    1    4    4    0    0 -0.31252591565E+02 -0.11317790500E+02  0.70419322699E+01  0.33976545905E+02  0.51100000000E-03 0.  1.
        -12    1    4    4    0    0 -0.65852847261E+01 -0.16266020859E+00 -0.36419390971E+01  0.75270282087E+01  0.00000000000E+00 0.  1.
</event>
<event>
 8    1  0.5331800E-011  0.9118800E+02  0.7816164E-02  0.1184000E+00
        -11   -1    0    0    0    0  0.00000000000E+00  0.00000000000E+00  0.45593999997E+02  0.45594000000E+02  0.51100000000E-03 0.  1.
         11   -1    0    0    0    0 -0.00000000000E+00 -0.00000000000E+00 -0.45593999997E+02  0.45594000000E+02  0.51100000000E-03 0. -1.
         23    2    1    2    0    0  0.00000000000E+00  0.00000000000E+00  0.00000000000E+00  0.91188000000E+02  0.91188000000E+02 0.  0.
    9900012    2    3    3    0    0 -0.54025865132E+01  0.41916086229E+02 -0.98730531547E+01  0.47787269541E+02  0.19999993146E+02 0.  0.
         12    1    3    3    0    0  0.54025865132E+01 -0.41916086229E+02  0.98730531547E+01  0.43400730459E+02  0.00000000000E+00 0. -1.
         11    1    4    4    0    0 -0.10510384084E+00  0.33906712038E+01 -0.35024437502E+01  0.48759420130E+01  0.51100000000E-03 0. -1.
        -11    1    4    4    0    0 -0.95096602455E+01  0.10872905150E+02 -0.27864300791E+01  0.14711148740E+02  0.51100000000E-03 0.  1.
        -12    1    4    4    0    0  0.42121775732E+01  0.27652509875E+02 -0.35841793254E+01  0.28200178789E+02  0.00000000000E+00 0.  1.
</event>
<event>
 8    1  0.5331800E-011  0.9118800E+02  0.7816164E-02  0.1184000E+00
        -11   -1    0    0    0    0  0.00000000000E+00  0.00000000000E+00  0.45593999997E+02  0.45594000000E+02  0.51100000000E-03 0.  1.
         11   -1    0    0    0    0 -0.00000000000E+00 -0.00000000000E+00 -0.45593999997E+02  0.45594000000E+02  0.51100000000E-03 0. -1.
         23    2    1    2    0    0  0.00000000000E+00  0.00000000000E+00  0.00000000000E+00  0.91188000000E+02  0.91188000000E+02 0.  0.
    9900012    2    3    3    0    0  0.67702031341E+01  0.42805003920E+02  0.23490482779E+01  0.47787285272E+02  0.20000064869E+02 0.  0.
         12    1    3    3    0    0 -0.67702031341E+01 -0.42805003920E+02 -0.23490482779E+01  0.43400714728E+02  0.00000000000E+00 0. -1.
         11    1    4    4    0    0  0.85766219881E-02  0.32754385750E+02  0.42984748284E+01  0.33035234910E+02  0.51100000000E-03 0. -1.
        -11    1    4    4    0    0  0.15258079685E+01  0.56932694622E+01  0.27220021544E+01  0.64923572850E+01  0.51100000000E-03 0.  1.
         12    1    4    4    0    0  0.52358185436E+01  0.43573487075E+01 -0.46714287049E+01  0.82596930770E+01  0.00000000000E+00 0. -1.
</event>
<event>
 8    1  0.5331800E-011  0.9118800E+02  0.7816164E-02  0.1184000E+00
        -11   -1    0    0    0    0  0.00000000000E+00  0.00000000000E+00  0.45593999997E+02  0.45594000000E+02  0.51100000000E-03 0.  1.
         11   -1    0    0    0    0 -0.00000000000E+00 -0.00000000000E+00 -0.45593999997E+02  0.45594000000E+02  0.51100000000E-03 0. -1.
         23    2    1    2    0    0 -0.35527136788E-14  0.00000000000E+00  0.00000000000E+00  0.91188000000E+02  0.91188000000E+02 0.  0.
    9900012    2    3    3    0    0 -0.20351853864E+02 -0.36770537810E+02 -0.10832959337E+02  0.47787269424E+02  0.19999992613E+02 0.  0.
         12    1    3    3    0    0  0.20351853864E+02  0.36770537810E+02  0.10832959337E+02  0.43400730576E+02  0.00000000000E+00 0. -1.
         11    1    4    4    0    0 -0.15449963664E+02 -0.14176458261E+02 -0.26649914572E+01  0.21137065212E+02  0.51100000000E-03 0. -1.
        -11    1    4    4    0    0 -0.32986392703E+01 -0.23308363619E+02 -0.70678349019E+01  0.24578753550E+02  0.51100000000E-03 0.  1.
        -12    1    4    4    0    0 -0.16032509299E+01  0.71428407025E+00 -0.11001329779E+01  0.20714506623E+01  0.00000000000E+00 0.  1.
</event>
<event>
 8    1  0.5331800E-011  0.9118800E+02  0.7816164E-02  0.1184000E+00
        -11   -1    0    0    0    0  0.00000000000E+00  0.00000000000E+00  0.45593999997E+02  0.45594000000E+02  0.51100000000E-03 0. -1.
         11   -1    0    0    0    0 -0.00000000000E+00 -0.00000000000E+00 -0.45593999997E+02  0.45594000000E+02  0.51100000000E-03 0.  1.
         23    2    1    2    0    0  0.00000000000E+00  0.00000000000E+00  0.00000000000E+00  0.91188000000E+02  0.91188000000E+02 0.  0.
    9900012    2    3    3    0    0  0.35647957676E+02 -0.12473863763E+02  0.21383383398E+02  0.47787271329E+02  0.20000001296E+02 0.  0.
        -12    1    3    3    0    0 -0.35647957676E+02  0.12473863763E+02 -0.21383383398E+02  0.43400728671E+02  0.00000000000E+00 0.  1.
         11    1    4    4    0    0  0.31341234504E+02 -0.11272990355E+02  0.22154774361E+02  0.40002341419E+02  0.51100000000E-03 0. -1.
        -11    1    4    4    0    0  0.10999213103E+01 -0.28727829660E+01 -0.23178968899E+01  0.38516691333E+01  0.51100000000E-03 0.  1.
         12    1    4    4    0    0  0.32068018616E+01  0.16719095578E+01  0.15465059269E+01  0.39332607759E+01  0.00000000000E+00 0. -1.
</event>
<event>
 8    1  0.5331800E-011  0.9118800E+02  0.7816164E-02  0.1184000E+00
        -11   -1    0    0    0    0  0.00000000000E+00  0.00000000000E+00  0.45593999997E+02  0.45594000000E+02  0.51100000000E-03 0. -1.
         11   -1    0    0    0    0 -0.00000000000E+00 -0.00000000000E+00 -0.45593999997E+02  0.45594000000E+02  0.51100000000E-03 0.  1.
         23    2    1    2    0    0  0.44408920985E-15  0.00000000000E+00  0.00000000000E+00  0.91188000000E+02  0.91188000000E+02 0.  0.
    9900012    2    3    3    0    0 -0.37975510323E+01  0.91241672792E+01 -0.42260519899E+02  0.47787270000E+02  0.19999995240E+02 0.  0.
         12    1    3    3    0    0  0.37975510323E+01 -0.91241672792E+01  0.42260519899E+02  0.43400730000E+02  0.00000000000E+00 0. -1.
         11    1    4    4    0    0 -0.22088778454E+01 -0.28895887995E+01 -0.27574644972E+00  0.36475883995E+01  0.51100000000E-03 0. -1.
        -11    1    4    4    0    0  0.29234766161E+00  0.98809001783E+01 -0.24398805645E+02  0.26325261113E+02  0.51100000000E-03 0.  1.
         12    1    4    4    0    0 -0.18810208486E+01  0.21328559004E+01 -0.17585967804E+02  0.17814420488E+02  0.00000000000E+00 0. -1.
</event>
<event>
 8    1  0.5331800E-011  0.9118800E+02  0.7816164E-02  0.1184000E+00
        -11   -1    0    0    0    0  0.00000000000E+00  0.00000000000E+00  0.45593999997E+02  0.45594000000E+02  0.51100000000E-03 0.  1.
         11   -1    0    0    0    0 -0.00000000000E+00 -0.00000000000E+00 -0.45593999997E+02  0.45594000000E+02  0.51100000000E-03 0. -1.
         23    2    1    2    0    0  0.00000000000E+00  0.00000000000E+00  0.00000000000E+00  0.91188000000E+02  0.91188000000E+02 0.  0.
    9900012    2    3    3    0    0 -0.22860275164E+02 -0.34279368312E+02 -0.13636448189E+02  0.47787308857E+02  0.20000172402E+02 0.  0.
         12    1    3    3    0    0  0.22860275164E+02  0.34279368312E+02  0.13636448189E+02  0.43400691143E+02  0.00000000000E+00 0. -1.
         11    1    4    4    0    0  0.12386741593E+01  0.35918922944E+00 -0.24821510325E+01  0.27972137181E+01  0.51100000000E-03 0. -1.
        -11    1    4    4    0    0 -0.16680163514E+02 -0.31263019081E+02 -0.90023172266E+01  0.36560168662E+02  0.51100000000E-03 0.  1.
        -12    1    4    4    0    0 -0.74187858093E+01 -0.33755384610E+01 -0.21519799295E+01  0.84299264767E+01  0.00000000000E+00 0.  1.
</event>
<event>
 8    1  0.5331800E-011  0.9118800E+02  0.7816164E-02  0.1184000E+00
        -11   -1    0    0    0    0  0.00000000000E+00  0.00000000000E+00  0.45593999997E+02  0.45594000000E+02  0.51100000000E-03 0.  1.
         11   -1    0    0    0    0 -0.00000000000E+00 -0.00000000000E+00 -0.45593999997E+02  0.45594000000E+02  0.51100000000E-03 0. -1.
         23    2    1    2    0    0  0.35527136788E-14  0.00000000000E+00 -0.88817841970E-15  0.91188000000E+02  0.91188000000E+02 0.  0.
    9900012    2    3    3    0    0 -0.23846355485E+02  0.35630046131E+02 -0.67434709514E+01  0.47787271231E+02  0.20000000849E+02 0.  0.
         12    1    3    3    0    0  0.23846355485E+02 -0.35630046131E+02  0.67434709514E+01  0.43400728769E+02  0.00000000000E+00 0. -1.
         11    1    4    4    0    0 -0.56235705861E+01  0.13985954656E+02  0.46268837736E+01  0.15768307693E+02  0.51100000000E-03 0.  1.
        -11    1    4    4    0    0 -0.12919594838E+02  0.12572884305E+02 -0.11725418917E+02  0.21505320262E+02  0.51100000000E-03 0. -1.
         12    1    4    4    0    0 -0.53031900613E+01  0.90712071698E+01  0.35506419233E+00  0.10513643275E+02  0.00000000000E+00 0. -1.
</event>
<event>
 8    1  0.5331800E-011  0.9118800E+02  0.7816164E-02  0.1184000E+00
        -11   -1    0    0    0    0  0.00000000000E+00  0.00000000000E+00  0.45593999997E+02  0.45594000000E+02  0.51100000000E-03 0. -1.
         11   -1    0    0    0    0 -0.00000000000E+00 -0.00000000000E+00 -0.45593999997E+02  0.45594000000E+02  0.51100000000E-03 0.  1.
         23    2    1    2    0    0  0.00000000000E+00  0.00000000000E+00 -0.35527136788E-14  0.91188000000E+02  0.91188000000E+02 0.  0.
    9900012    2    3    3    0    0 -0.30273044209E+02  0.68120508997E+01 -0.30344052665E+02  0.47787276789E+02  0.20000026190E+02 0.  0.
         12    1    3    3    0    0  0.30273044209E+02 -0.68120508997E+01  0.30344052665E+02  0.43400723211E+02  0.00000000000E+00 0. -1.
         11    1    4    4    0    0 -0.27659820135E+02  0.67186510825E+01 -0.20045175038E+02  0.34814005298E+02  0.51100000000E-03 0. -1.
        -11    1    4    4    0    0  0.51804359172E+00  0.33154882641E+01 -0.37614767603E+01  0.50407875647E+01  0.51100000000E-03 0.  1.
         12    1    4    4    0    0 -0.31312676653E+01 -0.32220884469E+01 -0.65374008665E+01  0.79324839262E+01  0.00000000000E+00 0. -1.
</event>
<event>
 8    1  0.5331800E-011  0.9118800E+02  0.7816164E-02  0.1184000E+00
        -11   -1    0    0    0    0  0.00000000000E+00  0.00000000000E+00  0.45593999997E+02  0.45594000000E+02  0.51100000000E-03 0. -1.
         11   -1    0    0    0    0 -0.00000000000E+00 -0.00000000000E+00 -0.45593999997E+02  0.45594000000E+02  0.51100000000E-03 0.  1.
         23    2    1    2    0    0  0.00000000000E+00 -0.35527136788E-14  0.00000000000E+00  0.91188000000E+02  0.91188000000E+02 0.  0.
    9900012    2    3    3    0    0  0.26686536983E+02 -0.26987041116E+02 -0.21051125892E+02  0.47787290955E+02  0.20000090780E+02 0.  0.
         12    1    3    3    0    0 -0.26686536983E+02  0.26987041116E+02  0.21051125892E+02  0.43400709045E+02  0.00000000000E+00 0. -1.
         11    1    4    4    0    0  0.77208345696E+01 -0.17455005317E+02 -0.11306454000E+02  0.22183877014E+02  0.51100000000E-03 0. -1.
        -11    1    4    4    0    0  0.18622909588E+02 -0.96313073477E+01 -0.11430988600E+02  0.23879747557E+02  0.51100000000E-03 0.  1.
         12    1    4    4    0    0  0.34279282549E+00  0.99271548965E-01  0.16863167086E+01  0.17236663840E+01  0.00000000000E+00 0. -1.
</event>
<event>
 8    1  0.5331800E-011  0.9118800E+02  0.7816164E-02  0.1184000E+00
        -11   -1    0    0    0    0  0.00000000000E+00  0.00000000000E+00  0.45593999997E+02  0.45594000000E+02  0.51100000000E-03 0.  1.
         11   -1    0    0    0    0 -0.00000000000E+00 -0.00000000000E+00 -0.45593999997E+02  0.45594000000E+02  0.51100000000E-03 0. -1.
         23    2    1    2    0    0  0.00000000000E+00 -0.35527136788E-14 -0.66613381478E-15  0.91188000000E+02  0.91188000000E+02 0.  0.
    9900012    2    3    3    0    0 -0.31934614037E+02 -0.29338325790E+02 -0.17509902814E+01  0.47787275342E+02  0.20000019596E+02 0.  0.
         12    1    3    3    0    0  0.31934614037E+02  0.29338325790E+02  0.17509902814E+01  0.43400724658E+02  0.00000000000E+00 0. -1.
         11    1    4    4    0    0 -0.10058321021E+02 -0.25889297914E+01  0.10595875588E+01  0.10440072092E+02  0.51100000000E-03 0. -1.
        -11    1    4    4    0    0 -0.22046958907E+02 -0.20093920527E+02 -0.51878415122E+01  0.30277842377E+02  0.51100000000E-03 0.  1.
        -12    1    4    4    0    0  0.17066589069E+00 -0.66554754711E+01  0.23772636719E+01  0.70693608734E+01  0.00000000000E+00 0.  1.
</event>
<event>
 8    1  0.5331800E-011  0.9118800E+02  0.7816164E-02  0.1184000E+00
        -11   -1    0    0    0    0  0.00000000000E+00  0.00000000000E+00  0.45593999997E+02  0.45594000000E+02  0.51100000000E-03 0. -1.
         11   -1    0    0    0    0 -0.00000000000E+00 -0.00000000000E+00 -0.45593999997E+02  0.45594000000E+02  0.51100000000E-03 0.  1.
         23    2    1    2    0    0  0.00000000000E+00  0.00000000000E+00  0.00000000000E+00  0.91188000000E+02  0.91188000000E+02 0.  0.
    9900012    2    3    3    0    0 -0.26623450564E+02 -0.27096904622E+02  0.20989834908E+02  0.47787268099E+02  0.19999986572E+02 0.  0.
        -12    1    3    3    0    0  0.26623450564E+02  0.27096904622E+02 -0.20989834908E+02  0.43400731901E+02  0.00000000000E+00 0.  1.
         11    1    4    4    0    0 -0.14407594568E+02 -0.15028070852E+02  0.17424839633E+02  0.27148604591E+02  0.51100000000E-03 0. -1.
        -11    1    4    4    0    0  0.18106377613E+01 -0.15978589840E+01 -0.89531541676E+00  0.25754907090E+01  0.51100000000E-03 0.  1.
         12    1    4    4    0    0 -0.14026493757E+02 -0.10470974787E+02  0.44603106926E+01  0.18063172799E+02  0.00000000000E+00 0. -1.
</event>
<event>
 8    1  0.5331800E-011  0.9118800E+02  0.7816164E-02  0.1184000E+00
        -11   -1    0    0    0    0  0.00000000000E+00  0.00000000000E+00  0.45593999997E+02  0.45594000000E+02  0.51100000000E-03 0. -1.
         11   -1    0    0    0    0 -0.00000000000E+00 -0.00000000000E+00 -0.45593999997E+02  0.45594000000E+02  0.51100000000E-03 0.  1.
         23    2    1    2    0    0 -0.88817841970E-15  0.00000000000E+00  0.00000000000E+00  0.91188000000E+02  0.91188000000E+02 0.  0.
    9900012    2    3    3    0    0  0.60294483992E+01 -0.19395072502E+02 -0.38354917512E+02  0.47787276703E+02  0.20000025800E+02 0.  0.
         12    1    3    3    0    0 -0.60294483992E+01  0.19395072502E+02  0.38354917512E+02  0.43400723297E+02  0.00000000000E+00 0. -1.
         11    1    4    4    0    0  0.74908731624E+00 -0.10219178982E+02 -0.14168972291E+02  0.17485780707E+02  0.51100000000E-03 0. -1.
        -11    1    4    4    0    0  0.48479023511E-01 -0.10794369431E+02 -0.21803396472E+02  0.24329177125E+02  0.51100000000E-03 0.  1.
         12    1    4    4    0    0  0.52318820595E+01  0.16184759109E+01 -0.23825487492E+01  0.59723188713E+01  0.00000000000E+00 0. -1.
</event>
<event>
 8    1  0.5331800E-011  0.9118800E+02  0.7816164E-02  0.1184000E+00
        -11   -1    0    0    0    0  0.00000000000E+00  0.00000000000E+00  0.45593999997E+02  0.45594000000E+02  0.51100000000E-03 0. -1.
         11   -1    0    0    0    0 -0.00000000000E+00 -0.00000000000E+00 -0.45593999997E+02  0.45594000000E+02  0.51100000000E-03 0.  1.
         23    2    1    2    0    0  0.35527136788E-14  0.00000000000E+00  0.00000000000E+00  0.91188000000E+02  0.91188000000E+02 0.  0.
    9900012    2    3    3    0    0 -0.18874000906E+02 -0.30625780282E+02 -0.24278733598E+02  0.47787271513E+02  0.20000002135E+02 0.  0.
         12    1    3    3    0    0  0.18874000906E+02  0.30625780282E+02  0.24278733598E+02  0.43400728487E+02  0.00000000000E+00 0. -1.
         11    1    4    4    0    0  0.30784697256E+01 -0.90018633572E+01 -0.42755008414E+01  0.10430264975E+02  0.51100000000E-03 0. -1.
        -11    1    4    4    0    0 -0.13224814917E+02 -0.11328298832E+02 -0.14931326882E+02  0.22938408984E+02  0.51100000000E-03 0.  1.
         12    1    4    4    0    0 -0.87276557149E+01 -0.10295618093E+02 -0.50719058753E+01  0.14418597554E+02  0.00000000000E+00 0. -1.
</event>
<event>
 8    1  0.6081125E-011  0.9118800E+02  0.7816164E-02  0.1184000E+00
        -11   -1    0    0    0    0  0.00000000000E+00  0.00000000000E+00  0.45593999997E+02  0.45594000000E+02  0.51100000000E-03 0. -1.
         11   -1    0    0    0    0 -0.00000000000E+00 -0.00000000000E+00 -0.45593999997E+02  0.45594000000E+02  0.51100000000E-03 0.  1.
         23    2    1    2    0    0 -0.88817841970E-15  0.00000000000E+00  0.00000000000E+00  0.91188000000E+02  0.91188000000E+02 0.  0.
    9900012    2    3    3    0    0 -0.48909296069E+01  0.23643122186E+02 -0.36065269298E+02  0.47787284929E+02  0.20000063305E+02 0.  0.
         12    1    3    3    0    0  0.48909296069E+01 -0.23643122186E+02  0.36065269298E+02  0.43400715071E+02  0.00000000000E+00 0. -1.
         11    1    4    4    0    0  0.46859442400E+01  0.53521584538E+01 -0.33509315533E+01  0.78633590832E+01  0.51100000000E-03 0. -1.
        -11    1    4    4    0    0 -0.83617734179E+01  0.59963248925E+01 -0.17769627179E+02  0.20533748251E+02  0.51100000000E-03 0.  1.
        -12    1    4    4    0    0 -0.12151004290E+01  0.12294638839E+02 -0.14944710567E+02  0.19390177595E+02  0.00000000000E+00 0.  1.
</event>
<event>
 8    1  0.5331800E-011  0.9118800E+02  0.7816164E-02  0.1184000E+00
        -11   -1    0    0    0    0  0.00000000000E+00  0.00000000000E+00  0.45593999997E+02  0.45594000000E+02  0.51100000000E-03 0. -1.
         11   -1    0    0    0    0 -0.00000000000E+00 -0.00000000000E+00 -0.45593999997E+02  0.45594000000E+02  0.51100000000E-03 0.  1.
         23    2    1    2    0    0 -0.88817841970E-15  0.00000000000E+00  0.00000000000E+00  0.91188000000E+02  0.91188000000E+02 0.  0.
    9900012    2    3    3    0    0 -0.78274274638E+01  0.40903772493E+02  0.12216242328E+02  0.47787264966E+02  0.19999972287E+02 0.  0.
        -12    1    3    3    0    0  0.78274274638E+01 -0.40903772493E+02 -0.12216242328E+02  0.43400735034E+02  0.00000000000E+00 0.  1.
         11    1    4    4    0    0 -0.13461649315E+01  0.53544847221E+01 -0.14824281694E+01  0.57166651293E+01  0.51100000000E-03 0. -1.
        -11    1    4    4    0    0  0.21315556643E+00  0.32241292473E+02  0.10140587880E+02  0.33799081326E+02  0.51100000000E-03 0.  1.
        -12    1    4    4    0    0 -0.66944180988E+01  0.33079952977E+01  0.35580826175E+01  0.82715185114E+01  0.00000000000E+00 0.  1.
</event>
<event>
 8    1  0.5331800E-011  0.9118800E+02  0.7816164E-02  0.1184000E+00
        -11   -1    0    0    0    0  0.00000000000E+00  0.00000000000E+00  0.45593999997E+02  0.45594000000E+02  0.51100000000E-03 0. -1.
         11   -1    0    0    0    0 -0.00000000000E+00 -0.00000000000E+00 -0.45593999997E+02  0.45594000000E+02  0.51100000000E-03 0.  1.
         23    2    1    2    0    0 -0.17763568394E-14  0.71054273576E-14 -0.35527136788E-14  0.91188000000E+02  0.91188000000E+02 0.  0.
    9900012    2    3    3    0    0  0.88736274863E+01  0.35450669078E+02 -0.23412223430E+02  0.47787269490E+02  0.19999992912E+02 0.  0.
         12    1    3    3    0    0 -0.88736274863E+01 -0.35450669078E+02  0.23412223430E+02  0.43400730510E+02  0.00000000000E+00 0. -1.
         11    1    4    4    0    0  0.22384355415E+01  0.13579112129E+01 -0.38035432112E+01  0.46175164057E+01  0.51100000000E-03 0. -1.
        -11    1    4    4    0    0 -0.91950127473E+00 -0.16044264405E+01 -0.25455623847E+00  0.18666724236E+01  0.51100000000E-03 0.  1.
        -12    1    4    4    0    0  0.75546932195E+01  0.35697184306E+02 -0.19354123980E+02  0.41303080661E+02  0.00000000000E+00 0.  1.
</event>
<event>
 8    1  0.5331800E-011  0.9118800E+02  0.7816164E-02  0.1184000E+00
        -11   -1    0    0    0    0  0.00000000000E+00  0.00000000000E+00  0.45593999997E+02  0.45594000000E+02  0.51100000000E-03 0. -1.
         11   -1    0    0    0    0 -0.00000000000E+00 -0.00000000000E+00 -0.45593999997E+02  0.45594000000E+02  0.51100000000E-03 0.  1.
         23    2    1    2    0    0  0.00000000000E+00  0.00000000000E+00  0.00000000000E+00  0.91188000000E+02  0.91188000000E+02 0.  0.
    9900012    2    3    3    0    0 -0.98639659226E+01  0.73954937536E+01 -0.41612881430E+02  0.47787273595E+02  0.20000011629E+02 0.  0.
         12    1    3    3    0    0  0.98639659226E+01 -0.73954937536E+01  0.41612881430E+02  0.43400726405E+02  0.00000000000E+00 0. -1.
         11    1    4    4    0    0 -0.12420048217E+02  0.30561399144E+01 -0.39016000568E+02  0.41059053684E+02  0.51100000000E-03 0. -1.
        -11    1    4    4    0    0  0.10504514193E+01  0.37298851346E+01 -0.31693088740E+01  0.50059974332E+01  0.51100000000E-03 0.  1.
         12    1    4    4    0    0  0.15056308748E+01  0.60946870467E+00  0.57242801178E+00  0.17222224774E+01  0.00000000000E+00 0. -1.
</event>
<event>
 8    1  0.5331800E-011  0.9118800E+02  0.7816164E-02  0.1184000E+00
        -11   -1    0    0    0    0  0.00000000000E+00  0.00000000000E+00  0.45593999997E+02  0.45594000000E+02  0.51100000000E-03 0. -1.
         11   -1    0    0    0    0 -0.00000000000E+00 -0.00000000000E+00 -0.45593999997E+02  0.45594000000E+02  0.51100000000E-03 0.  1.
         23    2    1    2    0    0  0.00000000000E+00  0.00000000000E+00  0.00000000000E+00  0.91188000000E+02  0.91188000000E+02 0.  0.
    9900012    2    3    3    0    0  0.45676040247E+01 -0.32340371744E+02  0.28580776176E+02  0.47787269385E+02  0.19999992436E+02 0.  0.
        -12    1    3    3    0    0 -0.45676040247E+01  0.32340371744E+02 -0.28580776176E+02  0.43400730615E+02  0.00000000000E+00 0.  1.
         11    1    4    4    0    0  0.30304606820E+01  0.15965648136E+01  0.44371000751E+01  0.56054052919E+01  0.51100000000E-03 0.  1.
        -11    1    4    4    0    0  0.91348734354E+00 -0.24092038197E+02  0.20562913371E+02  0.31687444992E+02  0.51100000000E-03 0. -1.
        -12    1    4    4    0    0  0.62365599914E+00 -0.98448983607E+01  0.35807627303E+01  0.10494419101E+02  0.00000000000E+00 0.  1.
</event>
<event>
 8    1  0.5331800E-011  0.9118800E+02  0.7816164E-02  0.1184000E+00
        -11   -1    0    0    0    0  0.00000000000E+00  0.00000000000E+00  0.45593999997E+02  0.45594000000E+02  0.51100000000E-03 0. -1.
         11   -1    0    0    0    0 -0.00000000000E+00 -0.00000000000E+00 -0.45593999997E+02  0.45594000000E+02  0.51100000000E-03 0.  1.
         23    2    1    2    0    0 -0.35527136788E-14 -0.35527136788E-14 -0.71054273576E-14  0.91188000000E+02  0.91188000000E+02 0.  0.
    9900012    2    3    3    0    0 -0.13552763463E+02 -0.25791335344E+02 -0.32167591709E+02  0.47787258846E+02  0.19999944384E+02 0.  0.
         12    1    3    3    0    0  0.13552763463E+02  0.25791335344E+02  0.32167591709E+02  0.43400741154E+02  0.00000000000E+00 0. -1.
         11    1    4    4    0    0 -0.12313432411E+02 -0.13930033743E+02 -0.25031444018E+02  0.31180757652E+02  0.51100000000E-03 0.  1.
        -11    1    4    4    0    0  0.39342233199E+01 -0.44306418281E+01 -0.31931879877E+01  0.67309100369E+01  0.51100000000E-03 0. -1.
        -12    1    4    4    0    0 -0.51735543718E+01 -0.74306597725E+01 -0.39429597035E+01  0.98755911579E+01  0.00000000000E+00 0.  1.
</event>
<event>
 8    1  0.5331800E-011  0.9118800E+02  0.7816164E-02  0.1184000E+00
        -11   -1    0    0    0    0  0.00000000000E+00  0.00000000000E+00  0.45593999997E+02  0.45594000000E+02  0.51100000000E-03 0. -1.
         11   -1    0    0    0    0 -0.00000000000E+00 -0.00000000000E+00 -0.45593999997E+02  0.45594000000E+02  0.51100000000E-03 0.  1.
         23    2    1    2    0    0  0.00000000000E+00  0.35527136788E-14  0.00000000000E+00  0.91188000000E+02  0.91188000000E+02 0.  0.
    9900012    2    3    3    0    0  0.69274649859E+01 -0.24397660853E+02 -0.35219129724E+02  0.47787277371E+02  0.20000028846E+02 0.  0.
         12    1    3    3    0    0 -0.69274649859E+01  0.24397660853E+02  0.35219129724E+02  0.43400722629E+02  0.00000000000E+00 0. -1.
         11    1    4    4    0    0  0.70100343294E+01 -0.23766904439E+01 -0.20108402598E+01  0.76702488601E+01  0.51100000000E-03 0. -1.
        -11    1    4    4    0    0  0.33262975812E+00 -0.13362013866E+02 -0.23994655999E+02  0.27466298875E+02  0.51100000000E-03 0.  1.
         12    1    4    4    0    0 -0.41519910156E+00 -0.86589565425E+01 -0.92136334648E+01  0.12650729636E+02  0.00000000000E+00 0. -1.
</event>
<event>
 8    1  0.5331800E-011  0.9118800E+02  0.7816164E-02  0.1184000E+00
        -11   -1    0    0    0    0  0.00000000000E+00  0.00000000000E+00  0.45593999997E+02  0.45594000000E+02  0.51100000000E-03 0. -1.
         11   -1    0    0    0    0 -0.00000000000E+00 -0.00000000000E+00 -0.45593999997E+02  0.45594000000E+02  0.51100000000E-03 0.  1.
         23    2    1    2    0    0  0.00000000000E+00  0.71054273576E-14  0.00000000000E+00  0.91188000000E+02  0.91188000000E+02 0.  0.
    9900012    2    3    3    0    0 -0.11087759649E+02  0.32558792187E+02  0.26469030276E+02  0.47787275047E+02  0.20000018247E+02 0.  0.
        -12    1    3    3    0    0  0.11087759649E+02 -0.32558792187E+02 -0.26469030276E+02  0.43400724953E+02  0.00000000000E+00 0.  1.
         11    1    4    4    0    0 -0.43263474537E+01 -0.11047605649E+01  0.35999810570E+01  0.57356466129E+01  0.51100000000E-03 0. -1.
        -11    1    4    4    0    0  0.14190011833E+01  0.23434512309E+01  0.73313459162E+00  0.28359856524E+01  0.51100000000E-03 0.  1.
         12    1    4    4    0    0 -0.81804133789E+01  0.31320101521E+02  0.22135914628E+02  0.39215642781E+02  0.00000000000E+00 0. -1.
</event>
<event>
 8    1  0.5331800E-011  0.9118800E+02  0.7816164E-02  0.1184000E+00
        -11   -1    0    0    0    0  0.00000000000E+00  0.00000000000E+00  0.45593999997E+02  0.45594000000E+02  0.51100000000E-03 0. -1.
         11   -1    0    0    0    0 -0.00000000000E+00 -0.00000000000E+00 -0.45593999997E+02  0.45594000000E+02  0.51100000000E-03 0.  1.
         23    2    1    2    0    0  0.00000000000E+00  0.00000000000E+00  0.00000000000E+00  0.91188000000E+02  0.91188000000E+02 0.  0.
    9900012    2    3    3    0    0 -0.20793108506E+02 -0.18949615662E+02  0.33048178702E+02  0.47787269469E+02  0.19999992817E+02 0.  0.
        -12    1    3    3    0    0  0.20793108506E+02  0.18949615662E+02 -0.33048178702E+02  0.43400730531E+02  0.00000000000E+00 0.  1.
         11    1    4    4    0    0 -0.15869082255E+02 -0.21183792203E+02  0.26858879315E+02  0.37709153027E+02  0.51100000000E-03 0.  1.
        -11    1    4    4    0    0 -0.44682044083E+01  0.21013531494E+01  0.12199518710E+01  0.50861398448E+01  0.51100000000E-03 0. -1.
        -12    1    4    4    0    0 -0.45582184277E+00  0.13282339194E+00  0.49693475163E+01  0.49919765969E+01  0.00000000000E+00 0.  1.
</event>
<event>
 8    1  0.5331800E-011  0.9118800E+02  0.7816164E-02  0.1184000E+00
        -11   -1    0    0    0    0  0.00000000000E+00  0.00000000000E+00  0.45593999997E+02  0.45594000000E+02  0.51100000000E-03 0. -1.
         11   -1    0    0    0    0 -0.00000000000E+00 -0.00000000000E+00 -0.45593999997E+02  0.45594000000E+02  0.51100000000E-03 0.  1.
         23    2    1    2    0    0 -0.22204460493E-15  0.00000000000E+00 -0.71054273576E-14  0.91188000000E+02  0.91188000000E+02 0.  0.
    9900012    2    3    3    0    0  0.11566310978E+01 -0.22532702044E+02  0.37075095916E+02  0.47787271964E+02  0.20000004193E+02 0.  0.
        -12    1    3    3    0    0 -0.11566310978E+01  0.22532702044E+02 -0.37075095916E+02  0.43400728036E+02  0.00000000000E+00 0.  1.
         11    1    4    4    0    0  0.33131524834E+01  0.13376480183E+01  0.14672427918E+01  0.38625229151E+01  0.51100000000E-03 0. -1.
        -11    1    4    4    0    0 -0.18778613454E+01 -0.13006760657E+02  0.11429685836E+02  0.17416655953E+02  0.51100000000E-03 0.  1.
         12    1    4    4    0    0 -0.27866004012E+00 -0.10863589406E+02  0.24178167288E+02  0.26508093096E+02  0.00000000000E+00 0. -1.
</event>
<event>
 8    1  0.5331800E-011  0.9118800E+02  0.7816164E-02  0.1184000E+00
        -11   -1    0    0    0    0  0.00000000000E+00  0.00000000000E+00  0.45593999997E+02  0.45594000000E+02  0.51100000000E-03 0.  1.
         11   -1    0    0    0    0 -0.00000000000E+00 -0.00000000000E+00 -0.45593999997E+02  0.45594000000E+02  0.51100000000E-03 0. -1.
         23    2    1    2    0    0  0.00000000000E+00  0.17763568394E-14  0.00000000000E+00  0.91188000000E+02  0.91188000000E+02 0.  0.
    9900012    2    3    3    0    0  0.39898635200E+02 -0.12929873387E+02 -0.11159760703E+02  0.47787274481E+02  0.20000015667E+02 0.  0.
         12    1    3    3    0    0 -0.39898635200E+02  0.12929873387E+02  0.11159760703E+02  0.43400725519E+02  0.00000000000E+00 0. -1.
         11    1    4    4    0    0  0.14702395526E+02 -0.34431905402E+01 -0.13268852978E+02  0.20101702786E+02  0.51100000000E-03 0. -1.
        -11    1    4    4    0    0  0.60023400852E+01 -0.67919195244E-01 -0.98338200630E+00  0.60827411540E+01  0.51100000000E-03 0.  1.
         12    1    4    4    0    0  0.19193899590E+02 -0.94187636516E+01  0.30924742811E+01  0.21602830540E+02  0.00000000000E+00 0. -1.
</event>
<event>
 8    1  0.5331800E-011  0.9118800E+02  0.7816164E-02  0.1184000E+00
        -11   -1    0    0    0    0  0.00000000000E+00  0.00000000000E+00  0.45593999997E+02  0.45594000000E+02  0.51100000000E-03 0. -1.
         11   -1    0    0    0    0 -0.00000000000E+00 -0.00000000000E+00 -0.45593999997E+02  0.45594000000E+02  0.51100000000E-03 0.  1.
         23    2    1    2    0    0  0.00000000000E+00  0.00000000000E+00  0.35527136788E-14  0.91188000000E+02  0.91188000000E+02 0.  0.
    9900012    2    3    3    0    0  0.33838357210E+01  0.40290777534E+02 -0.15774233718E+02  0.47787267888E+02  0.19999985607E+02 0.  0.
         12    1    3    3    0    0 -0.33838357210E+01 -0.40290777534E+02  0.15774233718E+02  0.43400732112E+02  0.00000000000E+00 0. -1.
         11    1    4    4    0    0  0.75627758913E+00  0.62373868330E+01  0.40278895193E+01  0.74632998424E+01  0.51100000000E-03 0. -1.
        -11    1    4    4    0    0 -0.59529429866E+00  0.26906186517E+02 -0.12756017373E+02  0.29782767294E+02  0.51100000000E-03 0.  1.
         12    1    4    4    0    0  0.32228524305E+01  0.71472041842E+01 -0.70461058640E+01  0.10541200752E+02  0.00000000000E+00 0. -1.
</event>
<event>
 8    1  0.5331800E-011  0.9118800E+02  0.7816164E-02  0.1184000E+00
        -11   -1    0    0    0    0  0.00000000000E+00  0.00000000000E+00  0.45593999997E+02  0.45594000000E+02  0.51100000000E-03 0.  1.
         11   -1    0    0    0    0 -0.00000000000E+00 -0.00000000000E+00 -0.45593999997E+02  0.45594000000E+02  0.51100000000E-03 0. -1.
         23    2    1    2    0    0  0.00000000000E+00  0.00000000000E+00  0.00000000000E+00  0.91188000000E+02  0.91188000000E+02 0.  0.
    9900012    2    3    3    0    0  0.35686416784E+02 -0.11004780618E+02 -0.22113289503E+02  0.47787272909E+02  0.20000008503E+02 0.  0.
         12    1    3    3    0    0 -0.35686416784E+02  0.11004780618E+02  0.22113289503E+02  0.43400727091E+02  0.00000000000E+00 0. -1.
         11    1    4    4    0    0  0.11828147211E+02  0.47344948916E+01 -0.80114976012E+01  0.15050069847E+02  0.51100000000E-03 0. -1.
        -11    1    4    4    0    0  0.18437010428E+02 -0.13313941975E+02 -0.14175065247E+02  0.26797702876E+02  0.51100000000E-03 0.  1.
        -12    1    4    4    0    0  0.54212591460E+01 -0.24253335344E+01  0.73273345090E-01  0.59395001864E+01  0.00000000000E+00 0.  1.
</event>
<event>
 8    1  0.5331800E-011  0.9118800E+02  0.7816164E-02  0.1184000E+00
        -11   -1    0    0    0    0  0.00000000000E+00  0.00000000000E+00  0.45593999997E+02  0.45594000000E+02  0.51100000000E-03 0. -1.
         11   -1    0    0    0    0 -0.00000000000E+00 -0.00000000000E+00 -0.45593999997E+02  0.45594000000E+02  0.51100000000E-03 0.  1.
         23    2    1    2    0    0  0.00000000000E+00  0.00000000000E+00  0.00000000000E+00  0.91188000000E+02  0.91188000000E+02 0.  0.
    9900012    2    3    3    0    0 -0.24713020549E+02  0.49087794483E+01  0.35338275012E+02  0.47787272113E+02  0.20000004872E+02 0.  0.
        -12    1    3    3    0    0  0.24713020549E+02 -0.49087794483E+01 -0.35338275012E+02  0.43400727887E+02  0.00000000000E+00 0.  1.
         11    1    4    4    0    0 -0.10826528252E+02 -0.36064362241E+01  0.39390088058E+01  0.12072111947E+02  0.51100000000E-03 0.  1.
        -11    1    4    4    0    0 -0.66345169591E+01  0.30960297589E+01  0.19006654162E+02  0.20367992495E+02  0.51100000000E-03 0. -1.
        -12    1    4    4    0    0 -0.72519753377E+01  0.54191859134E+01  0.12392612043E+02  0.15347167671E+02  0.00000000000E+00 0.  1.
</event>
<event>
 8    1  0.5331800E-011  0.9118800E+02  0.7816164E-02  0.1184000E+00
        -11   -1    0    0    0    0  0.00000000000E+00  0.00000000000E+00  0.45593999997E+02  0.45594000000E+02  0.51100000000E-03 0. -1.
         11   -1    0    0    0    0 -0.00000000000E+00 -0.00000000000E+00 -0.45593999997E+02  0.45594000000E+02  0.51100000000E-03 0.  1.
         23    2    1    2    0    0  0.88817841970E-15 -0.35527136788E-14 -0.71054273576E-14  0.91188000000E+02  0.91188000000E+02 0.  0.
    9900012    2    3    3    0    0  0.72266014066E+01  0.23044288599E+02 -0.36060482304E+02  0.47787292760E+02  0.20000099011E+02 0.  0.
         12    1    3    3    0    0 -0.72266014066E+01 -0.23044288599E+02  0.36060482304E+02  0.43400707240E+02  0.00000000000E+00 0. -1.
         11    1    4    4    0    0 -0.55235724114E+01  0.41258722207E+01 -0.73180165243E+01  0.10054155354E+02  0.51100000000E-03 0. -1.
        -11    1    4    4    0    0  0.67181134591E-01  0.51395277116E+01 -0.99685605669E+01  0.11215679134E+02  0.51100000000E-03 0.  1.
         12    1    4    4    0    0  0.12682992683E+02  0.13778888667E+02 -0.18773905213E+02  0.26517458272E+02  0.00000000000E+00 0. -1.
</event>
<event>
 8    1  0.5331800E-011  0.9118800E+02  0.7816164E-02  0.1184000E+00
        -11   -1    0    0    0    0  0.00000000000E+00  0.00000000000E+00  0.45593999997E+02  0.45594000000E+02  0.51100000000E-03 0. -1.
         11   -1    0    0    0    0 -0.00000000000E+00 -0.00000000000E+00 -0.45593999997E+02  0.45594000000E+02  0.51100000000E-03 0.  1.
         23    2    1    2    0    0 -0.35527136788E-14 -0.17763568394E-14  0.00000000000E+00  0.91188000000E+02  0.91188000000E+02 0.  0.
    9900012    2    3    3    0    0 -0.31394762106E+02 -0.87111379822E+01 -0.28672422064E+02  0.47787276508E+02  0.20000024909E+02 0.  0.
         12    1    3    3    0    0  0.31394762106E+02  0.87111379822E+01  0.28672422064E+02  0.43400723492E+02  0.00000000000E+00 0. -1.
         11    1    4    4    0    0 -0.81116945144E+01 -0.66941293859E+01 -0.18376890332E+02  0.21173593333E+02  0.51100000000E-03 0. -1.
        -11    1    4    4    0    0 -0.82445796361E+01 -0.12995060446E+01  0.49449165033E-01  0.83465115358E+01  0.51100000000E-03 0.  1.
         12    1    4    4    0    0 -0.15038487955E+02 -0.71750255175E+00 -0.10344980898E+02  0.18267171638E+02  0.00000000000E+00 0. -1.
</event>
<event>
 8    1  0.5331800E-011  0.9118800E+02  0.7816164E-02  0.1184000E+00
        -11   -1    0    0    0    0  0.00000000000E+00  0.00000000000E+00  0.45593999997E+02  0.45594000000E+02  0.51100000000E-03 0. -1.
         11   -1    0    0    0    0 -0.00000000000E+00 -0.00000000000E+00 -0.45593999997E+02  0.45594000000E+02  0.51100000000E-03 0.  1.
         23    2    1    2    0    0 -0.35527136788E-14  0.35527136788E-14  0.00000000000E+00  0.91188000000E+02  0.91188000000E+02 0.  0.
    9900012    2    3    3    0    0  0.23847094901E+02 -0.25943104204E+02  0.25335645311E+02  0.47787268275E+02  0.19999987374E+02 0.  0.
        -12    1    3    3    0    0 -0.23847094901E+02  0.25943104204E+02 -0.25335645311E+02  0.43400731725E+02  0.00000000000E+00 0.  1.
         11    1    4    4    0    0  0.14226322916E+02 -0.14782042479E+02  0.98410041664E+01  0.22753953653E+02  0.51100000000E-03 0. -1.
        -11    1    4    4    0    0 -0.83234138947E-02 -0.13060636976E+01  0.10183386048E+02  0.10266802001E+02  0.51100000000E-03 0.  1.
        -12    1    4    4    0    0  0.96290953985E+01 -0.98549980271E+01  0.53112550967E+01  0.14766512622E+02  0.00000000000E+00 0.  1.
</event>
<event>
 8    1  0.5331800E-011  0.9118800E+02  0.7816164E-02  0.1184000E+00
        -11   -1    0    0    0    0  0.00000000000E+00  0.00000000000E+00  0.45593999997E+02  0.45594000000E+02  0.51100000000E-03 0. -1.
         11   -1    0    0    0    0 -0.00000000000E+00 -0.00000000000E+00 -0.45593999997E+02  0.45594000000E+02  0.51100000000E-03 0.  1.
         23    2    1    2    0    0  0.00000000000E+00  0.00000000000E+00 -0.35527136788E-14  0.91188000000E+02  0.91188000000E+02 0.  0.
    9900012    2    3    3    0    0  0.16333135690E+02  0.35521083953E+02 -0.18844220197E+02  0.47787270034E+02  0.19999995395E+02 0.  0.
         12    1    3    3    0    0 -0.16333135690E+02 -0.35521083953E+02  0.18844220197E+02  0.43400729966E+02  0.00000000000E+00 0. -1.
         11    1    4    4    0    0  0.16006149246E+02  0.25803656985E+02 -0.21847985248E+02  0.37408020359E+02  0.51100000000E-03 0.  1.
        -11    1    4    4    0    0 -0.41843567309E+00  0.35470813868E+01  0.19690978952E+01  0.40785072709E+01  0.51100000000E-03 0. -1.
        -12    1    4    4    0    0  0.74542211693E+00  0.61703455818E+01  0.10346671557E+01  0.63007424050E+01  0.00000000000E+00 0.  1.
</event>
<event>
 8    1  0.5331800E-011  0.9118800E+02  0.7816164E-02  0.1184000E+00
        -11   -1    0    0    0    0  0.00000000000E+00  0.00000000000E+00  0.45593999997E+02  0.45594000000E+02  0.51100000000E-03 0. -1.
         11   -1    0    0    0    0 -0.00000000000E+00 -0.00000000000E+00 -0.45593999997E+02  0.45594000000E+02  0.51100000000E-03 0.  1.
         23    2    1    2    0    0  0.00000000000E+00  0.00000000000E+00  0.71054273576E-14  0.91188000000E+02  0.91188000000E+02 0.  0.
    9900012    2    3    3    0    0  0.41036890427E+01  0.11588231296E+02  0.41623271709E+02  0.47787261342E+02  0.19999955762E+02 0.  0.
        -12    1    3    3    0    0 -0.41036890427E+01 -0.11588231296E+02 -0.41623271709E+02  0.43400738658E+02  0.00000000000E+00 0.  1.
         11    1    4    4    0    0  0.75250534235E+01  0.64273378803E+00  0.20134900182E+02  0.21504737649E+02  0.51100000000E-03 0. -1.
        -11    1    4    4    0    0 -0.86530740395E-01 -0.18778308566E+01  0.24807862765E+01  0.31125611811E+01  0.51100000000E-03 0.  1.
         12    1    4    4    0    0 -0.33348336404E+01  0.12823328365E+02  0.19007585251E+02  0.23169962512E+02  0.00000000000E+00 0. -1.
</event>
<event>
 8    1  0.5331800E-011  0.9118800E+02  0.7816164E-02  0.1184000E+00
        -11   -1    0    0    0    0  0.00000000000E+00  0.00000000000E+00  0.45593999997E+02  0.45594000000E+02  0.51100000000E-03 0. -1.
         11   -1    0    0    0    0 -0.00000000000E+00 -0.00000000000E+00 -0.45593999997E+02  0.45594000000E+02  0.51100000000E-03 0.  1.
         23    2    1    2    0    0 -0.17763568394E-14  0.88817841970E-15  0.00000000000E+00  0.91188000000E+02  0.91188000000E+02 0.  0.
    9900012    2    3    3    0    0 -0.92211840409E+01  0.72746702913E+01  0.41781238612E+02  0.47787274627E+02  0.20000016332E+02 0.  0.
        -12    1    3    3    0    0  0.92211840409E+01 -0.72746702913E+01 -0.41781238612E+02  0.43400725373E+02  0.00000000000E+00 0.  1.
         11    1    4    4    0    0 -0.75680663854E+01  0.10802025702E+02  0.15571987280E+02  0.20407012917E+02  0.51100000000E-03 0. -1.
        -11    1    4    4    0    0  0.25506558280E+00 -0.12188090997E+01  0.22833243041E+02  0.22867171712E+02  0.51100000000E-03 0.  1.
         12    1    4    4    0    0 -0.19081832383E+01 -0.23085463114E+01  0.33760082908E+01  0.45130899971E+01  0.00000000000E+00 0. -1.
</event>
<event>
 8    1  0.5331800E-011  0.9118800E+02  0.7816164E-02  0.1184000E+00
        -11   -1    0    0    0    0  0.00000000000E+00  0.00000000000E+00  0.45593999997E+02  0.45594000000E+02  0.51100000000E-03 0. -1.
         11   -1    0    0    0    0 -0.00000000000E+00 -0.00000000000E+00 -0.45593999997E+02  0.45594000000E+02  0.51100000000E-03 0.  1.
         23    2    1    2    0    0  0.00000000000E+00  0.00000000000E+00  0.71054273576E-14  0.91188000000E+02  0.91188000000E+02 0.  0.
    9900012    2    3    3    0    0  0.25332789568E+02  0.50379486620E+00  0.35236629263E+02  0.47787261776E+02  0.19999957742E+02 0.  0.
        -12    1    3    3    0    0 -0.25332789568E+02 -0.50379486620E+00 -0.35236629263E+02  0.43400738224E+02  0.00000000000E+00 0.  1.
         11    1    4    4    0    0  0.20745479326E+01  0.26064308441E+01 -0.10228486441E+01  0.34847453967E+01  0.51100000000E-03 0. -1.
        -11    1    4    4    0    0  0.76076254003E+01  0.27356959771E+01  0.66691028438E+01  0.10480311527E+02  0.51100000000E-03 0.  1.
         12    1    4    4    0    0  0.15650616235E+02 -0.48383319551E+01  0.29590375063E+02  0.33822204852E+02  0.00000000000E+00 0. -1.
</event>
<event>
 8    1  0.5331800E-011  0.9118800E+02  0.7816164E-02  0.1184000E+00
        -11   -1    0    0    0    0  0.00000000000E+00  0.00000000000E+00  0.45593999997E+02  0.45594000000E+02  0.51100000000E-03 0. -1.
         11   -1    0    0    0    0 -0.00000000000E+00 -0.00000000000E+00 -0.45593999997E+02  0.45594000000E+02  0.51100000000E-03 0.  1.
         23    2    1    2    0    0  0.00000000000E+00  0.00000000000E+00  0.00000000000E+00  0.91188000000E+02  0.91188000000E+02 0.  0.
    9900012    2    3    3    0    0  0.20202426826E+02  0.50441446342E+01 -0.38079408880E+02  0.47787276211E+02  0.20000023559E+02 0.  0.
         12    1    3    3    0    0 -0.20202426826E+02 -0.50441446342E+01  0.38079408880E+02  0.43400723789E+02  0.00000000000E+00 0. -1.
         11    1    4    4    0    0  0.10858804762E+02 -0.61151852309E+01 -0.25273143779E+02  0.28178731838E+02  0.51100000000E-03 0. -1.
        -11    1    4    4    0    0  0.52617671531E+01  0.64407949565E+01 -0.53620269227E+01  0.98955225343E+01  0.51100000000E-03 0.  1.
         12    1    4    4    0    0  0.40818549107E+01  0.47185349086E+01 -0.74442381779E+01  0.97130218390E+01  0.00000000000E+00 0. -1.
</event>
<event>
 8    1  0.5331800E-011  0.9118800E+02  0.7816164E-02  0.1184000E+00
        -11   -1    0    0    0    0  0.00000000000E+00  0.00000000000E+00  0.45593999997E+02  0.45594000000E+02  0.51100000000E-03 0. -1.
         11   -1    0    0    0    0 -0.00000000000E+00 -0.00000000000E+00 -0.45593999997E+02  0.45594000000E+02  0.51100000000E-03 0.  1.
         23    2    1    2    0    0  0.00000000000E+00  0.00000000000E+00 -0.71054273576E-14  0.91188000000E+02  0.91188000000E+02 0.  0.
    9900012    2    3    3    0    0  0.24439919743E+02  0.50908688261E+01 -0.35502066851E+02  0.47787269901E+02  0.19999994787E+02 0.  0.
         12    1    3    3    0    0 -0.24439919743E+02 -0.50908688261E+01  0.35502066851E+02  0.43400730099E+02  0.00000000000E+00 0. -1.
         11    1    4    4    0    0 -0.24223595846E+01 -0.93875604492E-01 -0.21179864506E+01  0.32190845674E+01  0.51100000000E-03 0. -1.
        -11    1    4    4    0    0  0.23570902175E+02  0.42634202983E+01 -0.33459145750E+02  0.41149466784E+02  0.51100000000E-03 0.  1.
         12    1    4    4    0    0  0.32913771522E+01  0.92132413223E+00  0.75065350093E-01  0.34187185496E+01  0.00000000000E+00 0. -1.
</event>
<event>
 8    1  0.5331800E-011  0.9118800E+02  0.7816164E-02  0.1184000E+00
        -11   -1    0    0    0    0  0.00000000000E+00  0.00000000000E+00  0.45593999997E+02  0.45594000000E+02  0.51100000000E-03 0. -1.
         11   -1    0    0    0    0 -0.00000000000E+00 -0.00000000000E+00 -0.45593999997E+02  0.45594000000E+02  0.51100000000E-03 0.  1.
         23    2    1    2    0    0  0.35527136788E-14  0.00000000000E+00  0.00000000000E+00  0.91188000000E+02  0.91188000000E+02 0.  0.
    9900012    2    3    3    0    0 -0.20602993612E+02  0.21536629910E+01 -0.38137930524E+02  0.47787270113E+02  0.19999995752E+02 0.  0.
         12    1    3    3    0    0  0.20602993612E+02 -0.21536629910E+01  0.38137930524E+02  0.43400729887E+02  0.00000000000E+00 0. -1.
         11    1    4    4    0    0  0.39361926632E+00  0.16671775623E+01  0.17928567836E+01  0.24796678928E+01  0.51100000000E-03 0. -1.
        -11    1    4    4    0    0 -0.15261015215E+02 -0.15085149986E+01 -0.28682132120E+02  0.32524435523E+02  0.51100000000E-03 0.  1.
         12    1    4    4    0    0 -0.57355976636E+01  0.19950004274E+01 -0.11248655188E+02  0.12783166697E+02  0.00000000000E+00 0. -1.
</event>
<event>
 8    1  0.5331800E-011  0.9118800E+02  0.7816164E-02  0.1184000E+00
        -11   -1    0    0    0    0  0.00000000000E+00  0.00000000000E+00  0.45593999997E+02  0.45594000000E+02  0.51100000000E-03 0. -1.
         11   -1    0    0    0    0 -0.00000000000E+00 -0.00000000000E+00 -0.45593999997E+02  0.45594000000E+02  0.51100000000E-03 0.  1.
         23    2    1    2    0    0 -0.35527136788E-14 -0.88817841970E-15  0.71054273576E-14  0.91188000000E+02  0.91188000000E+02 0.  0.
    9900012    2    3    3    0    0 -0.71267656132E+01 -0.56537740101E+01  0.42436627755E+02  0.47787270469E+02  0.19999997375E+02 0.  0.
        -12    1    3    3    0    0  0.71267656132E+01  0.56537740101E+01 -0.42436627755E+02  0.43400729531E+02  0.00000000000E+00 0.  1.
         11    1    4    4    0    0  0.11769384187E+01 -0.15440099470E+01  0.32639172457E+01  0.37976712345E+01  0.51100000000E-03 0. -1.
        -11    1    4    4    0    0  0.38184943036E+01  0.36902163873E+01  0.14124981066E+02  0.15090185092E+02  0.51100000000E-03 0.  1.
        -12    1    4    4    0    0 -0.12122198336E+02 -0.77999804504E+01  0.25047729443E+02  0.28899414142E+02  0.00000000000E+00 0.  1.
</event>
<event>
 8    1  0.5331800E-011  0.9118800E+02  0.7816164E-02  0.1184000E+00
        -11   -1    0    0    0    0  0.00000000000E+00  0.00000000000E+00  0.45593999997E+02  0.45594000000E+02  0.51100000000E-03 0. -1.
         11   -1    0    0    0    0 -0.00000000000E+00 -0.00000000000E+00 -0.45593999997E+02  0.45594000000E+02  0.51100000000E-03 0.  1.
         23    2    1    2    0    0  0.17763568394E-14 -0.17763568394E-14  0.00000000000E+00  0.91188000000E+02  0.91188000000E+02 0.  0.
    9900012    2    3    3    0    0 -0.13652649012E+02 -0.96480771357E+01  0.40051754912E+02  0.47787270870E+02  0.19999999204E+02 0.  0.
        -12    1    3    3    0    0  0.13652649012E+02  0.96480771357E+01 -0.40051754912E+02  0.43400729130E+02  0.00000000000E+00 0.  1.
         11    1    4    4    0    0 -0.85386459743E+01  0.18500821007E+01  0.17127941260E+02  0.19227523265E+02  0.51100000000E-03 0. -1.
        -11    1    4    4    0    0 -0.33572933764E+01 -0.75116592239E+00  0.30220103973E+00  0.34535481447E+01  0.51100000000E-03 0.  1.
         12    1    4    4    0    0 -0.17567096614E+01 -0.10746993314E+02  0.22621612613E+02  0.25106199460E+02  0.00000000000E+00 0. -1.
</event>
<event>
 8    1  0.5331800E-011  0.9118800E+02  0.7816164E-02  0.1184000E+00
        -11   -1    0    0    0    0  0.00000000000E+00  0.00000000000E+00  0.45593999997E+02  0.45594000000E+02  0.51100000000E-03 0.  1.
         11   -1    0    0    0    0 -0.00000000000E+00 -0.00000000000E+00 -0.45593999997E+02  0.45594000000E+02  0.51100000000E-03 0. -1.
         23    2    1    2    0    0 -0.71054273576E-14  0.00000000000E+00 -0.17763568394E-14  0.91188000000E+02  0.91188000000E+02 0.  0.
    9900012    2    3    3    0    0 -0.40991370628E+02  0.62104924259E+01 -0.12835895585E+02  0.47787275380E+02  0.20000019766E+02 0.  0.
        -12    1    3    3    0    0  0.40991370628E+02 -0.62104924259E+01  0.12835895585E+02  0.43400724620E+02  0.00000000000E+00 0.  1.
         11    1    4    4    0    0 -0.24457688177E+02  0.24467013701E+01 -0.37619039796E+01  0.24865976361E+02  0.51100000000E-03 0. -1.
        -11    1    4    4    0    0  0.21131808220E+00 -0.29588193416E+01 -0.81079844408E+00  0.30751685492E+01  0.51100000000E-03 0.  1.
        -12    1    4    4    0    0 -0.16745000532E+02  0.67226103974E+01 -0.82631931610E+01  0.19846130469E+02  0.00000000000E+00 0.  1.
</event>
<event>
 8    1  0.5331800E-011  0.9118800E+02  0.7816164E-02  0.1184000E+00
        -11   -1    0    0    0    0  0.00000000000E+00  0.00000000000E+00  0.45593999997E+02  0.45594000000E+02  0.51100000000E-03 0. -1.
         11   -1    0    0    0    0 -0.00000000000E+00 -0.00000000000E+00 -0.45593999997E+02  0.45594000000E+02  0.51100000000E-03 0.  1.
         23    2    1    2    0    0  0.00000000000E+00  0.00000000000E+00  0.00000000000E+00  0.91188000000E+02  0.91188000000E+02 0.  0.
    9900012    2    3    3    0    0 -0.10273842214E+02 -0.66435487574E+01 -0.41640544416E+02  0.47787268287E+02  0.19999987430E+02 0.  0.
         12    1    3    3    0    0  0.10273842214E+02  0.66435487574E+01  0.41640544416E+02  0.43400731713E+02  0.00000000000E+00 0. -1.
         11    1    4    4    0    0 -0.41075230823E+01 -0.71104972517E+01 -0.37500766215E+01  0.90274022823E+01  0.51100000000E-03 0. -1.
        -11    1    4    4    0    0 -0.10695215809E+01  0.22231402312E+00 -0.22875001876E+02  0.22901070085E+02  0.51100000000E-03 0.  1.
         12    1    4    4    0    0 -0.50967975505E+01  0.24463447119E+00 -0.15015465919E+02  0.15858795921E+02  0.00000000000E+00 0. -1.
</event>
<event>
 8    1  0.5331800E-011  0.9118800E+02  0.7816164E-02  0.1184000E+00
        -11   -1    0    0    0    0  0.00000000000E+00  0.00000000000E+00  0.45593999997E+02  0.45594000000E+02  0.51100000000E-03 0. -1.
         11   -1    0    0    0    0 -0.00000000000E+00 -0.00000000000E+00 -0.45593999997E+02  0.45594000000E+02  0.51100000000E-03 0.  1.
         23    2    1    2    0    0  0.44408920985E-15  0.00000000000E+00  0.35527136788E-14  0.91188000000E+02  0.91188000000E+02 0.  0.
    9900012    2    3    3    0    0 -0.27667344311E+01  0.38529628829E+02  0.19784747311E+02  0.47787270245E+02  0.19999996354E+02 0.  0.
        -12    1    3    3    0    0  0.27667344311E+01 -0.38529628829E+02 -0.19784747311E+02  0.43400729755E+02  0.00000000000E+00 0.  1.
         11    1    4    4    0    0 -0.12168857054E+00  0.21726698890E+02  0.13628531153E+02  0.25647633700E+02  0.51100000000E-03 0. -1.
        -11    1    4    4    0    0 -0.50053763550E+01  0.77483875539E+00  0.13976259786E+01  0.52542864586E+01  0.51100000000E-03 0.  1.
        -12    1    4    4    0    0  0.23603304945E+01  0.16028091184E+02  0.47585901804E+01  0.16885350086E+02  0.00000000000E+00 0.  1.
</event>
<event>
 8    1  0.5331800E-011  0.9118800E+02  0.7816164E-02  0.1184000E+00
        -11   -1    0    0    0    0  0.00000000000E+00  0.00000000000E+00  0.45593999997E+02  0.45594000000E+02  0.51100000000E-03 0. -1.
         11   -1    0    0    0    0 -0.00000000000E+00 -0.00000000000E+00 -0.45593999997E+02  0.45594000000E+02  0.51100000000E-03 0.  1.
         23    2    1    2    0    0  0.00000000000E+00  0.00000000000E+00 -0.35527136788E-14  0.91188000000E+02  0.91188000000E+02 0.  0.
    9900012    2    3    3    0    0 -0.14490685587E+02 -0.32655795902E+02 -0.24642287830E+02  0.47787270464E+02  0.19999997353E+02 0.  0.
         12    1    3    3    0    0  0.14490685587E+02  0.32655795902E+02  0.24642287830E+02  0.43400729536E+02  0.00000000000E+00 0. -1.
         11    1    4    4    0    0 -0.11488033328E+02 -0.18914093581E+02 -0.60883451048E+01  0.22951814572E+02  0.51100000000E-03 0. -1.
        -11    1    4    4    0    0 -0.13365641854E+01 -0.13682841684E+02 -0.12586037153E+02  0.18639068964E+02  0.51100000000E-03 0.  1.
         12    1    4    4    0    0 -0.16660880730E+01 -0.58860636485E-01 -0.59679055721E+01  0.61963869278E+01  0.00000000000E+00 0. -1.
</event>
<event>
 8    1  0.5331800E-011  0.9118800E+02  0.7816164E-02  0.1184000E+00
        -11   -1    0    0    0    0  0.00000000000E+00  0.00000000000E+00  0.45593999997E+02  0.45594000000E+02  0.51100000000E-03 0. -1.
         11   -1    0    0    0    0 -0.00000000000E+00 -0.00000000000E+00 -0.45593999997E+02  0.45594000000E+02  0.51100000000E-03 0.  1.
         23    2    1    2    0    0  0.00000000000E+00  0.55511151231E-15 -0.71054273576E-14  0.91188000000E+02  0.91188000000E+02 0.  0.
    9900012    2    3    3    0    0 -0.10778608091E+02  0.98588970139E+00  0.42029427051E+02  0.47787272943E+02  0.20000008655E+02 0.  0.
        -12    1    3    3    0    0  0.10778608091E+02 -0.98588970139E+00 -0.42029427051E+02  0.43400727057E+02  0.00000000000E+00 0.  1.
         11    1    4    4    0    0 -0.54355553448E+01 -0.32168903177E+01  0.14041332764E+02  0.15396514907E+02  0.51100000000E-03 0. -1.
        -11    1    4    4    0    0  0.22872809770E+01  0.76110232199E+01  0.13668706869E+02  0.15811163033E+02  0.51100000000E-03 0.  1.
        -12    1    4    4    0    0 -0.76303337232E+01 -0.34082432008E+01  0.14319387418E+02  0.16579595003E+02  0.00000000000E+00 0.  1.
</event>
<event>
 8    1  0.5331800E-011  0.9118800E+02  0.7816164E-02  0.1184000E+00
        -11   -1    0    0    0    0  0.00000000000E+00  0.00000000000E+00  0.45593999997E+02  0.45594000000E+02  0.51100000000E-03 0. -1.
         11   -1    0    0    0    0 -0.00000000000E+00 -0.00000000000E+00 -0.45593999997E+02  0.45594000000E+02  0.51100000000E-03 0.  1.
         23    2    1    2    0    0 -0.17763568394E-14  0.35527136788E-14  0.71054273576E-14  0.91188000000E+02  0.91188000000E+02 0.  0.
    9900012    2    3    3    0    0 -0.12118030656E+02 -0.25841129935E+02  0.32695820659E+02  0.47787224064E+02  0.19999785796E+02 0.  0.
        -12    1    3    3    0    0  0.12118030656E+02  0.25841129935E+02 -0.32695820659E+02  0.43400775936E+02  0.00000000000E+00 0.  1.
         11    1    4    4    0    0 -0.15542445027E+02 -0.21033499739E+02  0.30364369975E+02  0.40074563915E+02  0.51100000000E-03 0. -1.
        -11    1    4    4    0    0  0.15023826979E+01 -0.46743309342E+01  0.30922616211E+00  0.49195675149E+01  0.51100000000E-03 0.  1.
        -12    1    4    4    0    0  0.19220316737E+01 -0.13329926127E+00  0.20222245221E+01  0.27930926346E+01  0.00000000000E+00 0.  1.
</event>
<event>
 8    1  0.5331800E-011  0.9118800E+02  0.7816164E-02  0.1184000E+00
        -11   -1    0    0    0    0  0.00000000000E+00  0.00000000000E+00  0.45593999997E+02  0.45594000000E+02  0.51100000000E-03 0. -1.
         11   -1    0    0    0    0 -0.00000000000E+00 -0.00000000000E+00 -0.45593999997E+02  0.45594000000E+02  0.51100000000E-03 0.  1.
         23    2    1    2    0    0  0.00000000000E+00 -0.35527136788E-14  0.00000000000E+00  0.91188000000E+02  0.91188000000E+02 0.  0.
    9900012    2    3    3    0    0  0.98521523753E+01  0.24890885309E+02 -0.34161432606E+02  0.47787256279E+02  0.19999932677E+02 0.  0.
         12    1    3    3    0    0 -0.98521523753E+01 -0.24890885309E+02  0.34161432606E+02  0.43400743721E+02  0.00000000000E+00 0. -1.
         11    1    4    4    0    0  0.69688569503E+01  0.91485219325E+01 -0.13687929196E+02  0.17877914495E+02  0.51100000000E-03 0. -1.
        -11    1    4    4    0    0  0.48679782403E+01 -0.78920933560E+00 -0.29960473722E+01  0.57703001344E+01  0.51100000000E-03 0.  1.
        -12    1    4    4    0    0 -0.19846828154E+01  0.16531572712E+02 -0.17477456038E+02  0.24139041650E+02  0.00000000000E+00 0.  1.
</event>
<event>
 8    1  0.5331800E-011  0.9118800E+02  0.7816164E-02  0.1184000E+00
        -11   -1    0    0    0    0  0.00000000000E+00  0.00000000000E+00  0.45593999997E+02  0.45594000000E+02  0.51100000000E-03 0. -1.
         11   -1    0    0    0    0 -0.00000000000E+00 -0.00000000000E+00 -0.45593999997E+02  0.45594000000E+02  0.51100000000E-03 0.  1.
         23    2    1    2    0    0  0.71054273576E-14  0.00000000000E+00  0.00000000000E+00  0.91188000000E+02  0.91188000000E+02 0.  0.
    9900012    2    3    3    0    0 -0.34564104197E+02 -0.26166883091E+02  0.20591638977E+01  0.47787271601E+02  0.20000002538E+02 0.  0.
        -12    1    3    3    0    0  0.34564104197E+02  0.26166883091E+02 -0.20591638977E+01  0.43400728399E+02  0.00000000000E+00 0.  1.
         11    1    4    4    0    0 -0.32381869861E+02 -0.25730344443E+02  0.29371791610E+01  0.41463998150E+02  0.51100000000E-03 0. -1.
        -11    1    4    4    0    0 -0.21529456319E+01  0.22909018034E+01  0.63039517166E+00  0.32063693331E+01  0.51100000000E-03 0.  1.
         12    1    4    4    0    0 -0.29288703599E-01 -0.27274404513E+01 -0.15084104350E+01  0.31169041185E+01  0.00000000000E+00 0. -1.
</event>
<event>
 8    1  0.5331800E-011  0.9118800E+02  0.7816164E-02  0.1184000E+00
        -11   -1    0    0    0    0  0.00000000000E+00  0.00000000000E+00  0.45593999997E+02  0.45594000000E+02  0.51100000000E-03 0. -1.
         11   -1    0    0    0    0 -0.00000000000E+00 -0.00000000000E+00 -0.45593999997E+02  0.45594000000E+02  0.51100000000E-03 0.  1.
         23    2    1    2    0    0 -0.26645352591E-14  0.00000000000E+00  0.00000000000E+00  0.91188000000E+02  0.91188000000E+02 0.  0.
    9900012    2    3    3    0    0  0.74714883763E+01 -0.38545588317E+02  0.18494263623E+02  0.47787270695E+02  0.19999998407E+02 0.  0.
        -12    1    3    3    0    0 -0.74714883763E+01  0.38545588317E+02 -0.18494263623E+02  0.43400729305E+02  0.00000000000E+00 0.  1.
         11    1    4    4    0    0 -0.39384615082E+00 -0.76580507024E+01 -0.90399756701E-01  0.76687044361E+01  0.51100000000E-03 0. -1.
        -11    1    4    4    0    0 -0.41367947174E+01 -0.85219764673E+01  0.87553926879E+01  0.12899381955E+02  0.51100000000E-03 0.  1.
        -12    1    4    4    0    0  0.12002129245E+02 -0.22365561147E+02  0.98292706919E+01  0.27219184304E+02  0.00000000000E+00 0.  1.
</event>
<event>
 8    1  0.5331800E-011  0.9118800E+02  0.7816164E-02  0.1184000E+00
        -11   -1    0    0    0    0  0.00000000000E+00  0.00000000000E+00  0.45593999997E+02  0.45594000000E+02  0.51100000000E-03 0. -1.
         11   -1    0    0    0    0 -0.00000000000E+00 -0.00000000000E+00 -0.45593999997E+02  0.45594000000E+02  0.51100000000E-03 0.  1.
         23    2    1    2    0    0  0.17763568394E-14 -0.71054273576E-14 -0.35527136788E-14  0.91188000000E+02  0.91188000000E+02 0.  0.
    9900012    2    3    3    0    0  0.10735040934E+02 -0.32802359212E+02 -0.26313249672E+02  0.47787274407E+02  0.20000015330E+02 0.  0.
         12    1    3    3    0    0 -0.10735040934E+02  0.32802359212E+02  0.26313249672E+02  0.43400725593E+02  0.00000000000E+00 0. -1.
         11    1    4    4    0    0  0.17073080056E+01 -0.99462638711E+01  0.77826003416E+00  0.10121697217E+02  0.51100000000E-03 0. -1.
        -11    1    4    4    0    0  0.80769489037E+01 -0.14224636634E+02 -0.12122146033E+02  0.20359857948E+02  0.51100000000E-03 0.  1.
         12    1    4    4    0    0  0.95078402456E+00 -0.86314587067E+01 -0.14969363673E+02  0.17305719241E+02  0.00000000000E+00 0. -1.
</event>
<event>
 8    1  0.5331800E-011  0.9118800E+02  0.7816164E-02  0.1184000E+00
        -11   -1    0    0    0    0  0.00000000000E+00  0.00000000000E+00  0.45593999997E+02  0.45594000000E+02  0.51100000000E-03 0. -1.
         11   -1    0    0    0    0 -0.00000000000E+00 -0.00000000000E+00 -0.45593999997E+02  0.45594000000E+02  0.51100000000E-03 0.  1.
         23    2    1    2    0    0 -0.71054273576E-14  0.17763568394E-14  0.00000000000E+00  0.91188000000E+02  0.91188000000E+02 0.  0.
    9900012    2    3    3    0    0 -0.36535798519E+02  0.11550980515E+02  0.20379737111E+02  0.47787269488E+02  0.19999992902E+02 0.  0.
        -12    1    3    3    0    0  0.36535798519E+02 -0.11550980515E+02 -0.20379737111E+02  0.43400730512E+02  0.00000000000E+00 0.  1.
         11    1    4    4    0    0 -0.15924981989E+02  0.50155696072E+01  0.28232560724E+01  0.16933155789E+02  0.51100000000E-03 0. -1.
        -11    1    4    4    0    0 -0.17762305056E+02  0.93104767630E+00  0.16896579461E+02  0.24532849986E+02  0.51100000000E-03 0.  1.
         12    1    4    4    0    0 -0.28485114740E+01  0.56043632310E+01  0.65990157764E+00  0.63212637134E+01  0.00000000000E+00 0. -1.
</event>
<event>
 8    1  0.5331800E-011  0.9118800E+02  0.7816164E-02  0.1184000E+00
        -11   -1    0    0    0    0  0.00000000000E+00  0.00000000000E+00  0.45593999997E+02  0.45594000000E+02  0.51100000000E-03 0. -1.
         11   -1    0    0    0    0 -0.00000000000E+00 -0.00000000000E+00 -0.45593999997E+02  0.45594000000E+02  0.51100000000E-03 0.  1.
         23    2    1    2    0    0  0.00000000000E+00  0.17763568394E-14  0.71054273576E-14  0.91188000000E+02  0.91188000000E+02 0.  0.
    9900012    2    3    3    0    0  0.10120832793E+02 -0.15801129866E+02 -0.39134590705E+02  0.47787272459E+02  0.20000006448E+02 0.  0.
         12    1    3    3    0    0 -0.10120832793E+02  0.15801129866E+02  0.39134590705E+02  0.43400727541E+02  0.00000000000E+00 0. -1.
         11    1    4    4    0    0  0.87312959560E+01 -0.53932261994E+01 -0.11522379455E+02  0.15430088998E+02  0.51100000000E-03 0. -1.
        -11    1    4    4    0    0 -0.33484553455E+01 -0.20961867352E+01 -0.99656470341E+00  0.40742230546E+01  0.51100000000E-03 0.  1.
        -12    1    4    4    0    0  0.47379921830E+01 -0.83117169309E+01 -0.26615646546E+02  0.28282960406E+02  0.00000000000E+00 0.  1.
</event>
<event>
 8    1  0.5331800E-011  0.9118800E+02  0.7816164E-02  0.1184000E+00
        -11   -1    0    0    0    0  0.00000000000E+00  0.00000000000E+00  0.45593999997E+02  0.45594000000E+02  0.51100000000E-03 0.  1.
         11   -1    0    0    0    0 -0.00000000000E+00 -0.00000000000E+00 -0.45593999997E+02  0.45594000000E+02  0.51100000000E-03 0. -1.
         23    2    1    2    0    0  0.00000000000E+00  0.00000000000E+00  0.00000000000E+00  0.91188000000E+02  0.91188000000E+02 0.  0.
    9900012    2    3    3    0    0 -0.29189081522E+02 -0.25805599030E+02  0.19123070681E+02  0.47787271278E+02  0.20000001064E+02 0.  0.
        -12    1    3    3    0    0  0.29189081522E+02  0.25805599030E+02 -0.19123070681E+02  0.43400728722E+02  0.00000000000E+00 0.  1.
         11    1    4    4    0    0 -0.11875332797E+02 -0.21783139660E+02  0.10973061816E+02  0.27128154901E+02  0.51100000000E-03 0. -1.
        -11    1    4    4    0    0 -0.10223178438E+02 -0.15309241539E+01  0.81174876949E+01  0.13143466548E+02  0.51100000000E-03 0.  1.
         12    1    4    4    0    0 -0.70905702866E+01 -0.24915352160E+01  0.32521169873E-01  0.75156498288E+01  0.00000000000E+00 0. -1.
</event>
<event>
 8    1  0.5331800E-011  0.9118800E+02  0.7816164E-02  0.1184000E+00
        -11   -1    0    0    0    0  0.00000000000E+00  0.00000000000E+00  0.45593999997E+02  0.45594000000E+02  0.51100000000E-03 0. -1.
         11   -1    0    0    0    0 -0.00000000000E+00 -0.00000000000E+00 -0.45593999997E+02  0.45594000000E+02  0.51100000000E-03 0.  1.
         23    2    1    2    0    0  0.17763568394E-14  0.00000000000E+00  0.00000000000E+00  0.91188000000E+02  0.91188000000E+02 0.  0.
    9900012    2    3    3    0    0 -0.88467210853E+01 -0.26389673619E+02  0.33300818350E+02  0.47787264402E+02  0.19999969714E+02 0.  0.
        -12    1    3    3    0    0  0.88467210853E+01  0.26389673619E+02 -0.33300818350E+02  0.43400735598E+02  0.00000000000E+00 0.  1.
         11    1    4    4    0    0  0.21056291146E+01 -0.16523538143E+02  0.19422781772E+02  0.25587212407E+02  0.51100000000E-03 0. -1.
        -11    1    4    4    0    0 -0.31848202102E+01  0.15301129272E+01  0.26777860368E+01  0.44333806131E+01  0.51100000000E-03 0.  1.
         12    1    4    4    0    0 -0.77675299897E+01 -0.11396248404E+02  0.11200250541E+02  0.17766671382E+02  0.00000000000E+00 0. -1.
</event>
<event>
 8    1  0.5331800E-011  0.9118800E+02  0.7816164E-02  0.1184000E+00
        -11   -1    0    0    0    0  0.00000000000E+00  0.00000000000E+00  0.45593999997E+02  0.45594000000E+02  0.51100000000E-03 0. -1.
         11   -1    0    0    0    0 -0.00000000000E+00 -0.00000000000E+00 -0.45593999997E+02  0.45594000000E+02  0.51100000000E-03 0.  1.
         23    2    1    2    0    0  0.00000000000E+00 -0.35527136788E-14  0.35527136788E-14  0.91188000000E+02  0.91188000000E+02 0.  0.
    9900012    2    3    3    0    0 -0.27460499911E+02  0.25454352907E+02 -0.21945847728E+02  0.47787269940E+02  0.19999994963E+02 0.  0.
         12    1    3    3    0    0  0.27460499911E+02 -0.25454352907E+02  0.21945847728E+02  0.43400730060E+02  0.00000000000E+00 0. -1.
         11    1    4    4    0    0 -0.42277345064E+01 -0.29294434613E+01 -0.26134847862E+01  0.57693744061E+01  0.51100000000E-03 0. -1.
        -11    1    4    4    0    0 -0.18257049272E+02  0.17520851770E+02 -0.14175976187E+02  0.29004454761E+02  0.51100000000E-03 0.  1.
         12    1    4    4    0    0 -0.49757161322E+01  0.10862944598E+02 -0.51563867547E+01  0.13013440772E+02  0.00000000000E+00 0. -1.
</event>
<event>
 8    1  0.5331800E-011  0.9118800E+02  0.7816164E-02  0.1184000E+00
        -11   -1    0    0    0    0  0.00000000000E+00  0.00000000000E+00  0.45593999997E+02  0.45594000000E+02  0.51100000000E-03 0. -1.
         11   -1    0    0    0    0 -0.00000000000E+00 -0.00000000000E+00 -0.45593999997E+02  0.45594000000E+02  0.51100000000E-03 0.  1.
         23    2    1    2    0    0  0.88817841970E-15  0.88817841970E-15  0.00000000000E+00  0.91188000000E+02  0.91188000000E+02 0.  0.
    9900012    2    3    3    0    0 -0.72248213368E+01  0.62408671839E+01  0.42337655527E+02  0.47787267955E+02  0.19999985913E+02 0.  0.
        -12    1    3    3    0    0  0.72248213368E+01 -0.62408671839E+01 -0.42337655527E+02  0.43400732045E+02  0.00000000000E+00 0.  1.
         11    1    4    4    0    0 -0.64009254390E+01  0.28978250574E+01  0.21067565224E+02  0.22208366470E+02  0.51100000000E-03 0. -1.
        -11    1    4    4    0    0  0.54996899669E+01 -0.98300350420E+00  0.46165919464E+01  0.72474690121E+01  0.51100000000E-03 0.  1.
        -12    1    4    4    0    0 -0.63235858647E+01  0.43260456307E+01  0.16653498357E+02  0.18331432473E+02  0.00000000000E+00 0.  1.
</event>
<event>
 8    1  0.5331800E-011  0.9118800E+02  0.7816164E-02  0.1184000E+00
        -11   -1    0    0    0    0  0.00000000000E+00  0.00000000000E+00  0.45593999997E+02  0.45594000000E+02  0.51100000000E-03 0.  1.
         11   -1    0    0    0    0 -0.00000000000E+00 -0.00000000000E+00 -0.45593999997E+02  0.45594000000E+02  0.51100000000E-03 0. -1.
         23    2    1    2    0    0  0.00000000000E+00  0.71054273576E-14  0.44408920985E-15  0.91188000000E+02  0.91188000000E+02 0.  0.
    9900012    2    3    3    0    0  0.28701561274E+02 -0.32440671073E+02  0.27288326209E+01  0.47787270896E+02  0.19999999324E+02 0.  0.
        -12    1    3    3    0    0 -0.28701561274E+02  0.32440671073E+02 -0.27288326209E+01  0.43400729104E+02  0.00000000000E+00 0.  1.
         11    1    4    4    0    0  0.68400181710E+01 -0.32990057771E+01 -0.60617595602E+01  0.97166978405E+01  0.51100000000E-03 0. -1.
        -11    1    4    4    0    0  0.11324304766E+02 -0.19361865680E+02  0.74349926507E+01  0.23630506491E+02  0.51100000000E-03 0.  1.
        -12    1    4    4    0    0  0.10537238337E+02 -0.97797996164E+01  0.13555995305E+01  0.14440066565E+02  0.00000000000E+00 0.  1.
</event>
<event>
 8    1  0.5331800E-011  0.9118800E+02  0.7816164E-02  0.1184000E+00
        -11   -1    0    0    0    0  0.00000000000E+00  0.00000000000E+00  0.45593999997E+02  0.45594000000E+02  0.51100000000E-03 0. -1.
         11   -1    0    0    0    0 -0.00000000000E+00 -0.00000000000E+00 -0.45593999997E+02  0.45594000000E+02  0.51100000000E-03 0.  1.
         23    2    1    2    0    0  0.00000000000E+00  0.00000000000E+00  0.00000000000E+00  0.91188000000E+02  0.91188000000E+02 0.  0.
    9900012    2    3    3    0    0 -0.17387406096E+02 -0.93856911470E+01 -0.38642080231E+02  0.47787268973E+02  0.19999990557E+02 0.  0.
         12    1    3    3    0    0  0.17387406096E+02  0.93856911470E+01  0.38642080231E+02  0.43400731027E+02  0.00000000000E+00 0. -1.
         11    1    4    4    0    0  0.74420195312E+00  0.42630215388E+01 -0.48603605314E+01  0.65077103457E+01  0.51100000000E-03 0. -1.
        -11    1    4    4    0    0 -0.14571418192E+02 -0.89441208625E+01 -0.29086657263E+02  0.33739548857E+02  0.51100000000E-03 0.  1.
        -12    1    4    4    0    0 -0.35601898577E+01 -0.47045918233E+01 -0.46950624371E+01  0.75400097703E+01  0.00000000000E+00 0.  1.
</event>
<event>
 8    1  0.5331800E-011  0.9118800E+02  0.7816164E-02  0.1184000E+00
        -11   -1    0    0    0    0  0.00000000000E+00  0.00000000000E+00  0.45593999997E+02  0.45594000000E+02  0.51100000000E-03 0. -1.
         11   -1    0    0    0    0 -0.00000000000E+00 -0.00000000000E+00 -0.45593999997E+02  0.45594000000E+02  0.51100000000E-03 0.  1.
         23    2    1    2    0    0  0.00000000000E+00  0.00000000000E+00  0.00000000000E+00  0.91188000000E+02  0.91188000000E+02 0.  0.
    9900012    2    3    3    0    0 -0.23028623673E+02 -0.35661510222E+02  0.90312081775E+01  0.47787267970E+02  0.19999985984E+02 0.  0.
        -12    1    3    3    0    0  0.23028623673E+02  0.35661510222E+02 -0.90312081775E+01  0.43400732030E+02  0.00000000000E+00 0.  1.
         11    1    4    4    0    0 -0.10738862316E+02 -0.19910272938E+02 -0.26311286311E+01  0.22774217230E+02  0.51100000000E-03 0. -1.
        -11    1    4    4    0    0 -0.12645207521E+02 -0.16667560893E+02  0.11801345387E+02  0.24020420741E+02  0.51100000000E-03 0.  1.
         12    1    4    4    0    0  0.35544616298E+00  0.91632360942E+00 -0.13900857796E+00  0.99262999990E+00  0.00000000000E+00 0. -1.
</event>
<event>
 8    1  0.5331800E-011  0.9118800E+02  0.7816164E-02  0.1184000E+00
        -11   -1    0    0    0    0  0.00000000000E+00  0.00000000000E+00  0.45593999997E+02  0.45594000000E+02  0.51100000000E-03 0. -1.
         11   -1    0    0    0    0 -0.00000000000E+00 -0.00000000000E+00 -0.45593999997E+02  0.45594000000E+02  0.51100000000E-03 0.  1.
         23    2    1    2    0    0  0.22204460493E-15  0.00000000000E+00  0.35527136788E-14  0.91188000000E+02  0.91188000000E+02 0.  0.
    9900012    2    3    3    0    0 -0.86185376429E+00  0.33656166345E+02 -0.27388739759E+02  0.47787269700E+02  0.19999993870E+02 0.  0.
         12    1    3    3    0    0  0.86185376429E+00 -0.33656166345E+02  0.27388739759E+02  0.43400730300E+02  0.00000000000E+00 0. -1.
         11    1    4    4    0    0 -0.52399609903E+01  0.22597099535E+02 -0.13613130508E+02  0.26896159969E+02  0.51100000000E-03 0. -1.
        -11    1    4    4    0    0 -0.23585046139E+01  0.77578739784E+01 -0.83003568863E+01  0.11603580369E+02  0.51100000000E-03 0.  1.
         12    1    4    4    0    0  0.67366118399E+01  0.33011928319E+01 -0.54752523652E+01  0.92875293625E+01  0.00000000000E+00 0. -1.
</event>
<event>
 8    1  0.5331800E-011  0.9118800E+02  0.7816164E-02  0.1184000E+00
        -11   -1    0    0    0    0  0.00000000000E+00  0.00000000000E+00  0.45593999997E+02  0.45594000000E+02  0.51100000000E-03 0. -1.
         11   -1    0    0    0    0 -0.00000000000E+00 -0.00000000000E+00 -0.45593999997E+02  0.45594000000E+02  0.51100000000E-03 0.  1.
         23    2    1    2    0    0  0.88817841970E-15 -0.17763568394E-14  0.00000000000E+00  0.91188000000E+02  0.91188000000E+02 0.  0.
    9900012    2    3    3    0    0 -0.51343925552E+01  0.11364343518E+02 -0.41570580023E+02  0.47787269430E+02  0.19999992641E+02 0.  0.
         12    1    3    3    0    0  0.51343925552E+01 -0.11364343518E+02  0.41570580023E+02  0.43400730570E+02  0.00000000000E+00 0. -1.
         11    1    4    4    0    0 -0.45823548447E+01  0.85155247967E+00 -0.32125454274E+02  0.32461791850E+02  0.51100000000E-03 0. -1.
        -11    1    4    4    0    0 -0.21617612840E+00  0.94818634624E+01 -0.10257773594E+02  0.13970482676E+02  0.51100000000E-03 0.  1.
         12    1    4    4    0    0 -0.33586158208E+00  0.10309275763E+01  0.81264784504E+00  0.13549949040E+01  0.00000000000E+00 0. -1.
</event>
<event>
 8    1  0.5331800E-011  0.9118800E+02  0.7816164E-02  0.1184000E+00
        -11   -1    0    0    0    0  0.00000000000E+00  0.00000000000E+00  0.45593999997E+02  0.45594000000E+02  0.51100000000E-03 0. -1.
         11   -1    0    0    0    0 -0.00000000000E+00 -0.00000000000E+00 -0.45593999997E+02  0.45594000000E+02  0.51100000000E-03 0.  1.
         23    2    1    2    0    0  0.00000000000E+00  0.00000000000E+00  0.00000000000E+00  0.91188000000E+02  0.91188000000E+02 0.  0.
    9900012    2    3    3    0    0  0.25825210282E+02  0.25208409640E+02  0.24108455548E+02  0.47787273836E+02  0.20000012727E+02 0.  0.
        -12    1    3    3    0    0 -0.25825210282E+02 -0.25208409640E+02 -0.24108455548E+02  0.43400726164E+02  0.00000000000E+00 0.  1.
         11    1    4    4    0    0  0.29224322070E+01  0.97625632206E+00  0.12641351714E+01  0.33304240576E+01  0.51100000000E-03 0. -1.
        -11    1    4    4    0    0  0.96909474137E+01 -0.64834025028E+00  0.81774790964E+01  0.12696691360E+02  0.51100000000E-03 0.  1.
        -12    1    4    4    0    0  0.13211830661E+02  0.24880493568E+02  0.14666841280E+02  0.31760158418E+02  0.00000000000E+00 0.  1.
</event>
<event>
 8    1  0.6369752E-011  0.9118800E+02  0.7816164E-02  0.1184000E+00
        -11   -1    0    0    0    0  0.00000000000E+00  0.00000000000E+00  0.45593999997E+02  0.45594000000E+02  0.51100000000E-03 0. -1.
         11   -1    0    0    0    0 -0.00000000000E+00 -0.00000000000E+00 -0.45593999997E+02  0.45594000000E+02  0.51100000000E-03 0.  1.
         23    2    1    2    0    0  0.00000000000E+00  0.00000000000E+00  0.00000000000E+00  0.91188000000E+02  0.91188000000E+02 0.  0.
    9900012    2    3    3    0    0 -0.14256360902E+02 -0.29233617872E+01 -0.40888056278E+02  0.47787274009E+02  0.20000013518E+02 0.  0.
         12    1    3    3    0    0  0.14256360902E+02  0.29233617872E+01  0.40888056278E+02  0.43400725991E+02  0.00000000000E+00 0. -1.
         11    1    4    4    0    0  0.21833546513E+01 -0.31674068203E+01 -0.32099338239E+01  0.50103072674E+01  0.51100000000E-03 0. -1.
        -11    1    4    4    0    0 -0.13438806069E+02  0.32437891652E+01 -0.35305137032E+02  0.37915384448E+02  0.51100000000E-03 0.  1.
        -12    1    4    4    0    0 -0.30009094841E+01 -0.29997441320E+01 -0.23729854222E+01  0.48615822942E+01  0.00000000000E+00 0.  1.
</event>
<event>
 8    1  0.5331800E-011  0.9118800E+02  0.7816164E-02  0.1184000E+00
        -11   -1    0    0    0    0  0.00000000000E+00  0.00000000000E+00  0.45593999997E+02  0.45594000000E+02  0.51100000000E-03 0. -1.
         11   -1    0    0    0    0 -0.00000000000E+00 -0.00000000000E+00 -0.45593999997E+02  0.45594000000E+02  0.51100000000E-03 0.  1.
         23    2    1    2    0    0  0.13322676296E-14  0.00000000000E+00  0.71054273576E-14  0.91188000000E+02  0.91188000000E+02 0.  0.
    9900012    2    3    3    0    0  0.39348618411E+01 -0.25836495310E+02  0.34649902181E+02  0.47787270182E+02  0.19999996067E+02 0.  0.
        -12    1    3    3    0    0 -0.39348618411E+01  0.25836495310E+02 -0.34649902181E+02  0.43400729818E+02  0.00000000000E+00 0.  1.
         11    1    4    4    0    0 -0.19980303598E+01 -0.15397574789E+02  0.23715278501E+02  0.28345932148E+02  0.51100000000E-03 0. -1.
        -11    1    4    4    0    0  0.84636407531E+01 -0.84586457322E+01  0.55949279629E+01  0.13209281646E+02  0.51100000000E-03 0.  1.
         12    1    4    4    0    0 -0.25307485523E+01 -0.19802747885E+01  0.53396957173E+01  0.62320563882E+01  0.00000000000E+00 0. -1.
</event>
<event>
 8    1  0.5331800E-011  0.9118800E+02  0.7816164E-02  0.1184000E+00
        -11   -1    0    0    0    0  0.00000000000E+00  0.00000000000E+00  0.45593999997E+02  0.45594000000E+02  0.51100000000E-03 0. -1.
         11   -1    0    0    0    0 -0.00000000000E+00 -0.00000000000E+00 -0.45593999997E+02  0.45594000000E+02  0.51100000000E-03 0.  1.
         23    2    1    2    0    0  0.00000000000E+00  0.00000000000E+00 -0.35527136788E-14  0.91188000000E+02  0.91188000000E+02 0.  0.
    9900012    2    3    3    0    0 -0.58258165988E+01  0.29152050168E+02 -0.31620254833E+02  0.47787277843E+02  0.20000030997E+02 0.  0.
         12    1    3    3    0    0  0.58258165988E+01 -0.29152050168E+02  0.31620254833E+02  0.43400722157E+02  0.00000000000E+00 0. -1.
         11    1    4    4    0    0 -0.99530262004E+01  0.21268757852E+02 -0.19914557124E+02  0.30789809626E+02  0.51100000000E-03 0.  1.
        -11    1    4    4    0    0 -0.65615201691E+00  0.67936542000E+01 -0.41472825677E+01  0.79865027275E+01  0.51100000000E-03 0. -1.
         12    1    4    4    0    0  0.47833616184E+01  0.10896381162E+01 -0.75584151417E+01  0.90109654894E+01  0.00000000000E+00 0. -1.
</event>
<event>
 8    1  0.5331800E-011  0.9118800E+02  0.7816164E-02  0.1184000E+00
        -11   -1    0    0    0    0  0.00000000000E+00  0.00000000000E+00  0.45593999997E+02  0.45594000000E+02  0.51100000000E-03 0.  1.
         11   -1    0    0    0    0 -0.00000000000E+00 -0.00000000000E+00 -0.45593999997E+02  0.45594000000E+02  0.51100000000E-03 0. -1.
         23    2    1    2    0    0  0.00000000000E+00  0.00000000000E+00  0.00000000000E+00  0.91188000000E+02  0.91188000000E+02 0.  0.
    9900012    2    3    3    0    0 -0.40127774621E+02  0.88448591681E+01  0.13969738710E+02  0.47787269254E+02  0.19999991835E+02 0.  0.
        -12    1    3    3    0    0  0.40127774621E+02 -0.88448591681E+01 -0.13969738710E+02  0.43400730746E+02  0.00000000000E+00 0.  1.
         11    1    4    4    0    0 -0.82417891035E+01  0.17307287883E+01 -0.29922732112E+01  0.89373491035E+01  0.51100000000E-03 0. -1.
        -11    1    4    4    0    0  0.69773718360E+00  0.10028329657E+01  0.22919698448E+01  0.25972364477E+01  0.51100000000E-03 0.  1.
         12    1    4    4    0    0 -0.32583722701E+02  0.61112974141E+01  0.14670042076E+02  0.36252683702E+02  0.00000000000E+00 0. -1.
</event>
<event>
 8    1  0.5331800E-011  0.9118800E+02  0.7816164E-02  0.1184000E+00
        -11   -1    0    0    0    0  0.00000000000E+00  0.00000000000E+00  0.45593999997E+02  0.45594000000E+02  0.51100000000E-03 0. -1.
         11   -1    0    0    0    0 -0.00000000000E+00 -0.00000000000E+00 -0.45593999997E+02  0.45594000000E+02  0.51100000000E-03 0.  1.
         23    2    1    2    0    0  0.35527136788E-14  0.00000000000E+00  0.00000000000E+00  0.91188000000E+02  0.91188000000E+02 0.  0.
    9900012    2    3    3    0    0 -0.28827829107E+02 -0.28369926991E+02 -0.15739326440E+02  0.47787275521E+02  0.20000020411E+02 0.  0.
        -12    1    3    3    0    0  0.28827829107E+02  0.28369926991E+02  0.15739326440E+02  0.43400724479E+02  0.00000000000E+00 0.  1.
         11    1    4    4    0    0 -0.22333134612E+02 -0.27760208460E+02 -0.12334992869E+02  0.37703449772E+02  0.51100000000E-03 0. -1.
        -11    1    4    4    0    0  0.11938407776E+01 -0.62662893037E+00 -0.17673507295E+01  0.22229369044E+01  0.51100000000E-03 0.  1.
         12    1    4    4    0    0 -0.76885352731E+01  0.16910400065E-01 -0.16369828415E+01  0.78608888448E+01  0.00000000000E+00 0. -1.
</event>
<event>
 8    1  0.5331800E-011  0.9118800E+02  0.7816164E-02  0.1184000E+00
        -11   -1    0    0    0    0  0.00000000000E+00  0.00000000000E+00  0.45593999997E+02  0.45594000000E+02  0.51100000000E-03 0. -1.
         11   -1    0    0    0    0 -0.00000000000E+00 -0.00000000000E+00 -0.45593999997E+02  0.45594000000E+02  0.51100000000E-03 0.  1.
         23    2    1    2    0    0 -0.35527136788E-14 -0.35527136788E-14 -0.71054273576E-14  0.91188000000E+02  0.91188000000E+02 0.  0.
    9900012    2    3    3    0    0  0.22645645727E+02  0.98160668823E+01  0.35699344952E+02  0.47787266488E+02  0.19999979224E+02 0.  0.
        -12    1    3    3    0    0 -0.22645645727E+02 -0.98160668823E+01 -0.35699344952E+02  0.43400733512E+02  0.00000000000E+00 0.  1.
         11    1    4    4    0    0  0.14700760797E+02  0.27157975716E+01  0.29736219088E+02  0.33282587795E+02  0.51100000000E-03 0. -1.
        -11    1    4    4    0    0 -0.61839539215E+00  0.40990832098E+01  0.17325591134E+01  0.44929564170E+01  0.51100000000E-03 0.  1.
         12    1    4    4    0    0  0.85632803225E+01  0.30011861009E+01  0.42305667503E+01  0.10011722276E+02  0.00000000000E+00 0. -1.
</event>
<event>
 8    1  0.5331800E-011  0.9118800E+02  0.7816164E-02  0.1184000E+00
        -11   -1    0    0    0    0  0.00000000000E+00  0.00000000000E+00  0.45593999997E+02  0.45594000000E+02  0.51100000000E-03 0. -1.
         11   -1    0    0    0    0 -0.00000000000E+00 -0.00000000000E+00 -0.45593999997E+02  0.45594000000E+02  0.51100000000E-03 0.  1.
         23    2    1    2    0    0  0.00000000000E+00  0.00000000000E+00 -0.44408920985E-15  0.91188000000E+02  0.91188000000E+02 0.  0.
    9900012    2    3    3    0    0 -0.17786121503E+02  0.39529772351E+02  0.21620333380E+01  0.47787269495E+02  0.19999992935E+02 0.  0.
         12    1    3    3    0    0  0.17786121503E+02 -0.39529772351E+02 -0.21620333380E+01  0.43400730505E+02  0.00000000000E+00 0. -1.
         11    1    4    4    0    0 -0.49153425083E+01  0.29447335901E+01  0.14036548771E+01  0.58993470118E+01  0.51100000000E-03 0. -1.
        -11    1    4    4    0    0  0.20366508268E+01  0.92747648326E+01  0.45755345481E+01  0.10540622655E+02  0.51100000000E-03 0.  1.
        -12    1    4    4    0    0 -0.14907429822E+02  0.27310273928E+02 -0.38171560873E+01  0.31347299828E+02  0.00000000000E+00 0.  1.
</event>
<event>
 8    1  0.5331800E-011  0.9118800E+02  0.7816164E-02  0.1184000E+00
        -11   -1    0    0    0    0  0.00000000000E+00  0.00000000000E+00  0.45593999997E+02  0.45594000000E+02  0.51100000000E-03 0.  1.
         11   -1    0    0    0    0 -0.00000000000E+00 -0.00000000000E+00 -0.45593999997E+02  0.45594000000E+02  0.51100000000E-03 0. -1.
         23    2    1    2    0    0  0.00000000000E+00 -0.35527136788E-14 -0.17763568394E-14  0.91188000000E+02  0.91188000000E+02 0.  0.
    9900012    2    3    3    0    0  0.33074982190E+02 -0.23834470118E+02  0.14885793481E+02  0.47787271202E+02  0.20000000717E+02 0.  0.
         12    1    3    3    0    0 -0.33074982190E+02  0.23834470118E+02 -0.14885793481E+02  0.43400728798E+02  0.00000000000E+00 0. -1.
         11    1    4    4    0    0  0.62907021343E+01  0.88277667311E+00 -0.19199339466E+01  0.66361415459E+01  0.51100000000E-03 0. -1.
        -11    1    4    4    0    0  0.19178002837E+02 -0.22615350560E+02  0.13809314141E+02  0.32710044804E+02  0.51100000000E-03 0.  1.
        -12    1    4    4    0    0  0.76062772186E+01 -0.21018962310E+01  0.29964132862E+01  0.84410848517E+01  0.00000000000E+00 0.  1.
</event>
<event>
 8    1  0.5331800E-011  0.9118800E+02  0.7816164E-02  0.1184000E+00
        -11   -1    0    0    0    0  0.00000000000E+00  0.00000000000E+00  0.45593999997E+02  0.45594000000E+02  0.51100000000E-03 0. -1.
         11   -1    0    0    0    0 -0.00000000000E+00 -0.00000000000E+00 -0.45593999997E+02  0.45594000000E+02  0.51100000000E-03 0.  1.
         23    2    1    2    0    0  0.17763568394E-14  0.00000000000E+00  0.00000000000E+00  0.91188000000E+02  0.91188000000E+02 0.  0.
    9900012    2    3    3    0    0 -0.12073476260E+02  0.32903845567E+02 -0.25596737373E+02  0.47787252930E+02  0.19999917409E+02 0.  0.
         12    1    3    3    0    0  0.12073476260E+02 -0.32903845567E+02  0.25596737373E+02  0.43400747070E+02  0.00000000000E+00 0. -1.
         11    1    4    4    0    0  0.47005932198E+01  0.48256783226E+01 -0.41459629820E+01  0.79102311724E+01  0.51100000000E-03 0. -1.
        -11    1    4    4    0    0 -0.12882962299E+02  0.23649583505E+02 -0.13927365538E+02  0.30319053887E+02  0.51100000000E-03 0.  1.
         12    1    4    4    0    0 -0.38911071814E+01  0.44285837395E+01 -0.75234088533E+01  0.95579678703E+01  0.00000000000E+00 0. -1.
</event>
<event>
 8    1  0.5331800E-011  0.9118800E+02  0.7816164E-02  0.1184000E+00
        -11   -1    0    0    0    0  0.00000000000E+00  0.00000000000E+00  0.45593999997E+02  0.45594000000E+02  0.51100000000E-03 0. -1.
         11   -1    0    0    0    0 -0.00000000000E+00 -0.00000000000E+00 -0.45593999997E+02  0.45594000000E+02  0.51100000000E-03 0.  1.
         23    2    1    2    0    0 -0.17763568394E-14  0.00000000000E+00  0.00000000000E+00  0.91188000000E+02  0.91188000000E+02 0.  0.
    9900012    2    3    3    0    0 -0.95969481559E+01  0.24496813292E+02  0.34517062640E+02  0.47787275482E+02  0.20000020234E+02 0.  0.
        -12    1    3    3    0    0  0.95969481559E+01 -0.24496813292E+02 -0.34517062640E+02  0.43400724518E+02  0.00000000000E+00 0.  1.
         11    1    4    4    0    0 -0.45697005613E+01  0.93797857156E+01  0.19376998475E+02  0.22007512659E+02  0.51100000000E-03 0.  1.
        -11    1    4    4    0    0  0.34810597248E+01  0.10682109929E+02  0.89170453867E+01  0.14343603035E+02  0.51100000000E-03 0. -1.
        -12    1    4    4    0    0 -0.85083073194E+01  0.44349176473E+01  0.62230187785E+01  0.11436159788E+02  0.00000000000E+00 0.  1.
</event>
<event>
 8    1  0.5331800E-011  0.9118800E+02  0.7816164E-02  0.1184000E+00
        -11   -1    0    0    0    0  0.00000000000E+00  0.00000000000E+00  0.45593999997E+02  0.45594000000E+02  0.51100000000E-03 0. -1.
         11   -1    0    0    0    0 -0.00000000000E+00 -0.00000000000E+00 -0.45593999997E+02  0.45594000000E+02  0.51100000000E-03 0.  1.
         23    2    1    2    0    0  0.88817841970E-15  0.00000000000E+00  0.00000000000E+00  0.91188000000E+02  0.91188000000E+02 0.  0.
    9900012    2    3    3    0    0 -0.48693472047E+01 -0.32019514356E+02  0.28890555063E+02  0.47787262522E+02  0.19999961144E+02 0.  0.
        -12    1    3    3    0    0  0.48693472047E+01  0.32019514356E+02 -0.28890555063E+02  0.43400737478E+02  0.00000000000E+00 0.  1.
         11    1    4    4    0    0  0.55195671949E+01 -0.58053527922E+01  0.12777084869E+01  0.81117373170E+01  0.51100000000E-03 0. -1.
        -11    1    4    4    0    0 -0.55151031201E+01 -0.13326804206E+02  0.11298522943E+02  0.18321481755E+02  0.51100000000E-03 0.  1.
         12    1    4    4    0    0 -0.48738112795E+01 -0.12887357358E+02  0.16314323633E+02  0.21354043450E+02  0.00000000000E+00 0. -1.
</event>
<event>
 8    1  0.5331800E-011  0.9118800E+02  0.7816164E-02  0.1184000E+00
        -11   -1    0    0    0    0  0.00000000000E+00  0.00000000000E+00  0.45593999997E+02  0.45594000000E+02  0.51100000000E-03 0.  1.
         11   -1    0    0    0    0 -0.00000000000E+00 -0.00000000000E+00 -0.45593999997E+02  0.45594000000E+02  0.51100000000E-03 0. -1.
         23    2    1    2    0    0 -0.71054273576E-14  0.00000000000E+00 -0.17763568394E-14  0.91188000000E+02  0.91188000000E+02 0.  0.
    9900012    2    3    3    0    0  0.41109518232E+02 -0.85052439250E+01 -0.11013370161E+02  0.47787239802E+02  0.19999857551E+02 0.  0.
         12    1    3    3    0    0 -0.41109518232E+02  0.85052439250E+01  0.11013370161E+02  0.43400760198E+02  0.00000000000E+00 0. -1.
         11    1    4    4    0    0  0.18273102228E+02 -0.98851545602E+01 -0.87082957842E+01  0.22526805398E+02  0.51100000000E-03 0. -1.
        -11    1    4    4    0    0  0.23583209048E+02  0.10624246984E+01 -0.34491739985E+01  0.23857772251E+02  0.51100000000E-03 0.  1.
         12    1    4    4    0    0 -0.74679304404E+00  0.31748593673E+00  0.11440996214E+01  0.14026621526E+01  0.00000000000E+00 0. -1.
</event>
<event>
 8    1  0.5331800E-011  0.9118800E+02  0.7816164E-02  0.1184000E+00
        -11   -1    0    0    0    0  0.00000000000E+00  0.00000000000E+00  0.45593999997E+02  0.45594000000E+02  0.51100000000E-03 0. -1.
         11   -1    0    0    0    0 -0.00000000000E+00 -0.00000000000E+00 -0.45593999997E+02  0.45594000000E+02  0.51100000000E-03 0.  1.
         23    2    1    2    0    0  0.00000000000E+00  0.00000000000E+00  0.00000000000E+00  0.91188000000E+02  0.91188000000E+02 0.  0.
    9900012    2    3    3    0    0 -0.14872529559E+02  0.25141716302E+02  0.32098703575E+02  0.47787253402E+02  0.19999919562E+02 0.  0.
        -12    1    3    3    0    0  0.14872529559E+02 -0.25141716302E+02 -0.32098703575E+02  0.43400746598E+02  0.00000000000E+00 0.  1.
         11    1    4    4    0    0 -0.10424204423E+02  0.61438868048E+01  0.13887565187E+02  0.18419442174E+02  0.51100000000E-03 0. -1.
        -11    1    4    4    0    0 -0.29609647328E+01  0.12979055366E+02  0.40595628323E+01  0.13917731173E+02  0.51100000000E-03 0.  1.
        -12    1    4    4    0    0 -0.14873604027E+01  0.60187741307E+01  0.14151575556E+02  0.15450080055E+02  0.00000000000E+00 0.  1.
</event>
<event>
 8    1  0.5331800E-011  0.9118800E+02  0.7816164E-02  0.1184000E+00
        -11   -1    0    0    0    0  0.00000000000E+00  0.00000000000E+00  0.45593999997E+02  0.45594000000E+02  0.51100000000E-03 0.  1.
         11   -1    0    0    0    0 -0.00000000000E+00 -0.00000000000E+00 -0.45593999997E+02  0.45594000000E+02  0.51100000000E-03 0. -1.
         23    2    1    2    0    0  0.44408920985E-15  0.00000000000E+00 -0.17763568394E-14  0.91188000000E+02  0.91188000000E+02 0.  0.
    9900012    2    3    3    0    0 -0.35168269187E+01 -0.42266666546E+02 -0.92078512711E+01  0.47787266164E+02  0.19999977749E+02 0.  0.
         12    1    3    3    0    0  0.35168269187E+01  0.42266666546E+02  0.92078512711E+01  0.43400733836E+02  0.00000000000E+00 0. -1.
         11    1    4    4    0    0  0.40438592738E+01 -0.15863502510E+02 -0.84734782969E+01  0.18433755570E+02  0.51100000000E-03 0. -1.
        -11    1    4    4    0    0 -0.91531925742E+01 -0.26171656489E+02 -0.52836727039E+00  0.27731132503E+02  0.51100000000E-03 0.  1.
        -12    1    4    4    0    0  0.15925063818E+01 -0.23150754697E+00 -0.20600570384E+00  0.16223780910E+01  0.00000000000E+00 0.  1.
</event>
<event>
 8    1  0.5331800E-011  0.9118800E+02  0.7816164E-02  0.1184000E+00
        -11   -1    0    0    0    0  0.00000000000E+00  0.00000000000E+00  0.45593999997E+02  0.45594000000E+02  0.51100000000E-03 0. -1.
         11   -1    0    0    0    0 -0.00000000000E+00 -0.00000000000E+00 -0.45593999997E+02  0.45594000000E+02  0.51100000000E-03 0.  1.
         23    2    1    2    0    0  0.00000000000E+00  0.00000000000E+00  0.00000000000E+00  0.91188000000E+02  0.91188000000E+02 0.  0.
    9900012    2    3    3    0    0 -0.92984546033E+01  0.12408990997E+02 -0.40536147276E+02  0.47787267845E+02  0.19999985415E+02 0.  0.
         12    1    3    3    0    0  0.92984546033E+01 -0.12408990997E+02  0.40536147276E+02  0.43400732155E+02  0.00000000000E+00 0. -1.
         11    1    4    4    0    0 -0.34467940838E+01 -0.16724324209E+00 -0.19976956640E+02  0.20272818171E+02  0.51100000000E-03 0. -1.
        -11    1    4    4    0    0 -0.53484653023E+00  0.27977325236E+01  0.11865684182E+01  0.30856624826E+01  0.51100000000E-03 0.  1.
        -12    1    4    4    0    0 -0.53168139892E+01  0.97785017159E+01 -0.21745759054E+02  0.24428787192E+02  0.00000000000E+00 0.  1.
</event>
<event>
 8    1  0.8632526E-011  0.9118800E+02  0.7816164E-02  0.1184000E+00
        -11   -1    0    0    0    0  0.00000000000E+00  0.00000000000E+00  0.45593999997E+02  0.45594000000E+02  0.51100000000E-03 0. -1.
         11   -1    0    0    0    0 -0.00000000000E+00 -0.00000000000E+00 -0.45593999997E+02  0.45594000000E+02  0.51100000000E-03 0.  1.
         23    2    1    2    0    0  0.00000000000E+00  0.00000000000E+00  0.00000000000E+00  0.91188000000E+02  0.91188000000E+02 0.  0.
    9900012    2    3    3    0    0  0.60455643336E+01  0.96858603343E+01 -0.41871930060E+02  0.47787271141E+02  0.20000000442E+02 0.  0.
         12    1    3    3    0    0 -0.60455643336E+01 -0.96858603343E+01  0.41871930060E+02  0.43400728859E+02  0.00000000000E+00 0. -1.
         11    1    4    4    0    0 -0.22399088155E+00 -0.12160166003E+01  0.99234331891E+00  0.15854380502E+01  0.51100000000E-03 0. -1.
        -11    1    4    4    0    0 -0.18731596377E+01  0.72120190541E+01 -0.26811490281E+02  0.27827647353E+02  0.51100000000E-03 0.  1.
        -12    1    4    4    0    0  0.81427148528E+01  0.36898578805E+01 -0.16052783098E+02  0.18374185738E+02  0.00000000000E+00 0.  1.
</event>
<event>
 8    1  0.5331800E-011  0.9118800E+02  0.7816164E-02  0.1184000E+00
        -11   -1    0    0    0    0  0.00000000000E+00  0.00000000000E+00  0.45593999997E+02  0.45594000000E+02  0.51100000000E-03 0. -1.
         11   -1    0    0    0    0 -0.00000000000E+00 -0.00000000000E+00 -0.45593999997E+02  0.45594000000E+02  0.51100000000E-03 0.  1.
         23    2    1    2    0    0  0.00000000000E+00  0.00000000000E+00  0.00000000000E+00  0.91188000000E+02  0.91188000000E+02 0.  0.
    9900012    2    3    3    0    0  0.10826199328E+02 -0.24638821420E+02  0.34049161189E+02  0.47787268548E+02  0.19999988620E+02 0.  0.
        -12    1    3    3    0    0 -0.10826199328E+02  0.24638821420E+02 -0.34049161189E+02  0.43400731452E+02  0.00000000000E+00 0.  1.
         11    1    4    4    0    0  0.11573207906E+02 -0.10005209820E+02  0.24333310225E+02  0.28742883494E+02  0.51100000000E-03 0. -1.
        -11    1    4    4    0    0  0.12075172031E+01 -0.12797552239E+00 -0.36974002488E+00  0.12693240237E+01  0.51100000000E-03 0.  1.
         12    1    4    4    0    0 -0.19545257812E+01 -0.14505636078E+02  0.10085590989E+02  0.17775061031E+02  0.00000000000E+00 0. -1.
</event>
<event>
 8    1  0.5331800E-011  0.9118800E+02  0.7816164E-02  0.1184000E+00
        -11   -1    0    0    0    0  0.00000000000E+00  0.00000000000E+00  0.45593999997E+02  0.45594000000E+02  0.51100000000E-03 0. -1.
         11   -1    0    0    0    0 -0.00000000000E+00 -0.00000000000E+00 -0.45593999997E+02  0.45594000000E+02  0.51100000000E-03 0.  1.
         23    2    1    2    0    0  0.00000000000E+00 -0.35527136788E-14 -0.35527136788E-14  0.91188000000E+02  0.91188000000E+02 0.  0.
    9900012    2    3    3    0    0  0.20622783048E+02  0.26542113674E+02 -0.27456156938E+02  0.47787268062E+02  0.19999986401E+02 0.  0.
         12    1    3    3    0    0 -0.20622783048E+02 -0.26542113674E+02  0.27456156938E+02  0.43400731938E+02  0.00000000000E+00 0. -1.
         11    1    4    4    0    0  0.38779031814E+01  0.15991663896E+01 -0.90435576727E+01  0.99690221119E+01  0.51100000000E-03 0. -1.
        -11    1    4    4    0    0  0.17802817754E+02  0.26005801424E+02 -0.17826942020E+02  0.36208312440E+02  0.51100000000E-03 0.  1.
        -12    1    4    4    0    0 -0.10579378880E+01 -0.10628541395E+01 -0.58565724584E+00  0.16099335099E+01  0.00000000000E+00 0.  1.
</event>
<event>
 8    1  0.5331800E-011  0.9118800E+02  0.7816164E-02  0.1184000E+00
        -11   -1    0    0    0    0  0.00000000000E+00  0.00000000000E+00  0.45593999997E+02  0.45594000000E+02  0.51100000000E-03 0. -1.
         11   -1    0    0    0    0 -0.00000000000E+00 -0.00000000000E+00 -0.45593999997E+02  0.45594000000E+02  0.51100000000E-03 0.  1.
         23    2    1    2    0    0  0.00000000000E+00 -0.35527136788E-14  0.00000000000E+00  0.91188000000E+02  0.91188000000E+02 0.  0.
    9900012    2    3    3    0    0 -0.33470861751E+02  0.27196640030E+02 -0.48648899664E+01  0.47787274549E+02  0.20000015981E+02 0.  0.
         12    1    3    3    0    0  0.33470861751E+02 -0.27196640030E+02  0.48648899664E+01  0.43400725451E+02  0.00000000000E+00 0. -1.
         11    1    4    4    0    0 -0.46156551927E+01  0.16484260493E+01 -0.32624014694E+01  0.58876858703E+01  0.51100000000E-03 0. -1.
        -11    1    4    4    0    0 -0.55808408933E-01  0.68458306691E+01 -0.31272449413E+01  0.75264980777E+01  0.51100000000E-03 0.  1.
        -12    1    4    4    0    0 -0.28799398149E+02  0.18702383311E+02  0.15247564443E+01  0.34373090601E+02  0.00000000000E+00 0.  1.
</event>
<event>
 8    1  0.5331800E-011  0.9118800E+02  0.7816164E-02  0.1184000E+00
        -11   -1    0    0    0    0  0.00000000000E+00  0.00000000000E+00  0.45593999997E+02  0.45594000000E+02  0.51100000000E-03 0. -1.
         11   -1    0    0    0    0 -0.00000000000E+00 -0.00000000000E+00 -0.45593999997E+02  0.45594000000E+02  0.51100000000E-03 0.  1.
         23    2    1    2    0    0  0.00000000000E+00 -0.71054273576E-14  0.00000000000E+00  0.91188000000E+02  0.91188000000E+02 0.  0.
    9900012    2    3    3    0    0 -0.26893499918E+02  0.29436145134E+02  0.17142835728E+02  0.47787265040E+02  0.19999972625E+02 0.  0.
        -12    1    3    3    0    0  0.26893499918E+02 -0.29436145134E+02 -0.17142835728E+02  0.43400734960E+02  0.00000000000E+00 0.  1.
         11    1    4    4    0    0 -0.15762374955E+02  0.23689597737E+02  0.85190100887E+01  0.29702239618E+02  0.51100000000E-03 0. -1.
        -11    1    4    4    0    0 -0.57407259084E+01  0.24621174002E+01  0.98414871926E+01  0.11656449994E+02  0.51100000000E-03 0.  1.
        -12    1    4    4    0    0 -0.53903990549E+01  0.32844299975E+01 -0.12176615530E+01  0.64285754283E+01  0.00000000000E+00 0.  1.
</event>
<event>
 8    1  0.5331800E-011  0.9118800E+02  0.7816164E-02  0.1184000E+00
        -11   -1    0    0    0    0  0.00000000000E+00  0.00000000000E+00  0.45593999997E+02  0.45594000000E+02  0.51100000000E-03 0. -1.
         11   -1    0    0    0    0 -0.00000000000E+00 -0.00000000000E+00 -0.45593999997E+02  0.45594000000E+02  0.51100000000E-03 0.  1.
         23    2    1    2    0    0  0.35527136788E-14 -0.17763568394E-14  0.35527136788E-14  0.91188000000E+02  0.91188000000E+02 0.  0.
    9900012    2    3    3    0    0 -0.27431786486E+02  0.12574939589E+02 -0.31192807826E+02  0.47787271025E+02  0.19999999912E+02 0.  0.
         12    1    3    3    0    0  0.27431786486E+02 -0.12574939589E+02  0.31192807826E+02  0.43400728975E+02  0.00000000000E+00 0. -1.
         11    1    4    4    0    0 -0.23615569614E+02  0.70404485307E+01 -0.18232281909E+02  0.30654186461E+02  0.51100000000E-03 0.  1.
        -11    1    4    4    0    0 -0.39887233451E+01  0.55416731964E+01 -0.35031262993E+01  0.76741090603E+01  0.51100000000E-03 0. -1.
         12    1    4    4    0    0  0.17250647257E+00 -0.71821381187E-02 -0.94573996174E+01  0.94589755042E+01  0.00000000000E+00 0. -1.
</event>
<event>
 8    1  0.5331800E-011  0.9118800E+02  0.7816164E-02  0.1184000E+00
        -11   -1    0    0    0    0  0.00000000000E+00  0.00000000000E+00  0.45593999997E+02  0.45594000000E+02  0.51100000000E-03 0. -1.
         11   -1    0    0    0    0 -0.00000000000E+00 -0.00000000000E+00 -0.45593999997E+02  0.45594000000E+02  0.51100000000E-03 0.  1.
         23    2    1    2    0    0 -0.17763568394E-14  0.88817841970E-15  0.71054273576E-14  0.91188000000E+02  0.91188000000E+02 0.  0.
    9900012    2    3    3    0    0  0.10329694680E+02  0.76503087255E+01 -0.41453510231E+02  0.47787270441E+02  0.19999997247E+02 0.  0.
         12    1    3    3    0    0 -0.10329694680E+02 -0.76503087255E+01  0.41453510231E+02  0.43400729559E+02  0.00000000000E+00 0. -1.
         11    1    4    4    0    0  0.58090140166E+01  0.32278826551E-01 -0.19553098451E+01  0.61293492819E+01  0.51100000000E-03 0. -1.
        -11    1    4    4    0    0  0.41588512997E+01  0.98815877451E+01 -0.29154626672E+02  0.31063388050E+02  0.51100000000E-03 0.  1.
         12    1    4    4    0    0  0.36182936396E+00 -0.22635578461E+01 -0.10343573714E+02  0.10594533108E+02  0.00000000000E+00 0. -1.
</event>
<event>
 8    1  0.5331800E-011  0.9118800E+02  0.7816164E-02  0.1184000E+00
        -11   -1    0    0    0    0  0.00000000000E+00  0.00000000000E+00  0.45593999997E+02  0.45594000000E+02  0.51100000000E-03 0. -1.
         11   -1    0    0    0    0 -0.00000000000E+00 -0.00000000000E+00 -0.45593999997E+02  0.45594000000E+02  0.51100000000E-03 0.  1.
         23    2    1    2    0    0  0.00000000000E+00  0.00000000000E+00  0.00000000000E+00  0.91188000000E+02  0.91188000000E+02 0.  0.
    9900012    2    3    3    0    0 -0.75466860379E+01 -0.42901543155E+01  0.42523703968E+02  0.47787270820E+02  0.19999998978E+02 0.  0.
        -12    1    3    3    0    0  0.75466860379E+01  0.42901543155E+01 -0.42523703968E+02  0.43400729180E+02  0.00000000000E+00 0.  1.
         11    1    4    4    0    0 -0.10041483669E+02 -0.17347308643E+01  0.19848206362E+02  0.22311252352E+02  0.51100000000E-03 0. -1.
        -11    1    4    4    0    0  0.60942833696E+01 -0.34540204634E+01  0.19014703560E+02  0.20263995136E+02  0.51100000000E-03 0.  1.
        -12    1    4    4    0    0 -0.35994857389E+01  0.89859701220E+00  0.36607940458E+01  0.52120233327E+01  0.00000000000E+00 0.  1.
</event>
<event>
 8    1  0.5331800E-011  0.9118800E+02  0.7816164E-02  0.1184000E+00
        -11   -1    0    0    0    0  0.00000000000E+00  0.00000000000E+00  0.45593999997E+02  0.45594000000E+02  0.51100000000E-03 0. -1.
         11   -1    0    0    0    0 -0.00000000000E+00 -0.00000000000E+00 -0.45593999997E+02  0.45594000000E+02  0.51100000000E-03 0.  1.
         23    2    1    2    0    0  0.71054273576E-14  0.17763568394E-14  0.00000000000E+00  0.91188000000E+02  0.91188000000E+02 0.  0.
    9900012    2    3    3    0    0 -0.39026041859E+02 -0.15376261298E+02 -0.11142796043E+02  0.47787271223E+02  0.20000000815E+02 0.  0.
         12    1    3    3    0    0  0.39026041859E+02  0.15376261298E+02  0.11142796043E+02  0.43400728777E+02  0.00000000000E+00 0. -1.
         11    1    4    4    0    0  0.12820052016E+01  0.92561311448E+00  0.15959892827E+01  0.22466595261E+01  0.51100000000E-03 0. -1.
        -11    1    4    4    0    0 -0.24268425203E+02 -0.79005365184E+01 -0.89174378185E+01  0.27035081591E+02  0.51100000000E-03 0.  1.
         12    1    4    4    0    0 -0.16039621857E+02 -0.84013378936E+01 -0.38213475075E+01  0.18505530106E+02  0.00000000000E+00 0. -1.
</event>
<event>
 8    1  0.5331800E-011  0.9118800E+02  0.7816164E-02  0.1184000E+00
        -11   -1    0    0    0    0  0.00000000000E+00  0.00000000000E+00  0.45593999997E+02  0.45594000000E+02  0.51100000000E-03 0. -1.
         11   -1    0    0    0    0 -0.00000000000E+00 -0.00000000000E+00 -0.45593999997E+02  0.45594000000E+02  0.51100000000E-03 0.  1.
         23    2    1    2    0    0 -0.17763568394E-14  0.00000000000E+00  0.00000000000E+00  0.91188000000E+02  0.91188000000E+02 0.  0.
    9900012    2    3    3    0    0 -0.14189570010E+02  0.14644850384E+01 -0.40989432144E+02  0.47787283866E+02  0.20000058458E+02 0.  0.
         12    1    3    3    0    0  0.14189570010E+02 -0.14644850384E+01  0.40989432144E+02  0.43400716134E+02  0.00000000000E+00 0. -1.
         11    1    4    4    0    0 -0.19061253061E+01  0.17028309438E+01  0.15517789117E+01  0.29901446382E+01  0.51100000000E-03 0. -1.
        -11    1    4    4    0    0 -0.86937192605E+01 -0.29355672591E+01 -0.33003627745E+02  0.34255477727E+02  0.51100000000E-03 0.  1.
         12    1    4    4    0    0 -0.35897254430E+01  0.26972213537E+01 -0.95375833108E+01  0.10541661501E+02  0.00000000000E+00 0. -1.
</event>
<event>
 8    1  0.5331800E-011  0.9118800E+02  0.7816164E-02  0.1184000E+00
        -11   -1    0    0    0    0  0.00000000000E+00  0.00000000000E+00  0.45593999997E+02  0.45594000000E+02  0.51100000000E-03 0. -1.
         11   -1    0    0    0    0 -0.00000000000E+00 -0.00000000000E+00 -0.45593999997E+02  0.45594000000E+02  0.51100000000E-03 0.  1.
         23    2    1    2    0    0  0.00000000000E+00  0.00000000000E+00  0.00000000000E+00  0.91188000000E+02  0.91188000000E+02 0.  0.
    9900012    2    3    3    0    0 -0.22391047434E+02 -0.14947860593E+02 -0.34041540591E+02  0.47787262364E+02  0.19999960424E+02 0.  0.
         12    1    3    3    0    0  0.22391047434E+02  0.14947860593E+02  0.34041540591E+02  0.43400737636E+02  0.00000000000E+00 0. -1.
         11    1    4    4    0    0 -0.46899917593E+01 -0.10158988937E+00  0.72138723768E+00  0.47462346144E+01  0.51100000000E-03 0. -1.
        -11    1    4    4    0    0 -0.50165804726E+01 -0.83698881993E+01 -0.21362548673E+02  0.23485731715E+02  0.51100000000E-03 0.  1.
        -12    1    4    4    0    0 -0.12684475203E+02 -0.64763825040E+01 -0.13400379155E+02  0.19555296035E+02  0.00000000000E+00 0.  1.
</event>
<event>
 8    1  0.5331800E-011  0.9118800E+02  0.7816164E-02  0.1184000E+00
        -11   -1    0    0    0    0  0.00000000000E+00  0.00000000000E+00  0.45593999997E+02  0.45594000000E+02  0.51100000000E-03 0. -1.
         11   -1    0    0    0    0 -0.00000000000E+00 -0.00000000000E+00 -0.45593999997E+02  0.45594000000E+02  0.51100000000E-03 0.  1.
         23    2    1    2    0    0  0.17763568394E-14  0.00000000000E+00  0.17763568394E-14  0.91188000000E+02  0.91188000000E+02 0.  0.
    9900012    2    3    3    0    0 -0.10119556026E+02 -0.40304751041E+02 -0.12519781457E+02  0.47787270762E+02  0.19999998714E+02 0.  0.
         12    1    3    3    0    0  0.10119556026E+02  0.40304751041E+02  0.12519781457E+02  0.43400729238E+02  0.00000000000E+00 0. -1.
         11    1    4    4    0    0 -0.63015819147E+00 -0.31406330550E+02 -0.12811918115E+02  0.33924916271E+02  0.51100000000E-03 0. -1.
        -11    1    4    4    0    0 -0.91942608934E+01 -0.88479737469E+01  0.12856150751E+01  0.12824737003E+02  0.51100000000E-03 0.  1.
         12    1    4    4    0    0 -0.29513694137E+00 -0.50446744423E-01 -0.99347841721E+00  0.10376174891E+01  0.00000000000E+00 0. -1.
</event>
<event>
 8    1  0.5331800E-011  0.9118800E+02  0.7816164E-02  0.1184000E+00
        -11   -1    0    0    0    0  0.00000000000E+00  0.00000000000E+00  0.45593999997E+02  0.45594000000E+02  0.51100000000E-03 0. -1.
         11   -1    0    0    0    0 -0.00000000000E+00 -0.00000000000E+00 -0.45593999997E+02  0.45594000000E+02  0.51100000000E-03 0.  1.
         23    2    1    2    0    0  0.00000000000E+00  0.00000000000E+00  0.00000000000E+00  0.91188000000E+02  0.91188000000E+02 0.  0.
    9900012    2    3    3    0    0 -0.23978458652E+02  0.14478681673E+02 -0.33151548146E+02  0.47787264444E+02  0.19999969908E+02 0.  0.
         12    1    3    3    0    0  0.23978458652E+02 -0.14478681673E+02  0.33151548146E+02  0.43400735556E+02  0.00000000000E+00 0. -1.
         11    1    4    4    0    0 -0.22115755714E+02  0.12846962540E+02 -0.20677940906E+02  0.32889638759E+02  0.51100000000E-03 0. -1.
        -11    1    4    4    0    0 -0.30410340020E+01  0.41861521455E+01 -0.66112906594E+01  0.83952916585E+01  0.51100000000E-03 0.  1.
         12    1    4    4    0    0  0.11783310644E+01 -0.25544330122E+01 -0.58623165805E+01  0.65023340272E+01  0.00000000000E+00 0. -1.
</event>
<event>
 8    1  0.5331800E-011  0.9118800E+02  0.7816164E-02  0.1184000E+00
        -11   -1    0    0    0    0  0.00000000000E+00  0.00000000000E+00  0.45593999997E+02  0.45594000000E+02  0.51100000000E-03 0. -1.
         11   -1    0    0    0    0 -0.00000000000E+00 -0.00000000000E+00 -0.45593999997E+02  0.45594000000E+02  0.51100000000E-03 0.  1.
         23    2    1    2    0    0 -0.17763568394E-14  0.00000000000E+00  0.00000000000E+00  0.91188000000E+02  0.91188000000E+02 0.  0.
    9900012    2    3    3    0    0  0.15420944549E+02 -0.59453029731E+01  0.40130673660E+02  0.47787272741E+02  0.20000007736E+02 0.  0.
        -12    1    3    3    0    0 -0.15420944549E+02  0.59453029731E+01 -0.40130673660E+02  0.43400727259E+02  0.00000000000E+00 0.  1.
         11    1    4    4    0    0  0.26233816118E+01 -0.64247654096E+01  0.25039361463E+02  0.25983251613E+02  0.51100000000E-03 0. -1.
        -11    1    4    4    0    0  0.56587375581E+01 -0.29627616467E+00  0.68565013099E+00  0.57078197835E+01  0.51100000000E-03 0.  1.
        -12    1    4    4    0    0  0.71388253793E+01  0.77573860120E+00  0.14405662065E+02  0.16096201344E+02  0.00000000000E+00 0.  1.
</event>
<event>
 8    1  0.5331800E-011  0.9118800E+02  0.7816164E-02  0.1184000E+00
        -11   -1    0    0    0    0  0.00000000000E+00  0.00000000000E+00  0.45593999997E+02  0.45594000000E+02  0.51100000000E-03 0. -1.
         11   -1    0    0    0    0 -0.00000000000E+00 -0.00000000000E+00 -0.45593999997E+02  0.45594000000E+02  0.51100000000E-03 0.  1.
         23    2    1    2    0    0 -0.35527136788E-14  0.00000000000E+00  0.71054273576E-14  0.91188000000E+02  0.91188000000E+02 0.  0.
    9900012    2    3    3    0    0 -0.23186970564E+02 -0.10868838305E+02  0.35040775163E+02  0.47787272194E+02  0.20000005242E+02 0.  0.
        -12    1    3    3    0    0  0.23186970564E+02  0.10868838305E+02 -0.35040775163E+02  0.43400727806E+02  0.00000000000E+00 0.  1.
         11    1    4    4    0    0 -0.76571243036E+01 -0.32981081172E+00  0.13356944703E+02  0.15399620119E+02  0.51100000000E-03 0. -1.
        -11    1    4    4    0    0 -0.18160311667E+02 -0.67745473973E+01  0.16428003104E+02  0.25408083331E+02  0.51100000000E-03 0.  1.
        -12    1    4    4    0    0  0.26304654073E+01 -0.37644800956E+01  0.52558273567E+01  0.69795687440E+01  0.00000000000E+00 0.  1.
</event>
<event>
 8    1  0.5331800E-011  0.9118800E+02  0.7816164E-02  0.1184000E+00
        -11   -1    0    0    0    0  0.00000000000E+00  0.00000000000E+00  0.45593999997E+02  0.45594000000E+02  0.51100000000E-03 0. -1.
         11   -1    0    0    0    0 -0.00000000000E+00 -0.00000000000E+00 -0.45593999997E+02  0.45594000000E+02  0.51100000000E-03 0.  1.
         23    2    1    2    0    0  0.35527136788E-14 -0.35527136788E-14  0.35527136788E-14  0.91188000000E+02  0.91188000000E+02 0.  0.
    9900012    2    3    3    0    0 -0.22827900412E+02  0.31896611532E+02  0.18577322002E+02  0.47787265477E+02  0.19999974615E+02 0.  0.
        -12    1    3    3    0    0  0.22827900412E+02 -0.31896611532E+02 -0.18577322002E+02  0.43400734523E+02  0.00000000000E+00 0.  1.
         11    1    4    4    0    0 -0.35891332732E+01  0.14527946922E+02  0.33745207145E+01  0.15340485968E+02  0.51100000000E-03 0. -1.
        -11    1    4    4    0    0 -0.16034569123E+02  0.12961473986E+02  0.16985642554E+02  0.26713653215E+02  0.51100000000E-03 0.  1.
         12    1    4    4    0    0 -0.32041980155E+01  0.44071906235E+01 -0.17828412671E+01  0.57331262936E+01  0.00000000000E+00 0. -1.
</event>
<event>
 8    1  0.5331800E-011  0.9118800E+02  0.7816164E-02  0.1184000E+00
        -11   -1    0    0    0    0  0.00000000000E+00  0.00000000000E+00  0.45593999997E+02  0.45594000000E+02  0.51100000000E-03 0. -1.
         11   -1    0    0    0    0 -0.00000000000E+00 -0.00000000000E+00 -0.45593999997E+02  0.45594000000E+02  0.51100000000E-03 0.  1.
         23    2    1    2    0    0  0.00000000000E+00  0.35527136788E-14 -0.35527136788E-14  0.91188000000E+02  0.91188000000E+02 0.  0.
    9900012    2    3    3    0    0 -0.25120130044E+01 -0.31264061058E+02  0.29997859839E+02  0.47787270535E+02  0.19999997677E+02 0.  0.
        -12    1    3    3    0    0  0.25120130044E+01  0.31264061058E+02 -0.29997859839E+02  0.43400729465E+02  0.00000000000E+00 0.  1.
         11    1    4    4    0    0 -0.95525784192E-01 -0.21793035510E+02  0.10488213907E+02  0.24185701419E+02  0.51100000000E-03 0. -1.
        -11    1    4    4    0    0  0.25491045565E+01 -0.17375722611E+01  0.16086149910E+01  0.34791858032E+01  0.51100000000E-03 0.  1.
         12    1    4    4    0    0 -0.49655917767E+01 -0.77334532874E+01  0.17901030941E+02  0.20122383313E+02  0.00000000000E+00 0. -1.
</event>
<event>
 8    1  0.5331800E-011  0.9118800E+02  0.7816164E-02  0.1184000E+00
        -11   -1    0    0    0    0  0.00000000000E+00  0.00000000000E+00  0.45593999997E+02  0.45594000000E+02  0.51100000000E-03 0. -1.
         11   -1    0    0    0    0 -0.00000000000E+00 -0.00000000000E+00 -0.45593999997E+02  0.45594000000E+02  0.51100000000E-03 0.  1.
         23    2    1    2    0    0  0.00000000000E+00  0.22204460493E-15  0.00000000000E+00  0.91188000000E+02  0.91188000000E+02 0.  0.
    9900012    2    3    3    0    0 -0.22239404841E+02  0.16119637665E+01 -0.37234851160E+02  0.47787266184E+02  0.19999977840E+02 0.  0.
         12    1    3    3    0    0  0.22239404841E+02 -0.16119637665E+01  0.37234851160E+02  0.43400733816E+02  0.00000000000E+00 0. -1.
         11    1    4    4    0    0  0.55372635981E+00  0.12351604508E+01 -0.26413612438E+01  0.29679999498E+01  0.51100000000E-03 0. -1.
        -11    1    4    4    0    0 -0.20077105541E+01  0.25086104171E+01 -0.17588433151E+02  0.17879513664E+02  0.51100000000E-03 0.  1.
        -12    1    4    4    0    0 -0.20785420647E+02 -0.21318071013E+01 -0.17005056765E+02  0.26939752571E+02  0.00000000000E+00 0.  1.
</event>
<event>
 8    1  0.5331800E-011  0.9118800E+02  0.7816164E-02  0.1184000E+00
        -11   -1    0    0    0    0  0.00000000000E+00  0.00000000000E+00  0.45593999997E+02  0.45594000000E+02  0.51100000000E-03 0. -1.
         11   -1    0    0    0    0 -0.00000000000E+00 -0.00000000000E+00 -0.45593999997E+02  0.45594000000E+02  0.51100000000E-03 0.  1.
         23    2    1    2    0    0  0.00000000000E+00  0.00000000000E+00  0.00000000000E+00  0.91188000000E+02  0.91188000000E+02 0.  0.
    9900012    2    3    3    0    0  0.16987225086E+02 -0.23052383697E+02 -0.32613568756E+02  0.47787273310E+02  0.20000010329E+02 0.  0.
         12    1    3    3    0    0 -0.16987225086E+02  0.23052383697E+02  0.32613568756E+02  0.43400726690E+02  0.00000000000E+00 0. -1.
         11    1    4    4    0    0 -0.11760900788E+01 -0.49944273418E+01 -0.21444994511E+01  0.55611483079E+01  0.51100000000E-03 0. -1.
        -11    1    4    4    0    0  0.18872823588E+02 -0.10737776934E+02 -0.20712855034E+02  0.30008426943E+02  0.51100000000E-03 0.  1.
        -12    1    4    4    0    0 -0.70950842304E+00 -0.73201794205E+01 -0.97562142713E+01  0.12217698059E+02  0.00000000000E+00 0.  1.
</event>
<event>
 8    1  0.5331800E-011  0.9118800E+02  0.7816164E-02  0.1184000E+00
        -11   -1    0    0    0    0  0.00000000000E+00  0.00000000000E+00  0.45593999997E+02  0.45594000000E+02  0.51100000000E-03 0.  1.
         11   -1    0    0    0    0 -0.00000000000E+00 -0.00000000000E+00 -0.45593999997E+02  0.45594000000E+02  0.51100000000E-03 0. -1.
         23    2    1    2    0    0  0.00000000000E+00  0.00000000000E+00  0.00000000000E+00  0.91188000000E+02  0.91188000000E+02 0.  0.
    9900012    2    3    3    0    0  0.12045317967E+01  0.31121147238E+02 -0.30226582651E+02  0.47787274188E+02  0.20000014331E+02 0.  0.
         12    1    3    3    0    0 -0.12045317967E+01 -0.31121147238E+02  0.30226582651E+02  0.43400725812E+02  0.00000000000E+00 0. -1.
         11    1    4    4    0    0  0.36878376743E+01  0.21046653293E+02 -0.10598091839E+02  0.23851232934E+02  0.51100000000E-03 0. -1.
        -11    1    4    4    0    0 -0.44241490626E-01  0.33441347091E+01 -0.33964286262E+00  0.33616293366E+01  0.51100000000E-03 0.  1.
         12    1    4    4    0    0 -0.24390643870E+01  0.67303592359E+01 -0.19288847950E+02  0.20574411917E+02  0.00000000000E+00 0. -1.
</event>
<event>
 8    1  0.5331800E-011  0.9118800E+02  0.7816164E-02  0.1184000E+00
        -11   -1    0    0    0    0  0.00000000000E+00  0.00000000000E+00  0.45593999997E+02  0.45594000000E+02  0.51100000000E-03 0. -1.
         11   -1    0    0    0    0 -0.00000000000E+00 -0.00000000000E+00 -0.45593999997E+02  0.45594000000E+02  0.51100000000E-03 0.  1.
         23    2    1    2    0    0  0.00000000000E+00 -0.35527136788E-14  0.00000000000E+00  0.91188000000E+02  0.91188000000E+02 0.  0.
    9900012    2    3    3    0    0 -0.29577562762E+02  0.28037734716E+02  0.14922350867E+02  0.47787270256E+02  0.19999996404E+02 0.  0.
        -12    1    3    3    0    0  0.29577562762E+02 -0.28037734716E+02 -0.14922350867E+02  0.43400729744E+02  0.00000000000E+00 0.  1.
         11    1    4    4    0    0 -0.21583048058E+02  0.23916919364E+02  0.34884230839E+01  0.32403951784E+02  0.51100000000E-03 0. -1.
        -11    1    4    4    0    0 -0.36123070491E+01  0.38670098766E+01  0.87872382662E+01  0.10257586666E+02  0.51100000000E-03 0.  1.
         12    1    4    4    0    0 -0.43822076541E+01  0.25380547537E+00  0.26466895174E+01  0.51257318058E+01  0.00000000000E+00 0. -1.
</event>
<event>
 8    1  0.5331800E-011  0.9118800E+02  0.7816164E-02  0.1184000E+00
        -11   -1    0    0    0    0  0.00000000000E+00  0.00000000000E+00  0.45593999997E+02  0.45594000000E+02  0.51100000000E-03 0. -1.
         11   -1    0    0    0    0 -0.00000000000E+00 -0.00000000000E+00 -0.45593999997E+02  0.45594000000E+02  0.51100000000E-03 0.  1.
         23    2    1    2    0    0  0.27755575616E-15 -0.17763568394E-14 -0.71054273576E-14  0.91188000000E+02  0.91188000000E+02 0.  0.
    9900012    2    3    3    0    0 -0.30574687947E+00  0.13339711140E+02 -0.41298694289E+02  0.47787268158E+02  0.19999986838E+02 0.  0.
         12    1    3    3    0    0  0.30574687947E+00 -0.13339711140E+02  0.41298694289E+02  0.43400731842E+02  0.00000000000E+00 0. -1.
         11    1    4    4    0    0 -0.16178938772E+01  0.20591404173E+01  0.94145908406E+00  0.27828017040E+01  0.51100000000E-03 0. -1.
        -11    1    4    4    0    0  0.10818515798E+00  0.13229529904E+02 -0.35448528246E+02  0.37836891000E+02  0.51100000000E-03 0.  1.
         12    1    4    4    0    0  0.12039618397E+01 -0.19489591816E+01 -0.67916251277E+01  0.71675754533E+01  0.00000000000E+00 0. -1.
</event>
<event>
 8    1  0.5331800E-011  0.9118800E+02  0.7816164E-02  0.1184000E+00
        -11   -1    0    0    0    0  0.00000000000E+00  0.00000000000E+00  0.45593999997E+02  0.45594000000E+02  0.51100000000E-03 0. -1.
         11   -1    0    0    0    0 -0.00000000000E+00 -0.00000000000E+00 -0.45593999997E+02  0.45594000000E+02  0.51100000000E-03 0.  1.
         23    2    1    2    0    0  0.00000000000E+00  0.00000000000E+00  0.00000000000E+00  0.91188000000E+02  0.91188000000E+02 0.  0.
    9900012    2    3    3    0    0  0.10644992867E+02 -0.25645843029E+02  0.33355648799E+02  0.47787257557E+02  0.19999938505E+02 0.  0.
        -12    1    3    3    0    0 -0.10644992867E+02  0.25645843029E+02 -0.33355648799E+02  0.43400742443E+02  0.00000000000E+00 0.  1.
         11    1    4    4    0    0  0.46187423241E+01 -0.14970015386E+02  0.27414599818E+02  0.31575218523E+02  0.51100000000E-03 0. -1.
        -11    1    4    4    0    0 -0.20451043795E+01 -0.23217152989E+01  0.28138856951E+01  0.41821964108E+01  0.51100000000E-03 0.  1.
         12    1    4    4    0    0  0.80713549220E+01 -0.83541123434E+01  0.31271632861E+01  0.12029842623E+02  0.00000000000E+00 0. -1.
</event>
<event>
 8    1  0.5331800E-011  0.9118800E+02  0.7816164E-02  0.1184000E+00
        -11   -1    0    0    0    0  0.00000000000E+00  0.00000000000E+00  0.45593999997E+02  0.45594000000E+02  0.51100000000E-03 0. -1.
         11   -1    0    0    0    0 -0.00000000000E+00 -0.00000000000E+00 -0.45593999997E+02  0.45594000000E+02  0.51100000000E-03 0.  1.
         23    2    1    2    0    0  0.88817841970E-15  0.35527136788E-14 -0.71054273576E-14  0.91188000000E+02  0.91188000000E+02 0.  0.
    9900012    2    3    3    0    0 -0.40150425162E+01 -0.17216544218E+02  0.39637027294E+02  0.47787263901E+02  0.19999967430E+02 0.  0.
        -12    1    3    3    0    0  0.40150425162E+01  0.17216544218E+02 -0.39637027294E+02  0.43400736099E+02  0.00000000000E+00 0.  1.
         11    1    4    4    0    0 -0.63966322636E+01 -0.46052372421E+01  0.12755388822E+02  0.14994167487E+02  0.51100000000E-03 0. -1.
        -11    1    4    4    0    0  0.66269756066E+01 -0.63833472666E+01  0.70937425606E+01  0.11618309335E+02  0.51100000000E-03 0.  1.
        -12    1    4    4    0    0 -0.42453858593E+01 -0.62279597091E+01  0.19787895912E+02  0.21174787079E+02  0.00000000000E+00 0.  1.
</event>
<event>
 8    1  0.5331800E-011  0.9118800E+02  0.7816164E-02  0.1184000E+00
        -11   -1    0    0    0    0  0.00000000000E+00  0.00000000000E+00  0.45593999997E+02  0.45594000000E+02  0.51100000000E-03 0. -1.
         11   -1    0    0    0    0 -0.00000000000E+00 -0.00000000000E+00 -0.45593999997E+02  0.45594000000E+02  0.51100000000E-03 0.  1.
         23    2    1    2    0    0  0.00000000000E+00 -0.88817841970E-15  0.00000000000E+00  0.91188000000E+02  0.91188000000E+02 0.  0.
    9900012    2    3    3    0    0 -0.40474530603E+02  0.53699298213E+01 -0.14717313233E+02  0.47787273248E+02  0.20000010048E+02 0.  0.
        -12    1    3    3    0    0  0.40474530603E+02 -0.53699298213E+01  0.14717313233E+02  0.43400726752E+02  0.00000000000E+00 0.  1.
         11    1    4    4    0    0 -0.26312028274E+02  0.81208283469E+01 -0.13612983829E+02  0.30717812649E+02  0.51100000000E-03 0. -1.
        -11    1    4    4    0    0 -0.27629904550E+00  0.87711288503E+00  0.21626160331E+01  0.23500162858E+01  0.51100000000E-03 0.  1.
         12    1    4    4    0    0 -0.13886203283E+02 -0.36280114107E+01 -0.32669454363E+01  0.14719444314E+02  0.00000000000E+00 0. -1.
</event>
<event>
 8    1  0.5331800E-011  0.9118800E+02  0.7816164E-02  0.1184000E+00
        -11   -1    0    0    0    0  0.00000000000E+00  0.00000000000E+00  0.45593999997E+02  0.45594000000E+02  0.51100000000E-03 0. -1.
         11   -1    0    0    0    0 -0.00000000000E+00 -0.00000000000E+00 -0.45593999997E+02  0.45594000000E+02  0.51100000000E-03 0.  1.
         23    2    1    2    0    0 -0.35527136788E-14 -0.17763568394E-14  0.00000000000E+00  0.91188000000E+02  0.91188000000E+02 0.  0.
    9900012    2    3    3    0    0 -0.25013107356E+02 -0.15537724953E+02 -0.31883332567E+02  0.47787270376E+02  0.19999996953E+02 0.  0.
         12    1    3    3    0    0  0.25013107356E+02  0.15537724953E+02  0.31883332567E+02  0.43400729624E+02  0.00000000000E+00 0. -1.
         11    1    4    4    0    0 -0.18336161041E+02 -0.88837061115E+01 -0.97510318915E+01  0.22587998123E+02  0.51100000000E-03 0.  1.
        -11    1    4    4    0    0 -0.37886318788E+01 -0.75531157078E+01 -0.19240968464E+02  0.21014712848E+02  0.51100000000E-03 0. -1.
         12    1    4    4    0    0 -0.28883144365E+01  0.89909686619E+00 -0.28913322118E+01  0.41845594054E+01  0.00000000000E+00 0. -1.
</event>
<event>
 8    1  0.5331800E-011  0.9118800E+02  0.7816164E-02  0.1184000E+00
        -11   -1    0    0    0    0  0.00000000000E+00  0.00000000000E+00  0.45593999997E+02  0.45594000000E+02  0.51100000000E-03 0. -1.
         11   -1    0    0    0    0 -0.00000000000E+00 -0.00000000000E+00 -0.45593999997E+02  0.45594000000E+02  0.51100000000E-03 0.  1.
         23    2    1    2    0    0  0.17763568394E-14  0.00000000000E+00 -0.71054273576E-14  0.91188000000E+02  0.91188000000E+02 0.  0.
    9900012    2    3    3    0    0  0.12958307250E+02  0.25847857123E+02 -0.32366554553E+02  0.47787270764E+02  0.19999998721E+02 0.  0.
         12    1    3    3    0    0 -0.12958307250E+02 -0.25847857123E+02  0.32366554553E+02  0.43400729236E+02  0.00000000000E+00 0. -1.
         11    1    4    4    0    0  0.59029042354E+01  0.94576614433E+01 -0.21483176072E+02  0.24203687586E+02  0.51100000000E-03 0. -1.
        -11    1    4    4    0    0  0.37971769222E+01  0.17159098201E+02 -0.91827151251E+01  0.19828652525E+02  0.51100000000E-03 0.  1.
        -12    1    4    4    0    0  0.32582260920E+01 -0.76890252089E+00 -0.17006633557E+01  0.37549306521E+01  0.00000000000E+00 0.  1.
</event>
<event>
 8    1  0.5331800E-011  0.9118800E+02  0.7816164E-02  0.1184000E+00
        -11   -1    0    0    0    0  0.00000000000E+00  0.00000000000E+00  0.45593999997E+02  0.45594000000E+02  0.51100000000E-03 0. -1.
         11   -1    0    0    0    0 -0.00000000000E+00 -0.00000000000E+00 -0.45593999997E+02  0.45594000000E+02  0.51100000000E-03 0.  1.
         23    2    1    2    0    0  0.00000000000E+00  0.00000000000E+00 -0.17763568394E-14  0.91188000000E+02  0.91188000000E+02 0.  0.
    9900012    2    3    3    0    0 -0.40757863370E+02 -0.12046107893E+02 -0.87926649585E+01  0.47787273060E+02  0.20000009191E+02 0.  0.
         12    1    3    3    0    0  0.40757863370E+02  0.12046107893E+02  0.87926649585E+01  0.43400726940E+02  0.00000000000E+00 0. -1.
         11    1    4    4    0    0 -0.69096592451E-03  0.11650388982E+01 -0.96485977635E+00  0.15127031305E+01  0.51100000000E-03 0.  1.
        -11    1    4    4    0    0 -0.10112267200E+02 -0.10811402636E+02 -0.13874227445E+01  0.14868399948E+02  0.51100000000E-03 0. -1.
        -12    1    4    4    0    0 -0.30644905204E+02 -0.23997441545E+01 -0.64403824376E+01  0.31406169982E+02  0.00000000000E+00 0.  1.
</event>
<event>
 8    1  0.5331800E-011  0.9118800E+02  0.7816164E-02  0.1184000E+00
        -11   -1    0    0    0    0  0.00000000000E+00  0.00000000000E+00  0.45593999997E+02  0.45594000000E+02  0.51100000000E-03 0. -1.
         11   -1    0    0    0    0 -0.00000000000E+00 -0.00000000000E+00 -0.45593999997E+02  0.45594000000E+02  0.51100000000E-03 0.  1.
         23    2    1    2    0    0  0.00000000000E+00  0.00000000000E+00  0.00000000000E+00  0.91188000000E+02  0.91188000000E+02 0.  0.
    9900012    2    3    3    0    0 -0.96191451698E+01  0.20130014613E+02 -0.37227387696E+02  0.47787264560E+02  0.19999970433E+02 0.  0.
         12    1    3    3    0    0  0.96191451698E+01 -0.20130014613E+02  0.37227387696E+02  0.43400735440E+02  0.00000000000E+00 0. -1.
         11    1    4    4    0    0  0.63494265269E+00  0.65122746833E+01 -0.38598103359E+00  0.65545293761E+01  0.51100000000E-03 0. -1.
        -11    1    4    4    0    0 -0.24739482309E+01  0.25781529483E+01 -0.16027829172E+02  0.16421284990E+02  0.51100000000E-03 0.  1.
         12    1    4    4    0    0 -0.77801395917E+01  0.11039586982E+02 -0.20813577490E+02  0.24811450194E+02  0.00000000000E+00 0. -1.
</event>
<event>
 8    1  0.5331800E-011  0.9118800E+02  0.7816164E-02  0.1184000E+00
        -11   -1    0    0    0    0  0.00000000000E+00  0.00000000000E+00  0.45593999997E+02  0.45594000000E+02  0.51100000000E-03 0. -1.
         11   -1    0    0    0    0 -0.00000000000E+00 -0.00000000000E+00 -0.45593999997E+02  0.45594000000E+02  0.51100000000E-03 0.  1.
         23    2    1    2    0    0  0.00000000000E+00  0.17763568394E-14  0.00000000000E+00  0.91188000000E+02  0.91188000000E+02 0.  0.
    9900012    2    3    3    0    0 -0.91068900524E+01 -0.12960297711E+02  0.40406913973E+02  0.47787268900E+02  0.19999990223E+02 0.  0.
        -12    1    3    3    0    0  0.91068900524E+01  0.12960297711E+02 -0.40406913973E+02  0.43400731100E+02  0.00000000000E+00 0.  1.
         11    1    4    4    0    0  0.20000547533E+00 -0.11739277031E+02  0.29082878485E+02  0.31363425333E+02  0.51100000000E-03 0. -1.
        -11    1    4    4    0    0 -0.71257311151E+01 -0.37179042825E+01  0.55556934005E+01  0.97705980165E+01  0.51100000000E-03 0.  1.
         12    1    4    4    0    0 -0.21811644126E+01  0.24968836019E+01  0.57683420878E+01  0.66532455507E+01  0.00000000000E+00 0. -1.
</event>
<event>
 8    1  0.5331800E-011  0.9118800E+02  0.7816164E-02  0.1184000E+00
        -11   -1    0    0    0    0  0.00000000000E+00  0.00000000000E+00  0.45593999997E+02  0.45594000000E+02  0.51100000000E-03 0. -1.
         11   -1    0    0    0    0 -0.00000000000E+00 -0.00000000000E+00 -0.45593999997E+02  0.45594000000E+02  0.51100000000E-03 0.  1.
         23    2    1    2    0    0 -0.44408920985E-15  0.00000000000E+00  0.00000000000E+00  0.91188000000E+02  0.91188000000E+02 0.  0.
    9900012    2    3    3    0    0 -0.24545265955E+01 -0.81149318582E+01  0.42564618811E+02  0.47787267352E+02  0.19999983163E+02 0.  0.
        -12    1    3    3    0    0  0.24545265955E+01  0.81149318582E+01 -0.42564618811E+02  0.43400732648E+02  0.00000000000E+00 0.  1.
         11    1    4    4    0    0  0.17538395521E+01  0.53330589061E+01  0.11537416555E+02  0.12830800890E+02  0.51100000000E-03 0. -1.
        -11    1    4    4    0    0 -0.32604485058E+01 -0.11989503194E+02  0.30788045079E+02  0.33200639020E+02  0.51100000000E-03 0.  1.
        -12    1    4    4    0    0 -0.94791764180E+00 -0.14584875705E+01  0.23915717810E+00  0.17558274416E+01  0.00000000000E+00 0.  1.
</event>
<event>
 8    1  0.5331800E-011  0.9118800E+02  0.7816164E-02  0.1184000E+00
        -11   -1    0    0    0    0  0.00000000000E+00  0.00000000000E+00  0.45593999997E+02  0.45594000000E+02  0.51100000000E-03 0.  1.
         11   -1    0    0    0    0 -0.00000000000E+00 -0.00000000000E+00 -0.45593999997E+02  0.45594000000E+02  0.51100000000E-03 0. -1.
         23    2    1    2    0    0 -0.17763568394E-14  0.71054273576E-14 -0.41199682554E-16  0.91188000000E+02  0.91188000000E+02 0.  0.
    9900012    2    3    3    0    0  0.14218313059E+02 -0.41005642991E+02  0.35989354170E-02  0.47787271938E+02  0.20000004075E+02 0.  0.
         12    1    3    3    0    0 -0.14218313059E+02  0.41005642991E+02 -0.35989354170E-02  0.43400728062E+02  0.00000000000E+00 0. -1.
         11    1    4    4    0    0 -0.11291683077E+01 -0.10980579911E-01 -0.18112340770E+01  0.21344111092E+01  0.51100000000E-03 0. -1.
        -11    1    4    4    0    0  0.16707961220E+02 -0.34530789558E+02 -0.12280420722E+01  0.38380196498E+02  0.51100000000E-03 0.  1.
        -12    1    4    4    0    0 -0.13604798534E+01 -0.64638728530E+01  0.30428750846E+01  0.72726643310E+01  0.00000000000E+00 0.  1.
</event>
<event>
 8    1  0.5331800E-011  0.9118800E+02  0.7816164E-02  0.1184000E+00
        -11   -1    0    0    0    0  0.00000000000E+00  0.00000000000E+00  0.45593999997E+02  0.45594000000E+02  0.51100000000E-03 0. -1.
         11   -1    0    0    0    0 -0.00000000000E+00 -0.00000000000E+00 -0.45593999997E+02  0.45594000000E+02  0.51100000000E-03 0.  1.
         23    2    1    2    0    0  0.00000000000E+00  0.00000000000E+00  0.00000000000E+00  0.91188000000E+02  0.91188000000E+02 0.  0.
    9900012    2    3    3    0    0  0.26674289612E+02 -0.11288699099E+02  0.32321370014E+02  0.47787269439E+02  0.19999992680E+02 0.  0.
        -12    1    3    3    0    0 -0.26674289612E+02  0.11288699099E+02 -0.32321370014E+02  0.43400730561E+02  0.00000000000E+00 0.  1.
         11    1    4    4    0    0  0.85001167712E+01 -0.11670592333E+02  0.15875201694E+02  0.21458721761E+02  0.51100000000E-03 0. -1.
        -11    1    4    4    0    0  0.96336463803E+00  0.21396944455E+01 -0.15471699688E+00  0.23516592772E+01  0.51100000000E-03 0.  1.
         12    1    4    4    0    0  0.17210808202E+02 -0.17578012116E+01  0.16600885317E+02  0.23976888401E+02  0.00000000000E+00 0. -1.
</event>
<event>
 8    1  0.5331800E-011  0.9118800E+02  0.7816164E-02  0.1184000E+00
        -11   -1    0    0    0    0  0.00000000000E+00  0.00000000000E+00  0.45593999997E+02  0.45594000000E+02  0.51100000000E-03 0. -1.
         11   -1    0    0    0    0 -0.00000000000E+00 -0.00000000000E+00 -0.45593999997E+02  0.45594000000E+02  0.51100000000E-03 0.  1.
         23    2    1    2    0    0  0.00000000000E+00  0.00000000000E+00  0.00000000000E+00  0.91188000000E+02  0.91188000000E+02 0.  0.
    9900012    2    3    3    0    0  0.13613754803E+02 -0.28658356913E+02  0.29613957540E+02  0.47787283163E+02  0.20000055251E+02 0.  0.
        -12    1    3    3    0    0 -0.13613754803E+02  0.28658356913E+02 -0.29613957540E+02  0.43400716837E+02  0.00000000000E+00 0.  1.
         11    1    4    4    0    0 -0.21103257026E+01 -0.10542817151E+02  0.79857136704E+01  0.13393135971E+02  0.51100000000E-03 0. -1.
        -11    1    4    4    0    0  0.11561463365E+02 -0.61088408875E+01  0.63945122804E+01  0.14555932114E+02  0.51100000000E-03 0.  1.
         12    1    4    4    0    0  0.41626171401E+01 -0.12006698874E+02  0.15233731589E+02  0.19838215077E+02  0.00000000000E+00 0. -1.
</event>
<event>
 8    1  0.5331800E-011  0.9118800E+02  0.7816164E-02  0.1184000E+00
        -11   -1    0    0    0    0  0.00000000000E+00  0.00000000000E+00  0.45593999997E+02  0.45594000000E+02  0.51100000000E-03 0. -1.
         11   -1    0    0    0    0 -0.00000000000E+00 -0.00000000000E+00 -0.45593999997E+02  0.45594000000E+02  0.51100000000E-03 0.  1.
         23    2    1    2    0    0 -0.17763568394E-14 -0.71054273576E-14  0.17763568394E-14  0.91188000000E+02  0.91188000000E+02 0.  0.
    9900012    2    3    3    0    0  0.86309469693E+01 -0.39684083451E+02 -0.15306958242E+02  0.47787277707E+02  0.20000030376E+02 0.  0.
         12    1    3    3    0    0 -0.86309469693E+01  0.39684083451E+02  0.15306958242E+02  0.43400722293E+02  0.00000000000E+00 0. -1.
         11    1    4    4    0    0  0.89922555737E+00 -0.23504054905E+02 -0.89515594273E+01  0.25167034390E+02  0.51100000000E-03 0. -1.
        -11    1    4    4    0    0  0.63915322234E+01 -0.54134822321E+01 -0.80757210832E+01  0.11635065333E+02  0.51100000000E-03 0.  1.
        -12    1    4    4    0    0  0.13401891886E+01 -0.10766546315E+02  0.17203222685E+01  0.10985177983E+02  0.00000000000E+00 0.  1.
</event>
<event>
 8    1  0.5331800E-011  0.9118800E+02  0.7816164E-02  0.1184000E+00
        -11   -1    0    0    0    0  0.00000000000E+00  0.00000000000E+00  0.45593999997E+02  0.45594000000E+02  0.51100000000E-03 0. -1.
         11   -1    0    0    0    0 -0.00000000000E+00 -0.00000000000E+00 -0.45593999997E+02  0.45594000000E+02  0.51100000000E-03 0.  1.
         23    2    1    2    0    0 -0.35527136788E-14  0.35527136788E-14  0.00000000000E+00  0.91188000000E+02  0.91188000000E+02 0.  0.
    9900012    2    3    3    0    0 -0.23161326033E+02  0.28023314307E+02  0.23703795639E+02  0.47787273093E+02  0.20000009340E+02 0.  0.
        -12    1    3    3    0    0  0.23161326033E+02 -0.28023314307E+02 -0.23703795639E+02  0.43400726907E+02  0.00000000000E+00 0.  1.
         11    1    4    4    0    0 -0.53824407858E+01  0.11729234609E+02  0.19519822878E+01  0.13052043841E+02  0.51100000000E-03 0. -1.
        -11    1    4    4    0    0 -0.70468618285E+00  0.13560686693E+01 -0.15758776618E+01  0.21951982868E+01  0.51100000000E-03 0.  1.
         12    1    4    4    0    0 -0.17074199065E+02  0.14938011029E+02  0.23327691013E+02  0.32540030965E+02  0.00000000000E+00 0. -1.
</event>
<event>
 8    1  0.5331800E-011  0.9118800E+02  0.7816164E-02  0.1184000E+00
        -11   -1    0    0    0    0  0.00000000000E+00  0.00000000000E+00  0.45593999997E+02  0.45594000000E+02  0.51100000000E-03 0. -1.
         11   -1    0    0    0    0 -0.00000000000E+00 -0.00000000000E+00 -0.45593999997E+02  0.45594000000E+02  0.51100000000E-03 0.  1.
         23    2    1    2    0    0 -0.35527136788E-14 -0.16653345369E-15  0.00000000000E+00  0.91188000000E+02  0.91188000000E+02 0.  0.
    9900012    2    3    3    0    0 -0.19111045756E+02  0.46400294644E+00 -0.38963777387E+02  0.47787270549E+02  0.19999997742E+02 0.  0.
         12    1    3    3    0    0  0.19111045756E+02 -0.46400294644E+00  0.38963777387E+02  0.43400729451E+02  0.00000000000E+00 0. -1.
         11    1    4    4    0    0 -0.73991315341E+01 -0.59713022229E+00 -0.15038636681E+01  0.75739895798E+01  0.51100000000E-03 0. -1.
        -11    1    4    4    0    0 -0.51321198111E+01  0.23041097320E+01 -0.67745756271E+01  0.88058191329E+01  0.51100000000E-03 0.  1.
         12    1    4    4    0    0 -0.65797944108E+01 -0.12429765633E+01 -0.30685338091E+02  0.31407461836E+02  0.00000000000E+00 0. -1.
</event>
<event>
 8    1  0.5331800E-011  0.9118800E+02  0.7816164E-02  0.1184000E+00
        -11   -1    0    0    0    0  0.00000000000E+00  0.00000000000E+00  0.45593999997E+02  0.45594000000E+02  0.51100000000E-03 0. -1.
         11   -1    0    0    0    0 -0.00000000000E+00 -0.00000000000E+00 -0.45593999997E+02  0.45594000000E+02  0.51100000000E-03 0.  1.
         23    2    1    2    0    0  0.71054273576E-14  0.66613381478E-15 -0.35527136788E-14  0.91188000000E+02  0.91188000000E+02 0.  0.
    9900012    2    3    3    0    0 -0.36647254151E+02 -0.68264326441E+00  0.23240824040E+02  0.47787272578E+02  0.20000006994E+02 0.  0.
        -12    1    3    3    0    0  0.36647254151E+02  0.68264326441E+00 -0.23240824040E+02  0.43400727422E+02  0.00000000000E+00 0.  1.
         11    1    4    4    0    0 -0.14330794240E+02 -0.74772417783E+01  0.82964013513E+01  0.18168959349E+02  0.51100000000E-03 0. -1.
        -11    1    4    4    0    0 -0.41255251866E+01  0.49292217956E+01  0.74924523689E+01  0.98718806889E+01  0.51100000000E-03 0.  1.
        -12    1    4    4    0    0 -0.18190934724E+02  0.18653767183E+01  0.74519703201E+01  0.19746432541E+02  0.00000000000E+00 0.  1.
</event>
<event>
 8    1  0.5331800E-011  0.9118800E+02  0.7816164E-02  0.1184000E+00
        -11   -1    0    0    0    0  0.00000000000E+00  0.00000000000E+00  0.45593999997E+02  0.45594000000E+02  0.51100000000E-03 0. -1.
         11   -1    0    0    0    0 -0.00000000000E+00 -0.00000000000E+00 -0.45593999997E+02  0.45594000000E+02  0.51100000000E-03 0.  1.
         23    2    1    2    0    0  0.00000000000E+00  0.00000000000E+00 -0.71054273576E-14  0.91188000000E+02  0.91188000000E+02 0.  0.
    9900012    2    3    3    0    0 -0.11039735690E+02  0.16815330816E+02  0.38457666617E+02  0.47787271479E+02  0.20000001982E+02 0.  0.
        -12    1    3    3    0    0  0.11039735690E+02 -0.16815330816E+02 -0.38457666617E+02  0.43400728521E+02  0.00000000000E+00 0.  1.
         11    1    4    4    0    0 -0.44518219371E+01  0.10889331255E+02  0.59014111678E+01  0.13161417392E+02  0.51100000000E-03 0. -1.
        -11    1    4    4    0    0  0.15763752328E+01 -0.73200984763E-01  0.59554809548E+01  0.61610121671E+01  0.51100000000E-03 0.  1.
         12    1    4    4    0    0 -0.81642889856E+01  0.59992005455E+01  0.26600774494E+02  0.28464841920E+02  0.00000000000E+00 0. -1.
</event>
<event>
 8    1  0.5331800E-011  0.9118800E+02  0.7816164E-02  0.1184000E+00
        -11   -1    0    0    0    0  0.00000000000E+00  0.00000000000E+00  0.45593999997E+02  0.45594000000E+02  0.51100000000E-03 0.  1.
         11   -1    0    0    0    0 -0.00000000000E+00 -0.00000000000E+00 -0.45593999997E+02  0.45594000000E+02  0.51100000000E-03 0. -1.
         23    2    1    2    0    0 -0.17763568394E-14  0.00000000000E+00 -0.17763568394E-14  0.91188000000E+02  0.91188000000E+02 0.  0.
    9900012    2    3    3    0    0  0.12527965694E+02 -0.39317845033E+02  0.13445461194E+02  0.47787270868E+02  0.19999999197E+02 0.  0.
         12    1    3    3    0    0 -0.12527965694E+02  0.39317845033E+02 -0.13445461194E+02  0.43400729132E+02  0.00000000000E+00 0. -1.
         11    1    4    4    0    0  0.11663783603E+01 -0.26325556704E+01  0.54939191703E+01  0.62027361663E+01  0.51100000000E-03 0. -1.
        -11    1    4    4    0    0  0.28289780911E+01 -0.29554215676E+02  0.54225588556E+01  0.30180439461E+02  0.51100000000E-03 0.  1.
        -12    1    4    4    0    0  0.85326092422E+01 -0.71310736861E+01  0.25289831682E+01  0.11404095241E+02  0.00000000000E+00 0.  1.
</event>
<event>
 8    1  0.5331800E-011  0.9118800E+02  0.7816164E-02  0.1184000E+00
        -11   -1    0    0    0    0  0.00000000000E+00  0.00000000000E+00  0.45593999997E+02  0.45594000000E+02  0.51100000000E-03 0. -1.
         11   -1    0    0    0    0 -0.00000000000E+00 -0.00000000000E+00 -0.45593999997E+02  0.45594000000E+02  0.51100000000E-03 0.  1.
         23    2    1    2    0    0  0.00000000000E+00  0.88817841970E-15  0.00000000000E+00  0.91188000000E+02  0.91188000000E+02 0.  0.
    9900012    2    3    3    0    0  0.24297855563E+02 -0.46587088945E+01  0.35658575237E+02  0.47787270266E+02  0.19999996451E+02 0.  0.
        -12    1    3    3    0    0 -0.24297855563E+02  0.46587088945E+01 -0.35658575237E+02  0.43400729734E+02  0.00000000000E+00 0.  1.
         11    1    4    4    0    0  0.12345363687E+02 -0.69310574304E+01  0.11240820668E+02  0.18077710342E+02  0.51100000000E-03 0. -1.
        -11    1    4    4    0    0 -0.32505189504E+00 -0.31597239345E+01  0.26600463856E+01  0.41431100771E+01  0.51100000000E-03 0.  1.
         12    1    4    4    0    0  0.12277543770E+02  0.54320724703E+01  0.21757708184E+02  0.25566449847E+02  0.00000000000E+00 0. -1.
</event>
<event>
 8    1  0.5331800E-011  0.9118800E+02  0.7816164E-02  0.1184000E+00
        -11   -1    0    0    0    0  0.00000000000E+00  0.00000000000E+00  0.45593999997E+02  0.45594000000E+02  0.51100000000E-03 0. -1.
         11   -1    0    0    0    0 -0.00000000000E+00 -0.00000000000E+00 -0.45593999997E+02  0.45594000000E+02  0.51100000000E-03 0.  1.
         23    2    1    2    0    0  0.00000000000E+00  0.17763568394E-14  0.00000000000E+00  0.91188000000E+02  0.91188000000E+02 0.  0.
    9900012    2    3    3    0    0  0.21932100275E+02  0.93185806266E+01  0.36273550366E+02  0.47787269321E+02  0.19999992141E+02 0.  0.
        -12    1    3    3    0    0 -0.21932100275E+02 -0.93185806266E+01 -0.36273550366E+02  0.43400730679E+02  0.00000000000E+00 0.  1.
         11    1    4    4    0    0  0.37852251720E+01 -0.83727918073E+00  0.79499210038E+01  0.88447843533E+01  0.51100000000E-03 0. -1.
        -11    1    4    4    0    0  0.62092066882E+01  0.12547600601E+02  0.11183258303E+02  0.17918197317E+02  0.51100000000E-03 0.  1.
        -12    1    4    4    0    0  0.11937668414E+02 -0.23917407936E+01  0.17140371059E+02  0.21024287651E+02  0.00000000000E+00 0.  1.
</event>
<event>
 8    1  0.5331800E-011  0.9118800E+02  0.7816164E-02  0.1184000E+00
        -11   -1    0    0    0    0  0.00000000000E+00  0.00000000000E+00  0.45593999997E+02  0.45594000000E+02  0.51100000000E-03 0. -1.
         11   -1    0    0    0    0 -0.00000000000E+00 -0.00000000000E+00 -0.45593999997E+02  0.45594000000E+02  0.51100000000E-03 0.  1.
         23    2    1    2    0    0  0.17763568394E-14  0.00000000000E+00  0.00000000000E+00  0.91188000000E+02  0.91188000000E+02 0.  0.
    9900012    2    3    3    0    0  0.83592842012E+01  0.22333915362E+02  0.36262123083E+02  0.47787274450E+02  0.20000015530E+02 0.  0.
        -12    1    3    3    0    0 -0.83592842012E+01 -0.22333915362E+02 -0.36262123083E+02  0.43400725550E+02  0.00000000000E+00 0.  1.
         11    1    4    4    0    0  0.86857347660E+01  0.47538421142E+01  0.12906815448E+02  0.16267356532E+02  0.51100000000E-03 0. -1.
        -11    1    4    4    0    0  0.13510254871E+01  0.17281363156E+02  0.14788505818E+02  0.22785317356E+02  0.51100000000E-03 0.  1.
        -12    1    4    4    0    0 -0.16774760519E+01  0.29871009132E+00  0.85668018165E+01  0.87346005625E+01  0.00000000000E+00 0.  1.
</event>
<event>
 8    1  0.5331800E-011  0.9118800E+02  0.7816164E-02  0.1184000E+00
        -11   -1    0    0    0    0  0.00000000000E+00  0.00000000000E+00  0.45593999997E+02  0.45594000000E+02  0.51100000000E-03 0. -1.
         11   -1    0    0    0    0 -0.00000000000E+00 -0.00000000000E+00 -0.45593999997E+02  0.45594000000E+02  0.51100000000E-03 0.  1.
         23    2    1    2    0    0  0.00000000000E+00  0.00000000000E+00  0.00000000000E+00  0.91188000000E+02  0.91188000000E+02 0.  0.
    9900012    2    3    3    0    0 -0.11260936419E+02 -0.11903441316E+02 -0.40188586855E+02  0.47787272845E+02  0.20000008209E+02 0.  0.
         12    1    3    3    0    0  0.11260936419E+02  0.11903441316E+02  0.40188586855E+02  0.43400727155E+02  0.00000000000E+00 0. -1.
         11    1    4    4    0    0 -0.46531983118E+01 -0.15802158134E+01 -0.48420015872E+01  0.68988633975E+01  0.51100000000E-03 0. -1.
        -11    1    4    4    0    0 -0.99308154479E+01 -0.95323942187E+01 -0.34807049325E+02  0.37430179241E+02  0.51100000000E-03 0.  1.
        -12    1    4    4    0    0  0.33230773403E+01 -0.79083128437E+00 -0.53953594217E+00  0.34582302068E+01  0.00000000000E+00 0.  1.
</event>
<event>
 8    1  0.5331800E-011  0.9118800E+02  0.7816164E-02  0.1184000E+00
        -11   -1    0    0    0    0  0.00000000000E+00  0.00000000000E+00  0.45593999997E+02  0.45594000000E+02  0.51100000000E-03 0.  1.
         11   -1    0    0    0    0 -0.00000000000E+00 -0.00000000000E+00 -0.45593999997E+02  0.45594000000E+02  0.51100000000E-03 0. -1.
         23    2    1    2    0    0  0.00000000000E+00  0.00000000000E+00  0.00000000000E+00  0.91188000000E+02  0.91188000000E+02 0.  0.
    9900012    2    3    3    0    0  0.91844403616E+01  0.35251259903E+02  0.23592780733E+02  0.47787256087E+02  0.19999931801E+02 0.  0.
        -12    1    3    3    0    0 -0.91844403616E+01 -0.35251259903E+02 -0.23592780733E+02  0.43400743913E+02  0.00000000000E+00 0.  1.
         11    1    4    4    0    0  0.72004777034E+01  0.39129294004E+01  0.74096627365E+01  0.11048121912E+02  0.51100000000E-03 0. -1.
        -11    1    4    4    0    0 -0.19750758075E+01  0.23610470077E+02  0.14829769569E+02  0.27951337847E+02  0.51100000000E-03 0.  1.
        -12    1    4    4    0    0  0.39590384657E+01  0.77278604255E+01  0.13533484278E+01  0.87877963276E+01  0.00000000000E+00 0.  1.
</event>
<event>
 8    1  0.5331800E-011  0.9118800E+02  0.7816164E-02  0.1184000E+00
        -11   -1    0    0    0    0  0.00000000000E+00  0.00000000000E+00  0.45593999997E+02  0.45594000000E+02  0.51100000000E-03 0. -1.
         11   -1    0    0    0    0 -0.00000000000E+00 -0.00000000000E+00 -0.45593999997E+02  0.45594000000E+02  0.51100000000E-03 0.  1.
         23    2    1    2    0    0 -0.71054273576E-14  0.17763568394E-14 -0.71054273576E-14  0.91188000000E+02  0.91188000000E+02 0.  0.
    9900012    2    3    3    0    0  0.37273531455E+02 -0.86934072174E+01  0.20462932835E+02  0.47787273089E+02  0.20000009320E+02 0.  0.
        -12    1    3    3    0    0 -0.37273531455E+02  0.86934072174E+01 -0.20462932835E+02  0.43400726911E+02  0.00000000000E+00 0.  1.
         11    1    4    4    0    0  0.12228297203E+02 -0.29358242732E+01 -0.17906844172E+01  0.12702632309E+02  0.51100000000E-03 0. -1.
        -11    1    4    4    0    0 -0.57861280539E+00 -0.83794076104E+00  0.63294434460E+00  0.11989813602E+01  0.51100000000E-03 0.  1.
         12    1    4    4    0    0  0.25623847058E+02 -0.49196421831E+01  0.21620672908E+02  0.33885659419E+02  0.00000000000E+00 0. -1.
</event>
<event>
 8    1  0.5331800E-011  0.9118800E+02  0.7816164E-02  0.1184000E+00
        -11   -1    0    0    0    0  0.00000000000E+00  0.00000000000E+00  0.45593999997E+02  0.45594000000E+02  0.51100000000E-03 0. -1.
         11   -1    0    0    0    0 -0.00000000000E+00 -0.00000000000E+00 -0.45593999997E+02  0.45594000000E+02  0.51100000000E-03 0.  1.
         23    2    1    2    0    0 -0.44408920985E-15  0.17763568394E-14  0.00000000000E+00  0.91188000000E+02  0.91188000000E+02 0.  0.
    9900012    2    3    3    0    0  0.30844977251E+01 -0.94487176121E+01  0.42247255822E+02  0.47787274024E+02  0.20000013586E+02 0.  0.
        -12    1    3    3    0    0 -0.30844977251E+01  0.94487176121E+01 -0.42247255822E+02  0.43400725976E+02  0.00000000000E+00 0.  1.
         11    1    4    4    0    0 -0.32858886463E+01  0.89159929222E+00  0.10673778270E+01  0.35680960162E+01  0.51100000000E-03 0.  1.
        -11    1    4    4    0    0  0.41895236651E+01 -0.38030207278E+01  0.33185634720E+02  0.33664542582E+02  0.51100000000E-03 0. -1.
         12    1    4    4    0    0  0.21808627064E+01 -0.65372961765E+01  0.79942432750E+01  0.10554635426E+02  0.00000000000E+00 0. -1.
</event>
<event>
 8    1  0.5331800E-011  0.9118800E+02  0.7816164E-02  0.1184000E+00
        -11   -1    0    0    0    0  0.00000000000E+00  0.00000000000E+00  0.45593999997E+02  0.45594000000E+02  0.51100000000E-03 0.  1.
         11   -1    0    0    0    0 -0.00000000000E+00 -0.00000000000E+00 -0.45593999997E+02  0.45594000000E+02  0.51100000000E-03 0. -1.
         23    2    1    2    0    0 -0.35527136788E-14 -0.35527136788E-14  0.00000000000E+00  0.91188000000E+02  0.91188000000E+02 0.  0.
    9900012    2    3    3    0    0  0.19523220773E+02  0.31675662130E+02 -0.22340978211E+02  0.47787273875E+02  0.20000012907E+02 0.  0.
         12    1    3    3    0    0 -0.19523220773E+02 -0.31675662130E+02  0.22340978211E+02  0.43400726125E+02  0.00000000000E+00 0. -1.
         11    1    4    4    0    0 -0.22950040110E+01  0.30447155884E+01  0.62567127455E+00  0.38637806912E+01  0.51100000000E-03 0. -1.
        -11    1    4    4    0    0  0.17282393862E+02  0.15140727004E+02 -0.16521093431E+02  0.28299633924E+02  0.51100000000E-03 0.  1.
         12    1    4    4    0    0  0.45358309216E+01  0.13490219537E+02 -0.64455560553E+01  0.15623859260E+02  0.00000000000E+00 0. -1.
</event>
<event>
 8    1  0.5331800E-011  0.9118800E+02  0.7816164E-02  0.1184000E+00
        -11   -1    0    0    0    0  0.00000000000E+00  0.00000000000E+00  0.45593999997E+02  0.45594000000E+02  0.51100000000E-03 0.  1.
         11   -1    0    0    0    0 -0.00000000000E+00 -0.00000000000E+00 -0.45593999997E+02  0.45594000000E+02  0.51100000000E-03 0. -1.
         23    2    1    2    0    0  0.00000000000E+00  0.00000000000E+00  0.00000000000E+00  0.91188000000E+02  0.91188000000E+02 0.  0.
    9900012    2    3    3    0    0  0.42962578461E+02 -0.31541118047E+01  0.52813110205E+01  0.47787264806E+02  0.19999971556E+02 0.  0.
         12    1    3    3    0    0 -0.42962578461E+02  0.31541118047E+01 -0.52813110205E+01  0.43400735194E+02  0.00000000000E+00 0. -1.
         11    1    4    4    0    0  0.23019300706E+02  0.35285700732E+01 -0.11526927368E+01  0.23316683138E+02  0.51100000000E-03 0. -1.
        -11    1    4    4    0    0  0.14093002915E+02  0.27234845696E+00  0.16268760666E+01  0.14189208253E+02  0.51100000000E-03 0.  1.
         12    1    4    4    0    0  0.58502748395E+01 -0.69550303349E+01  0.48071276907E+01  0.10281373415E+02  0.00000000000E+00 0. -1.
</event>
<event>
 8    1  0.5331800E-011  0.9118800E+02  0.7816164E-02  0.1184000E+00
        -11   -1    0    0    0    0  0.00000000000E+00  0.00000000000E+00  0.45593999997E+02  0.45594000000E+02  0.51100000000E-03 0. -1.
         11   -1    0    0    0    0 -0.00000000000E+00 -0.00000000000E+00 -0.45593999997E+02  0.45594000000E+02  0.51100000000E-03 0.  1.
         23    2    1    2    0    0  0.00000000000E+00  0.00000000000E+00  0.00000000000E+00  0.91188000000E+02  0.91188000000E+02 0.  0.
    9900012    2    3    3    0    0  0.64905483165E+01 -0.14379332606E+02  0.40431803776E+02  0.47787272123E+02  0.20000004917E+02 0.  0.
        -12    1    3    3    0    0 -0.64905483165E+01  0.14379332606E+02 -0.40431803776E+02  0.43400727877E+02  0.00000000000E+00 0.  1.
         11    1    4    4    0    0  0.96332775720E+01 -0.46368475584E+01  0.90538257197E+01  0.14009716360E+02  0.51100000000E-03 0. -1.
        -11    1    4    4    0    0 -0.47528144746E+01 -0.33837174929E+01  0.17019726517E+02  0.17991939320E+02  0.51100000000E-03 0.  1.
        -12    1    4    4    0    0  0.16100852190E+01 -0.63587675551E+01  0.14358251539E+02  0.15785616443E+02  0.00000000000E+00 0.  1.
</event>
<event>
 8    1  0.5331800E-011  0.9118800E+02  0.7816164E-02  0.1184000E+00
        -11   -1    0    0    0    0  0.00000000000E+00  0.00000000000E+00  0.45593999997E+02  0.45594000000E+02  0.51100000000E-03 0. -1.
         11   -1    0    0    0    0 -0.00000000000E+00 -0.00000000000E+00 -0.45593999997E+02  0.45594000000E+02  0.51100000000E-03 0.  1.
         23    2    1    2    0    0  0.00000000000E+00  0.00000000000E+00  0.71054273576E-14  0.91188000000E+02  0.91188000000E+02 0.  0.
    9900012    2    3    3    0    0  0.19697213073E+02 -0.15168097141E+02 -0.35574883839E+02  0.47787265745E+02  0.19999975838E+02 0.  0.
         12    1    3    3    0    0 -0.19697213073E+02  0.15168097141E+02  0.35574883839E+02  0.43400734255E+02  0.00000000000E+00 0. -1.
         11    1    4    4    0    0  0.17864353749E+02 -0.14213854936E+02 -0.19782837016E+02  0.30208102351E+02  0.51100000000E-03 0.  1.
        -11    1    4    4    0    0 -0.28958528805E+01 -0.50069752927E+00 -0.52585602813E+01  0.60240450209E+01  0.51100000000E-03 0. -1.
        -12    1    4    4    0    0  0.47287122043E+01 -0.45354467592E+00 -0.10533486542E+02  0.11555118373E+02  0.00000000000E+00 0.  1.
</event>
<event>
 8    1  0.5331800E-011  0.9118800E+02  0.7816164E-02  0.1184000E+00
        -11   -1    0    0    0    0  0.00000000000E+00  0.00000000000E+00  0.45593999997E+02  0.45594000000E+02  0.51100000000E-03 0. -1.
         11   -1    0    0    0    0 -0.00000000000E+00 -0.00000000000E+00 -0.45593999997E+02  0.45594000000E+02  0.51100000000E-03 0.  1.
         23    2    1    2    0    0 -0.35527136788E-14  0.00000000000E+00 -0.71054273576E-14  0.91188000000E+02  0.91188000000E+02 0.  0.
    9900012    2    3    3    0    0 -0.20583280059E+02  0.50350314416E+01 -0.37876119881E+02  0.47787269397E+02  0.19999992490E+02 0.  0.
         12    1    3    3    0    0  0.20583280059E+02 -0.50350314416E+01  0.37876119881E+02  0.43400730603E+02  0.00000000000E+00 0. -1.
         11    1    4    4    0    0 -0.19599943490E+02  0.58527771388E+01 -0.28645981617E+02  0.35199503521E+02  0.51100000000E-03 0.  1.
        -11    1    4    4    0    0  0.33129326869E+01  0.14834477193E+01 -0.46557606750E+01  0.59035792404E+01  0.51100000000E-03 0. -1.
        -12    1    4    4    0    0 -0.42962692558E+01 -0.23011934165E+01 -0.45743775892E+01  0.66841866361E+01  0.00000000000E+00 0.  1.
</event>
<event>
 8    1  0.5331800E-011  0.9118800E+02  0.7816164E-02  0.1184000E+00
        -11   -1    0    0    0    0  0.00000000000E+00  0.00000000000E+00  0.45593999997E+02  0.45594000000E+02  0.51100000000E-03 0. -1.
         11   -1    0    0    0    0 -0.00000000000E+00 -0.00000000000E+00 -0.45593999997E+02  0.45594000000E+02  0.51100000000E-03 0.  1.
         23    2    1    2    0    0 -0.35527136788E-14  0.00000000000E+00 -0.71054273576E-14  0.91188000000E+02  0.91188000000E+02 0.  0.
    9900012    2    3    3    0    0  0.18797888853E+02 -0.25205070094E+02  0.29915979611E+02  0.47787285492E+02  0.20000065870E+02 0.  0.
        -12    1    3    3    0    0 -0.18797888853E+02  0.25205070094E+02 -0.29915979611E+02  0.43400714508E+02  0.00000000000E+00 0.  1.
         11    1    4    4    0    0 -0.94990494412E+00 -0.65125670423E+01  0.10157528031E+02  0.12103355933E+02  0.51100000000E-03 0. -1.
        -11    1    4    4    0    0  0.86183340181E+01 -0.95482504744E+00  0.44611391869E+01  0.97513658133E+01  0.51100000000E-03 0.  1.
        -12    1    4    4    0    0  0.11129459779E+02 -0.17737678004E+02  0.15297312393E+02  0.25932563745E+02  0.00000000000E+00 0.  1.
</event>
<event>
 8    1  0.5331800E-011  0.9118800E+02  0.7816164E-02  0.1184000E+00
        -11   -1    0    0    0    0  0.00000000000E+00  0.00000000000E+00  0.45593999997E+02  0.45594000000E+02  0.51100000000E-03 0. -1.
         11   -1    0    0    0    0 -0.00000000000E+00 -0.00000000000E+00 -0.45593999997E+02  0.45594000000E+02  0.51100000000E-03 0.  1.
         23    2    1    2    0    0  0.00000000000E+00  0.00000000000E+00  0.35527136788E-14  0.91188000000E+02  0.91188000000E+02 0.  0.
    9900012    2    3    3    0    0  0.72645340994E+01  0.34808420422E+02 -0.24884200777E+02  0.47787273782E+02  0.20000012482E+02 0.  0.
         12    1    3    3    0    0 -0.72645340994E+01 -0.34808420422E+02  0.24884200777E+02  0.43400726218E+02  0.00000000000E+00 0. -1.
         11    1    4    4    0    0 -0.21113898355E+01  0.15290483295E+01 -0.12444630273E+01  0.28887098018E+01  0.51100000000E-03 0. -1.
        -11    1    4    4    0    0  0.44076057250E+01  0.18700355764E+02 -0.34751659349E+01  0.19524524897E+02  0.51100000000E-03 0.  1.
        -12    1    4    4    0    0  0.49683182099E+01  0.14579016329E+02 -0.20164571815E+02  0.25374039083E+02  0.00000000000E+00 0.  1.
</event>
<event>
 8    1  0.5331800E-011  0.9118800E+02  0.7816164E-02  0.1184000E+00
        -11   -1    0    0    0    0  0.00000000000E+00  0.00000000000E+00  0.45593999997E+02  0.45594000000E+02  0.51100000000E-03 0. -1.
         11   -1    0    0    0    0 -0.00000000000E+00 -0.00000000000E+00 -0.45593999997E+02  0.45594000000E+02  0.51100000000E-03 0.  1.
         23    2    1    2    0    0 -0.17763568394E-14  0.00000000000E+00 -0.71054273576E-14  0.91188000000E+02  0.91188000000E+02 0.  0.
    9900012    2    3    3    0    0  0.14017248359E+02 -0.71276665833E+01  0.40451652707E+02  0.47787273172E+02  0.20000009700E+02 0.  0.
        -12    1    3    3    0    0 -0.14017248359E+02  0.71276665833E+01 -0.40451652707E+02  0.43400726828E+02  0.00000000000E+00 0.  1.
         11    1    4    4    0    0  0.66671246645E+01  0.54128073009E+01  0.10175309812E+02  0.13314877551E+02  0.51100000000E-03 0. -1.
        -11    1    4    4    0    0  0.51052053177E+01 -0.72601350505E+01  0.98649776253E+01  0.13269908293E+02  0.51100000000E-03 0.  1.
         12    1    4    4    0    0  0.22449183765E+01 -0.52803388337E+01  0.20411365270E+02  0.21202487328E+02  0.00000000000E+00 0. -1.
</event>
<event>
 8    1  0.5331800E-011  0.9118800E+02  0.7816164E-02  0.1184000E+00
        -11   -1    0    0    0    0  0.00000000000E+00  0.00000000000E+00  0.45593999997E+02  0.45594000000E+02  0.51100000000E-03 0. -1.
         11   -1    0    0    0    0 -0.00000000000E+00 -0.00000000000E+00 -0.45593999997E+02  0.45594000000E+02  0.51100000000E-03 0.  1.
         23    2    1    2    0    0  0.00000000000E+00  0.88817841970E-15  0.00000000000E+00  0.91188000000E+02  0.91188000000E+02 0.  0.
    9900012    2    3    3    0    0  0.36168729106E+02  0.39253620162E+01 -0.23665116932E+02  0.47787271994E+02  0.20000004328E+02 0.  0.
         12    1    3    3    0    0 -0.36168729106E+02 -0.39253620162E+01  0.23665116932E+02  0.43400728006E+02  0.00000000000E+00 0. -1.
         11    1    4    4    0    0  0.13786924446E+02  0.72681718654E+01 -0.15855345775E+02  0.22232804543E+02  0.51100000000E-03 0. -1.
        -11    1    4    4    0    0  0.18019995356E+02  0.20257732970E+00 -0.84375163148E+01  0.19898566583E+02  0.51100000000E-03 0.  1.
         12    1    4    4    0    0  0.43618093033E+01 -0.35453871790E+01  0.62774515755E+00  0.56559008681E+01  0.00000000000E+00 0. -1.
</event>
<event>
 8    1  0.5331800E-011  0.9118800E+02  0.7816164E-02  0.1184000E+00
        -11   -1    0    0    0    0  0.00000000000E+00  0.00000000000E+00  0.45593999997E+02  0.45594000000E+02  0.51100000000E-03 0. -1.
         11   -1    0    0    0    0 -0.00000000000E+00 -0.00000000000E+00 -0.45593999997E+02  0.45594000000E+02  0.51100000000E-03 0.  1.
         23    2    1    2    0    0  0.00000000000E+00 -0.71054273576E-14  0.00000000000E+00  0.91188000000E+02  0.91188000000E+02 0.  0.
    9900012    2    3    3    0    0  0.13662947193E+02  0.32574133717E+02  0.25216519534E+02  0.47787272232E+02  0.20000005414E+02 0.  0.
        -12    1    3    3    0    0 -0.13662947193E+02 -0.32574133717E+02 -0.25216519534E+02  0.43400727768E+02  0.00000000000E+00 0.  1.
         11    1    4    4    0    0  0.59723074087E+01  0.10822054213E+02  0.69366505412E+01  0.14174005579E+02  0.51100000000E-03 0. -1.
        -11    1    4    4    0    0  0.74323458092E+01  0.57855186577E+01  0.14355418322E+02  0.17169450365E+02  0.51100000000E-03 0.  1.
        -12    1    4    4    0    0  0.25829397484E+00  0.15966560847E+02  0.39244506704E+01  0.16443816288E+02  0.00000000000E+00 0.  1.
</event>
<event>
 8    1  0.5331800E-011  0.9118800E+02  0.7816164E-02  0.1184000E+00
        -11   -1    0    0    0    0  0.00000000000E+00  0.00000000000E+00  0.45593999997E+02  0.45594000000E+02  0.51100000000E-03 0. -1.
         11   -1    0    0    0    0 -0.00000000000E+00 -0.00000000000E+00 -0.45593999997E+02  0.45594000000E+02  0.51100000000E-03 0.  1.
         23    2    1    2    0    0  0.00000000000E+00  0.00000000000E+00  0.00000000000E+00  0.91188000000E+02  0.91188000000E+02 0.  0.
    9900012    2    3    3    0    0  0.30413976488E+02 -0.29413188050E+02 -0.96684005741E+01  0.47787267671E+02  0.19999984618E+02 0.  0.
         12    1    3    3    0    0 -0.30413976488E+02  0.29413188050E+02  0.96684005741E+01  0.43400732329E+02  0.00000000000E+00 0. -1.
         11    1    4    4    0    0  0.11922682890E+02 -0.11443231411E+02  0.49732226467E+01  0.17257776687E+02  0.51100000000E-03 0. -1.
        -11    1    4    4    0    0  0.13942356743E+02 -0.17054595678E+02 -0.13153236010E+02  0.25656503329E+02  0.51100000000E-03 0.  1.
         12    1    4    4    0    0  0.45489368543E+01 -0.91536096148E+00 -0.14883872104E+01  0.48729876546E+01  0.00000000000E+00 0. -1.
</event>
<event>
 8    1  0.5899980E-011  0.9118800E+02  0.7816164E-02  0.1184000E+00
        -11   -1    0    0    0    0  0.00000000000E+00  0.00000000000E+00  0.45593999997E+02  0.45594000000E+02  0.51100000000E-03 0. -1.
         11   -1    0    0    0    0 -0.00000000000E+00 -0.00000000000E+00 -0.45593999997E+02  0.45594000000E+02  0.51100000000E-03 0.  1.
         23    2    1    2    0    0  0.00000000000E+00  0.00000000000E+00  0.00000000000E+00  0.91188000000E+02  0.91188000000E+02 0.  0.
    9900012    2    3    3    0    0  0.12940240163E+02 -0.23280673451E+02  0.34266363705E+02  0.47787271281E+02  0.20000001078E+02 0.  0.
        -12    1    3    3    0    0 -0.12940240163E+02  0.23280673451E+02 -0.34266363705E+02  0.43400728719E+02  0.00000000000E+00 0.  1.
         11    1    4    4    0    0  0.90715187183E+01 -0.14216625707E+02  0.18099755608E+02  0.24738756066E+02  0.51100000000E-03 0. -1.
        -11    1    4    4    0    0 -0.65875324830E+00 -0.20199618261E+00 -0.21201508562E+01  0.22293044238E+01  0.51100000000E-03 0.  1.
        -12    1    4    4    0    0  0.45274746930E+01 -0.88620515608E+01  0.18286758953E+02  0.20819210791E+02  0.00000000000E+00 0.  1.
</event>
<event>
 8    1  0.5331800E-011  0.9118800E+02  0.7816164E-02  0.1184000E+00
        -11   -1    0    0    0    0  0.00000000000E+00  0.00000000000E+00  0.45593999997E+02  0.45594000000E+02  0.51100000000E-03 0.  1.
         11   -1    0    0    0    0 -0.00000000000E+00 -0.00000000000E+00 -0.45593999997E+02  0.45594000000E+02  0.51100000000E-03 0. -1.
         23    2    1    2    0    0  0.00000000000E+00  0.00000000000E+00  0.35527136788E-14  0.91188000000E+02  0.91188000000E+02 0.  0.
    9900012    2    3    3    0    0 -0.33112220556E+02  0.85326970619E+01  0.26728207980E+02  0.47787272228E+02  0.20000005397E+02 0.  0.
        -12    1    3    3    0    0  0.33112220556E+02 -0.85326970619E+01 -0.26728207980E+02  0.43400727772E+02  0.00000000000E+00 0.  1.
         11    1    4    4    0    0 -0.22704982814E+02  0.91622908614E+01  0.97144504358E+01  0.26340735865E+02  0.51100000000E-03 0. -1.
        -11    1    4    4    0    0 -0.23218497340E+01  0.24755944720E+01  0.91078049911E+01  0.97196536046E+01  0.51100000000E-03 0.  1.
         12    1    4    4    0    0 -0.80853880086E+01 -0.31051882715E+01  0.79059525530E+01  0.11726882758E+02  0.00000000000E+00 0. -1.
</event>
<event>
 8    1  0.5649103E-011  0.9118800E+02  0.7816164E-02  0.1184000E+00
        -11   -1    0    0    0    0  0.00000000000E+00  0.00000000000E+00  0.45593999997E+02  0.45594000000E+02  0.51100000000E-03 0. -1.
         11   -1    0    0    0    0 -0.00000000000E+00 -0.00000000000E+00 -0.45593999997E+02  0.45594000000E+02  0.51100000000E-03 0.  1.
         23    2    1    2    0    0  0.00000000000E+00 -0.13322676296E-14  0.00000000000E+00  0.91188000000E+02  0.91188000000E+02 0.  0.
    9900012    2    3    3    0    0  0.96008873389E+01 -0.11266285563E+01  0.42310478548E+02  0.47787275069E+02  0.20000018349E+02 0.  0.
        -12    1    3    3    0    0 -0.96008873389E+01  0.11266285563E+01 -0.42310478548E+02  0.43400724931E+02  0.00000000000E+00 0.  1.
         11    1    4    4    0    0  0.65186870052E+01 -0.52802725058E+01  0.31836701610E+02  0.32923397876E+02  0.51100000000E-03 0. -1.
        -11    1    4    4    0    0  0.18302126773E+01  0.70483527985E+01  0.62762947782E+01  0.96135754025E+01  0.51100000000E-03 0.  1.
        -12    1    4    4    0    0  0.12519876564E+01 -0.28947088490E+01  0.41974821595E+01  0.52503017905E+01  0.00000000000E+00 0.  1.
</event>
<event>
 8    1  0.5331800E-011  0.9118800E+02  0.7816164E-02  0.1184000E+00
        -11   -1    0    0    0    0  0.00000000000E+00  0.00000000000E+00  0.45593999997E+02  0.45594000000E+02  0.51100000000E-03 0. -1.
         11   -1    0    0    0    0 -0.00000000000E+00 -0.00000000000E+00 -0.45593999997E+02  0.45594000000E+02  0.51100000000E-03 0.  1.
         23    2    1    2    0    0  0.00000000000E+00  0.00000000000E+00  0.71054273576E-14  0.91188000000E+02  0.91188000000E+02 0.  0.
    9900012    2    3    3    0    0 -0.76437959479E+01  0.12309679415E+02  0.40910479298E+02  0.47787272584E+02  0.20000007020E+02 0.  0.
        -12    1    3    3    0    0  0.76437959479E+01 -0.12309679415E+02 -0.40910479298E+02  0.43400727416E+02  0.00000000000E+00 0.  1.
         11    1    4    4    0    0 -0.13282191250E+01  0.13290637052E+02  0.22870123540E+02  0.26484858888E+02  0.51100000000E-03 0. -1.
        -11    1    4    4    0    0 -0.74011508736E+01 -0.14573950529E+01  0.73012221900E+01  0.10498041738E+02  0.51100000000E-03 0.  1.
         12    1    4    4    0    0  0.10855740507E+01  0.47643741619E+00  0.10739133568E+02  0.10804371959E+02  0.00000000000E+00 0. -1.
</event>
<event>
 8    1  0.5331800E-011  0.9118800E+02  0.7816164E-02  0.1184000E+00
        -11   -1    0    0    0    0  0.00000000000E+00  0.00000000000E+00  0.45593999997E+02  0.45594000000E+02  0.51100000000E-03 0. -1.
         11   -1    0    0    0    0 -0.00000000000E+00 -0.00000000000E+00 -0.45593999997E+02  0.45594000000E+02  0.51100000000E-03 0.  1.
         23    2    1    2    0    0 -0.17763568394E-14 -0.35527136788E-14  0.00000000000E+00  0.91188000000E+02  0.91188000000E+02 0.  0.
    9900012    2    3    3    0    0 -0.12756765877E+02 -0.23752339346E+02  0.34010507799E+02  0.47787270273E+02  0.19999996484E+02 0.  0.
        -12    1    3    3    0    0  0.12756765877E+02  0.23752339346E+02 -0.34010507799E+02  0.43400729727E+02  0.00000000000E+00 0.  1.
         11    1    4    4    0    0 -0.10446459649E+02 -0.21473623182E+02  0.21441383481E+02  0.32093269351E+02  0.51100000000E-03 0. -1.
        -11    1    4    4    0    0  0.22207850548E+01 -0.11792987139E+01  0.25578739069E+00  0.25274610119E+01  0.51100000000E-03 0.  1.
         12    1    4    4    0    0 -0.45310912828E+01 -0.10994174505E+01  0.12313336927E+02  0.13166539911E+02  0.00000000000E+00 0. -1.
</event>
<event>
 8    1  0.5331800E-011  0.9118800E+02  0.7816164E-02  0.1184000E+00
        -11   -1    0    0    0    0  0.00000000000E+00  0.00000000000E+00  0.45593999997E+02  0.45594000000E+02  0.51100000000E-03 0. -1.
         11   -1    0    0    0    0 -0.00000000000E+00 -0.00000000000E+00 -0.45593999997E+02  0.45594000000E+02  0.51100000000E-03 0.  1.
         23    2    1    2    0    0  0.00000000000E+00  0.00000000000E+00  0.00000000000E+00  0.91188000000E+02  0.91188000000E+02 0.  0.
    9900012    2    3    3    0    0  0.21018114818E+02  0.17883892922E+02 -0.33496700161E+02  0.47787266156E+02  0.19999977710E+02 0.  0.
         12    1    3    3    0    0 -0.21018114818E+02 -0.17883892922E+02  0.33496700161E+02  0.43400733844E+02  0.00000000000E+00 0. -1.
         11    1    4    4    0    0  0.39421762371E+01  0.65901713366E+01 -0.37274044174E+01  0.85360796436E+01  0.51100000000E-03 0. -1.
        -11    1    4    4    0    0  0.13082346628E+02  0.14056843783E+02 -0.28258031591E+02  0.34165172326E+02  0.51100000000E-03 0.  1.
        -12    1    4    4    0    0  0.39935919524E+01 -0.27631221971E+01 -0.15112641526E+01  0.50860141857E+01  0.00000000000E+00 0.  1.
</event>
<event>
 8    1  0.5331800E-011  0.9118800E+02  0.7816164E-02  0.1184000E+00
        -11   -1    0    0    0    0  0.00000000000E+00  0.00000000000E+00  0.45593999997E+02  0.45594000000E+02  0.51100000000E-03 0. -1.
         11   -1    0    0    0    0 -0.00000000000E+00 -0.00000000000E+00 -0.45593999997E+02  0.45594000000E+02  0.51100000000E-03 0.  1.
         23    2    1    2    0    0  0.00000000000E+00 -0.17763568394E-14  0.00000000000E+00  0.91188000000E+02  0.91188000000E+02 0.  0.
    9900012    2    3    3    0    0  0.34611619525E+02  0.14401475218E+02 -0.21869060285E+02  0.47787280048E+02  0.20000041051E+02 0.  0.
         12    1    3    3    0    0 -0.34611619525E+02 -0.14401475218E+02  0.21869060285E+02  0.43400719952E+02  0.00000000000E+00 0. -1.
         11    1    4    4    0    0  0.32346640772E+01  0.74425725795E+01 -0.51822222121E+01  0.96286222073E+01  0.51100000000E-03 0. -1.
        -11    1    4    4    0    0  0.27131645907E+02  0.91065816742E+01 -0.10798845622E+02  0.30588741498E+02  0.51100000000E-03 0.  1.
         12    1    4    4    0    0  0.42453095411E+01 -0.21476790355E+01 -0.58879924505E+01  0.75699163427E+01  0.00000000000E+00 0. -1.
</event>
<event>
 8    1  0.5331800E-011  0.9118800E+02  0.7816164E-02  0.1184000E+00
        -11   -1    0    0    0    0  0.00000000000E+00  0.00000000000E+00  0.45593999997E+02  0.45594000000E+02  0.51100000000E-03 0.  1.
         11   -1    0    0    0    0 -0.00000000000E+00 -0.00000000000E+00 -0.45593999997E+02  0.45594000000E+02  0.51100000000E-03 0. -1.
         23    2    1    2    0    0  0.00000000000E+00 -0.35527136788E-14  0.44408920985E-15  0.91188000000E+02  0.91188000000E+02 0.  0.
    9900012    2    3    3    0    0 -0.35090215336E+02 -0.25300835732E+02  0.34882189740E+01  0.47787272210E+02  0.20000005314E+02 0.  0.
        -12    1    3    3    0    0  0.35090215336E+02  0.25300835732E+02 -0.34882189740E+01  0.43400727790E+02  0.00000000000E+00 0.  1.
         11    1    4    4    0    0 -0.76275698168E+01 -0.11978940560E+01 -0.54574672158E+01  0.94550896428E+01  0.51100000000E-03 0. -1.
        -11    1    4    4    0    0 -0.20419777193E+02 -0.16949694405E+02  0.97246071386E+01  0.28263535258E+02  0.51100000000E-03 0.  1.
         12    1    4    4    0    0 -0.70428683265E+01 -0.71532472713E+01 -0.77892094876E+00  0.10068647309E+02  0.00000000000E+00 0. -1.
</event>
<event>
 8    1  0.5331800E-011  0.9118800E+02  0.7816164E-02  0.1184000E+00
        -11   -1    0    0    0    0  0.00000000000E+00  0.00000000000E+00  0.45593999997E+02  0.45594000000E+02  0.51100000000E-03 0. -1.
         11   -1    0    0    0    0 -0.00000000000E+00 -0.00000000000E+00 -0.45593999997E+02  0.45594000000E+02  0.51100000000E-03 0.  1.
         23    2    1    2    0    0  0.22204460493E-15  0.00000000000E+00  0.00000000000E+00  0.91188000000E+02  0.91188000000E+02 0.  0.
    9900012    2    3    3    0    0 -0.18522034312E+01  0.25572397801E+02  0.35017782630E+02  0.47787270891E+02  0.19999999302E+02 0.  0.
        -12    1    3    3    0    0  0.18522034312E+01 -0.25572397801E+02 -0.35017782630E+02  0.43400729109E+02  0.00000000000E+00 0.  1.
         11    1    4    4    0    0 -0.55170641107E+01  0.67427500570E+01  0.19712755612E+01  0.89324466039E+01  0.51100000000E-03 0.  1.
        -11    1    4    4    0    0  0.25608910009E+01  0.18861349755E+02  0.32393199312E+02  0.37571638762E+02  0.51100000000E-03 0. -1.
         12    1    4    4    0    0  0.11039696787E+01 -0.31702010896E-01  0.65330775673E+00  0.12831855259E+01  0.00000000000E+00 0. -1.
</event>
<event>
 8    1  0.5331800E-011  0.9118800E+02  0.7816164E-02  0.1184000E+00
        -11   -1    0    0    0    0  0.00000000000E+00  0.00000000000E+00  0.45593999997E+02  0.45594000000E+02  0.51100000000E-03 0.  1.
         11   -1    0    0    0    0 -0.00000000000E+00 -0.00000000000E+00 -0.45593999997E+02  0.45594000000E+02  0.51100000000E-03 0. -1.
         23    2    1    2    0    0  0.00000000000E+00  0.00000000000E+00  0.00000000000E+00  0.91188000000E+02  0.91188000000E+02 0.  0.
    9900012    2    3    3    0    0  0.33744850299E+02  0.17621811512E+02 -0.20841779751E+02  0.47787274823E+02  0.20000017230E+02 0.  0.
         12    1    3    3    0    0 -0.33744850299E+02 -0.17621811512E+02  0.20841779751E+02  0.43400725177E+02  0.00000000000E+00 0. -1.
         11    1    4    4    0    0  0.27986375654E+02  0.82596500350E+01 -0.15867017816E+02  0.33214775260E+02  0.51100000000E-03 0. -1.
        -11    1    4    4    0    0  0.44466177048E+01  0.21957597677E+00 -0.13744213080E+01  0.46593622756E+01  0.51100000000E-03 0.  1.
         12    1    4    4    0    0  0.13118569401E+01  0.91425854999E+01 -0.36003406273E+01  0.99131372878E+01  0.00000000000E+00 0. -1.
</event>
<event>
 8    1  0.5331800E-011  0.9118800E+02  0.7816164E-02  0.1184000E+00
        -11   -1    0    0    0    0  0.00000000000E+00  0.00000000000E+00  0.45593999997E+02  0.45594000000E+02  0.51100000000E-03 0. -1.
         11   -1    0    0    0    0 -0.00000000000E+00 -0.00000000000E+00 -0.45593999997E+02  0.45594000000E+02  0.51100000000E-03 0.  1.
         23    2    1    2    0    0  0.71054273576E-14  0.00000000000E+00  0.00000000000E+00  0.91188000000E+02  0.91188000000E+02 0.  0.
    9900012    2    3    3    0    0 -0.39194249233E+02  0.76453950414E+01 -0.16999463154E+02  0.47787274364E+02  0.20000015134E+02 0.  0.
        -12    1    3    3    0    0  0.39194249233E+02 -0.76453950414E+01  0.16999463154E+02  0.43400725636E+02  0.00000000000E+00 0.  1.
         11    1    4    4    0    0 -0.25254773070E+02  0.16535620660E+00 -0.65311519443E+01  0.26086142901E+02  0.51100000000E-03 0. -1.
        -11    1    4    4    0    0 -0.11050770235E+02  0.79703627403E+01 -0.12207368721E+02  0.18293880298E+02  0.51100000000E-03 0.  1.
        -12    1    4    4    0    0 -0.28887059278E+01 -0.49032390550E+00  0.17390575116E+01  0.34072511645E+01  0.00000000000E+00 0.  1.
</event>
<event>
 8    1  0.7157535E-011  0.9118800E+02  0.7816164E-02  0.1184000E+00
        -11   -1    0    0    0    0  0.00000000000E+00  0.00000000000E+00  0.45593999997E+02  0.45594000000E+02  0.51100000000E-03 0. -1.
         11   -1    0    0    0    0 -0.00000000000E+00 -0.00000000000E+00 -0.45593999997E+02  0.45594000000E+02  0.51100000000E-03 0.  1.
         23    2    1    2    0    0  0.00000000000E+00  0.00000000000E+00  0.71054273576E-14  0.91188000000E+02  0.91188000000E+02 0.  0.
    9900012    2    3    3    0    0 -0.13909048529E+02  0.23956248369E+02 -0.33410474165E+02  0.47787271310E+02  0.20000001209E+02 0.  0.
         12    1    3    3    0    0  0.13909048529E+02 -0.23956248369E+02  0.33410474165E+02  0.43400728690E+02  0.00000000000E+00 0. -1.
         11    1    4    4    0    0 -0.12268625740E+01 -0.11598776876E+01 -0.29850426443E+01  0.34294296720E+01  0.51100000000E-03 0. -1.
        -11    1    4    4    0    0 -0.26352827706E+01  0.11305983359E+02 -0.22942356238E+02  0.25712286655E+02  0.51100000000E-03 0.  1.
        -12    1    4    4    0    0 -0.10046903184E+02  0.13810142698E+02 -0.74830752831E+01  0.18645554983E+02  0.00000000000E+00 0.  1.
</event>
<event>
 8    1  0.5331800E-011  0.9118800E+02  0.7816164E-02  0.1184000E+00
        -11   -1    0    0    0    0  0.00000000000E+00  0.00000000000E+00  0.45593999997E+02  0.45594000000E+02  0.51100000000E-03 0. -1.
         11   -1    0    0    0    0 -0.00000000000E+00 -0.00000000000E+00 -0.45593999997E+02  0.45594000000E+02  0.51100000000E-03 0.  1.
         23    2    1    2    0    0  0.00000000000E+00  0.35527136788E-14  0.00000000000E+00  0.91188000000E+02  0.91188000000E+02 0.  0.
    9900012    2    3    3    0    0 -0.19980565128E+02 -0.21785615294E+02 -0.31777157112E+02  0.47787265782E+02  0.19999976006E+02 0.  0.
         12    1    3    3    0    0  0.19980565128E+02  0.21785615294E+02  0.31777157112E+02  0.43400734218E+02  0.00000000000E+00 0. -1.
         11    1    4    4    0    0 -0.12024193022E+02 -0.15782777336E+02 -0.25991666447E+02  0.32699296678E+02  0.51100000000E-03 0.  1.
        -11    1    4    4    0    0 -0.30522120949E+01  0.18525961170E+01  0.88085382349E+00  0.36775011576E+01  0.51100000000E-03 0. -1.
         12    1    4    4    0    0 -0.49041600104E+01 -0.78554340748E+01 -0.66663444883E+01  0.11410467946E+02  0.00000000000E+00 0. -1.
</event>
<event>
 8    1  0.6354429E-011  0.9118800E+02  0.7816164E-02  0.1184000E+00
        -11   -1    0    0    0    0  0.00000000000E+00  0.00000000000E+00  0.45593999997E+02  0.45594000000E+02  0.51100000000E-03 0. -1.
         11   -1    0    0    0    0 -0.00000000000E+00 -0.00000000000E+00 -0.45593999997E+02  0.45594000000E+02  0.51100000000E-03 0.  1.
         23    2    1    2    0    0  0.00000000000E+00  0.00000000000E+00 -0.71054273576E-14  0.91188000000E+02  0.91188000000E+02 0.  0.
    9900012    2    3    3    0    0 -0.23501236646E+02 -0.87573801432E+01 -0.35420667984E+02  0.47787267848E+02  0.19999985427E+02 0.  0.
         12    1    3    3    0    0  0.23501236646E+02  0.87573801432E+01  0.35420667984E+02  0.43400732152E+02  0.00000000000E+00 0. -1.
         11    1    4    4    0    0  0.20126118171E+00  0.14984923667E+00  0.12053317697E+01  0.12311725278E+01  0.51100000000E-03 0. -1.
        -11    1    4    4    0    0 -0.23669806985E+02 -0.54899548413E+01 -0.35376677803E+02  0.42917463805E+02  0.51100000000E-03 0.  1.
        -12    1    4    4    0    0 -0.32690842709E-01 -0.34172745386E+01 -0.12493219511E+01  0.36386315149E+01  0.00000000000E+00 0.  1.
</event>
<event>
 8    1  0.5331800E-011  0.9118800E+02  0.7816164E-02  0.1184000E+00
        -11   -1    0    0    0    0  0.00000000000E+00  0.00000000000E+00  0.45593999997E+02  0.45594000000E+02  0.51100000000E-03 0.  1.
         11   -1    0    0    0    0 -0.00000000000E+00 -0.00000000000E+00 -0.45593999997E+02  0.45594000000E+02  0.51100000000E-03 0. -1.
         23    2    1    2    0    0  0.71054273576E-14  0.17763568394E-14  0.33306690739E-15  0.91188000000E+02  0.91188000000E+02 0.  0.
    9900012    2    3    3    0    0 -0.41635999068E+02 -0.12216321871E+02  0.91005438710E+00  0.47787272617E+02  0.20000007168E+02 0.  0.
         12    1    3    3    0    0  0.41635999068E+02  0.12216321871E+02 -0.91005438710E+00  0.43400727383E+02  0.00000000000E+00 0. -1.
         11    1    4    4    0    0 -0.11902605729E+02 -0.18749030660E+01 -0.58719868182E+01  0.13404011120E+02  0.51100000000E-03 0. -1.
        -11    1    4    4    0    0 -0.25231043918E+02 -0.11107519981E+02  0.93911427891E+01  0.29123463744E+02  0.51100000000E-03 0.  1.
        -12    1    4    4    0    0 -0.45023494204E+01  0.76610117658E+00 -0.26091015838E+01  0.52597977519E+01  0.00000000000E+00 0.  1.
</event>
<event>
 8    1  0.5331800E-011  0.9118800E+02  0.7816164E-02  0.1184000E+00
        -11   -1    0    0    0    0  0.00000000000E+00  0.00000000000E+00  0.45593999997E+02  0.45594000000E+02  0.51100000000E-03 0. -1.
         11   -1    0    0    0    0 -0.00000000000E+00 -0.00000000000E+00 -0.45593999997E+02  0.45594000000E+02  0.51100000000E-03 0.  1.
         23    2    1    2    0    0  0.00000000000E+00  0.00000000000E+00  0.00000000000E+00  0.91188000000E+02  0.91188000000E+02 0.  0.
    9900012    2    3    3    0    0 -0.39180782645E+02  0.61525844309E+01 -0.17624844067E+02  0.47787272445E+02  0.20000006388E+02 0.  0.
         12    1    3    3    0    0  0.39180782645E+02 -0.61525844309E+01  0.17624844067E+02  0.43400727555E+02  0.00000000000E+00 0. -1.
         11    1    4    4    0    0  0.10397011303E+01  0.98714698212E+00  0.76071352984E+00  0.16229981332E+01  0.51100000000E-03 0. -1.
        -11    1    4    4    0    0 -0.38697623400E+02  0.20737587884E+01 -0.17887126311E+02  0.42682031585E+02  0.51100000000E-03 0.  1.
        -12    1    4    4    0    0 -0.15228603756E+01  0.30916786603E+01 -0.49843128594E+00  0.34822427269E+01  0.00000000000E+00 0.  1.
</event>
<event>
 8    1  0.5331800E-011  0.9118800E+02  0.7816164E-02  0.1184000E+00
        -11   -1    0    0    0    0  0.00000000000E+00  0.00000000000E+00  0.45593999997E+02  0.45594000000E+02  0.51100000000E-03 0. -1.
         11   -1    0    0    0    0 -0.00000000000E+00 -0.00000000000E+00 -0.45593999997E+02  0.45594000000E+02  0.51100000000E-03 0.  1.
         23    2    1    2    0    0  0.00000000000E+00  0.17763568394E-14  0.00000000000E+00  0.91188000000E+02  0.91188000000E+02 0.  0.
    9900012    2    3    3    0    0 -0.24553659083E+02  0.14556989506E+02  0.32693040643E+02  0.47787273919E+02  0.20000013107E+02 0.  0.
        -12    1    3    3    0    0  0.24553659083E+02 -0.14556989506E+02 -0.32693040643E+02  0.43400726081E+02  0.00000000000E+00 0.  1.
         11    1    4    4    0    0 -0.11970183864E+02  0.13981990028E+02  0.84110208818E+01  0.20236764055E+02  0.51100000000E-03 0. -1.
        -11    1    4    4    0    0 -0.69579123042E+01 -0.11055866528E+01  0.11534705879E+02  0.13516075815E+02  0.51100000000E-03 0.  1.
         12    1    4    4    0    0 -0.56255629152E+01  0.16805861313E+01  0.12747313882E+02  0.14034434049E+02  0.00000000000E+00 0. -1.
</event>
<event>
 8    1  0.5331800E-011  0.9118800E+02  0.7816164E-02  0.1184000E+00
        -11   -1    0    0    0    0  0.00000000000E+00  0.00000000000E+00  0.45593999997E+02  0.45594000000E+02  0.51100000000E-03 0. -1.
         11   -1    0    0    0    0 -0.00000000000E+00 -0.00000000000E+00 -0.45593999997E+02  0.45594000000E+02  0.51100000000E-03 0.  1.
         23    2    1    2    0    0 -0.35527136788E-14  0.00000000000E+00  0.00000000000E+00  0.91188000000E+02  0.91188000000E+02 0.  0.
    9900012    2    3    3    0    0  0.27214755443E+02 -0.22504206615E+02  0.25229764418E+02  0.47787271414E+02  0.20000001683E+02 0.  0.
        -12    1    3    3    0    0 -0.27214755443E+02  0.22504206615E+02 -0.25229764418E+02  0.43400728586E+02  0.00000000000E+00 0.  1.
         11    1    4    4    0    0  0.81932301593E+01 -0.10305150321E+02  0.43936848063E+00  0.13172630280E+02  0.51100000000E-03 0. -1.
        -11    1    4    4    0    0  0.25024504900E+01 -0.40791706623E+01  0.16848810982E+01  0.50735309523E+01  0.51100000000E-03 0.  1.
         12    1    4    4    0    0  0.16519074794E+02 -0.81198856319E+01  0.23105514839E+02  0.29541110181E+02  0.00000000000E+00 0. -1.
</event>
<event>
 8    1  0.5331800E-011  0.9118800E+02  0.7816164E-02  0.1184000E+00
        -11   -1    0    0    0    0  0.00000000000E+00  0.00000000000E+00  0.45593999997E+02  0.45594000000E+02  0.51100000000E-03 0. -1.
         11   -1    0    0    0    0 -0.00000000000E+00 -0.00000000000E+00 -0.45593999997E+02  0.45594000000E+02  0.51100000000E-03 0.  1.
         23    2    1    2    0    0  0.00000000000E+00  0.00000000000E+00  0.00000000000E+00  0.91188000000E+02  0.91188000000E+02 0.  0.
    9900012    2    3    3    0    0 -0.25042245794E+02  0.23791896764E+02 -0.26276531861E+02  0.47787256312E+02  0.19999932827E+02 0.  0.
         12    1    3    3    0    0  0.25042245794E+02 -0.23791896764E+02  0.26276531861E+02  0.43400743688E+02  0.00000000000E+00 0. -1.
         11    1    4    4    0    0 -0.10274553231E+02  0.55984823995E+01 -0.14795402891E+01  0.11794002247E+02  0.51100000000E-03 0. -1.
        -11    1    4    4    0    0 -0.95747573727E+01  0.17942143977E+02 -0.22441309806E+02  0.30285456829E+02  0.51100000000E-03 0.  1.
        -12    1    4    4    0    0 -0.51929351911E+01  0.25127038705E+00 -0.23556817659E+01  0.57077972361E+01  0.00000000000E+00 0.  1.
</event>
<event>
 8    1  0.5331800E-011  0.9118800E+02  0.7816164E-02  0.1184000E+00
        -11   -1    0    0    0    0  0.00000000000E+00  0.00000000000E+00  0.45593999997E+02  0.45594000000E+02  0.51100000000E-03 0. -1.
         11   -1    0    0    0    0 -0.00000000000E+00 -0.00000000000E+00 -0.45593999997E+02  0.45594000000E+02  0.51100000000E-03 0.  1.
         23    2    1    2    0    0 -0.35527136788E-14 -0.35527136788E-14  0.00000000000E+00  0.91188000000E+02  0.91188000000E+02 0.  0.
    9900012    2    3    3    0    0  0.22067711880E+02  0.31634689430E+02 -0.19896904149E+02  0.47787259481E+02  0.19999947276E+02 0.  0.
         12    1    3    3    0    0 -0.22067711880E+02 -0.31634689430E+02  0.19896904149E+02  0.43400740519E+02  0.00000000000E+00 0. -1.
         11    1    4    4    0    0  0.73291629493E+01  0.19753871254E+02 -0.10089077722E+02  0.23360683822E+02  0.51100000000E-03 0. -1.
        -11    1    4    4    0    0  0.17752829390E+01 -0.62129717557E+00  0.21131135433E+01  0.28289377515E+01  0.51100000000E-03 0.  1.
        -12    1    4    4    0    0  0.12963265992E+02  0.12502115351E+02 -0.11920939970E+02  0.21597637908E+02  0.00000000000E+00 0.  1.
</event>
<event>
 8    1  0.5331800E-011  0.9118800E+02  0.7816164E-02  0.1184000E+00
        -11   -1    0    0    0    0  0.00000000000E+00  0.00000000000E+00  0.45593999997E+02  0.45594000000E+02  0.51100000000E-03 0. -1.
         11   -1    0    0    0    0 -0.00000000000E+00 -0.00000000000E+00 -0.45593999997E+02  0.45594000000E+02  0.51100000000E-03 0.  1.
         23    2    1    2    0    0  0.35527136788E-14  0.00000000000E+00  0.71054273576E-14  0.91188000000E+02  0.91188000000E+02 0.  0.
    9900012    2    3    3    0    0 -0.22437211726E+02 -0.32350808278E+01 -0.37009842731E+02  0.47787277921E+02  0.20000031353E+02 0.  0.
         12    1    3    3    0    0  0.22437211726E+02  0.32350808278E+01  0.37009842731E+02  0.43400722079E+02  0.00000000000E+00 0. -1.
         11    1    4    4    0    0 -0.10171693032E+02  0.44045514516E+01 -0.68385967372E+01  0.13024201251E+02  0.51100000000E-03 0. -1.
        -11    1    4    4    0    0 -0.13386951231E+02 -0.84960922988E+01 -0.27808485884E+02  0.32011028334E+02  0.51100000000E-03 0.  1.
        -12    1    4    4    0    0  0.11214325380E+01  0.85646001941E+00 -0.23627601104E+01  0.27520483356E+01  0.00000000000E+00 0.  1.
</event>
<event>
 8    1  0.5331800E-011  0.9118800E+02  0.7816164E-02  0.1184000E+00
        -11   -1    0    0    0    0  0.00000000000E+00  0.00000000000E+00  0.45593999997E+02  0.45594000000E+02  0.51100000000E-03 0. -1.
         11   -1    0    0    0    0 -0.00000000000E+00 -0.00000000000E+00 -0.45593999997E+02  0.45594000000E+02  0.51100000000E-03 0.  1.
         23    2    1    2    0    0  0.17763568394E-14 -0.35527136788E-14  0.00000000000E+00  0.91188000000E+02  0.91188000000E+02 0.  0.
    9900012    2    3    3    0    0 -0.10543887412E+02  0.27214814137E+02 -0.32121697127E+02  0.47787273088E+02  0.20000009315E+02 0.  0.
         12    1    3    3    0    0  0.10543887412E+02 -0.27214814137E+02  0.32121697127E+02  0.43400726912E+02  0.00000000000E+00 0. -1.
         11    1    4    4    0    0  0.16783557451E+01  0.34084822314E+01 -0.41443865239E+01  0.56223277252E+01  0.51100000000E-03 0. -1.
        -11    1    4    4    0    0 -0.67407453919E+01  0.13484020338E+02 -0.26359871524E+02  0.30366087663E+02  0.51100000000E-03 0.  1.
        -12    1    4    4    0    0 -0.54814977649E+01  0.10322311567E+02 -0.16174390782E+01  0.11798857699E+02  0.00000000000E+00 0.  1.
</event>
<event>
 8    1  0.5331800E-011  0.9118800E+02  0.7816164E-02  0.1184000E+00
        -11   -1    0    0    0    0  0.00000000000E+00  0.00000000000E+00  0.45593999997E+02  0.45594000000E+02  0.51100000000E-03 0. -1.
         11   -1    0    0    0    0 -0.00000000000E+00 -0.00000000000E+00 -0.45593999997E+02  0.45594000000E+02  0.51100000000E-03 0.  1.
         23    2    1    2    0    0  0.71054273576E-14  0.17763568394E-14 -0.17763568394E-14  0.91188000000E+02  0.91188000000E+02 0.  0.
    9900012    2    3    3    0    0  0.39570337401E+02 -0.87471442181E+01 -0.15533783604E+02  0.47787279187E+02  0.20000037125E+02 0.  0.
         12    1    3    3    0    0 -0.39570337401E+02  0.87471442181E+01  0.15533783604E+02  0.43400720813E+02  0.00000000000E+00 0. -1.
         11    1    4    4    0    0  0.14613563784E+02 -0.59138635707E+01 -0.38410995162E+01  0.16226030771E+02  0.51100000000E-03 0. -1.
        -11    1    4    4    0    0  0.15273559520E+02  0.86300189951E+00  0.81205804982E+00  0.15319459234E+02  0.51100000000E-03 0.  1.
        -12    1    4    4    0    0  0.96832140972E+01 -0.36962825470E+01 -0.12504742138E+02  0.16241789183E+02  0.00000000000E+00 0.  1.
</event>
<event>
 8    1  0.5331800E-011  0.9118800E+02  0.7816164E-02  0.1184000E+00
        -11   -1    0    0    0    0  0.00000000000E+00  0.00000000000E+00  0.45593999997E+02  0.45594000000E+02  0.51100000000E-03 0. -1.
         11   -1    0    0    0    0 -0.00000000000E+00 -0.00000000000E+00 -0.45593999997E+02  0.45594000000E+02  0.51100000000E-03 0.  1.
         23    2    1    2    0    0  0.00000000000E+00 -0.35527136788E-14  0.35527136788E-14  0.91188000000E+02  0.91188000000E+02 0.  0.
    9900012    2    3    3    0    0  0.19059813255E+02 -0.25396072726E+02 -0.29586929212E+02  0.47787269921E+02  0.19999994876E+02 0.  0.
         12    1    3    3    0    0 -0.19059813255E+02  0.25396072726E+02  0.29586929212E+02  0.43400730079E+02  0.00000000000E+00 0. -1.
         11    1    4    4    0    0 -0.11859419389E+01 -0.12374431459E+02 -0.88493324067E+01  0.15259216773E+02  0.51100000000E-03 0. -1.
        -11    1    4    4    0    0  0.11905367926E+02 -0.87541362633E+01 -0.16775376101E+02  0.22355892529E+02  0.51100000000E-03 0.  1.
         12    1    4    4    0    0  0.83403872682E+01 -0.42675050029E+01 -0.39622207044E+01  0.10172160618E+02  0.00000000000E+00 0. -1.
</event>
<event>
 8    1  0.5331800E-011  0.9118800E+02  0.7816164E-02  0.1184000E+00
        -11   -1    0    0    0    0  0.00000000000E+00  0.00000000000E+00  0.45593999997E+02  0.45594000000E+02  0.51100000000E-03 0. -1.
         11   -1    0    0    0    0 -0.00000000000E+00 -0.00000000000E+00 -0.45593999997E+02  0.45594000000E+02  0.51100000000E-03 0.  1.
         23    2    1    2    0    0  0.00000000000E+00  0.00000000000E+00  0.00000000000E+00  0.91188000000E+02  0.91188000000E+02 0.  0.
    9900012    2    3    3    0    0 -0.47450583350E+01 -0.22445539547E+02  0.36841615427E+02  0.47787280519E+02  0.20000043201E+02 0.  0.
        -12    1    3    3    0    0  0.47450583350E+01  0.22445539547E+02 -0.36841615427E+02  0.43400719481E+02  0.00000000000E+00 0.  1.
         11    1    4    4    0    0 -0.76293130927E+01 -0.18353435474E+02  0.34205834600E+02  0.39561270618E+02  0.51100000000E-03 0. -1.
        -11    1    4    4    0    0  0.39321875906E+01 -0.49161139000E+01  0.14923935529E+01  0.64697383180E+01  0.51100000000E-03 0.  1.
         12    1    4    4    0    0 -0.10479328329E+01  0.82400982690E+00  0.11433872743E+01  0.17562715838E+01  0.00000000000E+00 0. -1.
</event>
<event>
 8    1  0.5331800E-011  0.9118800E+02  0.7816164E-02  0.1184000E+00
        -11   -1    0    0    0    0  0.00000000000E+00  0.00000000000E+00  0.45593999997E+02  0.45594000000E+02  0.51100000000E-03 0. -1.
         11   -1    0    0    0    0 -0.00000000000E+00 -0.00000000000E+00 -0.45593999997E+02  0.45594000000E+02  0.51100000000E-03 0.  1.
         23    2    1    2    0    0  0.17763568394E-14 -0.44408920985E-15 -0.71054273576E-14  0.91188000000E+02  0.91188000000E+02 0.  0.
    9900012    2    3    3    0    0  0.29083685877E+01  0.26557470148E+01 -0.43221655661E+02  0.47787272839E+02  0.20000008181E+02 0.  0.
         12    1    3    3    0    0 -0.29083685877E+01 -0.26557470148E+01  0.43221655661E+02  0.43400727161E+02  0.00000000000E+00 0. -1.
         11    1    4    4    0    0 -0.59739628847E+01  0.20237073709E+01 -0.71135067555E+01  0.95071343049E+01  0.51100000000E-03 0. -1.
        -11    1    4    4    0    0  0.60191064062E+01  0.47524917343E+01 -0.20655912034E+02  0.22033667916E+02  0.51100000000E-03 0.  1.
         12    1    4    4    0    0  0.28632250662E+01 -0.41204520904E+01 -0.15452236871E+02  0.16246470618E+02  0.00000000000E+00 0. -1.
</event>
<event>
 8    1  0.5331800E-011  0.9118800E+02  0.7816164E-02  0.1184000E+00
        -11   -1    0    0    0    0  0.00000000000E+00  0.00000000000E+00  0.45593999997E+02  0.45594000000E+02  0.51100000000E-03 0. -1.
         11   -1    0    0    0    0 -0.00000000000E+00 -0.00000000000E+00 -0.45593999997E+02  0.45594000000E+02  0.51100000000E-03 0.  1.
         23    2    1    2    0    0  0.44408920985E-15  0.00000000000E+00  0.00000000000E+00  0.91188000000E+02  0.91188000000E+02 0.  0.
    9900012    2    3    3    0    0 -0.32659895129E+01 -0.32723396898E+02  0.28322006155E+02  0.47787269307E+02  0.19999992079E+02 0.  0.
        -12    1    3    3    0    0  0.32659895129E+01  0.32723396898E+02 -0.28322006155E+02  0.43400730693E+02  0.00000000000E+00 0.  1.
         11    1    4    4    0    0 -0.38481179281E+00 -0.44580457187E+00  0.94223950228E+01  0.94407812208E+01  0.51100000000E-03 0.  1.
        -11    1    4    4    0    0 -0.27556721646E+01 -0.31892167083E+02  0.16691322713E+02  0.36101306133E+02  0.51100000000E-03 0. -1.
         12    1    4    4    0    0 -0.12550555542E+00 -0.38542524253E+00  0.22082884186E+01  0.22451819529E+01  0.00000000000E+00 0. -1.
</event>
<event>
 8    1  0.5331800E-011  0.9118800E+02  0.7816164E-02  0.1184000E+00
        -11   -1    0    0    0    0  0.00000000000E+00  0.00000000000E+00  0.45593999997E+02  0.45594000000E+02  0.51100000000E-03 0. -1.
         11   -1    0    0    0    0 -0.00000000000E+00 -0.00000000000E+00 -0.45593999997E+02  0.45594000000E+02  0.51100000000E-03 0.  1.
         23    2    1    2    0    0  0.00000000000E+00  0.00000000000E+00  0.71054273576E-14  0.91188000000E+02  0.91188000000E+02 0.  0.
    9900012    2    3    3    0    0 -0.14656489344E+01 -0.80810061052E+01  0.42616511608E+02  0.47787333552E+02  0.20000284995E+02 0.  0.
        -12    1    3    3    0    0  0.14656489344E+01  0.80810061052E+01 -0.42616511608E+02  0.43400666448E+02  0.00000000000E+00 0.  1.
         11    1    4    4    0    0 -0.21033351588E+01 -0.98620750091E+01  0.85007114030E+01  0.13188883080E+02  0.51100000000E-03 0. -1.
        -11    1    4    4    0    0 -0.10693230013E+01  0.29052031269E+01  0.12165969657E+02  0.12553663802E+02  0.51100000000E-03 0.  1.
         12    1    4    4    0    0  0.17070092257E+01 -0.11241342230E+01  0.21949830548E+02  0.22044786670E+02  0.00000000000E+00 0. -1.
</event>
<event>
 8    1  0.5926048E-011  0.9118800E+02  0.7816164E-02  0.1184000E+00
        -11   -1    0    0    0    0  0.00000000000E+00  0.00000000000E+00  0.45593999997E+02  0.45594000000E+02  0.51100000000E-03 0. -1.
         11   -1    0    0    0    0 -0.00000000000E+00 -0.00000000000E+00 -0.45593999997E+02  0.45594000000E+02  0.51100000000E-03 0.  1.
         23    2    1    2    0    0  0.00000000000E+00  0.00000000000E+00 -0.71054273576E-14  0.91188000000E+02  0.91188000000E+02 0.  0.
    9900012    2    3    3    0    0  0.74453922821E+00 -0.85082636984E+01 -0.42552058491E+02  0.47787279135E+02  0.20000036887E+02 0.  0.
         12    1    3    3    0    0 -0.74453922821E+00  0.85082636984E+01  0.42552058491E+02  0.43400720865E+02  0.00000000000E+00 0. -1.
         11    1    4    4    0    0  0.24434852458E+00 -0.33955778175E+00  0.14339851405E+01  0.14937601323E+01  0.51100000000E-03 0. -1.
        -11    1    4    4    0    0  0.28445668488E+01 -0.93765034216E+01 -0.41595732254E+02  0.42734240592E+02  0.51100000000E-03 0.  1.
        -12    1    4    4    0    0 -0.23443761452E+01  0.12077975050E+01 -0.23903113772E+01  0.35592784105E+01  0.00000000000E+00 0.  1.
</event>
<event>
 8    1  0.5331800E-011  0.9118800E+02  0.7816164E-02  0.1184000E+00
        -11   -1    0    0    0    0  0.00000000000E+00  0.00000000000E+00  0.45593999997E+02  0.45594000000E+02  0.51100000000E-03 0. -1.
         11   -1    0    0    0    0 -0.00000000000E+00 -0.00000000000E+00 -0.45593999997E+02  0.45594000000E+02  0.51100000000E-03 0.  1.
         23    2    1    2    0    0  0.17763568394E-14  0.35527136788E-14  0.00000000000E+00  0.91188000000E+02  0.91188000000E+02 0.  0.
    9900012    2    3    3    0    0 -0.11582454428E+02 -0.24873330539E+02 -0.33627182368E+02  0.47787271704E+02  0.20000003006E+02 0.  0.
         12    1    3    3    0    0  0.11582454428E+02  0.24873330539E+02  0.33627182368E+02  0.43400728296E+02  0.00000000000E+00 0. -1.
         11    1    4    4    0    0  0.32667563461E+01  0.41180365398E+00 -0.54989468917E+01  0.64093444636E+01  0.51100000000E-03 0. -1.
        -11    1    4    4    0    0 -0.14862349729E+02 -0.21465843158E+02 -0.26575876238E+02  0.37255188364E+02  0.51100000000E-03 0.  1.
        -12    1    4    4    0    0  0.13138954770E-01 -0.38192910345E+01 -0.15523592381E+01  0.41227388764E+01  0.00000000000E+00 0.  1.
</event>
<event>
 8    1  0.5331800E-011  0.9118800E+02  0.7816164E-02  0.1184000E+00
        -11   -1    0    0    0    0  0.00000000000E+00  0.00000000000E+00  0.45593999997E+02  0.45594000000E+02  0.51100000000E-03 0. -1.
         11   -1    0    0    0    0 -0.00000000000E+00 -0.00000000000E+00 -0.45593999997E+02  0.45594000000E+02  0.51100000000E-03 0.  1.
         23    2    1    2    0    0  0.71054273576E-14  0.35527136788E-14  0.35527136788E-14  0.91188000000E+02  0.91188000000E+02 0.  0.
    9900012    2    3    3    0    0 -0.37231660756E+02 -0.14239879754E+02 -0.17165447276E+02  0.47787270534E+02  0.19999997671E+02 0.  0.
         12    1    3    3    0    0  0.37231660756E+02  0.14239879754E+02  0.17165447276E+02  0.43400729466E+02  0.00000000000E+00 0. -1.
         11    1    4    4    0    0 -0.31184076749E+02 -0.10595497456E+02 -0.90586560394E+01  0.34158021876E+02  0.51100000000E-03 0. -1.
        -11    1    4    4    0    0 -0.55442934911E+01  0.86558745982E+00 -0.69754341125E+01  0.89523803139E+01  0.51100000000E-03 0.  1.
         12    1    4    4    0    0 -0.50329051573E+00 -0.45099697578E+01 -0.11313571242E+01  0.46768683435E+01  0.00000000000E+00 0. -1.
</event>
<event>
 8    1  0.5331800E-011  0.9118800E+02  0.7816164E-02  0.1184000E+00
        -11   -1    0    0    0    0  0.00000000000E+00  0.00000000000E+00  0.45593999997E+02  0.45594000000E+02  0.51100000000E-03 0.  1.
         11   -1    0    0    0    0 -0.00000000000E+00 -0.00000000000E+00 -0.45593999997E+02  0.45594000000E+02  0.51100000000E-03 0. -1.
         23    2    1    2    0    0  0.00000000000E+00  0.00000000000E+00  0.00000000000E+00  0.91188000000E+02  0.91188000000E+02 0.  0.
    9900012    2    3    3    0    0 -0.91604878263E+01 -0.41861094043E+02  0.68816720051E+01  0.47787272572E+02  0.20000006963E+02 0.  0.
        -12    1    3    3    0    0  0.91604878263E+01  0.41861094043E+02 -0.68816720051E+01  0.43400727428E+02  0.00000000000E+00 0.  1.
         11    1    4    4    0    0 -0.71765692932E+01 -0.89134232154E+01  0.70891601345E+01  0.13461368872E+02  0.51100000000E-03 0. -1.
        -11    1    4    4    0    0  0.13192309612E+01 -0.28937423961E+01 -0.24403418438E+01  0.40086636127E+01  0.51100000000E-03 0.  1.
         12    1    4    4    0    0 -0.33031494943E+01 -0.30053928432E+02  0.22328537145E+01  0.30317240087E+02  0.00000000000E+00 0. -1.
</event>
<event>
 8    1  0.5331800E-011  0.9118800E+02  0.7816164E-02  0.1184000E+00
        -11   -1    0    0    0    0  0.00000000000E+00  0.00000000000E+00  0.45593999997E+02  0.45594000000E+02  0.51100000000E-03 0. -1.
         11   -1    0    0    0    0 -0.00000000000E+00 -0.00000000000E+00 -0.45593999997E+02  0.45594000000E+02  0.51100000000E-03 0.  1.
         23    2    1    2    0    0  0.00000000000E+00  0.88817841970E-15  0.00000000000E+00  0.91188000000E+02  0.91188000000E+02 0.  0.
    9900012    2    3    3    0    0  0.38288452853E+02  0.33735647076E+01  0.20155315843E+02  0.47787270543E+02  0.19999997714E+02 0.  0.
        -12    1    3    3    0    0 -0.38288452853E+02 -0.33735647076E+01 -0.20155315843E+02  0.43400729457E+02  0.00000000000E+00 0.  1.
         11    1    4    4    0    0  0.24072481278E+02  0.62723450868E+01  0.80747883689E+01  0.26153945691E+02  0.51100000000E-03 0. -1.
        -11    1    4    4    0    0  0.51273833812E+01 -0.15754017513E+01  0.11185813561E+02  0.12405417216E+02  0.51100000000E-03 0.  1.
        -12    1    4    4    0    0  0.90885881935E+01 -0.13233786279E+01  0.89471391235E+00  0.92279076355E+01  0.00000000000E+00 0.  1.
</event>
<event>
 8    1  0.5331800E-011  0.9118800E+02  0.7816164E-02  0.1184000E+00
        -11   -1    0    0    0    0  0.00000000000E+00  0.00000000000E+00  0.45593999997E+02  0.45594000000E+02  0.51100000000E-03 0. -1.
         11   -1    0    0    0    0 -0.00000000000E+00 -0.00000000000E+00 -0.45593999997E+02  0.45594000000E+02  0.51100000000E-03 0.  1.
         23    2    1    2    0    0  0.00000000000E+00  0.00000000000E+00  0.00000000000E+00  0.91188000000E+02  0.91188000000E+02 0.  0.
    9900012    2    3    3    0    0  0.11758613191E+02  0.28998159665E+02 -0.30074325905E+02  0.47787270435E+02  0.19999997222E+02 0.  0.
         12    1    3    3    0    0 -0.11758613191E+02 -0.28998159665E+02  0.30074325905E+02  0.43400729565E+02  0.00000000000E+00 0. -1.
         11    1    4    4    0    0  0.78117240179E+01  0.89828748789E+01 -0.94871758036E+01  0.15222403825E+02  0.51100000000E-03 0. -1.
        -11    1    4    4    0    0 -0.54455975164E+01  0.65642905283E+01 -0.94842445618E+01  0.12755208255E+02  0.51100000000E-03 0.  1.
        -12    1    4    4    0    0  0.93924866897E+01  0.13450994257E+02 -0.11102905540E+02  0.19809658355E+02  0.00000000000E+00 0.  1.
</event>
<event>
 8    1  0.5331800E-011  0.9118800E+02  0.7816164E-02  0.1184000E+00
        -11   -1    0    0    0    0  0.00000000000E+00  0.00000000000E+00  0.45593999997E+02  0.45594000000E+02  0.51100000000E-03 0. -1.
         11   -1    0    0    0    0 -0.00000000000E+00 -0.00000000000E+00 -0.45593999997E+02  0.45594000000E+02  0.51100000000E-03 0.  1.
         23    2    1    2    0    0 -0.53290705182E-14  0.00000000000E+00  0.00000000000E+00  0.91188000000E+02  0.91188000000E+02 0.  0.
    9900012    2    3    3    0    0 -0.14610385634E+02  0.10489545219E+02  0.39498466992E+02  0.47787276250E+02  0.20000023734E+02 0.  0.
        -12    1    3    3    0    0  0.14610385634E+02 -0.10489545219E+02 -0.39498466992E+02  0.43400723750E+02  0.00000000000E+00 0.  1.
         11    1    4    4    0    0  0.20351317184E+01  0.71945214220E+01  0.11147062692E+02  0.13422365906E+02  0.51100000000E-03 0. -1.
        -11    1    4    4    0    0 -0.87785606138E+01 -0.10289939583E+01  0.72442588878E+01  0.11428090046E+02  0.51100000000E-03 0.  1.
         12    1    4    4    0    0 -0.78669567384E+01  0.43240177554E+01  0.21107145413E+02  0.22936820298E+02  0.00000000000E+00 0. -1.
</event>
<event>
 8    1  0.5331800E-011  0.9118800E+02  0.7816164E-02  0.1184000E+00
        -11   -1    0    0    0    0  0.00000000000E+00  0.00000000000E+00  0.45593999997E+02  0.45594000000E+02  0.51100000000E-03 0. -1.
         11   -1    0    0    0    0 -0.00000000000E+00 -0.00000000000E+00 -0.45593999997E+02  0.45594000000E+02  0.51100000000E-03 0.  1.
         23    2    1    2    0    0  0.00000000000E+00  0.00000000000E+00  0.00000000000E+00  0.91188000000E+02  0.91188000000E+02 0.  0.
    9900012    2    3    3    0    0 -0.12888080671E+02  0.15287360651E+02  0.38520345182E+02  0.47787274061E+02  0.20000013753E+02 0.  0.
        -12    1    3    3    0    0  0.12888080671E+02 -0.15287360651E+02 -0.38520345182E+02  0.43400725939E+02  0.00000000000E+00 0.  1.
         11    1    4    4    0    0  0.31150104068E+00  0.73886295311E+01  0.28154754142E+01  0.79130134155E+01  0.51100000000E-03 0.  1.
        -11    1    4    4    0    0 -0.50533517842E+01 -0.14389788481E+01  0.12705942656E+02  0.13749472841E+02  0.51100000000E-03 0. -1.
        -12    1    4    4    0    0 -0.81462299277E+01  0.93377099680E+01  0.22998927112E+02  0.26124787804E+02  0.00000000000E+00 0.  1.
</event>
<event>
 8    1  0.5331800E-011  0.9118800E+02  0.7816164E-02  0.1184000E+00
        -11   -1    0    0    0    0  0.00000000000E+00  0.00000000000E+00  0.45593999997E+02  0.45594000000E+02  0.51100000000E-03 0. -1.
         11   -1    0    0    0    0 -0.00000000000E+00 -0.00000000000E+00 -0.45593999997E+02  0.45594000000E+02  0.51100000000E-03 0.  1.
         23    2    1    2    0    0  0.35527136788E-14  0.00000000000E+00  0.00000000000E+00  0.91188000000E+02  0.91188000000E+02 0.  0.
    9900012    2    3    3    0    0  0.26436270941E+02 -0.34074803940E+01 -0.34251083927E+02  0.47787261596E+02  0.19999956919E+02 0.  0.
         12    1    3    3    0    0 -0.26436270941E+02  0.34074803940E+01  0.34251083927E+02  0.43400738404E+02  0.00000000000E+00 0. -1.
         11    1    4    4    0    0 -0.16111439971E+01 -0.32660766463E+01 -0.19123599075E+01  0.41134124904E+01  0.51100000000E-03 0. -1.
        -11    1    4    4    0    0  0.27208213066E+02  0.16807916821E+01 -0.30895676639E+02  0.41202606157E+02  0.51100000000E-03 0.  1.
        -12    1    4    4    0    0  0.83920187201E+00 -0.18221954297E+01 -0.14430473806E+01  0.24712429482E+01  0.00000000000E+00 0.  1.
</event>
<event>
 8    1  0.5331800E-011  0.9118800E+02  0.7816164E-02  0.1184000E+00
        -11   -1    0    0    0    0  0.00000000000E+00  0.00000000000E+00  0.45593999997E+02  0.45594000000E+02  0.51100000000E-03 0. -1.
         11   -1    0    0    0    0 -0.00000000000E+00 -0.00000000000E+00 -0.45593999997E+02  0.45594000000E+02  0.51100000000E-03 0.  1.
         23    2    1    2    0    0  0.00000000000E+00  0.35527136788E-14 -0.44408920985E-15  0.91188000000E+02  0.91188000000E+02 0.  0.
    9900012    2    3    3    0    0  0.30393038725E+02 -0.30956175438E+02  0.12656137393E+01  0.47787269836E+02  0.19999994490E+02 0.  0.
        -12    1    3    3    0    0 -0.30393038725E+02  0.30956175438E+02 -0.12656137393E+01  0.43400730164E+02  0.00000000000E+00 0.  1.
         11    1    4    4    0    0  0.11921549528E+02 -0.21677758925E+02 -0.55470481127E+01  0.25353861997E+02  0.51100000000E-03 0. -1.
        -11    1    4    4    0    0  0.15517365055E+02 -0.63209573974E+01  0.35416913485E+01  0.17125615275E+02  0.51100000000E-03 0.  1.
         12    1    4    4    0    0  0.29541241422E+01 -0.29574591148E+01  0.32709705035E+01  0.53077925636E+01  0.00000000000E+00 0. -1.
</event>
<event>
 8    1  0.5995537E-011  0.9118800E+02  0.7816164E-02  0.1184000E+00
        -11   -1    0    0    0    0  0.00000000000E+00  0.00000000000E+00  0.45593999997E+02  0.45594000000E+02  0.51100000000E-03 0. -1.
         11   -1    0    0    0    0 -0.00000000000E+00 -0.00000000000E+00 -0.45593999997E+02  0.45594000000E+02  0.51100000000E-03 0.  1.
         23    2    1    2    0    0  0.00000000000E+00  0.00000000000E+00  0.00000000000E+00  0.91188000000E+02  0.91188000000E+02 0.  0.
    9900012    2    3    3    0    0 -0.71447290648E+01 -0.13971797248E+02 -0.40464373957E+02  0.47787264621E+02  0.19999970711E+02 0.  0.
         12    1    3    3    0    0  0.71447290648E+01  0.13971797248E+02  0.40464373957E+02  0.43400735379E+02  0.00000000000E+00 0. -1.
         11    1    4    4    0    0 -0.66617804397E+01 -0.44998475929E+01 -0.32694991229E+01  0.86785696841E+01  0.51100000000E-03 0. -1.
        -11    1    4    4    0    0  0.13929253400E+01 -0.95127776548E+01 -0.25270301724E+02  0.27037406111E+02  0.51100000000E-03 0.  1.
        -12    1    4    4    0    0 -0.18758739651E+01  0.40827999429E-01 -0.11924573110E+02  0.12071288826E+02  0.00000000000E+00 0.  1.
</event>
<event>
 8    1  0.5331800E-011  0.9118800E+02  0.7816164E-02  0.1184000E+00
        -11   -1    0    0    0    0  0.00000000000E+00  0.00000000000E+00  0.45593999997E+02  0.45594000000E+02  0.51100000000E-03 0. -1.
         11   -1    0    0    0    0 -0.00000000000E+00 -0.00000000000E+00 -0.45593999997E+02  0.45594000000E+02  0.51100000000E-03 0.  1.
         23    2    1    2    0    0 -0.35527136788E-14  0.35527136788E-14  0.00000000000E+00  0.91188000000E+02  0.91188000000E+02 0.  0.
    9900012    2    3    3    0    0  0.87126750648E+01 -0.25661434011E+02 -0.33899893591E+02  0.47787277797E+02  0.20000030787E+02 0.  0.
         12    1    3    3    0    0 -0.87126750648E+01  0.25661434011E+02  0.33899893591E+02  0.43400722203E+02  0.00000000000E+00 0. -1.
         11    1    4    4    0    0  0.17030246169E+01 -0.35812545448E+01 -0.12374730510E+01  0.41541565658E+01  0.51100000000E-03 0. -1.
        -11    1    4    4    0    0 -0.55931012735E+01 -0.71432992811E+01 -0.74898082520E+01  0.11764639152E+02  0.51100000000E-03 0.  1.
        -12    1    4    4    0    0  0.12602751721E+02 -0.14936880185E+02 -0.25172612288E+02  0.31868482079E+02  0.00000000000E+00 0.  1.
</event>
<event>
 8    1  0.5331800E-011  0.9118800E+02  0.7816164E-02  0.1184000E+00
        -11   -1    0    0    0    0  0.00000000000E+00  0.00000000000E+00  0.45593999997E+02  0.45594000000E+02  0.51100000000E-03 0. -1.
         11   -1    0    0    0    0 -0.00000000000E+00 -0.00000000000E+00 -0.45593999997E+02  0.45594000000E+02  0.51100000000E-03 0.  1.
         23    2    1    2    0    0  0.00000000000E+00  0.00000000000E+00  0.00000000000E+00  0.91188000000E+02  0.91188000000E+02 0.  0.
    9900012    2    3    3    0    0 -0.35570256678E+02 -0.18563083793E+01  0.24797879316E+02  0.47787264298E+02  0.19999969238E+02 0.  0.
        -12    1    3    3    0    0  0.35570256678E+02  0.18563083793E+01 -0.24797879316E+02  0.43400735702E+02  0.00000000000E+00 0.  1.
         11    1    4    4    0    0 -0.77571367717E+01  0.25256494788E+01 -0.18131221930E+00  0.81599602061E+01  0.51100000000E-03 0. -1.
        -11    1    4    4    0    0 -0.28206460644E+02 -0.48155364335E+01  0.25860760369E+02  0.38569064551E+02  0.51100000000E-03 0.  1.
        -12    1    4    4    0    0  0.39334073762E+00  0.43357857543E+00 -0.88156883352E+00  0.10582395405E+01  0.00000000000E+00 0.  1.
</event>
<event>
 8    1  0.5331800E-011  0.9118800E+02  0.7816164E-02  0.1184000E+00
        -11   -1    0    0    0    0  0.00000000000E+00  0.00000000000E+00  0.45593999997E+02  0.45594000000E+02  0.51100000000E-03 0. -1.
         11   -1    0    0    0    0 -0.00000000000E+00 -0.00000000000E+00 -0.45593999997E+02  0.45594000000E+02  0.51100000000E-03 0.  1.
         23    2    1    2    0    0  0.00000000000E+00 -0.36429192996E-16 -0.71054273576E-14  0.91188000000E+02  0.91188000000E+02 0.  0.
    9900012    2    3    3    0    0 -0.28646609699E+02 -0.43582117636E-02 -0.32603601844E+02  0.47787272824E+02  0.20000008112E+02 0.  0.
         12    1    3    3    0    0  0.28646609699E+02  0.43582117636E-02  0.32603601844E+02  0.43400727176E+02  0.00000000000E+00 0. -1.
         11    1    4    4    0    0 -0.57951809280E+01  0.43423385278E+00  0.12373951163E+01  0.59417024464E+01  0.51100000000E-03 0. -1.
        -11    1    4    4    0    0 -0.18054018912E+02 -0.41726306858E+01 -0.25824311226E+02  0.31784485151E+02  0.51100000000E-03 0.  1.
        -12    1    4    4    0    0 -0.47974098591E+01  0.37340386213E+01 -0.80166857336E+01  0.10061085226E+02  0.00000000000E+00 0.  1.
</event>
<event>
 8    1  0.5331800E-011  0.9118800E+02  0.7816164E-02  0.1184000E+00
        -11   -1    0    0    0    0  0.00000000000E+00  0.00000000000E+00  0.45593999997E+02  0.45594000000E+02  0.51100000000E-03 0. -1.
         11   -1    0    0    0    0 -0.00000000000E+00 -0.00000000000E+00 -0.45593999997E+02  0.45594000000E+02  0.51100000000E-03 0.  1.
         23    2    1    2    0    0  0.00000000000E+00  0.00000000000E+00  0.00000000000E+00  0.91188000000E+02  0.91188000000E+02 0.  0.
    9900012    2    3    3    0    0  0.65454299485E+01  0.15756122063E+02  0.39906453504E+02  0.47787273429E+02  0.20000010871E+02 0.  0.
        -12    1    3    3    0    0 -0.65454299485E+01 -0.15756122063E+02 -0.39906453504E+02  0.43400726571E+02  0.00000000000E+00 0.  1.
         11    1    4    4    0    0 -0.18279684623E+01 -0.18471788173E+01  0.12250131974E+02  0.12522750174E+02  0.51100000000E-03 0. -1.
        -11    1    4    4    0    0  0.85667431523E+01  0.14835609760E+02  0.27606008566E+02  0.32489630875E+02  0.51100000000E-03 0.  1.
        -12    1    4    4    0    0 -0.19334474156E+00  0.27676911199E+01  0.50312964022E-01  0.27748923796E+01  0.00000000000E+00 0.  1.
</event>
<event>
 8    1  0.5331800E-011  0.9118800E+02  0.7816164E-02  0.1184000E+00
        -11   -1    0    0    0    0  0.00000000000E+00  0.00000000000E+00  0.45593999997E+02  0.45594000000E+02  0.51100000000E-03 0. -1.
         11   -1    0    0    0    0 -0.00000000000E+00 -0.00000000000E+00 -0.45593999997E+02  0.45594000000E+02  0.51100000000E-03 0.  1.
         23    2    1    2    0    0  0.00000000000E+00  0.00000000000E+00  0.35527136788E-14  0.91188000000E+02  0.91188000000E+02 0.  0.
    9900012    2    3    3    0    0  0.11769452407E+02  0.33626571207E+02 -0.24786226847E+02  0.47787270255E+02  0.19999996401E+02 0.  0.
         12    1    3    3    0    0 -0.11769452407E+02 -0.33626571207E+02  0.24786226847E+02  0.43400729745E+02  0.00000000000E+00 0. -1.
         11    1    4    4    0    0  0.11747080297E+02  0.28566953859E+02 -0.20217918328E+02  0.36916513515E+02  0.51100000000E-03 0. -1.
        -11    1    4    4    0    0  0.29719166185E+00  0.66555426096E+01 -0.58023861153E+01  0.88347187393E+01  0.51100000000E-03 0.  1.
         12    1    4    4    0    0 -0.27481955218E+00 -0.15959252619E+01  0.12340775964E+01  0.20360380011E+01  0.00000000000E+00 0. -1.
</event>
<event>
 8    1  0.5331800E-011  0.9118800E+02  0.7816164E-02  0.1184000E+00
        -11   -1    0    0    0    0  0.00000000000E+00  0.00000000000E+00  0.45593999997E+02  0.45594000000E+02  0.51100000000E-03 0. -1.
         11   -1    0    0    0    0 -0.00000000000E+00 -0.00000000000E+00 -0.45593999997E+02  0.45594000000E+02  0.51100000000E-03 0.  1.
         23    2    1    2    0    0 -0.44408920985E-15  0.00000000000E+00  0.00000000000E+00  0.91188000000E+02  0.91188000000E+02 0.  0.
    9900012    2    3    3    0    0 -0.18488441983E+01 -0.56207154717E+01  0.42995494064E+02  0.47787272160E+02  0.20000005085E+02 0.  0.
        -12    1    3    3    0    0  0.18488441983E+01  0.56207154717E+01 -0.42995494064E+02  0.43400727840E+02  0.00000000000E+00 0.  1.
         11    1    4    4    0    0 -0.40264367411E+01  0.91866736198E-01  0.20585316915E+01  0.45230725523E+01  0.51100000000E-03 0. -1.
        -11    1    4    4    0    0  0.56704722267E+01 -0.70578241562E+01  0.19452940622E+02  0.21456561611E+02  0.51100000000E-03 0.  1.
        -12    1    4    4    0    0 -0.34928796840E+01  0.13452419483E+01  0.21484021751E+02  0.21807637996E+02  0.00000000000E+00 0.  1.
</event>
<event>
 8    1  0.5331800E-011  0.9118800E+02  0.7816164E-02  0.1184000E+00
        -11   -1    0    0    0    0  0.00000000000E+00  0.00000000000E+00  0.45593999997E+02  0.45594000000E+02  0.51100000000E-03 0. -1.
         11   -1    0    0    0    0 -0.00000000000E+00 -0.00000000000E+00 -0.45593999997E+02  0.45594000000E+02  0.51100000000E-03 0.  1.
         23    2    1    2    0    0 -0.71054273576E-14 -0.99920072216E-15  0.00000000000E+00  0.91188000000E+02  0.91188000000E+02 0.  0.
    9900012    2    3    3    0    0 -0.32971659232E+02  0.26723397868E+00 -0.28220936378E+02  0.47787274469E+02  0.20000015615E+02 0.  0.
         12    1    3    3    0    0  0.32971659232E+02 -0.26723397868E+00  0.28220936378E+02  0.43400725531E+02  0.00000000000E+00 0. -1.
         11    1    4    4    0    0 -0.24398664958E+00 -0.10625458310E+01 -0.17765640395E+01  0.20843975570E+01  0.51100000000E-03 0. -1.
        -11    1    4    4    0    0 -0.23547930817E+02 -0.73201468315E+01 -0.17759270766E+02  0.30388835019E+02  0.51100000000E-03 0.  1.
        -12    1    4    4    0    0 -0.91797417656E+01  0.86499266411E+01 -0.86851015727E+01  0.15314041893E+02  0.00000000000E+00 0.  1.
</event>
<event>
 8    1  0.5331800E-011  0.9118800E+02  0.7816164E-02  0.1184000E+00
        -11   -1    0    0    0    0  0.00000000000E+00  0.00000000000E+00  0.45593999997E+02  0.45594000000E+02  0.51100000000E-03 0. -1.
         11   -1    0    0    0    0 -0.00000000000E+00 -0.00000000000E+00 -0.45593999997E+02  0.45594000000E+02  0.51100000000E-03 0.  1.
         23    2    1    2    0    0  0.00000000000E+00  0.00000000000E+00  0.00000000000E+00  0.91188000000E+02  0.91188000000E+02 0.  0.
    9900012    2    3    3    0    0  0.81638086612E+00 -0.19218754534E+01  0.43350521011E+02  0.47787219421E+02  0.19999764625E+02 0.  0.
        -12    1    3    3    0    0 -0.81638086612E+00  0.19218754534E+01 -0.43350521011E+02  0.43400780579E+02  0.00000000000E+00 0.  1.
         11    1    4    4    0    0  0.98824957411E+00 -0.35501116930E+01  0.37419880581E+02  0.37600896175E+02  0.51100000000E-03 0. -1.
        -11    1    4    4    0    0 -0.32899720955E+00  0.23642429944E+01  0.78074727511E+01  0.81642216482E+01  0.51100000000E-03 0.  1.
         12    1    4    4    0    0  0.15712850156E+00 -0.73600675478E+00 -0.18768323208E+01  0.20221015972E+01  0.00000000000E+00 0. -1.
</event>
<event>
 8    1  0.7906489E-011  0.9118800E+02  0.7816164E-02  0.1184000E+00
        -11   -1    0    0    0    0  0.00000000000E+00  0.00000000000E+00  0.45593999997E+02  0.45594000000E+02  0.51100000000E-03 0. -1.
         11   -1    0    0    0    0 -0.00000000000E+00 -0.00000000000E+00 -0.45593999997E+02  0.45594000000E+02  0.51100000000E-03 0.  1.
         23    2    1    2    0    0  0.00000000000E+00 -0.88817841970E-15  0.71054273576E-14  0.91188000000E+02  0.91188000000E+02 0.  0.
    9900012    2    3    3    0    0 -0.22064257453E+02  0.64586008202E+01 -0.36811389671E+02  0.47787269695E+02  0.19999993847E+02 0.  0.
         12    1    3    3    0    0  0.22064257453E+02 -0.64586008202E+01  0.36811389671E+02  0.43400730305E+02  0.00000000000E+00 0. -1.
         11    1    4    4    0    0 -0.13233921723E+01 -0.35247119894E+01 -0.28057248738E+01  0.46954290303E+01  0.51100000000E-03 0. -1.
        -11    1    4    4    0    0 -0.20808529728E+02  0.73420995940E+01 -0.33898465424E+02  0.40447587002E+02  0.51100000000E-03 0.  1.
        -12    1    4    4    0    0  0.67664447256E-01  0.26412132156E+01 -0.10719937282E+00  0.26442536628E+01  0.00000000000E+00 0.  1.
</event>
<event>
 8    1  0.5331800E-011  0.9118800E+02  0.7816164E-02  0.1184000E+00
        -11   -1    0    0    0    0  0.00000000000E+00  0.00000000000E+00  0.45593999997E+02  0.45594000000E+02  0.51100000000E-03 0. -1.
         11   -1    0    0    0    0 -0.00000000000E+00 -0.00000000000E+00 -0.45593999997E+02  0.45594000000E+02  0.51100000000E-03 0.  1.
         23    2    1    2    0    0 -0.88817841970E-15 -0.35527136788E-14  0.00000000000E+00  0.91188000000E+02  0.91188000000E+02 0.  0.
    9900012    2    3    3    0    0  0.58665929711E+01  0.24572321871E+02  0.35290323573E+02  0.47787275892E+02  0.20000022101E+02 0.  0.
        -12    1    3    3    0    0 -0.58665929711E+01 -0.24572321871E+02 -0.35290323573E+02  0.43400724108E+02  0.00000000000E+00 0.  1.
         11    1    4    4    0    0  0.46602503506E+01  0.90141834472E+01  0.22473336283E+01  0.10393456848E+02  0.51100000000E-03 0. -1.
        -11    1    4    4    0    0 -0.22442385596E+01  0.12586519480E+02  0.21940972428E+02  0.25394159775E+02  0.51100000000E-03 0.  1.
         12    1    4    4    0    0  0.34505811801E+01  0.29716189443E+01  0.11102017517E+02  0.11999659269E+02  0.00000000000E+00 0. -1.
</event>
<event>
 8    1  0.5331800E-011  0.9118800E+02  0.7816164E-02  0.1184000E+00
        -11   -1    0    0    0    0  0.00000000000E+00  0.00000000000E+00  0.45593999997E+02  0.45594000000E+02  0.51100000000E-03 0. -1.
         11   -1    0    0    0    0 -0.00000000000E+00 -0.00000000000E+00 -0.45593999997E+02  0.45594000000E+02  0.51100000000E-03 0.  1.
         23    2    1    2    0    0  0.00000000000E+00 -0.35527136788E-14  0.00000000000E+00  0.91188000000E+02  0.91188000000E+02 0.  0.
    9900012    2    3    3    0    0 -0.99180536621E+01 -0.23693242116E+02 -0.34984077925E+02  0.47787271681E+02  0.20000002901E+02 0.  0.
         12    1    3    3    0    0  0.99180536621E+01  0.23693242116E+02  0.34984077925E+02  0.43400728319E+02  0.00000000000E+00 0. -1.
         11    1    4    4    0    0 -0.34827683684E+01  0.10962258447E+01 -0.50318144980E+00  0.36857263115E+01  0.51100000000E-03 0. -1.
        -11    1    4    4    0    0 -0.80627536402E+01 -0.23715543928E+02 -0.29197600566E+02  0.38469922006E+02  0.51100000000E-03 0.  1.
        -12    1    4    4    0    0  0.16274683465E+01 -0.10739240329E+01 -0.52832959090E+01  0.56316233636E+01  0.00000000000E+00 0.  1.
</event>
<event>
 8    1  0.5331800E-011  0.9118800E+02  0.7816164E-02  0.1184000E+00
        -11   -1    0    0    0    0  0.00000000000E+00  0.00000000000E+00  0.45593999997E+02  0.45594000000E+02  0.51100000000E-03 0. -1.
         11   -1    0    0    0    0 -0.00000000000E+00 -0.00000000000E+00 -0.45593999997E+02  0.45594000000E+02  0.51100000000E-03 0.  1.
         23    2    1    2    0    0 -0.35527136788E-14  0.00000000000E+00  0.00000000000E+00  0.91188000000E+02  0.91188000000E+02 0.  0.
    9900012    2    3    3    0    0  0.18765511849E+02 -0.38891149565E+02 -0.43540007448E+01  0.47787271067E+02  0.20000000103E+02 0.  0.
         12    1    3    3    0    0 -0.18765511849E+02  0.38891149565E+02  0.43540007448E+01  0.43400728933E+02  0.00000000000E+00 0. -1.
         11    1    4    4    0    0 -0.32683428849E+01 -0.45987601090E+01  0.18457918246E+01  0.59361273128E+01  0.51100000000E-03 0. -1.
        -11    1    4    4    0    0  0.15809445637E+02 -0.29729303469E+02 -0.50209778452E+01  0.34043799360E+02  0.51100000000E-03 0.  1.
         12    1    4    4    0    0  0.62244090971E+01 -0.45630859870E+01 -0.11788147242E+01  0.78073443940E+01  0.00000000000E+00 0. -1.
</event>
<event>
 8    1  0.5331800E-011  0.9118800E+02  0.7816164E-02  0.1184000E+00
        -11   -1    0    0    0    0  0.00000000000E+00  0.00000000000E+00  0.45593999997E+02  0.45594000000E+02  0.51100000000E-03 0. -1.
         11   -1    0    0    0    0 -0.00000000000E+00 -0.00000000000E+00 -0.45593999997E+02  0.45594000000E+02  0.51100000000E-03 0.  1.
         23    2    1    2    0    0  0.71054273576E-14  0.35527136788E-14  0.00000000000E+00  0.91188000000E+02  0.91188000000E+02 0.  0.
    9900012    2    3    3    0    0 -0.30755166524E+02 -0.24145064390E+02  0.18835036417E+02  0.47787274210E+02  0.20000014432E+02 0.  0.
        -12    1    3    3    0    0  0.30755166524E+02  0.24145064390E+02 -0.18835036417E+02  0.43400725790E+02  0.00000000000E+00 0.  1.
         11    1    4    4    0    0 -0.89047129696E+01 -0.41659300525E+01 -0.17269061305E+01  0.99815375228E+01  0.51100000000E-03 0.  1.
        -11    1    4    4    0    0 -0.10998731122E+02 -0.61549066054E+01  0.14506700172E+02  0.19217161907E+02  0.51100000000E-03 0. -1.
        -12    1    4    4    0    0 -0.10851722433E+02 -0.13824227732E+02  0.60552423750E+01  0.18588574780E+02  0.00000000000E+00 0.  1.
</event>
<event>
 8    1  0.5331800E-011  0.9118800E+02  0.7816164E-02  0.1184000E+00
        -11   -1    0    0    0    0  0.00000000000E+00  0.00000000000E+00  0.45593999997E+02  0.45594000000E+02  0.51100000000E-03 0. -1.
         11   -1    0    0    0    0 -0.00000000000E+00 -0.00000000000E+00 -0.45593999997E+02  0.45594000000E+02  0.51100000000E-03 0.  1.
         23    2    1    2    0    0 -0.88817841970E-15 -0.71054273576E-14  0.00000000000E+00  0.91188000000E+02  0.91188000000E+02 0.  0.
    9900012    2    3    3    0    0 -0.49830049360E+01 -0.35664444225E+02  0.24224788973E+02  0.47787270503E+02  0.19999997531E+02 0.  0.
        -12    1    3    3    0    0  0.49830049360E+01  0.35664444225E+02 -0.24224788973E+02  0.43400729497E+02  0.00000000000E+00 0.  1.
         11    1    4    4    0    0 -0.71207877222E+01 -0.24024110276E+02  0.60801420122E+01  0.25784328952E+02  0.51100000000E-03 0. -1.
        -11    1    4    4    0    0  0.31323140044E+01 -0.10178347641E+02  0.16051119869E+02  0.19262621863E+02  0.51100000000E-03 0.  1.
         12    1    4    4    0    0 -0.99453121820E+00 -0.14619863082E+01  0.20935270923E+01  0.27403196886E+01  0.00000000000E+00 0. -1.
</event>
<event>
 8    1  0.5331800E-011  0.9118800E+02  0.7816164E-02  0.1184000E+00
        -11   -1    0    0    0    0  0.00000000000E+00  0.00000000000E+00  0.45593999997E+02  0.45594000000E+02  0.51100000000E-03 0. -1.
         11   -1    0    0    0    0 -0.00000000000E+00 -0.00000000000E+00 -0.45593999997E+02  0.45594000000E+02  0.51100000000E-03 0.  1.
         23    2    1    2    0    0  0.00000000000E+00 -0.17763568394E-14 -0.71054273576E-14  0.91188000000E+02  0.91188000000E+02 0.  0.
    9900012    2    3    3    0    0  0.11984666161E+02 -0.14223326621E+02 -0.39213377158E+02  0.47787260475E+02  0.19999951809E+02 0.  0.
         12    1    3    3    0    0 -0.11984666161E+02  0.14223326621E+02  0.39213377158E+02  0.43400739525E+02  0.00000000000E+00 0. -1.
         11    1    4    4    0    0  0.15726529735E+02 -0.48498376547E+01 -0.21018196078E+02  0.26694741607E+02  0.51100000000E-03 0. -1.
        -11    1    4    4    0    0 -0.26702275019E+01 -0.23490824118E+01 -0.57135136551E+01  0.67299733757E+01  0.51100000000E-03 0.  1.
         12    1    4    4    0    0 -0.10716360723E+01 -0.70244065545E+01 -0.12481667425E+02  0.14362545493E+02  0.00000000000E+00 0. -1.
</event>
<event>
 8    1  0.5331800E-011  0.9118800E+02  0.7816164E-02  0.1184000E+00
        -11   -1    0    0    0    0  0.00000000000E+00  0.00000000000E+00  0.45593999997E+02  0.45594000000E+02  0.51100000000E-03 0. -1.
         11   -1    0    0    0    0 -0.00000000000E+00 -0.00000000000E+00 -0.45593999997E+02  0.45594000000E+02  0.51100000000E-03 0.  1.
         23    2    1    2    0    0  0.00000000000E+00  0.00000000000E+00  0.14210854715E-13  0.91188000000E+02  0.91188000000E+02 0.  0.
    9900012    2    3    3    0    0 -0.70374792747E+01 -0.18948500682E+02 -0.38406393702E+02  0.47787275699E+02  0.20000021221E+02 0.  0.
         12    1    3    3    0    0  0.70374792747E+01  0.18948500682E+02  0.38406393702E+02  0.43400724301E+02  0.00000000000E+00 0. -1.
         11    1    4    4    0    0 -0.50145055875E+01  0.92133427197E+00 -0.29509756080E+01  0.58908726372E+01  0.51100000000E-03 0. -1.
        -11    1    4    4    0    0 -0.26354186098E+00 -0.96474641713E+01 -0.79622974113E+01  0.12511642561E+02  0.51100000000E-03 0.  1.
         12    1    4    4    0    0 -0.17594318262E+01 -0.10222370783E+02 -0.27493120683E+02  0.29384760500E+02  0.00000000000E+00 0. -1.
</event>
<event>
 8    1  0.5331800E-011  0.9118800E+02  0.7816164E-02  0.1184000E+00
        -11   -1    0    0    0    0  0.00000000000E+00  0.00000000000E+00  0.45593999997E+02  0.45594000000E+02  0.51100000000E-03 0. -1.
         11   -1    0    0    0    0 -0.00000000000E+00 -0.00000000000E+00 -0.45593999997E+02  0.45594000000E+02  0.51100000000E-03 0.  1.
         23    2    1    2    0    0  0.00000000000E+00  0.00000000000E+00  0.35527136788E-14  0.91188000000E+02  0.91188000000E+02 0.  0.
    9900012    2    3    3    0    0 -0.17930979874E+02  0.23368728217E+02  0.31874840326E+02  0.47787274850E+02  0.20000017350E+02 0.  0.
        -12    1    3    3    0    0  0.17930979874E+02 -0.23368728217E+02 -0.31874840326E+02  0.43400725150E+02  0.00000000000E+00 0.  1.
         11    1    4    4    0    0 -0.69563851944E+01  0.68413709307E+01  0.83801059039E+01  0.12861641668E+02  0.51100000000E-03 0. -1.
        -11    1    4    4    0    0 -0.11216708728E+02  0.19501020308E+02  0.18585484094E+02  0.29180893869E+02  0.51100000000E-03 0.  1.
        -12    1    4    4    0    0  0.24211404763E+00 -0.29736630217E+01  0.49092503291E+01  0.57447393128E+01  0.00000000000E+00 0.  1.
</event>
<event>
 8    1  0.5331800E-011  0.9118800E+02  0.7816164E-02  0.1184000E+00
        -11   -1    0    0    0    0  0.00000000000E+00  0.00000000000E+00  0.45593999997E+02  0.45594000000E+02  0.51100000000E-03 0. -1.
         11   -1    0    0    0    0 -0.00000000000E+00 -0.00000000000E+00 -0.45593999997E+02  0.45594000000E+02  0.51100000000E-03 0.  1.
         23    2    1    2    0    0  0.00000000000E+00  0.00000000000E+00 -0.71054273576E-14  0.91188000000E+02  0.91188000000E+02 0.  0.
    9900012    2    3    3    0    0 -0.20210722513E+02  0.89108456734E+01  0.37359694871E+02  0.47787271020E+02  0.19999999890E+02 0.  0.
        -12    1    3    3    0    0  0.20210722513E+02 -0.89108456734E+01 -0.37359694871E+02  0.43400728980E+02  0.00000000000E+00 0.  1.
         11    1    4    4    0    0 -0.27117116758E+01  0.13936048198E+01 -0.18705790194E+01  0.35769513186E+01  0.51100000000E-03 0. -1.
        -11    1    4    4    0    0 -0.17723168824E+01 -0.20642688305E+00  0.76265753618E+00  0.19404550931E+01  0.51100000000E-03 0.  1.
         12    1    4    4    0    0 -0.15726693955E+02  0.77236677367E+01  0.38467616354E+02  0.42269864609E+02  0.00000000000E+00 0. -1.
</event>
<event>
 8    1  0.5331800E-011  0.9118800E+02  0.7816164E-02  0.1184000E+00
        -11   -1    0    0    0    0  0.00000000000E+00  0.00000000000E+00  0.45593999997E+02  0.45594000000E+02  0.51100000000E-03 0. -1.
         11   -1    0    0    0    0 -0.00000000000E+00 -0.00000000000E+00 -0.45593999997E+02  0.45594000000E+02  0.51100000000E-03 0.  1.
         23    2    1    2    0    0  0.00000000000E+00  0.00000000000E+00  0.00000000000E+00  0.91188000000E+02  0.91188000000E+02 0.  0.
    9900012    2    3    3    0    0 -0.17188275117E+02  0.32927176955E+02  0.22449666961E+02  0.47787270394E+02  0.19999997033E+02 0.  0.
        -12    1    3    3    0    0  0.17188275117E+02 -0.32927176955E+02 -0.22449666961E+02  0.43400729606E+02  0.00000000000E+00 0.  1.
         11    1    4    4    0    0  0.28235851943E+01  0.19731148760E+01  0.60722891619E+01  0.69812972713E+01  0.51100000000E-03 0. -1.
        -11    1    4    4    0    0 -0.14234123338E-01  0.29730803634E+01  0.10551641666E+01  0.31548028682E+01  0.51100000000E-03 0.  1.
         12    1    4    4    0    0 -0.19997626188E+02  0.27980981716E+02  0.15322213632E+02  0.37651170254E+02  0.00000000000E+00 0. -1.
</event>
<event>
 8    1  0.5331800E-011  0.9118800E+02  0.7816164E-02  0.1184000E+00
        -11   -1    0    0    0    0  0.00000000000E+00  0.00000000000E+00  0.45593999997E+02  0.45594000000E+02  0.51100000000E-03 0. -1.
         11   -1    0    0    0    0 -0.00000000000E+00 -0.00000000000E+00 -0.45593999997E+02  0.45594000000E+02  0.51100000000E-03 0.  1.
         23    2    1    2    0    0  0.00000000000E+00  0.00000000000E+00  0.00000000000E+00  0.91188000000E+02  0.91188000000E+02 0.  0.
    9900012    2    3    3    0    0 -0.22098256311E+02  0.19235923242E+02  0.32019829246E+02  0.47787272588E+02  0.20000007037E+02 0.  0.
        -12    1    3    3    0    0  0.22098256311E+02 -0.19235923242E+02 -0.32019829246E+02  0.43400727412E+02  0.00000000000E+00 0.  1.
         11    1    4    4    0    0 -0.14517941832E+02  0.76149475439E+01  0.72846741949E+01  0.17939468763E+02  0.51100000000E-03 0. -1.
        -11    1    4    4    0    0 -0.67992667881E+01  0.70818659970E+01  0.22852506626E+02  0.24872070967E+02  0.51100000000E-03 0.  1.
        -12    1    4    4    0    0 -0.78104769167E+00  0.45391097011E+01  0.18826484248E+01  0.49757328572E+01  0.00000000000E+00 0.  1.
</event>
<event>
 8    1  0.5331800E-011  0.9118800E+02  0.7816164E-02  0.1184000E+00
        -11   -1    0    0    0    0  0.00000000000E+00  0.00000000000E+00  0.45593999997E+02  0.45594000000E+02  0.51100000000E-03 0. -1.
         11   -1    0    0    0    0 -0.00000000000E+00 -0.00000000000E+00 -0.45593999997E+02  0.45594000000E+02  0.51100000000E-03 0.  1.
         23    2    1    2    0    0  0.00000000000E+00  0.71054273576E-14 -0.35527136788E-14  0.91188000000E+02  0.91188000000E+02 0.  0.
    9900012    2    3    3    0    0 -0.13097056442E+02  0.37345604586E+02 -0.17815617255E+02  0.47787270887E+02  0.19999999284E+02 0.  0.
         12    1    3    3    0    0  0.13097056442E+02 -0.37345604586E+02  0.17815617255E+02  0.43400729113E+02  0.00000000000E+00 0. -1.
         11    1    4    4    0    0  0.13568196266E+00  0.19694118833E+02 -0.52617674905E+01  0.20385360521E+02  0.51100000000E-03 0. -1.
        -11    1    4    4    0    0 -0.71429518777E+01  0.27876487390E+01 -0.70671578121E+01  0.10427725870E+02  0.51100000000E-03 0.  1.
         12    1    4    4    0    0 -0.60897865274E+01  0.14863837014E+02 -0.54866919522E+01  0.16974184496E+02  0.00000000000E+00 0. -1.
</event>
<event>
 8    1  0.5331800E-011  0.9118800E+02  0.7816164E-02  0.1184000E+00
        -11   -1    0    0    0    0  0.00000000000E+00  0.00000000000E+00  0.45593999997E+02  0.45594000000E+02  0.51100000000E-03 0. -1.
         11   -1    0    0    0    0 -0.00000000000E+00 -0.00000000000E+00 -0.45593999997E+02  0.45594000000E+02  0.51100000000E-03 0.  1.
         23    2    1    2    0    0  0.00000000000E+00 -0.35527136788E-14  0.00000000000E+00  0.91188000000E+02  0.91188000000E+02 0.  0.
    9900012    2    3    3    0    0  0.20155774120E+02  0.18453000296E+02 -0.33717283577E+02  0.47787266571E+02  0.19999979605E+02 0.  0.
         12    1    3    3    0    0 -0.20155774120E+02 -0.18453000296E+02  0.33717283577E+02  0.43400733429E+02  0.00000000000E+00 0. -1.
         11    1    4    4    0    0  0.28622985033E+01  0.10083839804E+02 -0.99723413871E+01  0.14468039636E+02  0.51100000000E-03 0. -1.
        -11    1    4    4    0    0  0.13035686291E+02  0.30365195814E+00 -0.18984782750E+02  0.23031354670E+02  0.51100000000E-03 0.  1.
        -12    1    4    4    0    0  0.42577893257E+01  0.80655085336E+01 -0.47601594399E+01  0.10287872265E+02  0.00000000000E+00 0.  1.
</event>
<event>
 8    1  0.5331800E-011  0.9118800E+02  0.7816164E-02  0.1184000E+00
        -11   -1    0    0    0    0  0.00000000000E+00  0.00000000000E+00  0.45593999997E+02  0.45594000000E+02  0.51100000000E-03 0. -1.
         11   -1    0    0    0    0 -0.00000000000E+00 -0.00000000000E+00 -0.45593999997E+02  0.45594000000E+02  0.51100000000E-03 0.  1.
         23    2    1    2    0    0 -0.35527136788E-14  0.00000000000E+00  0.00000000000E+00  0.91188000000E+02  0.91188000000E+02 0.  0.
    9900012    2    3    3    0    0 -0.16908554704E+02  0.22769429793E+02  0.32852354330E+02  0.47787270279E+02  0.19999996511E+02 0.  0.
        -12    1    3    3    0    0  0.16908554704E+02 -0.22769429793E+02 -0.32852354330E+02  0.43400729721E+02  0.00000000000E+00 0.  1.
         11    1    4    4    0    0 -0.82946871331E+01  0.21532329556E+02  0.18664342317E+02  0.29678287099E+02  0.51100000000E-03 0. -1.
        -11    1    4    4    0    0 -0.11208589196E+01  0.10375813121E+01 -0.50976610734E+00  0.16102054037E+01  0.51100000000E-03 0.  1.
         12    1    4    4    0    0 -0.74930086517E+01  0.19951892486E+00  0.14697778120E+02  0.16498777777E+02  0.00000000000E+00 0. -1.
</event>
<event>
 8    1  0.5331800E-011  0.9118800E+02  0.7816164E-02  0.1184000E+00
        -11   -1    0    0    0    0  0.00000000000E+00  0.00000000000E+00  0.45593999997E+02  0.45594000000E+02  0.51100000000E-03 0. -1.
         11   -1    0    0    0    0 -0.00000000000E+00 -0.00000000000E+00 -0.45593999997E+02  0.45594000000E+02  0.51100000000E-03 0.  1.
         23    2    1    2    0    0  0.35527136788E-14  0.88817841970E-15  0.00000000000E+00  0.91188000000E+02  0.91188000000E+02 0.  0.
    9900012    2    3    3    0    0  0.20809028516E+02  0.78725017681E+01  0.37264342468E+02  0.47787272225E+02  0.20000005382E+02 0.  0.
        -12    1    3    3    0    0 -0.20809028516E+02 -0.78725017681E+01 -0.37264342468E+02  0.43400727775E+02  0.00000000000E+00 0.  1.
         11    1    4    4    0    0  0.15590170077E+02  0.10191461841E+02  0.19438820613E+02  0.26921869262E+02  0.51100000000E-03 0. -1.
        -11    1    4    4    0    0 -0.15901619541E+01  0.16694367100E+01  0.76425299502E+01  0.79827249902E+01  0.51100000000E-03 0.  1.
         12    1    4    4    0    0  0.68090203925E+01 -0.39883967834E+01  0.10182991905E+02  0.12882677972E+02  0.00000000000E+00 0. -1.
</event>
<event>
 8    1  0.5331800E-011  0.9118800E+02  0.7816164E-02  0.1184000E+00
        -11   -1    0    0    0    0  0.00000000000E+00  0.00000000000E+00  0.45593999997E+02  0.45594000000E+02  0.51100000000E-03 0. -1.
         11   -1    0    0    0    0 -0.00000000000E+00 -0.00000000000E+00 -0.45593999997E+02  0.45594000000E+02  0.51100000000E-03 0.  1.
         23    2    1    2    0    0  0.17763568394E-14  0.00000000000E+00  0.00000000000E+00  0.91188000000E+02  0.91188000000E+02 0.  0.
    9900012    2    3    3    0    0 -0.90381643662E+01  0.17391538998E+02  0.38722981183E+02  0.47787270564E+02  0.19999997811E+02 0.  0.
        -12    1    3    3    0    0  0.90381643662E+01 -0.17391538998E+02 -0.38722981183E+02  0.43400729436E+02  0.00000000000E+00 0.  1.
         11    1    4    4    0    0 -0.12319389933E+02  0.18512254144E+02  0.37227823170E+02  0.43363368643E+02  0.51100000000E-03 0. -1.
        -11    1    4    4    0    0  0.77837376788E+00 -0.51288259364E+00 -0.59588665742E+00  0.11063432772E+01  0.51100000000E-03 0.  1.
         12    1    4    4    0    0  0.25028517994E+01 -0.60783255307E+00  0.20910446712E+01  0.33175586444E+01  0.00000000000E+00 0. -1.
</event>
<event>
 8    1  0.5331800E-011  0.9118800E+02  0.7816164E-02  0.1184000E+00
        -11   -1    0    0    0    0  0.00000000000E+00  0.00000000000E+00  0.45593999997E+02  0.45594000000E+02  0.51100000000E-03 0.  1.
         11   -1    0    0    0    0 -0.00000000000E+00 -0.00000000000E+00 -0.45593999997E+02  0.45594000000E+02  0.51100000000E-03 0. -1.
         23    2    1    2    0    0 -0.35527136788E-14  0.00000000000E+00  0.00000000000E+00  0.91188000000E+02  0.91188000000E+02 0.  0.
    9900012    2    3    3    0    0  0.24954148653E+02 -0.34490045348E+02 -0.84469136824E+01  0.47787272888E+02  0.20000008404E+02 0.  0.
         12    1    3    3    0    0 -0.24954148653E+02  0.34490045348E+02  0.84469136824E+01  0.43400727112E+02  0.00000000000E+00 0. -1.
         11    1    4    4    0    0  0.17027667656E+00 -0.87925372132E+01 -0.32961510405E+00  0.88003608546E+01  0.51100000000E-03 0. -1.
        -11    1    4    4    0    0  0.23243740153E+02 -0.27304450542E+02 -0.71701712305E+01  0.36567961817E+02  0.51100000000E-03 0.  1.
        -12    1    4    4    0    0  0.15401318239E+01  0.16069424075E+01 -0.94712734780E+00  0.24189502163E+01  0.00000000000E+00 0.  1.
</event>
<event>
 8    1  0.5331800E-011  0.9118800E+02  0.7816164E-02  0.1184000E+00
        -11   -1    0    0    0    0  0.00000000000E+00  0.00000000000E+00  0.45593999997E+02  0.45594000000E+02  0.51100000000E-03 0. -1.
         11   -1    0    0    0    0 -0.00000000000E+00 -0.00000000000E+00 -0.45593999997E+02  0.45594000000E+02  0.51100000000E-03 0.  1.
         23    2    1    2    0    0  0.00000000000E+00  0.71054273576E-14 -0.35527136788E-14  0.91188000000E+02  0.91188000000E+02 0.  0.
    9900012    2    3    3    0    0  0.46610342271E+01 -0.34873473334E+02  0.25411391710E+02  0.47787271768E+02  0.20000003297E+02 0.  0.
        -12    1    3    3    0    0 -0.46610342271E+01  0.34873473334E+02 -0.25411391710E+02  0.43400728232E+02  0.00000000000E+00 0.  1.
         11    1    4    4    0    0  0.79857389645E+01 -0.30275184068E+02  0.25314924682E+02  0.40264180224E+02  0.51100000000E-03 0. -1.
        -11    1    4    4    0    0 -0.54647036404E+00  0.10514897030E+01 -0.27401090572E+00  0.12162823241E+01  0.51100000000E-03 0.  1.
         12    1    4    4    0    0 -0.27782343734E+01 -0.56497789693E+01  0.37047793362E+00  0.63068092198E+01  0.00000000000E+00 0. -1.
</event>
<event>
 8    1  0.5331800E-011  0.9118800E+02  0.7816164E-02  0.1184000E+00
        -11   -1    0    0    0    0  0.00000000000E+00  0.00000000000E+00  0.45593999997E+02  0.45594000000E+02  0.51100000000E-03 0. -1.
         11   -1    0    0    0    0 -0.00000000000E+00 -0.00000000000E+00 -0.45593999997E+02  0.45594000000E+02  0.51100000000E-03 0.  1.
         23    2    1    2    0    0  0.00000000000E+00  0.00000000000E+00  0.00000000000E+00  0.91188000000E+02  0.91188000000E+02 0.  0.
    9900012    2    3    3    0    0 -0.21205917839E+02  0.42299976975E+01 -0.37630356121E+02  0.47787221969E+02  0.19999776246E+02 0.  0.
         12    1    3    3    0    0  0.21205917839E+02 -0.42299976975E+01  0.37630356121E+02  0.43400778031E+02  0.00000000000E+00 0. -1.
         11    1    4    4    0    0  0.21269778523E+01  0.51720163560E+01 -0.57476002660E+01  0.80192703564E+01  0.51100000000E-03 0. -1.
        -11    1    4    4    0    0 -0.13030310936E+02 -0.12987536672E+01 -0.21231634310E+02  0.24945100920E+02  0.51100000000E-03 0.  1.
         12    1    4    4    0    0 -0.10302584755E+02  0.35673500877E+00 -0.10651121544E+02  0.14822850693E+02  0.00000000000E+00 0. -1.
</event>
<event>
 8    1  0.5331800E-011  0.9118800E+02  0.7816164E-02  0.1184000E+00
        -11   -1    0    0    0    0  0.00000000000E+00  0.00000000000E+00  0.45593999997E+02  0.45594000000E+02  0.51100000000E-03 0. -1.
         11   -1    0    0    0    0 -0.00000000000E+00 -0.00000000000E+00 -0.45593999997E+02  0.45594000000E+02  0.51100000000E-03 0.  1.
         23    2    1    2    0    0  0.00000000000E+00  0.00000000000E+00  0.17763568394E-14  0.91188000000E+02  0.91188000000E+02 0.  0.
    9900012    2    3    3    0    0  0.40761080624E+02  0.11205302478E+02 -0.98284662341E+01  0.47787271368E+02  0.20000001475E+02 0.  0.
         12    1    3    3    0    0 -0.40761080624E+02 -0.11205302478E+02  0.98284662341E+01  0.43400728632E+02  0.00000000000E+00 0. -1.
         11    1    4    4    0    0  0.61844324887E+01  0.65921913132E+01  0.29169160081E+01  0.94980308894E+01  0.51100000000E-03 0. -1.
        -11    1    4    4    0    0  0.27338058806E+02  0.70061886569E+01 -0.80975798370E+01  0.29360295269E+02  0.51100000000E-03 0.  1.
         12    1    4    4    0    0  0.72385893293E+01 -0.23930774918E+01 -0.46478024051E+01  0.89289452097E+01  0.00000000000E+00 0. -1.
</event>
<event>
 8    1  0.5331800E-011  0.9118800E+02  0.7816164E-02  0.1184000E+00
        -11   -1    0    0    0    0  0.00000000000E+00  0.00000000000E+00  0.45593999997E+02  0.45594000000E+02  0.51100000000E-03 0. -1.
         11   -1    0    0    0    0 -0.00000000000E+00 -0.00000000000E+00 -0.45593999997E+02  0.45594000000E+02  0.51100000000E-03 0.  1.
         23    2    1    2    0    0  0.35527136788E-14  0.00000000000E+00  0.00000000000E+00  0.91188000000E+02  0.91188000000E+02 0.  0.
    9900012    2    3    3    0    0  0.31980649908E+02 -0.92881052200E+01  0.27831503209E+02  0.47787269154E+02  0.19999991379E+02 0.  0.
        -12    1    3    3    0    0 -0.31980649908E+02  0.92881052200E+01 -0.27831503209E+02  0.43400730846E+02  0.00000000000E+00 0.  1.
         11    1    4    4    0    0  0.13123182966E+02 -0.94318058306E+00  0.13816753354E+02  0.19079051189E+02  0.51100000000E-03 0. -1.
        -11    1    4    4    0    0  0.12053611734E+02 -0.33143927581E+01  0.19349814163E+00  0.12502487632E+02  0.51100000000E-03 0.  1.
        -12    1    4    4    0    0  0.68038552080E+01 -0.50305318789E+01  0.13821251714E+02  0.16205730333E+02  0.00000000000E+00 0.  1.
</event>
<event>
 8    1  0.5331800E-011  0.9118800E+02  0.7816164E-02  0.1184000E+00
        -11   -1    0    0    0    0  0.00000000000E+00  0.00000000000E+00  0.45593999997E+02  0.45594000000E+02  0.51100000000E-03 0. -1.
         11   -1    0    0    0    0 -0.00000000000E+00 -0.00000000000E+00 -0.45593999997E+02  0.45594000000E+02  0.51100000000E-03 0.  1.
         23    2    1    2    0    0  0.00000000000E+00 -0.44408920985E-15  0.00000000000E+00  0.91188000000E+02  0.91188000000E+02 0.  0.
    9900012    2    3    3    0    0  0.26407793733E+02 -0.36357172657E+01  0.34249571256E+02  0.47787272574E+02  0.20000006974E+02 0.  0.
        -12    1    3    3    0    0 -0.26407793733E+02  0.36357172657E+01 -0.34249571256E+02  0.43400727426E+02  0.00000000000E+00 0.  1.
         11    1    4    4    0    0  0.65694637200E+01 -0.19986018418E+01  0.57420640048E+01  0.89511765811E+01  0.51100000000E-03 0. -1.
        -11    1    4    4    0    0  0.15580510633E+02  0.66867029595E+01  0.17007364339E+02  0.24014886010E+02  0.51100000000E-03 0.  1.
        -12    1    4    4    0    0  0.42578193794E+01 -0.83238183834E+01  0.11500142913E+02  0.14821209983E+02  0.00000000000E+00 0.  1.
</event>
<event>
 8    1  0.5331800E-011  0.9118800E+02  0.7816164E-02  0.1184000E+00
        -11   -1    0    0    0    0  0.00000000000E+00  0.00000000000E+00  0.45593999997E+02  0.45594000000E+02  0.51100000000E-03 0. -1.
         11   -1    0    0    0    0 -0.00000000000E+00 -0.00000000000E+00 -0.45593999997E+02  0.45594000000E+02  0.51100000000E-03 0.  1.
         23    2    1    2    0    0  0.00000000000E+00 -0.35527136788E-14  0.00000000000E+00  0.91188000000E+02  0.91188000000E+02 0.  0.
    9900012    2    3    3    0    0 -0.17016077825E+02  0.23200682650E+02 -0.32493148913E+02  0.47787270671E+02  0.19999998297E+02 0.  0.
         12    1    3    3    0    0  0.17016077825E+02 -0.23200682650E+02  0.32493148913E+02  0.43400729329E+02  0.00000000000E+00 0. -1.
         11    1    4    4    0    0  0.57383905280E+00  0.93821037519E+01 -0.18847986809E+02  0.21061808305E+02  0.51100000000E-03 0. -1.
        -11    1    4    4    0    0 -0.16565887141E+02  0.13671518522E+02 -0.11546499222E+02  0.24385665462E+02  0.51100000000E-03 0.  1.
         12    1    4    4    0    0 -0.10240297371E+01  0.14706037611E+00 -0.20986628825E+01  0.23397969038E+01  0.00000000000E+00 0. -1.
</event>
<event>
 8    1  0.5331800E-011  0.9118800E+02  0.7816164E-02  0.1184000E+00
        -11   -1    0    0    0    0  0.00000000000E+00  0.00000000000E+00  0.45593999997E+02  0.45594000000E+02  0.51100000000E-03 0. -1.
         11   -1    0    0    0    0 -0.00000000000E+00 -0.00000000000E+00 -0.45593999997E+02  0.45594000000E+02  0.51100000000E-03 0.  1.
         23    2    1    2    0    0 -0.35527136788E-14 -0.17763568394E-14 -0.71054273576E-14  0.91188000000E+02  0.91188000000E+02 0.  0.
    9900012    2    3    3    0    0  0.27828489335E+02  0.86395670228E+01  0.32164516844E+02  0.47787273268E+02  0.20000010140E+02 0.  0.
        -12    1    3    3    0    0 -0.27828489335E+02 -0.86395670228E+01 -0.32164516844E+02  0.43400726732E+02  0.00000000000E+00 0.  1.
         11    1    4    4    0    0  0.47076319533E+01 -0.30238661328E+01  0.14886213910E+02  0.15902984935E+02  0.51100000000E-03 0. -1.
        -11    1    4    4    0    0  0.18730267497E+02  0.64103308925E+01  0.11298170941E+02  0.22793945019E+02  0.51100000000E-03 0.  1.
         12    1    4    4    0    0  0.43905898855E+01  0.52531022631E+01  0.59801319929E+01  0.90903433149E+01  0.00000000000E+00 0. -1.
</event>
<event>
 8    1  0.5331800E-011  0.9118800E+02  0.7816164E-02  0.1184000E+00
        -11   -1    0    0    0    0  0.00000000000E+00  0.00000000000E+00  0.45593999997E+02  0.45594000000E+02  0.51100000000E-03 0. -1.
         11   -1    0    0    0    0 -0.00000000000E+00 -0.00000000000E+00 -0.45593999997E+02  0.45594000000E+02  0.51100000000E-03 0.  1.
         23    2    1    2    0    0  0.00000000000E+00  0.00000000000E+00  0.00000000000E+00  0.91188000000E+02  0.91188000000E+02 0.  0.
    9900012    2    3    3    0    0  0.37550797205E+01 -0.37969765715E+02 -0.20683791047E+02  0.47787274842E+02  0.20000017316E+02 0.  0.
         12    1    3    3    0    0 -0.37550797205E+01  0.37969765715E+02  0.20683791047E+02  0.43400725158E+02  0.00000000000E+00 0. -1.
         11    1    4    4    0    0 -0.17898658460E+01 -0.13971178356E+02  0.86549489189E-01  0.14085628686E+02  0.51100000000E-03 0. -1.
        -11    1    4    4    0    0  0.71392851430E+01 -0.23151541326E+02 -0.17235879991E+02  0.29732790274E+02  0.51100000000E-03 0.  1.
        -12    1    4    4    0    0 -0.15943395765E+01 -0.84704603192E+00 -0.35344605454E+01  0.39688558821E+01  0.00000000000E+00 0.  1.
</event>
<event>
 8    1  0.5331800E-011  0.9118800E+02  0.7816164E-02  0.1184000E+00
        -11   -1    0    0    0    0  0.00000000000E+00  0.00000000000E+00  0.45593999997E+02  0.45594000000E+02  0.51100000000E-03 0. -1.
         11   -1    0    0    0    0 -0.00000000000E+00 -0.00000000000E+00 -0.45593999997E+02  0.45594000000E+02  0.51100000000E-03 0.  1.
         23    2    1    2    0    0 -0.44408920985E-15  0.00000000000E+00  0.71054273576E-14  0.91188000000E+02  0.91188000000E+02 0.  0.
    9900012    2    3    3    0    0 -0.29460396366E+01 -0.10902794323E+02 -0.41905523974E+02  0.47787274048E+02  0.20000013695E+02 0.  0.
         12    1    3    3    0    0  0.29460396366E+01  0.10902794323E+02  0.41905523974E+02  0.43400725952E+02  0.00000000000E+00 0. -1.
         11    1    4    4    0    0 -0.38225582359E+01 -0.31147224548E+01  0.15451123769E+00  0.49332870807E+01  0.51100000000E-03 0. -1.
        -11    1    4    4    0    0  0.16254722683E+01 -0.63842534415E+01 -0.32284142679E+02  0.32949457065E+02  0.51100000000E-03 0.  1.
         12    1    4    4    0    0 -0.74895366906E+00 -0.14038184265E+01 -0.97758925332E+01  0.99045299027E+01  0.00000000000E+00 0. -1.
</event>
<event>
 8    1  0.5331800E-011  0.9118800E+02  0.7816164E-02  0.1184000E+00
        -11   -1    0    0    0    0  0.00000000000E+00  0.00000000000E+00  0.45593999997E+02  0.45594000000E+02  0.51100000000E-03 0. -1.
         11   -1    0    0    0    0 -0.00000000000E+00 -0.00000000000E+00 -0.45593999997E+02  0.45594000000E+02  0.51100000000E-03 0.  1.
         23    2    1    2    0    0  0.00000000000E+00  0.00000000000E+00  0.00000000000E+00  0.91188000000E+02  0.91188000000E+02 0.  0.
    9900012    2    3    3    0    0 -0.52039361729E+01  0.11059288876E+02  0.41644140340E+02  0.47787271356E+02  0.20000001423E+02 0.  0.
        -12    1    3    3    0    0  0.52039361729E+01 -0.11059288876E+02 -0.41644140340E+02  0.43400728644E+02  0.00000000000E+00 0.  1.
         11    1    4    4    0    0 -0.21625723294E+01 -0.34652277449E+01  0.13936442568E+02  0.14522704779E+02  0.51100000000E-03 0. -1.
        -11    1    4    4    0    0 -0.63166605119E+01  0.13606503369E+02  0.22857197813E+02  0.27340238223E+02  0.51100000000E-03 0.  1.
        -12    1    4    4    0    0  0.32752966684E+01  0.91801325260E+00  0.48504999590E+01  0.59243283544E+01  0.00000000000E+00 0.  1.
</event>
<event>
 8    1  0.5331800E-011  0.9118800E+02  0.7816164E-02  0.1184000E+00
        -11   -1    0    0    0    0  0.00000000000E+00  0.00000000000E+00  0.45593999997E+02  0.45594000000E+02  0.51100000000E-03 0. -1.
         11   -1    0    0    0    0 -0.00000000000E+00 -0.00000000000E+00 -0.45593999997E+02  0.45594000000E+02  0.51100000000E-03 0.  1.
         23    2    1    2    0    0  0.00000000000E+00 -0.35527136788E-14  0.00000000000E+00  0.91188000000E+02  0.91188000000E+02 0.  0.
    9900012    2    3    3    0    0 -0.70788963819E+01 -0.27748233167E+02 -0.32612083387E+02  0.47787271887E+02  0.20000003842E+02 0.  0.
         12    1    3    3    0    0  0.70788963819E+01  0.27748233167E+02  0.32612083387E+02  0.43400728113E+02  0.00000000000E+00 0. -1.
         11    1    4    4    0    0 -0.62810864969E+01 -0.14737885546E+02 -0.68897363934E+01  0.17439202555E+02  0.51100000000E-03 0. -1.
        -11    1    4    4    0    0  0.56432579881E+00 -0.67754072496E+01 -0.44176990800E+01  0.81080621870E+01  0.51100000000E-03 0.  1.
         12    1    4    4    0    0 -0.13621356838E+01 -0.62349403716E+01 -0.21304647914E+02  0.22240007145E+02  0.00000000000E+00 0. -1.
</event>
<event>
 8    1  0.5331800E-011  0.9118800E+02  0.7816164E-02  0.1184000E+00
        -11   -1    0    0    0    0  0.00000000000E+00  0.00000000000E+00  0.45593999997E+02  0.45594000000E+02  0.51100000000E-03 0. -1.
         11   -1    0    0    0    0 -0.00000000000E+00 -0.00000000000E+00 -0.45593999997E+02  0.45594000000E+02  0.51100000000E-03 0.  1.
         23    2    1    2    0    0 -0.88817841970E-15 -0.17763568394E-14  0.00000000000E+00  0.91188000000E+02  0.91188000000E+02 0.  0.
    9900012    2    3    3    0    0  0.56535210356E+01  0.11828609167E+02  0.41373247789E+02  0.47787263514E+02  0.19999965666E+02 0.  0.
        -12    1    3    3    0    0 -0.56535210356E+01 -0.11828609167E+02 -0.41373247789E+02  0.43400736486E+02  0.00000000000E+00 0.  1.
         11    1    4    4    0    0  0.11807297479E+02  0.71425462195E+01  0.29394428945E+02  0.32472460540E+02  0.51100000000E-03 0. -1.
        -11    1    4    4    0    0 -0.35981890646E+01  0.36470186254E+01  0.30340137277E+01  0.59542378991E+01  0.51100000000E-03 0.  1.
         12    1    4    4    0    0 -0.25555873791E+01  0.10390443225E+01  0.89448051158E+01  0.93605650746E+01  0.00000000000E+00 0. -1.
</event>
<event>
 8    1  0.5331800E-011  0.9118800E+02  0.7816164E-02  0.1184000E+00
        -11   -1    0    0    0    0  0.00000000000E+00  0.00000000000E+00  0.45593999997E+02  0.45594000000E+02  0.51100000000E-03 0. -1.
         11   -1    0    0    0    0 -0.00000000000E+00 -0.00000000000E+00 -0.45593999997E+02  0.45594000000E+02  0.51100000000E-03 0.  1.
         23    2    1    2    0    0  0.35527136788E-14 -0.35527136788E-14  0.00000000000E+00  0.91188000000E+02  0.91188000000E+02 0.  0.
    9900012    2    3    3    0    0 -0.28570634125E+02  0.23303578583E+02  0.22897281716E+02  0.47787269371E+02  0.19999992371E+02 0.  0.
        -12    1    3    3    0    0  0.28570634125E+02 -0.23303578583E+02 -0.22897281716E+02  0.43400730629E+02  0.00000000000E+00 0.  1.
         11    1    4    4    0    0 -0.13473973652E+01 -0.48089153452E+00  0.74068842779E+01  0.75437836193E+01  0.51100000000E-03 0. -1.
        -11    1    4    4    0    0 -0.13964291834E+02  0.16836147713E+02  0.66661806471E+01  0.22866903614E+02  0.51100000000E-03 0.  1.
         12    1    4    4    0    0 -0.13258944926E+02  0.69483224052E+01  0.88242167915E+01  0.17376582138E+02  0.00000000000E+00 0. -1.
</event>
<event>
 8    1  0.5331800E-011  0.9118800E+02  0.7816164E-02  0.1184000E+00
        -11   -1    0    0    0    0  0.00000000000E+00  0.00000000000E+00  0.45593999997E+02  0.45594000000E+02  0.51100000000E-03 0. -1.
         11   -1    0    0    0    0 -0.00000000000E+00 -0.00000000000E+00 -0.45593999997E+02  0.45594000000E+02  0.51100000000E-03 0.  1.
         23    2    1    2    0    0  0.00000000000E+00  0.00000000000E+00  0.00000000000E+00  0.91188000000E+02  0.91188000000E+02 0.  0.
    9900012    2    3    3    0    0  0.23423359609E+02  0.52862594794E+01 -0.36152801492E+02  0.47787269933E+02  0.19999994930E+02 0.  0.
         12    1    3    3    0    0 -0.23423359609E+02 -0.52862594794E+01  0.36152801492E+02  0.43400730067E+02  0.00000000000E+00 0. -1.
         11    1    4    4    0    0  0.99540661804E+01  0.32936874806E+01 -0.27082870252E+02  0.29041585220E+02  0.51100000000E-03 0. -1.
        -11    1    4    4    0    0  0.82186033756E+01  0.26083986391E+01 -0.10182832608E+02  0.13343135504E+02  0.51100000000E-03 0.  1.
         12    1    4    4    0    0  0.52506900534E+01 -0.61582664031E+00  0.11129013683E+01  0.54025492079E+01  0.00000000000E+00 0. -1.
</event>
<event>
 8    1  0.5331800E-011  0.9118800E+02  0.7816164E-02  0.1184000E+00
        -11   -1    0    0    0    0  0.00000000000E+00  0.00000000000E+00  0.45593999997E+02  0.45594000000E+02  0.51100000000E-03 0. -1.
         11   -1    0    0    0    0 -0.00000000000E+00 -0.00000000000E+00 -0.45593999997E+02  0.45594000000E+02  0.51100000000E-03 0.  1.
         23    2    1    2    0    0  0.00000000000E+00 -0.17763568394E-14  0.71054273576E-14  0.91188000000E+02  0.91188000000E+02 0.  0.
    9900012    2    3    3    0    0  0.52468984200E+01  0.95384662953E+01 -0.42013221328E+02  0.47787273639E+02  0.20000011829E+02 0.  0.
         12    1    3    3    0    0 -0.52468984200E+01 -0.95384662953E+01  0.42013221328E+02  0.43400726361E+02  0.00000000000E+00 0. -1.
         11    1    4    4    0    0 -0.19165072095E+01 -0.11205786845E+01  0.10193523466E+00  0.22224057968E+01  0.51100000000E-03 0. -1.
        -11    1    4    4    0    0  0.59658225186E+01  0.18108568548E+01 -0.29235660896E+02  0.29893044495E+02  0.51100000000E-03 0.  1.
         12    1    4    4    0    0  0.11975831109E+01  0.88481881250E+01 -0.12879495667E+02  0.15671823347E+02  0.00000000000E+00 0. -1.
</event>
<event>
 8    1  0.5331800E-011  0.9118800E+02  0.7816164E-02  0.1184000E+00
        -11   -1    0    0    0    0  0.00000000000E+00  0.00000000000E+00  0.45593999997E+02  0.45594000000E+02  0.51100000000E-03 0. -1.
         11   -1    0    0    0    0 -0.00000000000E+00 -0.00000000000E+00 -0.45593999997E+02  0.45594000000E+02  0.51100000000E-03 0.  1.
         23    2    1    2    0    0  0.00000000000E+00  0.00000000000E+00  0.00000000000E+00  0.91188000000E+02  0.91188000000E+02 0.  0.
    9900012    2    3    3    0    0 -0.31577623676E+02  0.24806220415E+02 -0.16466058845E+02  0.47787239843E+02  0.19999857741E+02 0.  0.
         12    1    3    3    0    0  0.31577623676E+02 -0.24806220415E+02  0.16466058845E+02  0.43400760157E+02  0.00000000000E+00 0. -1.
         11    1    4    4    0    0 -0.37517290844E+01  0.65542369552E+01 -0.36588189894E+00  0.75609101973E+01  0.51100000000E-03 0. -1.
        -11    1    4    4    0    0 -0.19723407873E+02  0.11259394931E+02 -0.23943812277E+01  0.22836809192E+02  0.51100000000E-03 0.  1.
        -12    1    4    4    0    0 -0.81024867191E+01  0.69925885287E+01 -0.13705795718E+02  0.17389520454E+02  0.00000000000E+00 0.  1.
</event>
<event>
 8    1 -0.5331800E-011  0.9118800E+02  0.7816164E-02  0.1184000E+00
        -11   -1    0    0    0    0  0.00000000000E+00  0.00000000000E+00  0.45593999997E+02  0.45594000000E+02  0.51100000000E-03 0. -1.
         11   -1    0    0    0    0 -0.00000000000E+00 -0.00000000000E+00 -0.45593999997E+02  0.45594000000E+02  0.51100000000E-03 0.  1.
         23    2    1    2    0    0  0.00000000000E+00  0.00000000000E+00  0.00000000000E+00  0.91188000000E+02  0.91188000000E+02 0.  0.
    9900012    2    3    3    0    0 -0.32599661981E+02 -0.19887782176E+02  0.20624293447E+02  0.47787270497E+02  0.19999997505E+02 0.  0.
        -12    1    3    3    0    0  0.32599661981E+02  0.19887782176E+02 -0.20624293447E+02  0.43400729503E+02  0.00000000000E+00 0.  1.
         11    1    4    4    0    0 -0.34270749915E+01 -0.56802999508E+01  0.19420809338E+01  0.69124763394E+01  0.51100000000E-03 0. -1.
        -11    1    4    4    0    0 -0.23580699232E+02 -0.12085163163E+02  0.21631956969E+02  0.34205878260E+02  0.51100000000E-03 0.  1.
        -12    1    4    4    0    0 -0.55918877577E+01 -0.21223190620E+01 -0.29497444562E+01  0.66689158978E+01  0.00000000000E+00 0.  1.
</event>
<event>
 8    1  0.5331800E-011  0.9118800E+02  0.7816164E-02  0.1184000E+00
        -11   -1    0    0    0    0  0.00000000000E+00  0.00000000000E+00  0.45593999997E+02  0.45594000000E+02  0.51100000000E-03 0. -1.
         11   -1    0    0    0    0 -0.00000000000E+00 -0.00000000000E+00 -0.45593999997E+02  0.45594000000E+02  0.51100000000E-03 0.  1.
         23    2    1    2    0    0  0.00000000000E+00 -0.44408920985E-15  0.00000000000E+00  0.91188000000E+02  0.91188000000E+02 0.  0.
    9900012    2    3    3    0    0  0.52360279907E+01 -0.18374309553E+01  0.43044525473E+02  0.47787270572E+02  0.19999997847E+02 0.  0.
        -12    1    3    3    0    0 -0.52360279907E+01  0.18374309553E+01 -0.43044525473E+02  0.43400729428E+02  0.00000000000E+00 0.  1.
         11    1    4    4    0    0 -0.32582887078E+01  0.65639933371E+01  0.14101548974E+02  0.15892014899E+02  0.51100000000E-03 0.  1.
        -11    1    4    4    0    0  0.52338439485E+01 -0.75486166956E+01  0.15329991816E+02  0.17871300619E+02  0.51100000000E-03 0. -1.
        -12    1    4    4    0    0  0.32604727501E+01 -0.85280759677E+00  0.13612984684E+02  0.14023955054E+02  0.00000000000E+00 0.  1.
</event>
<event>
 8    1  0.5331800E-011  0.9118800E+02  0.7816164E-02  0.1184000E+00
        -11   -1    0    0    0    0  0.00000000000E+00  0.00000000000E+00  0.45593999997E+02  0.45594000000E+02  0.51100000000E-03 0.  1.
         11   -1    0    0    0    0 -0.00000000000E+00 -0.00000000000E+00 -0.45593999997E+02  0.45594000000E+02  0.51100000000E-03 0. -1.
         23    2    1    2    0    0  0.00000000000E+00 -0.44408920985E-15 -0.17763568394E-14  0.91188000000E+02  0.91188000000E+02 0.  0.
    9900012    2    3    3    0    0 -0.42543326186E+02 -0.26751320919E+01  0.81567314297E+01  0.47787271869E+02  0.20000003760E+02 0.  0.
        -12    1    3    3    0    0  0.42543326186E+02  0.26751320919E+01 -0.81567314297E+01  0.43400728131E+02  0.00000000000E+00 0.  1.
         11    1    4    4    0    0 -0.67852138354E+01  0.79654371996E+00 -0.64981573831E+00  0.68626430363E+01  0.51100000000E-03 0. -1.
        -11    1    4    4    0    0 -0.26159316657E+02 -0.66434006690E+01  0.13027808646E+02  0.29969458100E+02  0.51100000000E-03 0.  1.
        -12    1    4    4    0    0 -0.95987956934E+01  0.31717248571E+01 -0.42212614775E+01  0.10955170733E+02  0.00000000000E+00 0.  1.
</event>
<event>
 8    1  0.5331800E-011  0.9118800E+02  0.7816164E-02  0.1184000E+00
        -11   -1    0    0    0    0  0.00000000000E+00  0.00000000000E+00  0.45593999997E+02  0.45594000000E+02  0.51100000000E-03 0. -1.
         11   -1    0    0    0    0 -0.00000000000E+00 -0.00000000000E+00 -0.45593999997E+02  0.45594000000E+02  0.51100000000E-03 0.  1.
         23    2    1    2    0    0  0.22204460493E-15  0.00000000000E+00 -0.35527136788E-14  0.91188000000E+02  0.91188000000E+02 0.  0.
    9900012    2    3    3    0    0 -0.12081237191E+01  0.39280500913E+02 -0.18417559941E+02  0.47787264648E+02  0.19999970836E+02 0.  0.
         12    1    3    3    0    0  0.12081237191E+01 -0.39280500913E+02  0.18417559941E+02  0.43400735352E+02  0.00000000000E+00 0. -1.
         11    1    4    4    0    0 -0.36683648435E+01  0.23042996488E+02 -0.20636656113E+01  0.23424246066E+02  0.51100000000E-03 0. -1.
        -11    1    4    4    0    0  0.50144646311E+01  0.84218070510E+01 -0.96385302506E+01  0.13746743440E+02  0.51100000000E-03 0.  1.
         12    1    4    4    0    0 -0.25542235066E+01  0.78156973743E+01 -0.67153640795E+01  0.10616275142E+02  0.00000000000E+00 0. -1.
</event>
<event>
 8    1  0.5331800E-011  0.9118800E+02  0.7816164E-02  0.1184000E+00
        -11   -1    0    0    0    0  0.00000000000E+00  0.00000000000E+00  0.45593999997E+02  0.45594000000E+02  0.51100000000E-03 0. -1.
         11   -1    0    0    0    0 -0.00000000000E+00 -0.00000000000E+00 -0.45593999997E+02  0.45594000000E+02  0.51100000000E-03 0.  1.
         23    2    1    2    0    0  0.00000000000E+00  0.44408920985E-15  0.00000000000E+00  0.91188000000E+02  0.91188000000E+02 0.  0.
    9900012    2    3    3    0    0 -0.34040519516E+02 -0.32605346805E+01 -0.26725180270E+02  0.47787270562E+02  0.19999997799E+02 0.  0.
         12    1    3    3    0    0  0.34040519516E+02  0.32605346805E+01  0.26725180270E+02  0.43400729438E+02  0.00000000000E+00 0. -1.
         11    1    4    4    0    0 -0.13073903965E+02  0.14771262343E+01 -0.74855492319E+00  0.13178361110E+02  0.51100000000E-03 0. -1.
        -11    1    4    4    0    0 -0.48659147150E+01  0.18520591945E+01 -0.39206298609E+01  0.65175599760E+01  0.51100000000E-03 0.  1.
         12    1    4    4    0    0 -0.16100700836E+02 -0.65897201093E+01 -0.22055995486E+02  0.28091349476E+02  0.00000000000E+00 0. -1.
</event>
<event>
 8    1  0.5331800E-011  0.9118800E+02  0.7816164E-02  0.1184000E+00
        -11   -1    0    0    0    0  0.00000000000E+00  0.00000000000E+00  0.45593999997E+02  0.45594000000E+02  0.51100000000E-03 0. -1.
         11   -1    0    0    0    0 -0.00000000000E+00 -0.00000000000E+00 -0.45593999997E+02  0.45594000000E+02  0.51100000000E-03 0.  1.
         23    2    1    2    0    0  0.22204460493E-15  0.00000000000E+00  0.00000000000E+00  0.91188000000E+02  0.91188000000E+02 0.  0.
    9900012    2    3    3    0    0 -0.16154907652E+01 -0.79491507470E+01 -0.42635951599E+02  0.47787272163E+02  0.20000005102E+02 0.  0.
         12    1    3    3    0    0  0.16154907652E+01  0.79491507470E+01  0.42635951599E+02  0.43400727837E+02  0.00000000000E+00 0. -1.
         11    1    4    4    0    0 -0.29449304601E+01  0.10957490829E+01 -0.20197854620E+02  0.20440807542E+02  0.51100000000E-03 0. -1.
        -11    1    4    4    0    0 -0.26105480556E+01 -0.71582541286E+01 -0.44247897969E+01  0.88110344641E+01  0.51100000000E-03 0.  1.
        -12    1    4    4    0    0  0.39399877506E+01 -0.18866457013E+01 -0.18013307182E+02  0.18535430157E+02  0.00000000000E+00 0.  1.
</event>
<event>
 8    1  0.5331800E-011  0.9118800E+02  0.7816164E-02  0.1184000E+00
        -11   -1    0    0    0    0  0.00000000000E+00  0.00000000000E+00  0.45593999997E+02  0.45594000000E+02  0.51100000000E-03 0. -1.
         11   -1    0    0    0    0 -0.00000000000E+00 -0.00000000000E+00 -0.45593999997E+02  0.45594000000E+02  0.51100000000E-03 0.  1.
         23    2    1    2    0    0  0.00000000000E+00 -0.17763568394E-14  0.00000000000E+00  0.91188000000E+02  0.91188000000E+02 0.  0.
    9900012    2    3    3    0    0 -0.24279849618E+02 -0.12450686860E+02  0.33750447371E+02  0.47787269609E+02  0.19999993455E+02 0.  0.
        -12    1    3    3    0    0  0.24279849618E+02  0.12450686860E+02 -0.33750447371E+02  0.43400730391E+02  0.00000000000E+00 0.  1.
         11    1    4    4    0    0 -0.17993764397E+02 -0.43282264642E+00  0.18629877616E+02  0.25904347760E+02  0.51100000000E-03 0. -1.
        -11    1    4    4    0    0 -0.57393694217E+00 -0.78734616613E+01  0.43707069427E+01  0.90235182487E+01  0.51100000000E-03 0.  1.
        -12    1    4    4    0    0 -0.57121482781E+01 -0.41444025521E+01  0.10749862812E+02  0.12859403600E+02  0.00000000000E+00 0.  1.
</event>
<event>
 8    1  0.5331800E-011  0.9118800E+02  0.7816164E-02  0.1184000E+00
        -11   -1    0    0    0    0  0.00000000000E+00  0.00000000000E+00  0.45593999997E+02  0.45594000000E+02  0.51100000000E-03 0.  1.
         11   -1    0    0    0    0 -0.00000000000E+00 -0.00000000000E+00 -0.45593999997E+02  0.45594000000E+02  0.51100000000E-03 0. -1.
         23    2    1    2    0    0 -0.17763568394E-14  0.71054273576E-14  0.88817841970E-15  0.91188000000E+02  0.91188000000E+02 0.  0.
    9900012    2    3    3    0    0  0.13885400382E+02 -0.40657162753E+02 -0.61491916950E+01  0.47787288192E+02  0.20000078184E+02 0.  0.
         12    1    3    3    0    0 -0.13885400382E+02  0.40657162753E+02  0.61491916950E+01  0.43400711808E+02  0.00000000000E+00 0. -1.
         11    1    4    4    0    0  0.14860217673E+02 -0.41051641247E+02 -0.55675480700E+01  0.44012054146E+02  0.51100000000E-03 0.  1.
        -11    1    4    4    0    0 -0.14276894918E+01 -0.45969855149E+00 -0.17197473710E+01  0.22819183431E+01  0.51100000000E-03 0. -1.
        -12    1    4    4    0    0  0.45287220079E+00  0.85417704498E+00  0.11381037460E+01  0.14933157038E+01  0.00000000000E+00 0.  1.
</event>
<event>
 8    1  0.5331800E-011  0.9118800E+02  0.7816164E-02  0.1184000E+00
        -11   -1    0    0    0    0  0.00000000000E+00  0.00000000000E+00  0.45593999997E+02  0.45594000000E+02  0.51100000000E-03 0. -1.
         11   -1    0    0    0    0 -0.00000000000E+00 -0.00000000000E+00 -0.45593999997E+02  0.45594000000E+02  0.51100000000E-03 0.  1.
         23    2    1    2    0    0  0.00000000000E+00  0.00000000000E+00  0.00000000000E+00  0.91188000000E+02  0.91188000000E+02 0.  0.
    9900012    2    3    3    0    0  0.35679026440E+02 -0.21052930127E+02  0.12938485232E+02  0.47787271956E+02  0.20000004156E+02 0.  0.
        -12    1    3    3    0    0 -0.35679026440E+02  0.21052930127E+02 -0.12938485232E+02  0.43400728044E+02  0.00000000000E+00 0.  1.
         11    1    4    4    0    0  0.32299055478E+02 -0.20407920730E+02  0.11778861924E+02  0.39980667850E+02  0.51100000000E-03 0. -1.
        -11    1    4    4    0    0  0.10434669399E+01  0.27138466802E+01  0.21266540537E+01  0.36022832737E+01  0.51100000000E-03 0.  1.
         12    1    4    4    0    0  0.23365040228E+01 -0.33588560770E+01 -0.96703074592E+00  0.42043208320E+01  0.00000000000E+00 0. -1.
</event>
<event>
 8    1  0.5331800E-011  0.9118800E+02  0.7816164E-02  0.1184000E+00
        -11   -1    0    0    0    0  0.00000000000E+00  0.00000000000E+00  0.45593999997E+02  0.45594000000E+02  0.51100000000E-03 0. -1.
         11   -1    0    0    0    0 -0.00000000000E+00 -0.00000000000E+00 -0.45593999997E+02  0.45594000000E+02  0.51100000000E-03 0.  1.
         23    2    1    2    0    0  0.71054273576E-14  0.00000000000E+00  0.00000000000E+00  0.91188000000E+02  0.91188000000E+02 0.  0.
    9900012    2    3    3    0    0  0.37669483945E+02  0.16401463098E+02  0.13986607278E+02  0.47787271947E+02  0.20000004114E+02 0.  0.
        -12    1    3    3    0    0 -0.37669483945E+02 -0.16401463098E+02 -0.13986607278E+02  0.43400728053E+02  0.00000000000E+00 0.  1.
         11    1    4    4    0    0  0.15693017912E+02  0.11615013570E+02 -0.58141681762E+00  0.19532470330E+02  0.51100000000E-03 0. -1.
        -11    1    4    4    0    0  0.97794400482E+00  0.27020741846E+01  0.31431567214E+01  0.42587573084E+01  0.51100000000E-03 0.  1.
         12    1    4    4    0    0  0.20998522028E+02  0.20843753433E+01  0.11424867374E+02  0.23996044309E+02  0.00000000000E+00 0. -1.
</event>
<event>
 8    1  0.5331800E-011  0.9118800E+02  0.7816164E-02  0.1184000E+00
        -11   -1    0    0    0    0  0.00000000000E+00  0.00000000000E+00  0.45593999997E+02  0.45594000000E+02  0.51100000000E-03 0.  1.
         11   -1    0    0    0    0 -0.00000000000E+00 -0.00000000000E+00 -0.45593999997E+02  0.45594000000E+02  0.51100000000E-03 0. -1.
         23    2    1    2    0    0  0.00000000000E+00 -0.35527136788E-14 -0.26367796835E-15  0.91188000000E+02  0.91188000000E+02 0.  0.
    9900012    2    3    3    0    0 -0.36190582004E+02  0.23955376106E+02  0.74137669538E-01  0.47787265368E+02  0.19999974120E+02 0.  0.
        -12    1    3    3    0    0  0.36190582004E+02 -0.23955376106E+02 -0.74137669538E-01  0.43400734632E+02  0.00000000000E+00 0.  1.
         11    1    4    4    0    0 -0.14798873483E+02  0.87596202939E+01 -0.20901748189E+01  0.17323580320E+02  0.51100000000E-03 0. -1.
        -11    1    4    4    0    0 -0.18517569360E+02  0.13633851305E+02  0.75151885608E+01  0.24192154426E+02  0.51100000000E-03 0.  1.
        -12    1    4    4    0    0 -0.28741391609E+01  0.15619045077E+01 -0.53508760723E+01  0.62715306225E+01  0.00000000000E+00 0.  1.
</event>
<event>
 8    1  0.5331800E-011  0.9118800E+02  0.7816164E-02  0.1184000E+00
        -11   -1    0    0    0    0  0.00000000000E+00  0.00000000000E+00  0.45593999997E+02  0.45594000000E+02  0.51100000000E-03 0. -1.
         11   -1    0    0    0    0 -0.00000000000E+00 -0.00000000000E+00 -0.45593999997E+02  0.45594000000E+02  0.51100000000E-03 0.  1.
         23    2    1    2    0    0  0.00000000000E+00  0.00000000000E+00  0.00000000000E+00  0.91188000000E+02  0.91188000000E+02 0.  0.
    9900012    2    3    3    0    0 -0.22956226554E+02 -0.36684766962E+02  0.32957435424E+01  0.47787281225E+02  0.20000046419E+02 0.  0.
        -12    1    3    3    0    0  0.22956226554E+02  0.36684766962E+02 -0.32957435424E+01  0.43400718775E+02  0.00000000000E+00 0.  1.
         11    1    4    4    0    0 -0.92369173363E+01 -0.95655110412E+01 -0.28382134182E+01  0.13596878282E+02  0.51100000000E-03 0. -1.
        -11    1    4    4    0    0 -0.11947381211E+02 -0.22270367340E+02  0.10560108005E+02  0.27390236592E+02  0.51100000000E-03 0.  1.
        -12    1    4    4    0    0 -0.17719280070E+01 -0.48488885811E+01 -0.44261510440E+01  0.68001663508E+01  0.00000000000E+00 0.  1.
</event>
<event>
 8    1  0.5331800E-011  0.9118800E+02  0.7816164E-02  0.1184000E+00
        -11   -1    0    0    0    0  0.00000000000E+00  0.00000000000E+00  0.45593999997E+02  0.45594000000E+02  0.51100000000E-03 0. -1.
         11   -1    0    0    0    0 -0.00000000000E+00 -0.00000000000E+00 -0.45593999997E+02  0.45594000000E+02  0.51100000000E-03 0.  1.
         23    2    1    2    0    0  0.71054273576E-14  0.00000000000E+00 -0.17763568394E-14  0.91188000000E+02  0.91188000000E+02 0.  0.
    9900012    2    3    3    0    0 -0.37051855403E+02  0.16121356040E+02  0.15839368595E+02  0.47787266056E+02  0.19999977255E+02 0.  0.
        -12    1    3    3    0    0  0.37051855403E+02 -0.16121356040E+02 -0.15839368595E+02  0.43400733944E+02  0.00000000000E+00 0.  1.
         11    1    4    4    0    0 -0.18405897636E+02  0.58181762540E+01  0.15534589329E+02  0.24778048927E+02  0.51100000000E-03 0. -1.
        -11    1    4    4    0    0 -0.17949138659E+02  0.64843370732E+01 -0.26113162304E+00  0.19086288164E+02  0.51100000000E-03 0.  1.
         12    1    4    4    0    0 -0.69681910771E+00  0.38188427128E+01  0.56591088900E+00  0.39229289655E+01  0.00000000000E+00 0. -1.
</event>
<event>
 8    1  0.5331800E-011  0.9118800E+02  0.7816164E-02  0.1184000E+00
        -11   -1    0    0    0    0  0.00000000000E+00  0.00000000000E+00  0.45593999997E+02  0.45594000000E+02  0.51100000000E-03 0. -1.
         11   -1    0    0    0    0 -0.00000000000E+00 -0.00000000000E+00 -0.45593999997E+02  0.45594000000E+02  0.51100000000E-03 0.  1.
         23    2    1    2    0    0  0.00000000000E+00  0.17763568394E-14  0.00000000000E+00  0.91188000000E+02  0.91188000000E+02 0.  0.
    9900012    2    3    3    0    0  0.34864237290E+02 -0.83043787240E+01  0.24477443307E+02  0.47787274445E+02  0.20000015505E+02 0.  0.
        -12    1    3    3    0    0 -0.34864237290E+02  0.83043787240E+01 -0.24477443307E+02  0.43400725555E+02  0.00000000000E+00 0.  1.
         11    1    4    4    0    0  0.23375897619E+02 -0.13743604130E+02  0.14478476705E+02  0.30739966362E+02  0.51100000000E-03 0. -1.
        -11    1    4    4    0    0  0.11407230991E+02  0.36752893442E+01  0.92023842516E+01  0.15110147148E+02  0.51100000000E-03 0.  1.
         12    1    4    4    0    0  0.81108679763E-01  0.17639360615E+01  0.79658235098E+00  0.19371609352E+01  0.00000000000E+00 0. -1.
</event>
<event>
 8    1  0.5331800E-011  0.9118800E+02  0.7816164E-02  0.1184000E+00
        -11   -1    0    0    0    0  0.00000000000E+00  0.00000000000E+00  0.45593999997E+02  0.45594000000E+02  0.51100000000E-03 0. -1.
         11   -1    0    0    0    0 -0.00000000000E+00 -0.00000000000E+00 -0.45593999997E+02  0.45594000000E+02  0.51100000000E-03 0.  1.
         23    2    1    2    0    0  0.00000000000E+00  0.00000000000E+00  0.17763568394E-14  0.91188000000E+02  0.91188000000E+02 0.  0.
    9900012    2    3    3    0    0  0.34505308763E+02 -0.22873345645E+02  0.13031383024E+02  0.47787271696E+02  0.20000002970E+02 0.  0.
        -12    1    3    3    0    0 -0.34505308763E+02  0.22873345645E+02 -0.13031383024E+02  0.43400728304E+02  0.00000000000E+00 0.  1.
         11    1    4    4    0    0  0.12463126406E+02 -0.37248381296E+01  0.90548124015E+01  0.15849087254E+02  0.51100000000E-03 0. -1.
        -11    1    4    4    0    0  0.20078438335E+02 -0.20935912597E+02  0.40023112012E+01  0.29282667526E+02  0.51100000000E-03 0.  1.
        -12    1    4    4    0    0  0.19637440224E+01  0.17874050818E+01 -0.25740578684E-01  0.26555169156E+01  0.00000000000E+00 0.  1.
</event>
<event>
 8    1 -0.1351784E-010  0.9118800E+02  0.7816164E-02  0.1184000E+00
        -11   -1    0    0    0    0  0.00000000000E+00  0.00000000000E+00  0.45593999997E+02  0.45594000000E+02  0.51100000000E-03 0. -1.
         11   -1    0    0    0    0 -0.00000000000E+00 -0.00000000000E+00 -0.45593999997E+02  0.45594000000E+02  0.51100000000E-03 0.  1.
         23    2    1    2    0    0  0.00000000000E+00  0.00000000000E+00 -0.71054273576E-14  0.91188000000E+02  0.91188000000E+02 0.  0.
    9900012    2    3    3    0    0 -0.66759496854E+01  0.11244620291E+02 -0.41383737253E+02  0.47787268454E+02  0.19999988191E+02 0.  0.
         12    1    3    3    0    0  0.66759496854E+01 -0.11244620291E+02  0.41383737253E+02  0.43400731546E+02  0.00000000000E+00 0. -1.
         11    1    4    4    0    0  0.57863966281E-01  0.47064252208E+01 -0.31671329921E+01  0.56731400695E+01  0.51100000000E-03 0. -1.
        -11    1    4    4    0    0 -0.70865526511E+01 -0.17598234291E+01 -0.82470060563E+01  0.11014958744E+02  0.51100000000E-03 0.  1.
        -12    1    4    4    0    0  0.35273899945E+00  0.82980184992E+01 -0.29969598204E+02  0.31099169641E+02  0.00000000000E+00 0.  1.
</event>
<event>
 8    1  0.5331800E-011  0.9118800E+02  0.7816164E-02  0.1184000E+00
        -11   -1    0    0    0    0  0.00000000000E+00  0.00000000000E+00  0.45593999997E+02  0.45594000000E+02  0.51100000000E-03 0. -1.
         11   -1    0    0    0    0 -0.00000000000E+00 -0.00000000000E+00 -0.45593999997E+02  0.45594000000E+02  0.51100000000E-03 0.  1.
         23    2    1    2    0    0  0.00000000000E+00  0.00000000000E+00  0.00000000000E+00  0.91188000000E+02  0.91188000000E+02 0.  0.
    9900012    2    3    3    0    0  0.70644315207E+01 -0.27857221305E+02 -0.32522181664E+02  0.47787271069E+02  0.20000000114E+02 0.  0.
         12    1    3    3    0    0 -0.70644315207E+01  0.27857221305E+02  0.32522181664E+02  0.43400728931E+02  0.00000000000E+00 0. -1.
         11    1    4    4    0    0  0.52634575832E+01 -0.53688683932E+01 -0.17674927519E+02  0.19207597367E+02  0.51100000000E-03 0. -1.
        -11    1    4    4    0    0  0.10958602889E+01 -0.93524327402E+01 -0.11763662213E+02  0.15068266551E+02  0.51100000000E-03 0.  1.
         12    1    4    4    0    0  0.70511364856E+00 -0.13135920171E+02 -0.30835919319E+01  0.13511407151E+02  0.00000000000E+00 0. -1.
</event>
<event>
 8    1  0.5331800E-011  0.9118800E+02  0.7816164E-02  0.1184000E+00
        -11   -1    0    0    0    0  0.00000000000E+00  0.00000000000E+00  0.45593999997E+02  0.45594000000E+02  0.51100000000E-03 0. -1.
         11   -1    0    0    0    0 -0.00000000000E+00 -0.00000000000E+00 -0.45593999997E+02  0.45594000000E+02  0.51100000000E-03 0.  1.
         23    2    1    2    0    0  0.00000000000E+00  0.00000000000E+00  0.00000000000E+00  0.91188000000E+02  0.91188000000E+02 0.  0.
    9900012    2    3    3    0    0 -0.21212984697E+02 -0.17797284241E+02 -0.33419896192E+02  0.47787268352E+02  0.19999987725E+02 0.  0.
         12    1    3    3    0    0  0.21212984697E+02  0.17797284241E+02  0.33419896192E+02  0.43400731648E+02  0.00000000000E+00 0. -1.
         11    1    4    4    0    0 -0.17765750554E+02 -0.94609947394E+01 -0.14429599407E+02  0.24765816229E+02  0.51100000000E-03 0.  1.
        -11    1    4    4    0    0 -0.17565567251E+01  0.15237618772E+01 -0.71613236568E+01  0.75294022715E+01  0.51100000000E-03 0. -1.
         12    1    4    4    0    0 -0.16906774178E+01 -0.98600513792E+01 -0.11828973128E+02  0.15492049852E+02  0.00000000000E+00 0. -1.
</event>
<event>
 8    1  0.5331800E-011  0.9118800E+02  0.7816164E-02  0.1184000E+00
        -11   -1    0    0    0    0  0.00000000000E+00  0.00000000000E+00  0.45593999997E+02  0.45594000000E+02  0.51100000000E-03 0. -1.
         11   -1    0    0    0    0 -0.00000000000E+00 -0.00000000000E+00 -0.45593999997E+02  0.45594000000E+02  0.51100000000E-03 0.  1.
         23    2    1    2    0    0  0.00000000000E+00  0.00000000000E+00  0.00000000000E+00  0.91188000000E+02  0.91188000000E+02 0.  0.
    9900012    2    3    3    0    0 -0.20875844277E+02  0.28683079946E+02 -0.25002056842E+02  0.47787276552E+02  0.20000025113E+02 0.  0.
         12    1    3    3    0    0  0.20875844277E+02 -0.28683079946E+02  0.25002056842E+02  0.43400723448E+02  0.00000000000E+00 0. -1.
         11    1    4    4    0    0  0.65066952473E+00 -0.94182719925E+00 -0.89679193320E+00  0.14541820162E+01  0.51100000000E-03 0. -1.
        -11    1    4    4    0    0 -0.74843846433E+01  0.21188085967E+02 -0.18208693862E+02  0.28922439954E+02  0.51100000000E-03 0.  1.
        -12    1    4    4    0    0 -0.14042129158E+02  0.84368211778E+01 -0.58965710464E+01  0.17410654583E+02  0.00000000000E+00 0.  1.
</event>
<event>
 8    1  0.5331800E-011  0.9118800E+02  0.7816164E-02  0.1184000E+00
        -11   -1    0    0    0    0  0.00000000000E+00  0.00000000000E+00  0.45593999997E+02  0.45594000000E+02  0.51100000000E-03 0. -1.
         11   -1    0    0    0    0 -0.00000000000E+00 -0.00000000000E+00 -0.45593999997E+02  0.45594000000E+02  0.51100000000E-03 0.  1.
         23    2    1    2    0    0  0.00000000000E+00  0.00000000000E+00 -0.71054273576E-14  0.91188000000E+02  0.91188000000E+02 0.  0.
    9900012    2    3    3    0    0 -0.68598519529E+01 -0.94018621894E+01 -0.41811138689E+02  0.47787263833E+02  0.19999967118E+02 0.  0.
         12    1    3    3    0    0  0.68598519529E+01  0.94018621894E+01  0.41811138689E+02  0.43400736167E+02  0.00000000000E+00 0. -1.
         11    1    4    4    0    0 -0.63600706802E+01 -0.11991219740E+01 -0.19126137383E+01  0.67488135356E+01  0.51100000000E-03 0. -1.
        -11    1    4    4    0    0  0.28603605217E+00 -0.24786369451E+01 -0.23875795153E+02  0.24005812883E+02  0.51100000000E-03 0.  1.
         12    1    4    4    0    0 -0.78581732482E+00 -0.57241032704E+01 -0.16022729798E+02  0.17032637414E+02  0.00000000000E+00 0. -1.
</event>
<event>
 8    1  0.5331800E-011  0.9118800E+02  0.7816164E-02  0.1184000E+00
        -11   -1    0    0    0    0  0.00000000000E+00  0.00000000000E+00  0.45593999997E+02  0.45594000000E+02  0.51100000000E-03 0. -1.
         11   -1    0    0    0    0 -0.00000000000E+00 -0.00000000000E+00 -0.45593999997E+02  0.45594000000E+02  0.51100000000E-03 0.  1.
         23    2    1    2    0    0 -0.88817841970E-15  0.71054273576E-14  0.00000000000E+00  0.91188000000E+02  0.91188000000E+02 0.  0.
    9900012    2    3    3    0    0  0.59615867188E+01 -0.36837325354E+02 -0.22160643079E+02  0.47787272390E+02  0.20000006134E+02 0.  0.
         12    1    3    3    0    0 -0.59615867188E+01  0.36837325354E+02  0.22160643079E+02  0.43400727610E+02  0.00000000000E+00 0. -1.
         11    1    4    4    0    0  0.74672994759E+00 -0.16168515506E+01  0.14556579191E+01  0.23001640789E+01  0.51100000000E-03 0. -1.
        -11    1    4    4    0    0  0.29121775763E+01 -0.37759334620E+01 -0.10127811298E+02  0.11194240202E+02  0.51100000000E-03 0.  1.
        -12    1    4    4    0    0  0.23026791948E+01 -0.31444540341E+02 -0.13488489700E+02  0.34292868109E+02  0.00000000000E+00 0.  1.
</event>
<event>
 8    1  0.6177328E-011  0.9118800E+02  0.7816164E-02  0.1184000E+00
        -11   -1    0    0    0    0  0.00000000000E+00  0.00000000000E+00  0.45593999997E+02  0.45594000000E+02  0.51100000000E-03 0. -1.
         11   -1    0    0    0    0 -0.00000000000E+00 -0.00000000000E+00 -0.45593999997E+02  0.45594000000E+02  0.51100000000E-03 0.  1.
         23    2    1    2    0    0  0.00000000000E+00  0.00000000000E+00  0.00000000000E+00  0.91188000000E+02  0.91188000000E+02 0.  0.
    9900012    2    3    3    0    0 -0.10167111406E+02  0.24368223267E+02 -0.34444774561E+02  0.47787274729E+02  0.20000016798E+02 0.  0.
         12    1    3    3    0    0  0.10167111406E+02 -0.24368223267E+02  0.34444774561E+02  0.43400725271E+02  0.00000000000E+00 0. -1.
         11    1    4    4    0    0 -0.30162834462E+01 -0.10125595404E+01 -0.69875438936E+01  0.76778260319E+01  0.51100000000E-03 0. -1.
        -11    1    4    4    0    0 -0.52036529015E+01  0.19425229887E+02 -0.11970547081E+02  0.23403238182E+02  0.51100000000E-03 0.  1.
        -12    1    4    4    0    0 -0.19471750578E+01  0.59555529202E+01 -0.15486683586E+02  0.16706210515E+02  0.00000000000E+00 0.  1.
</event>
<event>
 8    1  0.5331800E-011  0.9118800E+02  0.7816164E-02  0.1184000E+00
        -11   -1    0    0    0    0  0.00000000000E+00  0.00000000000E+00  0.45593999997E+02  0.45594000000E+02  0.51100000000E-03 0. -1.
         11   -1    0    0    0    0 -0.00000000000E+00 -0.00000000000E+00 -0.45593999997E+02  0.45594000000E+02  0.51100000000E-03 0.  1.
         23    2    1    2    0    0  0.00000000000E+00  0.00000000000E+00  0.00000000000E+00  0.91188000000E+02  0.91188000000E+02 0.  0.
    9900012    2    3    3    0    0 -0.19304139665E+02 -0.88445108998E+01 -0.37851659984E+02  0.47787270227E+02  0.19999996273E+02 0.  0.
         12    1    3    3    0    0  0.19304139665E+02  0.88445108998E+01  0.37851659984E+02  0.43400729773E+02  0.00000000000E+00 0. -1.
         11    1    4    4    0    0  0.23854562724E+01 -0.17754001238E+01 -0.14180176949E+00  0.29770044055E+01  0.51100000000E-03 0. -1.
        -11    1    4    4    0    0 -0.20405739304E+02 -0.46152352862E+01 -0.35735224993E+02  0.41408947087E+02  0.51100000000E-03 0.  1.
        -12    1    4    4    0    0 -0.12838566337E+01 -0.24538754897E+01 -0.19746332222E+01  0.34013187350E+01  0.00000000000E+00 0.  1.
</event>
<event>
 8    1  0.5331800E-011  0.9118800E+02  0.7816164E-02  0.1184000E+00
        -11   -1    0    0    0    0  0.00000000000E+00  0.00000000000E+00  0.45593999997E+02  0.45594000000E+02  0.51100000000E-03 0. -1.
         11   -1    0    0    0    0 -0.00000000000E+00 -0.00000000000E+00 -0.45593999997E+02  0.45594000000E+02  0.51100000000E-03 0.  1.
         23    2    1    2    0    0  0.00000000000E+00  0.17763568394E-14  0.00000000000E+00  0.91188000000E+02  0.91188000000E+02 0.  0.
    9900012    2    3    3    0    0  0.67053241615E+01  0.53900318134E+01  0.42539504931E+02  0.47787270803E+02  0.19999998899E+02 0.  0.
        -12    1    3    3    0    0 -0.67053241615E+01 -0.53900318134E+01 -0.42539504931E+02  0.43400729197E+02  0.00000000000E+00 0.  1.
         11    1    4    4    0    0  0.11788874600E+01  0.45171777944E+01  0.15908585061E+02  0.16579437559E+02  0.51100000000E-03 0. -1.
        -11    1    4    4    0    0  0.59409743292E+01 -0.46912542742E+01  0.55113027992E+01  0.93636265117E+01  0.51100000000E-03 0.  1.
        -12    1    4    4    0    0 -0.41453762773E+00  0.55641082932E+01  0.21119617071E+02  0.21844206732E+02  0.00000000000E+00 0.  1.
</event>
<event>
 8    1  0.5331800E-011  0.9118800E+02  0.7816164E-02  0.1184000E+00
        -11   -1    0    0    0    0  0.00000000000E+00  0.00000000000E+00  0.45593999997E+02  0.45594000000E+02  0.51100000000E-03 0. -1.
         11   -1    0    0    0    0 -0.00000000000E+00 -0.00000000000E+00 -0.45593999997E+02  0.45594000000E+02  0.51100000000E-03 0.  1.
         23    2    1    2    0    0 -0.35527136788E-14 -0.88817841970E-15  0.00000000000E+00  0.91188000000E+02  0.91188000000E+02 0.  0.
    9900012    2    3    3    0    0 -0.23310368161E+02 -0.50085833451E+01  0.36265189850E+02  0.47787272290E+02  0.20000005677E+02 0.  0.
        -12    1    3    3    0    0  0.23310368161E+02  0.50085833451E+01 -0.36265189850E+02  0.43400727710E+02  0.00000000000E+00 0.  1.
         11    1    4    4    0    0 -0.72261305007E+01  0.60530534909E+01  0.71083172412E+01  0.11806125225E+02  0.51100000000E-03 0. -1.
        -11    1    4    4    0    0 -0.10100075476E+02 -0.10532610525E+02  0.16880174400E+02  0.22313397257E+02  0.51100000000E-03 0.  1.
         12    1    4    4    0    0 -0.59841621852E+01 -0.52902631057E+00  0.12276698209E+02  0.13667749807E+02  0.00000000000E+00 0. -1.
</event>
<event>
 8    1  0.5331800E-011  0.9118800E+02  0.7816164E-02  0.1184000E+00
        -11   -1    0    0    0    0  0.00000000000E+00  0.00000000000E+00  0.45593999997E+02  0.45594000000E+02  0.51100000000E-03 0. -1.
         11   -1    0    0    0    0 -0.00000000000E+00 -0.00000000000E+00 -0.45593999997E+02  0.45594000000E+02  0.51100000000E-03 0.  1.
         23    2    1    2    0    0  0.71054273576E-14  0.00000000000E+00  0.00000000000E+00  0.91188000000E+02  0.91188000000E+02 0.  0.
    9900012    2    3    3    0    0  0.37185925312E+02 -0.20477389012E+02 -0.90280995939E+01  0.47787273228E+02  0.20000009954E+02 0.  0.
         12    1    3    3    0    0 -0.37185925312E+02  0.20477389012E+02  0.90280995939E+01  0.43400726772E+02  0.00000000000E+00 0. -1.
         11    1    4    4    0    0  0.27084579942E+02 -0.84458527554E+01 -0.57078197336E-01  0.28370938609E+02  0.51100000000E-03 0. -1.
        -11    1    4    4    0    0  0.29316049706E+01 -0.85970503050E+01 -0.33554186040E+01  0.96830994997E+01  0.51100000000E-03 0.  1.
        -12    1    4    4    0    0  0.71697404000E+01 -0.34344859518E+01 -0.56156027926E+01  0.97332351189E+01  0.00000000000E+00 0.  1.
</event>
<event>
 8    1  0.5331800E-011  0.9118800E+02  0.7816164E-02  0.1184000E+00
        -11   -1    0    0    0    0  0.00000000000E+00  0.00000000000E+00  0.45593999997E+02  0.45594000000E+02  0.51100000000E-03 0. -1.
         11   -1    0    0    0    0 -0.00000000000E+00 -0.00000000000E+00 -0.45593999997E+02  0.45594000000E+02  0.51100000000E-03 0.  1.
         23    2    1    2    0    0  0.00000000000E+00  0.17763568394E-14  0.00000000000E+00  0.91188000000E+02  0.91188000000E+02 0.  0.
    9900012    2    3    3    0    0  0.30337528984E+02 -0.95445156026E+01  0.29532352739E+02  0.47787270730E+02  0.19999998565E+02 0.  0.
        -12    1    3    3    0    0 -0.30337528984E+02  0.95445156026E+01 -0.29532352739E+02  0.43400729270E+02  0.00000000000E+00 0.  1.
         11    1    4    4    0    0  0.18607058624E+02 -0.72934130042E+01  0.22414988019E+02  0.30030787403E+02  0.51100000000E-03 0. -1.
        -11    1    4    4    0    0  0.10109205631E+02 -0.23440215074E+01 -0.80489066438E-01  0.10377714299E+02  0.51100000000E-03 0.  1.
        -12    1    4    4    0    0  0.16212647288E+01  0.92918909076E-01  0.71978537856E+01  0.73787690276E+01  0.00000000000E+00 0.  1.
</event>
<event>
 8    1  0.5331800E-011  0.9118800E+02  0.7816164E-02  0.1184000E+00
        -11   -1    0    0    0    0  0.00000000000E+00  0.00000000000E+00  0.45593999997E+02  0.45594000000E+02  0.51100000000E-03 0. -1.
         11   -1    0    0    0    0 -0.00000000000E+00 -0.00000000000E+00 -0.45593999997E+02  0.45594000000E+02  0.51100000000E-03 0.  1.
         23    2    1    2    0    0  0.00000000000E+00  0.00000000000E+00  0.00000000000E+00  0.91188000000E+02  0.91188000000E+02 0.  0.
    9900012    2    3    3    0    0 -0.61381102747E+01  0.36104489813E+02 -0.23289741657E+02  0.47787278245E+02  0.20000032831E+02 0.  0.
         12    1    3    3    0    0  0.61381102747E+01 -0.36104489813E+02  0.23289741657E+02  0.43400721755E+02  0.00000000000E+00 0. -1.
         11    1    4    4    0    0 -0.62750932499E+01  0.23625439977E+01 -0.63181170473E+01  0.92128721212E+01  0.51100000000E-03 0. -1.
        -11    1    4    4    0    0  0.32810447550E+01  0.21656280771E+02 -0.85545764284E+01  0.23514687530E+02  0.51100000000E-03 0.  1.
        -12    1    4    4    0    0 -0.31440617798E+01  0.12085665044E+02 -0.84170481814E+01  0.15059718594E+02  0.00000000000E+00 0.  1.
</event>
<event>
 8    1  0.5331800E-011  0.9118800E+02  0.7816164E-02  0.1184000E+00
        -11   -1    0    0    0    0  0.00000000000E+00  0.00000000000E+00  0.45593999997E+02  0.45594000000E+02  0.51100000000E-03 0. -1.
         11   -1    0    0    0    0 -0.00000000000E+00 -0.00000000000E+00 -0.45593999997E+02  0.45594000000E+02  0.51100000000E-03 0.  1.
         23    2    1    2    0    0  0.00000000000E+00  0.44408920985E-15  0.00000000000E+00  0.91188000000E+02  0.91188000000E+02 0.  0.
    9900012    2    3    3    0    0 -0.25025109620E+02  0.38982654399E+01  0.35244408229E+02  0.47787298435E+02  0.20000124884E+02 0.  0.
        -12    1    3    3    0    0  0.25025109620E+02 -0.38982654399E+01 -0.35244408229E+02  0.43400701565E+02  0.00000000000E+00 0.  1.
         11    1    4    4    0    0 -0.30620014095E+00 -0.47634304666E+01  0.53679487666E+01  0.71832376098E+01  0.51100000000E-03 0. -1.
        -11    1    4    4    0    0  0.68468154537E+00  0.12091093491E+00  0.80720070366E+00  0.10653551097E+01  0.51100000000E-03 0.  1.
         12    1    4    4    0    0 -0.25403591024E+02  0.85407849715E+01  0.29069258759E+02  0.39538705715E+02  0.00000000000E+00 0. -1.
</event>
<event>
 8    1  0.5331800E-011  0.9118800E+02  0.7816164E-02  0.1184000E+00
        -11   -1    0    0    0    0  0.00000000000E+00  0.00000000000E+00  0.45593999997E+02  0.45594000000E+02  0.51100000000E-03 0. -1.
         11   -1    0    0    0    0 -0.00000000000E+00 -0.00000000000E+00 -0.45593999997E+02  0.45594000000E+02  0.51100000000E-03 0.  1.
         23    2    1    2    0    0  0.00000000000E+00  0.00000000000E+00  0.00000000000E+00  0.91188000000E+02  0.91188000000E+02 0.  0.
    9900012    2    3    3    0    0 -0.18193318970E+02  0.18469393281E+02 -0.34806718640E+02  0.47787274133E+02  0.20000014082E+02 0.  0.
         12    1    3    3    0    0  0.18193318970E+02 -0.18469393281E+02  0.34806718640E+02  0.43400725867E+02  0.00000000000E+00 0. -1.
         11    1    4    4    0    0  0.12245283179E+01  0.51906555599E+01  0.47569044197E+00  0.53543119446E+01  0.51100000000E-03 0. -1.
        -11    1    4    4    0    0 -0.21113498709E+01  0.12229724605E+01 -0.44809802850E+01  0.51022195653E+01  0.51100000000E-03 0.  1.
         12    1    4    4    0    0 -0.17306497417E+02  0.12055765261E+02 -0.30801428797E+02  0.37330742623E+02  0.00000000000E+00 0. -1.
</event>
<event>
 8    1  0.5331800E-011  0.9118800E+02  0.7816164E-02  0.1184000E+00
        -11   -1    0    0    0    0  0.00000000000E+00  0.00000000000E+00  0.45593999997E+02  0.45594000000E+02  0.51100000000E-03 0. -1.
         11   -1    0    0    0    0 -0.00000000000E+00 -0.00000000000E+00 -0.45593999997E+02  0.45594000000E+02  0.51100000000E-03 0.  1.
         23    2    1    2    0    0  0.00000000000E+00 -0.71054273576E-14 -0.35527136788E-14  0.91188000000E+02  0.91188000000E+02 0.  0.
    9900012    2    3    3    0    0  0.19800918154E+02 -0.34547254861E+02 -0.17263654911E+02  0.47787274671E+02  0.20000016535E+02 0.  0.
         12    1    3    3    0    0 -0.19800918154E+02  0.34547254861E+02  0.17263654911E+02  0.43400725329E+02  0.00000000000E+00 0. -1.
         11    1    4    4    0    0 -0.14197525450E+01 -0.59301233923E+01  0.22596365356E+00  0.61018948345E+01  0.51100000000E-03 0. -1.
        -11    1    4    4    0    0  0.18734130654E+02 -0.28181175274E+02 -0.12465950258E+02  0.36063086491E+02  0.51100000000E-03 0.  1.
         12    1    4    4    0    0  0.24865400447E+01 -0.43595619504E+00 -0.50236683073E+01  0.56222933452E+01  0.00000000000E+00 0. -1.
</event>
<event>
 8    1  0.5331800E-011  0.9118800E+02  0.7816164E-02  0.1184000E+00
        -11   -1    0    0    0    0  0.00000000000E+00  0.00000000000E+00  0.45593999997E+02  0.45594000000E+02  0.51100000000E-03 0. -1.
         11   -1    0    0    0    0 -0.00000000000E+00 -0.00000000000E+00 -0.45593999997E+02  0.45594000000E+02  0.51100000000E-03 0.  1.
         23    2    1    2    0    0  0.00000000000E+00 -0.17763568394E-14  0.00000000000E+00  0.91188000000E+02  0.91188000000E+02 0.  0.
    9900012    2    3    3    0    0 -0.24881445060E+02  0.15410686772E+02  0.32047580870E+02  0.47787274031E+02  0.20000013615E+02 0.  0.
        -12    1    3    3    0    0  0.24881445060E+02 -0.15410686772E+02 -0.32047580870E+02  0.43400725969E+02  0.00000000000E+00 0.  1.
         11    1    4    4    0    0 -0.14574616761E+02  0.19472630570E+01  0.25278050932E+02  0.29243651385E+02  0.51100000000E-03 0. -1.
        -11    1    4    4    0    0 -0.27412683240E+01  0.61052936392E+01  0.30374556481E+01  0.73495101552E+01  0.51100000000E-03 0.  1.
         12    1    4    4    0    0 -0.75655599741E+01  0.73581300759E+01  0.37320742896E+01  0.11194112490E+02  0.00000000000E+00 0. -1.
</event>
<event>
 8    1  0.5331800E-011  0.9118800E+02  0.7816164E-02  0.1184000E+00
        -11   -1    0    0    0    0  0.00000000000E+00  0.00000000000E+00  0.45593999997E+02  0.45594000000E+02  0.51100000000E-03 0. -1.
         11   -1    0    0    0    0 -0.00000000000E+00 -0.00000000000E+00 -0.45593999997E+02  0.45594000000E+02  0.51100000000E-03 0.  1.
         23    2    1    2    0    0  0.17763568394E-14 -0.17763568394E-14  0.00000000000E+00  0.91188000000E+02  0.91188000000E+02 0.  0.
    9900012    2    3    3    0    0 -0.12061809480E+02  0.81677193254E+01 -0.40883057352E+02  0.47787271142E+02  0.20000000447E+02 0.  0.
         12    1    3    3    0    0  0.12061809480E+02 -0.81677193254E+01  0.40883057352E+02  0.43400728858E+02  0.00000000000E+00 0. -1.
         11    1    4    4    0    0  0.15738852787E+01 -0.49848488710E+01 -0.12337226738E+02  0.13398992387E+02  0.51100000000E-03 0. -1.
        -11    1    4    4    0    0 -0.97778561423E+01  0.75194415807E+01 -0.18972517264E+02  0.22629734511E+02  0.51100000000E-03 0.  1.
         12    1    4    4    0    0 -0.38578386166E+01  0.56331266157E+01 -0.95733133493E+01  0.11758544244E+02  0.00000000000E+00 0. -1.
</event>
<event>
 8    1  0.5331800E-011  0.9118800E+02  0.7816164E-02  0.1184000E+00
        -11   -1    0    0    0    0  0.00000000000E+00  0.00000000000E+00  0.45593999997E+02  0.45594000000E+02  0.51100000000E-03 0. -1.
         11   -1    0    0    0    0 -0.00000000000E+00 -0.00000000000E+00 -0.45593999997E+02  0.45594000000E+02  0.51100000000E-03 0.  1.
         23    2    1    2    0    0  0.00000000000E+00  0.22204460493E-15  0.00000000000E+00  0.91188000000E+02  0.91188000000E+02 0.  0.
    9900012    2    3    3    0    0  0.27777620921E+02  0.94053240678E+00  0.33333795148E+02  0.47787277376E+02  0.20000028870E+02 0.  0.
        -12    1    3    3    0    0 -0.27777620921E+02 -0.94053240678E+00 -0.33333795148E+02  0.43400722624E+02  0.00000000000E+00 0.  1.
         11    1    4    4    0    0  0.27930489081E+00  0.54550614679E+00  0.33429697667E+01  0.33986814061E+01  0.51100000000E-03 0. -1.
        -11    1    4    4    0    0  0.12452481789E+02  0.78031448564E+01  0.79974791857E+01  0.16730602080E+02  0.51100000000E-03 0.  1.
        -12    1    4    4    0    0  0.15045834241E+02 -0.74081185964E+01  0.21993346196E+02  0.27657993890E+02  0.00000000000E+00 0.  1.
</event>
<event>
 8    1  0.5331800E-011  0.9118800E+02  0.7816164E-02  0.1184000E+00
        -11   -1    0    0    0    0  0.00000000000E+00  0.00000000000E+00  0.45593999997E+02  0.45594000000E+02  0.51100000000E-03 0. -1.
         11   -1    0    0    0    0 -0.00000000000E+00 -0.00000000000E+00 -0.45593999997E+02  0.45594000000E+02  0.51100000000E-03 0.  1.
         23    2    1    2    0    0  0.00000000000E+00  0.35527136788E-14  0.00000000000E+00  0.91188000000E+02  0.91188000000E+02 0.  0.
    9900012    2    3    3    0    0  0.14172522689E+02  0.22214282769E+02  0.34486051432E+02  0.47787279940E+02  0.20000040559E+02 0.  0.
        -12    1    3    3    0    0 -0.14172522689E+02 -0.22214282769E+02 -0.34486051432E+02  0.43400720060E+02  0.00000000000E+00 0.  1.
         11    1    4    4    0    0  0.57373912474E+01 -0.17804220029E+00  0.23137854534E+01  0.61889385791E+01  0.51100000000E-03 0. -1.
        -11    1    4    4    0    0 -0.16548058601E+01  0.11113222513E+02  0.13582296125E+02  0.17627276175E+02  0.51100000000E-03 0.  1.
         12    1    4    4    0    0  0.10089937302E+02  0.11279102457E+02  0.18589969854E+02  0.23971065186E+02  0.00000000000E+00 0. -1.
</event>
<event>
 8    1  0.5331800E-011  0.9118800E+02  0.7816164E-02  0.1184000E+00
        -11   -1    0    0    0    0  0.00000000000E+00  0.00000000000E+00  0.45593999997E+02  0.45594000000E+02  0.51100000000E-03 0. -1.
         11   -1    0    0    0    0 -0.00000000000E+00 -0.00000000000E+00 -0.45593999997E+02  0.45594000000E+02  0.51100000000E-03 0.  1.
         23    2    1    2    0    0 -0.44408920985E-15  0.00000000000E+00  0.00000000000E+00  0.91188000000E+02  0.91188000000E+02 0.  0.
    9900012    2    3    3    0    0 -0.37286270674E+01 -0.35878311203E+02  0.24134359961E+02  0.47787271834E+02  0.20000003600E+02 0.  0.
        -12    1    3    3    0    0  0.37286270674E+01  0.35878311203E+02 -0.24134359961E+02  0.43400728166E+02  0.00000000000E+00 0.  1.
         11    1    4    4    0    0 -0.61617798537E+01 -0.33057202633E+02  0.18729312001E+02  0.38490691150E+02  0.51100000000E-03 0. -1.
        -11    1    4    4    0    0  0.43265733532E+01 -0.29740283233E+01  0.51941189401E+01  0.73853201199E+01  0.51100000000E-03 0.  1.
        -12    1    4    4    0    0 -0.18934205669E+01  0.15291975302E+00  0.21092901965E+00  0.19112605645E+01  0.00000000000E+00 0.  1.
</event>
<event>
 8    1  0.5331800E-011  0.9118800E+02  0.7816164E-02  0.1184000E+00
        -11   -1    0    0    0    0  0.00000000000E+00  0.00000000000E+00  0.45593999997E+02  0.45594000000E+02  0.51100000000E-03 0. -1.
         11   -1    0    0    0    0 -0.00000000000E+00 -0.00000000000E+00 -0.45593999997E+02  0.45594000000E+02  0.51100000000E-03 0.  1.
         23    2    1    2    0    0  0.35527136788E-14  0.00000000000E+00  0.00000000000E+00  0.91188000000E+02  0.91188000000E+02 0.  0.
    9900012    2    3    3    0    0 -0.26059677082E+02 -0.12251026545E+02  0.32471970993E+02  0.47787270499E+02  0.19999997514E+02 0.  0.
        -12    1    3    3    0    0  0.26059677082E+02  0.12251026545E+02 -0.32471970993E+02  0.43400729501E+02  0.00000000000E+00 0.  1.
         11    1    4    4    0    0 -0.81145551270E+01  0.31241767382E+01  0.11034408480E+02  0.14048653173E+02  0.51100000000E-03 0. -1.
        -11    1    4    4    0    0 -0.10484740887E+02 -0.14715078364E+02  0.11999182892E+02  0.21689714454E+02  0.51100000000E-03 0.  1.
        -12    1    4    4    0    0 -0.74603810671E+01 -0.66012491946E+00  0.94383796208E+01  0.12048902873E+02  0.00000000000E+00 0.  1.
</event>
<event>
 8    1  0.5331800E-011  0.9118800E+02  0.7816164E-02  0.1184000E+00
        -11   -1    0    0    0    0  0.00000000000E+00  0.00000000000E+00  0.45593999997E+02  0.45594000000E+02  0.51100000000E-03 0. -1.
         11   -1    0    0    0    0 -0.00000000000E+00 -0.00000000000E+00 -0.45593999997E+02  0.45594000000E+02  0.51100000000E-03 0.  1.
         23    2    1    2    0    0  0.00000000000E+00  0.00000000000E+00 -0.71054273576E-14  0.91188000000E+02  0.91188000000E+02 0.  0.
    9900012    2    3    3    0    0 -0.11439978515E+02 -0.13381908645E+02  0.39669573366E+02  0.47787266845E+02  0.19999980851E+02 0.  0.
        -12    1    3    3    0    0  0.11439978515E+02  0.13381908645E+02 -0.39669573366E+02  0.43400733155E+02  0.00000000000E+00 0.  1.
         11    1    4    4    0    0 -0.10527245829E+02 -0.86175339650E+01  0.34858926296E+02  0.37419641088E+02  0.51100000000E-03 0. -1.
        -11    1    4    4    0    0 -0.22798584672E+01 -0.40798227675E+01 -0.63031020228E+00  0.47159304127E+01  0.51100000000E-03 0.  1.
        -12    1    4    4    0    0  0.13671257813E+01 -0.68455191263E+00  0.54409572718E+01  0.56516953435E+01  0.00000000000E+00 0.  1.
</event>
<event>
 8    1  0.5331800E-011  0.9118800E+02  0.7816164E-02  0.1184000E+00
        -11   -1    0    0    0    0  0.00000000000E+00  0.00000000000E+00  0.45593999997E+02  0.45594000000E+02  0.51100000000E-03 0. -1.
         11   -1    0    0    0    0 -0.00000000000E+00 -0.00000000000E+00 -0.45593999997E+02  0.45594000000E+02  0.51100000000E-03 0.  1.
         23    2    1    2    0    0 -0.35527136788E-14  0.35527136788E-14  0.00000000000E+00  0.91188000000E+02  0.91188000000E+02 0.  0.
    9900012    2    3    3    0    0 -0.31735956534E+02 -0.23684212009E+02 -0.17762610998E+02  0.47787272067E+02  0.20000004663E+02 0.  0.
         12    1    3    3    0    0  0.31735956534E+02  0.23684212009E+02  0.17762610998E+02  0.43400727933E+02  0.00000000000E+00 0. -1.
         11    1    4    4    0    0 -0.12754182545E+02 -0.33471420942E+01 -0.56979408850E+01  0.14364507064E+02  0.51100000000E-03 0. -1.
        -11    1    4    4    0    0 -0.51852820204E+01 -0.99741611486E+01  0.16752150714E+01  0.11365622994E+02  0.51100000000E-03 0.  1.
        -12    1    4    4    0    0 -0.13796491969E+02 -0.10362908767E+02 -0.13739885184E+02  0.22057142009E+02  0.00000000000E+00 0.  1.
</event>
<event>
 8    1  0.5331800E-011  0.9118800E+02  0.7816164E-02  0.1184000E+00
        -11   -1    0    0    0    0  0.00000000000E+00  0.00000000000E+00  0.45593999997E+02  0.45594000000E+02  0.51100000000E-03 0.  1.
         11   -1    0    0    0    0 -0.00000000000E+00 -0.00000000000E+00 -0.45593999997E+02  0.45594000000E+02  0.51100000000E-03 0. -1.
         23    2    1    2    0    0  0.00000000000E+00  0.17763568394E-14  0.17763568394E-14  0.91188000000E+02  0.91188000000E+02 0.  0.
    9900012    2    3    3    0    0 -0.38100813841E+02  0.15248908560E+02  0.14121690289E+02  0.47787270004E+02  0.19999995256E+02 0.  0.
        -12    1    3    3    0    0  0.38100813841E+02 -0.15248908560E+02 -0.14121690289E+02  0.43400729996E+02  0.00000000000E+00 0.  1.
         11    1    4    4    0    0 -0.19997492010E+02  0.47709822526E+01  0.24376318220E+01  0.20702753622E+02  0.51100000000E-03 0. -1.
        -11    1    4    4    0    0  0.18888740328E+01  0.17473408877E+01  0.17629258103E+01  0.31191269553E+01  0.51100000000E-03 0.  1.
        -12    1    4    4    0    0 -0.19992195863E+02  0.87305854193E+01  0.99211326569E+01  0.23965389427E+02  0.00000000000E+00 0.  1.
</event>
<event>
 8    1  0.5331800E-011  0.9118800E+02  0.7816164E-02  0.1184000E+00
        -11   -1    0    0    0    0  0.00000000000E+00  0.00000000000E+00  0.45593999997E+02  0.45594000000E+02  0.51100000000E-03 0. -1.
         11   -1    0    0    0    0 -0.00000000000E+00 -0.00000000000E+00 -0.45593999997E+02  0.45594000000E+02  0.51100000000E-03 0.  1.
         23    2    1    2    0    0 -0.35527136788E-14  0.00000000000E+00  0.00000000000E+00  0.91188000000E+02  0.91188000000E+02 0.  0.
    9900012    2    3    3    0    0 -0.20174828532E+02 -0.87817163418E+01 -0.37409635172E+02  0.47787273602E+02  0.20000011661E+02 0.  0.
         12    1    3    3    0    0  0.20174828532E+02  0.87817163418E+01  0.37409635172E+02  0.43400726398E+02  0.00000000000E+00 0. -1.
         11    1    4    4    0    0 -0.87776990783E+01  0.52200065638E+01 -0.13808476385E+02  0.17174704946E+02  0.51100000000E-03 0. -1.
        -11    1    4    4    0    0 -0.59484140053E+00 -0.56506601173E+01 -0.52253010831E+01  0.77192983958E+01  0.51100000000E-03 0.  1.
         12    1    4    4    0    0 -0.10802288053E+02 -0.83510627883E+01 -0.18375857704E+02  0.22893270260E+02  0.00000000000E+00 0. -1.
</event>
<event>
 8    1  0.5331800E-011  0.9118800E+02  0.7816164E-02  0.1184000E+00
        -11   -1    0    0    0    0  0.00000000000E+00  0.00000000000E+00  0.45593999997E+02  0.45594000000E+02  0.51100000000E-03 0. -1.
         11   -1    0    0    0    0 -0.00000000000E+00 -0.00000000000E+00 -0.45593999997E+02  0.45594000000E+02  0.51100000000E-03 0.  1.
         23    2    1    2    0    0  0.00000000000E+00 -0.17763568394E-14  0.71054273576E-14  0.91188000000E+02  0.91188000000E+02 0.  0.
    9900012    2    3    3    0    0 -0.29135511963E+01 -0.81922193342E+01  0.42520841738E+02  0.47787271661E+02  0.20000002812E+02 0.  0.
        -12    1    3    3    0    0  0.29135511963E+01  0.81922193342E+01 -0.42520841738E+02  0.43400728339E+02  0.00000000000E+00 0.  1.
         11    1    4    4    0    0  0.15367508781E+00  0.30908584675E+01  0.18988917460E+02  0.19239438886E+02  0.51100000000E-03 0. -1.
        -11    1    4    4    0    0 -0.14251938905E+01 -0.57266241188E+01  0.19706611689E+01  0.62216482645E+01  0.51100000000E-03 0.  1.
         12    1    4    4    0    0 -0.16420323936E+01 -0.55564536828E+01  0.21561263110E+02  0.22326184511E+02  0.00000000000E+00 0. -1.
</event>
<event>
 8    1  0.5331800E-011  0.9118800E+02  0.7816164E-02  0.1184000E+00
        -11   -1    0    0    0    0  0.00000000000E+00  0.00000000000E+00  0.45593999997E+02  0.45594000000E+02  0.51100000000E-03 0. -1.
         11   -1    0    0    0    0 -0.00000000000E+00 -0.00000000000E+00 -0.45593999997E+02  0.45594000000E+02  0.51100000000E-03 0.  1.
         23    2    1    2    0    0 -0.35527136788E-14  0.35527136788E-14  0.00000000000E+00  0.91188000000E+02  0.91188000000E+02 0.  0.
    9900012    2    3    3    0    0  0.17176949479E+02  0.16283723041E+02  0.36378787678E+02  0.47787269333E+02  0.19999992197E+02 0.  0.
        -12    1    3    3    0    0 -0.17176949479E+02 -0.16283723041E+02 -0.36378787678E+02  0.43400730667E+02  0.00000000000E+00 0.  1.
         11    1    4    4    0    0  0.15170484168E+02  0.18761818055E+02  0.24366891328E+02  0.34291322515E+02  0.51100000000E-03 0. -1.
        -11    1    4    4    0    0  0.19189742233E+00 -0.27300655564E+01  0.21914079668E+01  0.35060450227E+01  0.51100000000E-03 0.  1.
        -12    1    4    4    0    0  0.18145678884E+01  0.25197054257E+00  0.98204883838E+01  0.99899017949E+01  0.00000000000E+00 0.  1.
</event>
<event>
 8    1  0.5331800E-011  0.9118800E+02  0.7816164E-02  0.1184000E+00
        -11   -1    0    0    0    0  0.00000000000E+00  0.00000000000E+00  0.45593999997E+02  0.45594000000E+02  0.51100000000E-03 0. -1.
         11   -1    0    0    0    0 -0.00000000000E+00 -0.00000000000E+00 -0.45593999997E+02  0.45594000000E+02  0.51100000000E-03 0.  1.
         23    2    1    2    0    0  0.00000000000E+00  0.44408920985E-15  0.00000000000E+00  0.91188000000E+02  0.91188000000E+02 0.  0.
    9900012    2    3    3    0    0 -0.19801960900E+02 -0.38848842824E+01  0.38424121059E+02  0.47787273502E+02  0.20000011207E+02 0.  0.
        -12    1    3    3    0    0  0.19801960900E+02  0.38848842824E+01 -0.38424121059E+02  0.43400726498E+02  0.00000000000E+00 0.  1.
         11    1    4    4    0    0 -0.55634213867E+01 -0.48783413502E+01  0.95132206720E+01  0.12052022223E+02  0.51100000000E-03 0. -1.
        -11    1    4    4    0    0 -0.70507894358E+01 -0.32347747437E+01  0.25622629298E+02  0.26771188462E+02  0.51100000000E-03 0.  1.
        -12    1    4    4    0    0 -0.71877500773E+01  0.42282318114E+01  0.32882710892E+01  0.89640628167E+01  0.00000000000E+00 0.  1.
</event>
<event>
 8    1  0.5331800E-011  0.9118800E+02  0.7816164E-02  0.1184000E+00
        -11   -1    0    0    0    0  0.00000000000E+00  0.00000000000E+00  0.45593999997E+02  0.45594000000E+02  0.51100000000E-03 0. -1.
         11   -1    0    0    0    0 -0.00000000000E+00 -0.00000000000E+00 -0.45593999997E+02  0.45594000000E+02  0.51100000000E-03 0.  1.
         23    2    1    2    0    0  0.00000000000E+00  0.00000000000E+00  0.00000000000E+00  0.91188000000E+02  0.91188000000E+02 0.  0.
    9900012    2    3    3    0    0  0.91095366350E+01 -0.92824384338E+01  0.41406236137E+02  0.47787265997E+02  0.19999976986E+02 0.  0.
        -12    1    3    3    0    0 -0.91095366350E+01  0.92824384338E+01 -0.41406236137E+02  0.43400734003E+02  0.00000000000E+00 0.  1.
         11    1    4    4    0    0  0.48701676060E+01 -0.30553205478E+01  0.13071434130E+02  0.14279912697E+02  0.51100000000E-03 0. -1.
        -11    1    4    4    0    0  0.73375612025E+01 -0.65246423077E+01  0.28737796702E+02  0.30368926902E+02  0.51100000000E-03 0.  1.
        -12    1    4    4    0    0 -0.30981921735E+01  0.29752442165E+00 -0.40299469546E+00  0.31384263971E+01  0.00000000000E+00 0.  1.
</event>
<event>
 8    1  0.5331800E-011  0.9118800E+02  0.7816164E-02  0.1184000E+00
        -11   -1    0    0    0    0  0.00000000000E+00  0.00000000000E+00  0.45593999997E+02  0.45594000000E+02  0.51100000000E-03 0. -1.
         11   -1    0    0    0    0 -0.00000000000E+00 -0.00000000000E+00 -0.45593999997E+02  0.45594000000E+02  0.51100000000E-03 0.  1.
         23    2    1    2    0    0  0.00000000000E+00  0.00000000000E+00  0.00000000000E+00  0.91188000000E+02  0.91188000000E+02 0.  0.
    9900012    2    3    3    0    0 -0.84292718930E+01 -0.23560914387E+02 -0.35460591549E+02  0.47787275762E+02  0.20000021508E+02 0.  0.
         12    1    3    3    0    0  0.84292718930E+01  0.23560914387E+02  0.35460591549E+02  0.43400724238E+02  0.00000000000E+00 0. -1.
         11    1    4    4    0    0 -0.59120038339E+00 -0.30956783361E+01 -0.18511577696E+01  0.36550687549E+01  0.51100000000E-03 0. -1.
        -11    1    4    4    0    0  0.42515292233E+01 -0.14216237554E+02 -0.19809297305E+02  0.24750457993E+02  0.51100000000E-03 0.  1.
        -12    1    4    4    0    0 -0.12089600733E+02 -0.62489984973E+01 -0.13800136475E+02  0.19381749014E+02  0.00000000000E+00 0.  1.
</event>
<event>
 8    1  0.5331800E-011  0.9118800E+02  0.7816164E-02  0.1184000E+00
        -11   -1    0    0    0    0  0.00000000000E+00  0.00000000000E+00  0.45593999997E+02  0.45594000000E+02  0.51100000000E-03 0. -1.
         11   -1    0    0    0    0 -0.00000000000E+00 -0.00000000000E+00 -0.45593999997E+02  0.45594000000E+02  0.51100000000E-03 0.  1.
         23    2    1    2    0    0  0.88817841970E-15  0.00000000000E+00  0.00000000000E+00  0.91188000000E+02  0.91188000000E+02 0.  0.
    9900012    2    3    3    0    0  0.45638198638E+01 -0.21033444625E+02  0.37688047143E+02  0.47787272564E+02  0.20000006928E+02 0.  0.
        -12    1    3    3    0    0 -0.45638198638E+01  0.21033444625E+02 -0.37688047143E+02  0.43400727436E+02  0.00000000000E+00 0.  1.
         11    1    4    4    0    0 -0.21607376435E+01 -0.32205302332E+01  0.18316541773E+02  0.18722614800E+02  0.51100000000E-03 0. -1.
        -11    1    4    4    0    0  0.60331308325E+01 -0.85920684412E+01  0.42212989870E+01  0.11315550059E+02  0.51100000000E-03 0.  1.
        -12    1    4    4    0    0  0.69142667482E+00 -0.92208459504E+01  0.15150206383E+02  0.17749107705E+02  0.00000000000E+00 0.  1.
</event>
<event>
 8    1  0.5331800E-011  0.9118800E+02  0.7816164E-02  0.1184000E+00
        -11   -1    0    0    0    0  0.00000000000E+00  0.00000000000E+00  0.45593999997E+02  0.45594000000E+02  0.51100000000E-03 0. -1.
         11   -1    0    0    0    0 -0.00000000000E+00 -0.00000000000E+00 -0.45593999997E+02  0.45594000000E+02  0.51100000000E-03 0.  1.
         23    2    1    2    0    0 -0.35527136788E-14 -0.17763568394E-14  0.00000000000E+00  0.91188000000E+02  0.91188000000E+02 0.  0.
    9900012    2    3    3    0    0  0.27295910172E+02 -0.12906184606E+02 -0.31176698609E+02  0.47787275936E+02  0.20000022300E+02 0.  0.
         12    1    3    3    0    0 -0.27295910172E+02  0.12906184606E+02  0.31176698609E+02  0.43400724064E+02  0.00000000000E+00 0. -1.
         11    1    4    4    0    0  0.18204960326E+02 -0.20253124901E+01 -0.25951347303E+02  0.31764680044E+02  0.51100000000E-03 0. -1.
        -11    1    4    4    0    0  0.92283322986E+01 -0.11112127602E+02 -0.43177239903E+01  0.15075948977E+02  0.51100000000E-03 0.  1.
         12    1    4    4    0    0 -0.13738245289E+00  0.23125548578E+00 -0.90762731504E+00  0.94664691468E+00  0.00000000000E+00 0. -1.
</event>
<event>
 8    1  0.5331800E-011  0.9118800E+02  0.7816164E-02  0.1184000E+00
        -11   -1    0    0    0    0  0.00000000000E+00  0.00000000000E+00  0.45593999997E+02  0.45594000000E+02  0.51100000000E-03 0. -1.
         11   -1    0    0    0    0 -0.00000000000E+00 -0.00000000000E+00 -0.45593999997E+02  0.45594000000E+02  0.51100000000E-03 0.  1.
         23    2    1    2    0    0 -0.35527136788E-14  0.00000000000E+00  0.71054273576E-14  0.91188000000E+02  0.91188000000E+02 0.  0.
    9900012    2    3    3    0    0  0.27584354367E+02 -0.10423207080E+02 -0.31844679162E+02  0.47787269100E+02  0.19999991135E+02 0.  0.
         12    1    3    3    0    0 -0.27584354367E+02  0.10423207080E+02  0.31844679162E+02  0.43400730900E+02  0.00000000000E+00 0. -1.
         11    1    4    4    0    0  0.31075052680E+01 -0.55035859514E+01  0.24827446807E+00  0.63251630641E+01  0.51100000000E-03 0. -1.
        -11    1    4    4    0    0  0.10606280610E+02 -0.18242500584E+01 -0.20374293447E+02  0.23041981476E+02  0.51100000000E-03 0.  1.
         12    1    4    4    0    0  0.13870568490E+02 -0.30953710707E+01 -0.11718660183E+02  0.18420124560E+02  0.00000000000E+00 0. -1.
</event>
<event>
 8    1  0.5331800E-011  0.9118800E+02  0.7816164E-02  0.1184000E+00
        -11   -1    0    0    0    0  0.00000000000E+00  0.00000000000E+00  0.45593999997E+02  0.45594000000E+02  0.51100000000E-03 0. -1.
         11   -1    0    0    0    0 -0.00000000000E+00 -0.00000000000E+00 -0.45593999997E+02  0.45594000000E+02  0.51100000000E-03 0.  1.
         23    2    1    2    0    0  0.00000000000E+00  0.00000000000E+00  0.00000000000E+00  0.91188000000E+02  0.91188000000E+02 0.  0.
    9900012    2    3    3    0    0 -0.24588277071E+02  0.26366850580E+02 -0.24162550324E+02  0.47787274004E+02  0.20000013496E+02 0.  0.
         12    1    3    3    0    0  0.24588277071E+02 -0.26366850580E+02  0.24162550324E+02  0.43400725996E+02  0.00000000000E+00 0. -1.
         11    1    4    4    0    0 -0.87613453779E+01  0.66000113682E+01 -0.49131408859E+00  0.10980105313E+02  0.51100000000E-03 0. -1.
        -11    1    4    4    0    0 -0.10486552039E+02  0.20054553728E+02 -0.17281330923E+02  0.28474502588E+02  0.51100000000E-03 0.  1.
        -12    1    4    4    0    0 -0.53403796537E+01 -0.28771451704E+00 -0.63899053120E+01  0.83326661031E+01  0.00000000000E+00 0.  1.
</event>
<event>
 8    1  0.5331800E-011  0.9118800E+02  0.7816164E-02  0.1184000E+00
        -11   -1    0    0    0    0  0.00000000000E+00  0.00000000000E+00  0.45593999997E+02  0.45594000000E+02  0.51100000000E-03 0. -1.
         11   -1    0    0    0    0 -0.00000000000E+00 -0.00000000000E+00 -0.45593999997E+02  0.45594000000E+02  0.51100000000E-03 0.  1.
         23    2    1    2    0    0  0.35527136788E-14 -0.17763568394E-14 -0.35527136788E-14  0.91188000000E+02  0.91188000000E+02 0.  0.
    9900012    2    3    3    0    0 -0.26927229456E+02  0.14073106930E+02  0.30991858141E+02  0.47787270791E+02  0.19999998844E+02 0.  0.
        -12    1    3    3    0    0  0.26927229456E+02 -0.14073106930E+02 -0.30991858141E+02  0.43400729209E+02  0.00000000000E+00 0.  1.
         11    1    4    4    0    0 -0.34332654668E+01  0.75030622803E+01  0.10847426950E+01  0.83222546418E+01  0.51100000000E-03 0. -1.
        -11    1    4    4    0    0  0.54472801085E+00  0.20196337339E+00  0.20138394055E+01  0.20959645088E+01  0.51100000000E-03 0.  1.
         12    1    4    4    0    0 -0.24038692001E+02  0.63680812765E+01  0.27893276040E+02  0.37369051640E+02  0.00000000000E+00 0. -1.
</event>
<event>
 8    1  0.5331800E-011  0.9118800E+02  0.7816164E-02  0.1184000E+00
        -11   -1    0    0    0    0  0.00000000000E+00  0.00000000000E+00  0.45593999997E+02  0.45594000000E+02  0.51100000000E-03 0. -1.
         11   -1    0    0    0    0 -0.00000000000E+00 -0.00000000000E+00 -0.45593999997E+02  0.45594000000E+02  0.51100000000E-03 0.  1.
         23    2    1    2    0    0  0.71054273576E-14  0.17763568394E-14  0.35527136788E-14  0.91188000000E+02  0.91188000000E+02 0.  0.
    9900012    2    3    3    0    0  0.35425466955E+02  0.80487453889E+01  0.23746096792E+02  0.47787272770E+02  0.20000007866E+02 0.  0.
        -12    1    3    3    0    0 -0.35425466955E+02 -0.80487453889E+01 -0.23746096792E+02  0.43400727230E+02  0.00000000000E+00 0.  1.
         11    1    4    4    0    0  0.28281279029E+02  0.79566988183E+01  0.23264987433E+02  0.37475317746E+02  0.51100000000E-03 0. -1.
        -11    1    4    4    0    0 -0.11992981182E+01 -0.31335606552E+00 -0.12726040981E+01  0.17765217285E+01  0.51100000000E-03 0.  1.
        -12    1    4    4    0    0  0.83434860433E+01  0.40540263613E+00  0.17537134568E+01  0.85354332954E+01  0.00000000000E+00 0.  1.
</event>
<event>
 8    1  0.5331800E-011  0.9118800E+02  0.7816164E-02  0.1184000E+00
        -11   -1    0    0    0    0  0.00000000000E+00  0.00000000000E+00  0.45593999997E+02  0.45594000000E+02  0.51100000000E-03 0. -1.
         11   -1    0    0    0    0 -0.00000000000E+00 -0.00000000000E+00 -0.45593999997E+02  0.45594000000E+02  0.51100000000E-03 0.  1.
         23    2    1    2    0    0  0.00000000000E+00  0.00000000000E+00  0.35527136788E-14  0.91188000000E+02  0.91188000000E+02 0.  0.
    9900012    2    3    3    0    0  0.24588033187E+02 -0.20198007875E+02  0.29514272944E+02  0.47787271832E+02  0.20000003590E+02 0.  0.
        -12    1    3    3    0    0 -0.24588033187E+02  0.20198007875E+02 -0.29514272944E+02  0.43400728168E+02  0.00000000000E+00 0.  1.
         11    1    4    4    0    0  0.22996657158E+02 -0.11422394475E+02  0.12513637440E+02  0.28564111368E+02  0.51100000000E-03 0. -1.
        -11    1    4    4    0    0  0.14902545577E+01 -0.74327223111E+01  0.13682521826E+02  0.15642174509E+02  0.51100000000E-03 0.  1.
         12    1    4    4    0    0  0.10112147145E+00 -0.13428910888E+01  0.33181136783E+01  0.35809859551E+01  0.00000000000E+00 0. -1.
</event>
<event>
 8    1  0.5331800E-011  0.9118800E+02  0.7816164E-02  0.1184000E+00
        -11   -1    0    0    0    0  0.00000000000E+00  0.00000000000E+00  0.45593999997E+02  0.45594000000E+02  0.51100000000E-03 0. -1.
         11   -1    0    0    0    0 -0.00000000000E+00 -0.00000000000E+00 -0.45593999997E+02  0.45594000000E+02  0.51100000000E-03 0.  1.
         23    2    1    2    0    0  0.00000000000E+00 -0.17763568394E-14  0.00000000000E+00  0.91188000000E+02  0.91188000000E+02 0.  0.
    9900012    2    3    3    0    0 -0.51630306089E+01  0.11853428487E+02  0.41430215380E+02  0.47787269610E+02  0.19999993460E+02 0.  0.
        -12    1    3    3    0    0  0.51630306089E+01 -0.11853428487E+02 -0.41430215380E+02  0.43400730390E+02  0.00000000000E+00 0.  1.
         11    1    4    4    0    0  0.97491000012E+00  0.11084983549E+02  0.89947074766E+01  0.14308461575E+02  0.51100000000E-03 0. -1.
        -11    1    4    4    0    0 -0.40822512145E+01 -0.20144767310E+01  0.22561773108E+02  0.23016439723E+02  0.51100000000E-03 0.  1.
        -12    1    4    4    0    0 -0.20556893945E+01  0.27829216689E+01  0.98737347949E+01  0.10462368312E+02  0.00000000000E+00 0.  1.
</event>
<event>
 8    1  0.5331800E-011  0.9118800E+02  0.7816164E-02  0.1184000E+00
        -11   -1    0    0    0    0  0.00000000000E+00  0.00000000000E+00  0.45593999997E+02  0.45594000000E+02  0.51100000000E-03 0. -1.
         11   -1    0    0    0    0 -0.00000000000E+00 -0.00000000000E+00 -0.45593999997E+02  0.45594000000E+02  0.51100000000E-03 0.  1.
         23    2    1    2    0    0  0.00000000000E+00 -0.17763568394E-14  0.71054273576E-14  0.91188000000E+02  0.91188000000E+02 0.  0.
    9900012    2    3    3    0    0 -0.22366423730E+02 -0.12475576952E+02  0.35038938023E+02  0.47787261429E+02  0.19999956159E+02 0.  0.
        -12    1    3    3    0    0  0.22366423730E+02  0.12475576952E+02 -0.35038938023E+02  0.43400738571E+02  0.00000000000E+00 0.  1.
         11    1    4    4    0    0 -0.53978764280E+00 -0.14282780278E+01 -0.16612499741E+01  0.22563467290E+01  0.51100000000E-03 0. -1.
        -11    1    4    4    0    0 -0.82499228573E+01 -0.64381143984E+01  0.71145348252E+01  0.12654135695E+02  0.51100000000E-03 0.  1.
         12    1    4    4    0    0 -0.13576713230E+02 -0.46091845254E+01  0.29585653172E+02  0.32876779004E+02  0.00000000000E+00 0. -1.
</event>
<event>
 8    1  0.5331800E-011  0.9118800E+02  0.7816164E-02  0.1184000E+00
        -11   -1    0    0    0    0  0.00000000000E+00  0.00000000000E+00  0.45593999997E+02  0.45594000000E+02  0.51100000000E-03 0. -1.
         11   -1    0    0    0    0 -0.00000000000E+00 -0.00000000000E+00 -0.45593999997E+02  0.45594000000E+02  0.51100000000E-03 0.  1.
         23    2    1    2    0    0  0.00000000000E+00  0.00000000000E+00  0.00000000000E+00  0.91188000000E+02  0.91188000000E+02 0.  0.
    9900012    2    3    3    0    0  0.11976551494E+02 -0.21281149279E+02  0.35878937266E+02  0.47787271439E+02  0.20000001799E+02 0.  0.
        -12    1    3    3    0    0 -0.11976551494E+02  0.21281149279E+02 -0.35878937266E+02  0.43400728561E+02  0.00000000000E+00 0.  1.
         11    1    4    4    0    0  0.16938680009E+01 -0.95546974952E+01  0.16632166102E+02  0.19255918117E+02  0.51100000000E-03 0. -1.
        -11    1    4    4    0    0  0.11151525156E+02 -0.11944391998E+02  0.20972473168E+02  0.26587020227E+02  0.51100000000E-03 0.  1.
        -12    1    4    4    0    0 -0.86884166346E+00  0.21794021429E+00 -0.17257020048E+01  0.19443330945E+01  0.00000000000E+00 0.  1.
</event>
<event>
 8    1  0.5331800E-011  0.9118800E+02  0.7816164E-02  0.1184000E+00
        -11   -1    0    0    0    0  0.00000000000E+00  0.00000000000E+00  0.45593999997E+02  0.45594000000E+02  0.51100000000E-03 0. -1.
         11   -1    0    0    0    0 -0.00000000000E+00 -0.00000000000E+00 -0.45593999997E+02  0.45594000000E+02  0.51100000000E-03 0.  1.
         23    2    1    2    0    0 -0.35527136788E-14  0.00000000000E+00  0.00000000000E+00  0.91188000000E+02  0.91188000000E+02 0.  0.
    9900012    2    3    3    0    0  0.30129000617E+02  0.10291674572E+02 -0.29494872524E+02  0.47787277093E+02  0.20000027576E+02 0.  0.
         12    1    3    3    0    0 -0.30129000617E+02 -0.10291674572E+02  0.29494872524E+02  0.43400722907E+02  0.00000000000E+00 0. -1.
         11    1    4    4    0    0  0.24801057231E+01 -0.15902360935E+01  0.13838568546E+01  0.32549708580E+01  0.51100000000E-03 0. -1.
        -11    1    4    4    0    0  0.19255294484E+02  0.10264990437E+02 -0.28030255829E+02  0.35522269584E+02  0.51100000000E-03 0.  1.
         12    1    4    4    0    0  0.83936004106E+01  0.16169202283E+01 -0.28484735496E+01  0.90100366503E+01  0.00000000000E+00 0. -1.
</event>
<event>
 8    1  0.5331800E-011  0.9118800E+02  0.7816164E-02  0.1184000E+00
        -11   -1    0    0    0    0  0.00000000000E+00  0.00000000000E+00  0.45593999997E+02  0.45594000000E+02  0.51100000000E-03 0. -1.
         11   -1    0    0    0    0 -0.00000000000E+00 -0.00000000000E+00 -0.45593999997E+02  0.45594000000E+02  0.51100000000E-03 0.  1.
         23    2    1    2    0    0  0.00000000000E+00 -0.24980018054E-15  0.00000000000E+00  0.91188000000E+02  0.91188000000E+02 0.  0.
    9900012    2    3    3    0    0 -0.19826641940E+02  0.12998975288E+00 -0.38607131044E+02  0.47787271949E+02  0.20000004122E+02 0.  0.
         12    1    3    3    0    0  0.19826641940E+02 -0.12998975288E+00  0.38607131044E+02  0.43400728051E+02  0.00000000000E+00 0. -1.
         11    1    4    4    0    0 -0.12701957589E+02  0.37333636028E+01 -0.94547374397E+01  0.16268675136E+02  0.51100000000E-03 0. -1.
        -11    1    4    4    0    0 -0.91529109144E+01 -0.19994715836E+01 -0.21935793233E+02  0.23852729191E+02  0.51100000000E-03 0.  1.
         12    1    4    4    0    0  0.20282265632E+01 -0.16039022663E+01 -0.72166003712E+01  0.76658676214E+01  0.00000000000E+00 0. -1.
</event>
<event>
 8    1  0.5331800E-011  0.9118800E+02  0.7816164E-02  0.1184000E+00
        -11   -1    0    0    0    0  0.00000000000E+00  0.00000000000E+00  0.45593999997E+02  0.45594000000E+02  0.51100000000E-03 0. -1.
         11   -1    0    0    0    0 -0.00000000000E+00 -0.00000000000E+00 -0.45593999997E+02  0.45594000000E+02  0.51100000000E-03 0.  1.
         23    2    1    2    0    0  0.00000000000E+00 -0.35527136788E-14  0.00000000000E+00  0.91188000000E+02  0.91188000000E+02 0.  0.
    9900012    2    3    3    0    0  0.17128217631E+02 -0.29048214864E+02 -0.27321220282E+02  0.47787266093E+02  0.19999977423E+02 0.  0.
         12    1    3    3    0    0 -0.17128217631E+02  0.29048214864E+02  0.27321220282E+02  0.43400733907E+02  0.00000000000E+00 0. -1.
         11    1    4    4    0    0 -0.21379142493E+01  0.11775156076E+01 -0.24772146343E+01  0.34776159864E+01  0.51100000000E-03 0. -1.
        -11    1    4    4    0    0  0.35843503103E+01 -0.50643665437E+01 -0.82849244338E+01  0.10350620695E+02  0.51100000000E-03 0.  1.
         12    1    4    4    0    0  0.15681781570E+02 -0.25161363928E+02 -0.16559081214E+02  0.33959029411E+02  0.00000000000E+00 0. -1.
</event>
<event>
 8    1  0.5331800E-011  0.9118800E+02  0.7816164E-02  0.1184000E+00
        -11   -1    0    0    0    0  0.00000000000E+00  0.00000000000E+00  0.45593999997E+02  0.45594000000E+02  0.51100000000E-03 0. -1.
         11   -1    0    0    0    0 -0.00000000000E+00 -0.00000000000E+00 -0.45593999997E+02  0.45594000000E+02  0.51100000000E-03 0.  1.
         23    2    1    2    0    0 -0.71054273576E-14 -0.88817841970E-15  0.00000000000E+00  0.91188000000E+02  0.91188000000E+02 0.  0.
    9900012    2    3    3    0    0  0.36102576569E+02  0.67830464883E+01 -0.23113150498E+02  0.47787268664E+02  0.19999989145E+02 0.  0.
         12    1    3    3    0    0 -0.36102576569E+02 -0.67830464883E+01  0.23113150498E+02  0.43400731336E+02  0.00000000000E+00 0. -1.
         11    1    4    4    0    0  0.53362867620E+00  0.47838508800E+00  0.28759914075E+01  0.29639397250E+01  0.51100000000E-03 0. -1.
        -11    1    4    4    0    0  0.16132792990E+02  0.38926421592E+01 -0.14976070133E+02  0.22354023118E+02  0.51100000000E-03 0.  1.
         12    1    4    4    0    0  0.19436154903E+02  0.24120192410E+01 -0.11013071772E+02  0.22469305821E+02  0.00000000000E+00 0. -1.
</event>
<event>
 8    1  0.5331800E-011  0.9118800E+02  0.7816164E-02  0.1184000E+00
        -11   -1    0    0    0    0  0.00000000000E+00  0.00000000000E+00  0.45593999997E+02  0.45594000000E+02  0.51100000000E-03 0. -1.
         11   -1    0    0    0    0 -0.00000000000E+00 -0.00000000000E+00 -0.45593999997E+02  0.45594000000E+02  0.51100000000E-03 0.  1.
         23    2    1    2    0    0  0.00000000000E+00  0.35527136788E-14  0.26645352591E-14  0.91188000000E+02  0.91188000000E+02 0.  0.
    9900012    2    3    3    0    0 -0.33467303992E+02  0.26662693370E+02  0.72569788595E+01  0.47787269632E+02  0.19999993562E+02 0.  0.
        -12    1    3    3    0    0  0.33467303992E+02 -0.26662693370E+02 -0.72569788595E+01  0.43400730368E+02  0.00000000000E+00 0.  1.
         11    1    4    4    0    0 -0.71478845725E+01  0.22487810072E+01  0.49700892888E+01  0.89917216193E+01  0.51100000000E-03 0. -1.
        -11    1    4    4    0    0 -0.85627566507E+01  0.17842449222E+02  0.90127860892E+00  0.19811261926E+02  0.51100000000E-03 0.  1.
        -12    1    4    4    0    0 -0.17756662769E+02  0.65714631413E+01  0.13856109618E+01  0.18984286088E+02  0.00000000000E+00 0.  1.
</event>
<event>
 8    1  0.5331800E-011  0.9118800E+02  0.7816164E-02  0.1184000E+00
        -11   -1    0    0    0    0  0.00000000000E+00  0.00000000000E+00  0.45593999997E+02  0.45594000000E+02  0.51100000000E-03 0. -1.
         11   -1    0    0    0    0 -0.00000000000E+00 -0.00000000000E+00 -0.45593999997E+02  0.45594000000E+02  0.51100000000E-03 0.  1.
         23    2    1    2    0    0  0.00000000000E+00  0.00000000000E+00  0.35527136788E-14  0.91188000000E+02  0.91188000000E+02 0.  0.
    9900012    2    3    3    0    0 -0.22912014679E+02  0.24966035740E+02  0.27117514041E+02  0.47787275063E+02  0.20000018324E+02 0.  0.
        -12    1    3    3    0    0  0.22912014679E+02 -0.24966035740E+02 -0.27117514041E+02  0.43400724937E+02  0.00000000000E+00 0.  1.
         11    1    4    4    0    0 -0.84332562702E+01  0.18084338271E+02  0.87711253231E+01  0.21796691072E+02  0.51100000000E-03 0.  1.
        -11    1    4    4    0    0 -0.57984610662E+01 -0.90888417472E+00  0.26620082075E+01  0.64447272353E+01  0.51100000000E-03 0. -1.
         12    1    4    4    0    0 -0.86802973431E+01  0.77905816439E+01  0.15684380511E+02  0.19545856756E+02  0.00000000000E+00 0. -1.
</event>
<event>
 8    1  0.5331800E-011  0.9118800E+02  0.7816164E-02  0.1184000E+00
        -11   -1    0    0    0    0  0.00000000000E+00  0.00000000000E+00  0.45593999997E+02  0.45594000000E+02  0.51100000000E-03 0. -1.
         11   -1    0    0    0    0 -0.00000000000E+00 -0.00000000000E+00 -0.45593999997E+02  0.45594000000E+02  0.51100000000E-03 0.  1.
         23    2    1    2    0    0  0.35527136788E-14  0.00000000000E+00 -0.71054273576E-14  0.91188000000E+02  0.91188000000E+02 0.  0.
    9900012    2    3    3    0    0  0.17591018924E+02 -0.91454600852E+01 -0.38607519790E+02  0.47787263010E+02  0.19999963368E+02 0.  0.
         12    1    3    3    0    0 -0.17591018924E+02  0.91454600852E+01  0.38607519790E+02  0.43400736990E+02  0.00000000000E+00 0. -1.
         11    1    4    4    0    0  0.57045293851E+01  0.50039195690E+01 -0.19660758822E+02  0.21074304361E+02  0.51100000000E-03 0. -1.
        -11    1    4    4    0    0  0.51055747527E+01 -0.86853114195E+01 -0.11106170822E+02  0.14994951104E+02  0.51100000000E-03 0.  1.
         12    1    4    4    0    0  0.67809147865E+01 -0.54640682347E+01 -0.78405901451E+01  0.11718007546E+02  0.00000000000E+00 0. -1.
</event>
<event>
 8    1  0.5331800E-011  0.9118800E+02  0.7816164E-02  0.1184000E+00
        -11   -1    0    0    0    0  0.00000000000E+00  0.00000000000E+00  0.45593999997E+02  0.45594000000E+02  0.51100000000E-03 0. -1.
         11   -1    0    0    0    0 -0.00000000000E+00 -0.00000000000E+00 -0.45593999997E+02  0.45594000000E+02  0.51100000000E-03 0.  1.
         23    2    1    2    0    0  0.00000000000E+00  0.00000000000E+00  0.00000000000E+00  0.91188000000E+02  0.91188000000E+02 0.  0.
    9900012    2    3    3    0    0  0.96353149490E+01 -0.22260338433E+02  0.35989739178E+02  0.47787270888E+02  0.19999999289E+02 0.  0.
        -12    1    3    3    0    0 -0.96353149490E+01  0.22260338433E+02 -0.35989739178E+02  0.43400729112E+02  0.00000000000E+00 0.  1.
         11    1    4    4    0    0  0.46337803670E+01 -0.19373547675E+02  0.28536997158E+02  0.34801817151E+02  0.51100000000E-03 0. -1.
        -11    1    4    4    0    0  0.10512662861E+01 -0.56895556196E+01  0.38700350424E+01  0.69608458856E+01  0.51100000000E-03 0.  1.
         12    1    4    4    0    0  0.39502682958E+01  0.28027648612E+01  0.35827069777E+01  0.60246078515E+01  0.00000000000E+00 0. -1.
</event>
<event>
 8    1  0.5331800E-011  0.9118800E+02  0.7816164E-02  0.1184000E+00
        -11   -1    0    0    0    0  0.00000000000E+00  0.00000000000E+00  0.45593999997E+02  0.45594000000E+02  0.51100000000E-03 0. -1.
         11   -1    0    0    0    0 -0.00000000000E+00 -0.00000000000E+00 -0.45593999997E+02  0.45594000000E+02  0.51100000000E-03 0.  1.
         23    2    1    2    0    0  0.00000000000E+00  0.00000000000E+00  0.00000000000E+00  0.91188000000E+02  0.91188000000E+02 0.  0.
    9900012    2    3    3    0    0 -0.25434553117E+02  0.18242741638E+01  0.35119506848E+02  0.47787260032E+02  0.19999949792E+02 0.  0.
        -12    1    3    3    0    0  0.25434553117E+02 -0.18242741638E+01 -0.35119506848E+02  0.43400739968E+02  0.00000000000E+00 0.  1.
         11    1    4    4    0    0 -0.77351778946E+01 -0.13967558710E+01  0.71715108769E+01  0.10640228970E+02  0.51100000000E-03 0. -1.
        -11    1    4    4    0    0 -0.11587523752E+02  0.17476505018E+01  0.39920875270E+01  0.12379893056E+02  0.51100000000E-03 0.  1.
        -12    1    4    4    0    0 -0.61118514700E+01  0.14733795330E+01  0.23955908444E+02  0.24767138006E+02  0.00000000000E+00 0.  1.
</event>
<event>
 8    1  0.5331800E-011  0.9118800E+02  0.7816164E-02  0.1184000E+00
        -11   -1    0    0    0    0  0.00000000000E+00  0.00000000000E+00  0.45593999997E+02  0.45594000000E+02  0.51100000000E-03 0. -1.
         11   -1    0    0    0    0 -0.00000000000E+00 -0.00000000000E+00 -0.45593999997E+02  0.45594000000E+02  0.51100000000E-03 0.  1.
         23    2    1    2    0    0  0.00000000000E+00  0.00000000000E+00  0.35527136788E-14  0.91188000000E+02  0.91188000000E+02 0.  0.
    9900012    2    3    3    0    0  0.32771219977E+02 -0.23293913908E+02 -0.16342075974E+02  0.47787277298E+02  0.20000028513E+02 0.  0.
         12    1    3    3    0    0 -0.32771219977E+02  0.23293913908E+02  0.16342075974E+02  0.43400722702E+02  0.00000000000E+00 0. -1.
         11    1    4    4    0    0  0.19702224267E+02 -0.12757303719E+02 -0.15964619573E+02  0.28386537613E+02  0.51100000000E-03 0. -1.
        -11    1    4    4    0    0  0.11179051029E+02 -0.12340681707E+02  0.45834917518E+00  0.16657541570E+02  0.51100000000E-03 0.  1.
         12    1    4    4    0    0  0.18899446803E+01  0.18040715191E+01 -0.83580557682E+00  0.27431981159E+01  0.00000000000E+00 0. -1.
</event>
<event>
 8    1  0.5331800E-011  0.9118800E+02  0.7816164E-02  0.1184000E+00
        -11   -1    0    0    0    0  0.00000000000E+00  0.00000000000E+00  0.45593999997E+02  0.45594000000E+02  0.51100000000E-03 0. -1.
         11   -1    0    0    0    0 -0.00000000000E+00 -0.00000000000E+00 -0.45593999997E+02  0.45594000000E+02  0.51100000000E-03 0.  1.
         23    2    1    2    0    0  0.00000000000E+00  0.00000000000E+00  0.00000000000E+00  0.91188000000E+02  0.91188000000E+02 0.  0.
    9900012    2    3    3    0    0  0.28643072032E+02 -0.25088107199E+02  0.20827492903E+02  0.47787272369E+02  0.20000006040E+02 0.  0.
        -12    1    3    3    0    0 -0.28643072032E+02  0.25088107199E+02 -0.20827492903E+02  0.43400727631E+02  0.00000000000E+00 0.  1.
         11    1    4    4    0    0  0.14878986366E+02 -0.25885083351E+01  0.70704136390E+01  0.16675591742E+02  0.51100000000E-03 0. -1.
        -11    1    4    4    0    0  0.12042405905E+02 -0.22771104368E+02  0.14053737947E+02  0.29343658338E+02  0.51100000000E-03 0.  1.
        -12    1    4    4    0    0  0.17216797615E+01  0.27150550433E+00 -0.29665868243E+00  0.17680222888E+01  0.00000000000E+00 0.  1.
</event>
<event>
 8    1  0.5331800E-011  0.9118800E+02  0.7816164E-02  0.1184000E+00
        -11   -1    0    0    0    0  0.00000000000E+00  0.00000000000E+00  0.45593999997E+02  0.45594000000E+02  0.51100000000E-03 0. -1.
         11   -1    0    0    0    0 -0.00000000000E+00 -0.00000000000E+00 -0.45593999997E+02  0.45594000000E+02  0.51100000000E-03 0.  1.
         23    2    1    2    0    0 -0.17763568394E-14 -0.44408920985E-15  0.00000000000E+00  0.91188000000E+02  0.91188000000E+02 0.  0.
    9900012    2    3    3    0    0  0.12447785248E+02 -0.36476238051E+01  0.41417047669E+02  0.47787258594E+02  0.19999943232E+02 0.  0.
        -12    1    3    3    0    0 -0.12447785248E+02  0.36476238051E+01 -0.41417047669E+02  0.43400741406E+02  0.00000000000E+00 0.  1.
         11    1    4    4    0    0  0.13791120427E+02 -0.77223905137E+00  0.13678050436E+02  0.19439146580E+02  0.51100000000E-03 0.  1.
        -11    1    4    4    0    0 -0.28633330309E+01 -0.12526477973E+01  0.21474516709E+02  0.21700752768E+02  0.51100000000E-03 0. -1.
         12    1    4    4    0    0  0.15199978520E+01 -0.16227369564E+01  0.62644805248E+01  0.66473592460E+01  0.00000000000E+00 0. -1.
</event>
<event>
 8    1  0.5331800E-011  0.9118800E+02  0.7816164E-02  0.1184000E+00
        -11   -1    0    0    0    0  0.00000000000E+00  0.00000000000E+00  0.45593999997E+02  0.45594000000E+02  0.51100000000E-03 0. -1.
         11   -1    0    0    0    0 -0.00000000000E+00 -0.00000000000E+00 -0.45593999997E+02  0.45594000000E+02  0.51100000000E-03 0.  1.
         23    2    1    2    0    0  0.00000000000E+00  0.00000000000E+00 -0.71054273576E-14  0.91188000000E+02  0.91188000000E+02 0.  0.
    9900012    2    3    3    0    0  0.29253723691E+02 -0.16679004398E+02  0.27379805955E+02  0.47787270610E+02  0.19999998017E+02 0.  0.
        -12    1    3    3    0    0 -0.29253723691E+02  0.16679004398E+02 -0.27379805955E+02  0.43400729390E+02  0.00000000000E+00 0.  1.
         11    1    4    4    0    0  0.22580904735E+02 -0.15194325686E+02  0.17225282899E+02  0.32209861268E+02  0.51100000000E-03 0. -1.
        -11    1    4    4    0    0 -0.73061397158E+00  0.45323487217E+00 -0.14446319711E+01  0.16811247479E+01  0.51100000000E-03 0.  1.
        -12    1    4    4    0    0  0.74034329274E+01 -0.19379135846E+01  0.11599155027E+02  0.13896284593E+02  0.00000000000E+00 0.  1.
</event>
<event>
 8    1  0.5331800E-011  0.9118800E+02  0.7816164E-02  0.1184000E+00
        -11   -1    0    0    0    0  0.00000000000E+00  0.00000000000E+00  0.45593999997E+02  0.45594000000E+02  0.51100000000E-03 0. -1.
         11   -1    0    0    0    0 -0.00000000000E+00 -0.00000000000E+00 -0.45593999997E+02  0.45594000000E+02  0.51100000000E-03 0.  1.
         23    2    1    2    0    0  0.00000000000E+00  0.00000000000E+00 -0.17763568394E-14  0.91188000000E+02  0.91188000000E+02 0.  0.
    9900012    2    3    3    0    0  0.35908185912E+02 -0.19946616609E+02  0.14012780443E+02  0.47787270221E+02  0.19999996246E+02 0.  0.
        -12    1    3    3    0    0 -0.35908185912E+02  0.19946616609E+02 -0.14012780443E+02  0.43400729779E+02  0.00000000000E+00 0.  1.
         11    1    4    4    0    0  0.18223546412E+02 -0.14375126528E+02  0.94824001889E+01  0.25073049678E+02  0.51100000000E-03 0. -1.
        -11    1    4    4    0    0 -0.19068621943E+01 -0.30704885559E+00  0.78518606188E+00  0.20849268190E+01  0.51100000000E-03 0.  1.
        -12    1    4    4    0    0  0.19591501694E+02 -0.52644412256E+01  0.37451941920E+01  0.20629293724E+02  0.00000000000E+00 0.  1.
</event>
<event>
 8    1  0.5331800E-011  0.9118800E+02  0.7816164E-02  0.1184000E+00
        -11   -1    0    0    0    0  0.00000000000E+00  0.00000000000E+00  0.45593999997E+02  0.45594000000E+02  0.51100000000E-03 0. -1.
         11   -1    0    0    0    0 -0.00000000000E+00 -0.00000000000E+00 -0.45593999997E+02  0.45594000000E+02  0.51100000000E-03 0.  1.
         23    2    1    2    0    0  0.35527136788E-14 -0.10658141036E-13  0.00000000000E+00  0.91188000000E+02  0.91188000000E+02 0.  0.
    9900012    2    3    3    0    0 -0.15510069419E+02  0.30331681369E+02  0.26889592338E+02  0.47787270465E+02  0.19999997357E+02 0.  0.
        -12    1    3    3    0    0  0.15510069419E+02 -0.30331681369E+02 -0.26889592338E+02  0.43400729535E+02  0.00000000000E+00 0.  1.
         11    1    4    4    0    0 -0.11215553639E+02  0.32344340011E+02  0.24468273747E+02  0.42078989942E+02  0.51100000000E-03 0. -1.
        -11    1    4    4    0    0 -0.29073049295E+01 -0.13240747053E+01  0.26398854738E+01  0.41442238542E+01  0.51100000000E-03 0.  1.
        -12    1    4    4    0    0 -0.13872108501E+01 -0.68858393616E+00 -0.21856688211E+00  0.15640566683E+01  0.00000000000E+00 0.  1.
</event>
<event>
 8    1  0.5331800E-011  0.9118800E+02  0.7816164E-02  0.1184000E+00
        -11   -1    0    0    0    0  0.00000000000E+00  0.00000000000E+00  0.45593999997E+02  0.45594000000E+02  0.51100000000E-03 0. -1.
         11   -1    0    0    0    0 -0.00000000000E+00 -0.00000000000E+00 -0.45593999997E+02  0.45594000000E+02  0.51100000000E-03 0.  1.
         23    2    1    2    0    0  0.00000000000E+00  0.88817841970E-15  0.35527136788E-14  0.91188000000E+02  0.91188000000E+02 0.  0.
    9900012    2    3    3    0    0  0.29277054201E+02  0.64236367304E+01  0.31388119393E+02  0.47787273617E+02  0.20000011729E+02 0.  0.
        -12    1    3    3    0    0 -0.29277054201E+02 -0.64236367304E+01 -0.31388119393E+02  0.43400726383E+02  0.00000000000E+00 0.  1.
         11    1    4    4    0    0  0.22341837985E+02  0.35644308850E+01  0.27084854880E+02  0.35290965646E+02  0.51100000000E-03 0. -1.
        -11    1    4    4    0    0  0.36642767504E+01  0.55165190102E+01  0.21690727453E+00  0.66261568892E+01  0.51100000000E-03 0.  1.
         12    1    4    4    0    0  0.32709394655E+01 -0.26573131648E+01  0.40863572384E+01  0.58701510818E+01  0.00000000000E+00 0. -1.
</event>
<event>
 8    1  0.5331800E-011  0.9118800E+02  0.7816164E-02  0.1184000E+00
        -11   -1    0    0    0    0  0.00000000000E+00  0.00000000000E+00  0.45593999997E+02  0.45594000000E+02  0.51100000000E-03 0. -1.
         11   -1    0    0    0    0 -0.00000000000E+00 -0.00000000000E+00 -0.45593999997E+02  0.45594000000E+02  0.51100000000E-03 0.  1.
         23    2    1    2    0    0  0.00000000000E+00  0.00000000000E+00  0.00000000000E+00  0.91188000000E+02  0.91188000000E+02 0.  0.
    9900012    2    3    3    0    0 -0.74526526871E+01 -0.35458111639E+02 -0.23891610377E+02  0.47787207847E+02  0.19999711854E+02 0.  0.
         12    1    3    3    0    0  0.74526526871E+01  0.35458111639E+02  0.23891610377E+02  0.43400792153E+02  0.00000000000E+00 0. -1.
         11    1    4    4    0    0 -0.64688622444E+01 -0.38106388658E+01  0.27482411175E+00  0.75128340761E+01  0.51100000000E-03 0. -1.
        -11    1    4    4    0    0  0.24566978294E+01 -0.16635690378E+02 -0.12775470377E+02  0.21118574814E+02  0.51100000000E-03 0.  1.
        -12    1    4    4    0    0 -0.34404882721E+01 -0.15011782396E+02 -0.11390964113E+02  0.19155798957E+02  0.00000000000E+00 0.  1.
</event>
<event>
 8    1  0.5331800E-011  0.9118800E+02  0.7816164E-02  0.1184000E+00
        -11   -1    0    0    0    0  0.00000000000E+00  0.00000000000E+00  0.45593999997E+02  0.45594000000E+02  0.51100000000E-03 0. -1.
         11   -1    0    0    0    0 -0.00000000000E+00 -0.00000000000E+00 -0.45593999997E+02  0.45594000000E+02  0.51100000000E-03 0.  1.
         23    2    1    2    0    0 -0.44408920985E-15  0.88817841970E-15  0.00000000000E+00  0.91188000000E+02  0.91188000000E+02 0.  0.
    9900012    2    3    3    0    0  0.92741117250E+00  0.35226188254E+01 -0.43247592270E+02  0.47787272218E+02  0.20000005349E+02 0.  0.
         12    1    3    3    0    0 -0.92741117250E+00 -0.35226188254E+01  0.43247592270E+02  0.43400727782E+02  0.00000000000E+00 0. -1.
         11    1    4    4    0    0 -0.39304327927E+01  0.61485576082E+01 -0.68068967721E+01  0.99793239514E+01  0.51100000000E-03 0. -1.
        -11    1    4    4    0    0  0.53654503525E+01  0.11607723571E+01 -0.13881940301E+02  0.14927950856E+02  0.51100000000E-03 0.  1.
         12    1    4    4    0    0 -0.50760638729E+00 -0.37867111399E+01 -0.22558755196E+02  0.22879997411E+02  0.00000000000E+00 0. -1.
</event>
<event>
 8    1  0.5331800E-011  0.9118800E+02  0.7816164E-02  0.1184000E+00
        -11   -1    0    0    0    0  0.00000000000E+00  0.00000000000E+00  0.45593999997E+02  0.45594000000E+02  0.51100000000E-03 0. -1.
         11   -1    0    0    0    0 -0.00000000000E+00 -0.00000000000E+00 -0.45593999997E+02  0.45594000000E+02  0.51100000000E-03 0.  1.
         23    2    1    2    0    0 -0.71054273576E-14  0.44408920985E-15  0.17763568394E-14  0.91188000000E+02  0.91188000000E+02 0.  0.
    9900012    2    3    3    0    0  0.41993192547E+02 -0.35681343108E+01 -0.10366460535E+02  0.47787270665E+02  0.19999998270E+02 0.  0.
         12    1    3    3    0    0 -0.41993192547E+02  0.35681343108E+01  0.10366460535E+02  0.43400729335E+02  0.00000000000E+00 0. -1.
         11    1    4    4    0    0  0.41749325465E+01  0.48359174681E+01  0.76367570427E+00  0.64342334717E+01  0.51100000000E-03 0. -1.
        -11    1    4    4    0    0  0.16534669706E+02 -0.71593472639E+01 -0.18903367759E+01  0.18116979023E+02  0.51100000000E-03 0.  1.
         12    1    4    4    0    0  0.21283590295E+02 -0.12447045149E+01 -0.92397994636E+01  0.23236058170E+02  0.00000000000E+00 0. -1.
</event>
<event>
 8    1  0.5331800E-011  0.9118800E+02  0.7816164E-02  0.1184000E+00
        -11   -1    0    0    0    0  0.00000000000E+00  0.00000000000E+00  0.45593999997E+02  0.45594000000E+02  0.51100000000E-03 0.  1.
         11   -1    0    0    0    0 -0.00000000000E+00 -0.00000000000E+00 -0.45593999997E+02  0.45594000000E+02  0.51100000000E-03 0. -1.
         23    2    1    2    0    0  0.00000000000E+00  0.00000000000E+00 -0.17763568394E-14  0.91188000000E+02  0.91188000000E+02 0.  0.
    9900012    2    3    3    0    0 -0.47030902216E+01 -0.41150308610E+02  0.12967489131E+02  0.47787277303E+02  0.20000028534E+02 0.  0.
        -12    1    3    3    0    0  0.47030902216E+01  0.41150308610E+02 -0.12967489131E+02  0.43400722697E+02  0.00000000000E+00 0.  1.
         11    1    4    4    0    0 -0.68568894668E+01 -0.28802670570E+02  0.58624228024E+01  0.30182424795E+02  0.51100000000E-03 0. -1.
        -11    1    4    4    0    0  0.36211015640E+01 -0.10944626651E+02  0.91539970620E+01  0.14720492231E+02  0.51100000000E-03 0.  1.
        -12    1    4    4    0    0 -0.14673023188E+01 -0.14030113882E+01 -0.20489307337E+01  0.28843602759E+01  0.00000000000E+00 0.  1.
</event>
<event>
 8    1  0.5331800E-011  0.9118800E+02  0.7816164E-02  0.1184000E+00
        -11   -1    0    0    0    0  0.00000000000E+00  0.00000000000E+00  0.45593999997E+02  0.45594000000E+02  0.51100000000E-03 0. -1.
         11   -1    0    0    0    0 -0.00000000000E+00 -0.00000000000E+00 -0.45593999997E+02  0.45594000000E+02  0.51100000000E-03 0.  1.
         23    2    1    2    0    0  0.88817841970E-15 -0.71054273576E-14 -0.35527136788E-14  0.91188000000E+02  0.91188000000E+02 0.  0.
    9900012    2    3    3    0    0  0.48567205373E+01 -0.29070403415E+02 -0.31858243845E+02  0.47787265098E+02  0.19999972890E+02 0.  0.
         12    1    3    3    0    0 -0.48567205373E+01  0.29070403415E+02  0.31858243845E+02  0.43400734902E+02  0.00000000000E+00 0. -1.
         11    1    4    4    0    0  0.96335084678E+00  0.28928452765E+01 -0.23376143442E+01  0.38420098556E+01  0.51100000000E-03 0. -1.
        -11    1    4    4    0    0  0.13516606622E+01 -0.22718462366E+02 -0.22955883910E+02  0.32325348028E+02  0.51100000000E-03 0.  1.
         12    1    4    4    0    0  0.25417090283E+01 -0.92447863255E+01 -0.65647455918E+01  0.11619907215E+02  0.00000000000E+00 0. -1.
</event>
<event>
 8    1  0.5331800E-011  0.9118800E+02  0.7816164E-02  0.1184000E+00
        -11   -1    0    0    0    0  0.00000000000E+00  0.00000000000E+00  0.45593999997E+02  0.45594000000E+02  0.51100000000E-03 0. -1.
         11   -1    0    0    0    0 -0.00000000000E+00 -0.00000000000E+00 -0.45593999997E+02  0.45594000000E+02  0.51100000000E-03 0.  1.
         23    2    1    2    0    0  0.00000000000E+00  0.00000000000E+00  0.00000000000E+00  0.91188000000E+02  0.91188000000E+02 0.  0.
    9900012    2    3    3    0    0  0.17617292776E+02  0.33024483076E+02 -0.21969009776E+02  0.47787275609E+02  0.20000020811E+02 0.  0.
         12    1    3    3    0    0 -0.17617292776E+02 -0.33024483076E+02  0.21969009776E+02  0.43400724391E+02  0.00000000000E+00 0. -1.
         11    1    4    4    0    0  0.15350108981E+01  0.15209548211E+02 -0.14557533016E+02  0.21109438245E+02  0.51100000000E-03 0. -1.
        -11    1    4    4    0    0  0.76216168520E+01  0.11993912533E+02 -0.81495298043E+01  0.16381630492E+02  0.51100000000E-03 0.  1.
         12    1    4    4    0    0  0.84606650254E+01  0.58210223315E+01  0.73805304419E+00  0.10296206872E+02  0.00000000000E+00 0. -1.
</event>
<event>
 8    1  0.5331800E-011  0.9118800E+02  0.7816164E-02  0.1184000E+00
        -11   -1    0    0    0    0  0.00000000000E+00  0.00000000000E+00  0.45593999997E+02  0.45594000000E+02  0.51100000000E-03 0. -1.
         11   -1    0    0    0    0 -0.00000000000E+00 -0.00000000000E+00 -0.45593999997E+02  0.45594000000E+02  0.51100000000E-03 0.  1.
         23    2    1    2    0    0  0.00000000000E+00  0.00000000000E+00 -0.88817841970E-15  0.91188000000E+02  0.91188000000E+02 0.  0.
    9900012    2    3    3    0    0  0.28734473449E+02  0.31624728740E+02  0.76046160781E+01  0.47787267080E+02  0.19999981924E+02 0.  0.
        -12    1    3    3    0    0 -0.28734473449E+02 -0.31624728740E+02 -0.76046160781E+01  0.43400732920E+02  0.00000000000E+00 0.  1.
         11    1    4    4    0    0  0.14632670196E+02  0.13124016494E+02 -0.27997874689E+01  0.19854310769E+02  0.51100000000E-03 0. -1.
        -11    1    4    4    0    0  0.73171350696E+01  0.10561474278E+02  0.11740216920E+02  0.17404536712E+02  0.51100000000E-03 0.  1.
        -12    1    4    4    0    0  0.67846681840E+01  0.79392379684E+01 -0.13358133731E+01  0.10528419599E+02  0.00000000000E+00 0.  1.
</event>
<event>
 8    1  0.5331800E-011  0.9118800E+02  0.7816164E-02  0.1184000E+00
        -11   -1    0    0    0    0  0.00000000000E+00  0.00000000000E+00  0.45593999997E+02  0.45594000000E+02  0.51100000000E-03 0. -1.
         11   -1    0    0    0    0 -0.00000000000E+00 -0.00000000000E+00 -0.45593999997E+02  0.45594000000E+02  0.51100000000E-03 0.  1.
         23    2    1    2    0    0  0.00000000000E+00  0.35527136788E-14 -0.35527136788E-14  0.91188000000E+02  0.91188000000E+02 0.  0.
    9900012    2    3    3    0    0 -0.21995355281E+02  0.24233341938E+02 -0.28505664974E+02  0.47787269004E+02  0.19999990695E+02 0.  0.
         12    1    3    3    0    0  0.21995355281E+02 -0.24233341938E+02  0.28505664974E+02  0.43400730996E+02  0.00000000000E+00 0. -1.
         11    1    4    4    0    0 -0.15568066373E+02  0.78714096827E+01 -0.23131149111E+02  0.28971949200E+02  0.51100000000E-03 0. -1.
        -11    1    4    4    0    0 -0.54132889387E+01  0.11155087857E+02 -0.53663823931E+01  0.13510652926E+02  0.51100000000E-03 0.  1.
         12    1    4    4    0    0 -0.10139999692E+01  0.52068443986E+01 -0.81334692744E-02  0.53046668776E+01  0.00000000000E+00 0. -1.
</event>
<event>
 8    1  0.5331800E-011  0.9118800E+02  0.7816164E-02  0.1184000E+00
        -11   -1    0    0    0    0  0.00000000000E+00  0.00000000000E+00  0.45593999997E+02  0.45594000000E+02  0.51100000000E-03 0. -1.
         11   -1    0    0    0    0 -0.00000000000E+00 -0.00000000000E+00 -0.45593999997E+02  0.45594000000E+02  0.51100000000E-03 0.  1.
         23    2    1    2    0    0  0.00000000000E+00  0.35527136788E-14  0.35527136788E-14  0.91188000000E+02  0.91188000000E+02 0.  0.
    9900012    2    3    3    0    0  0.26811377235E+02  0.24643127312E+02  0.23611226073E+02  0.47787266486E+02  0.19999979215E+02 0.  0.
        -12    1    3    3    0    0 -0.26811377235E+02 -0.24643127312E+02 -0.23611226073E+02  0.43400733514E+02  0.00000000000E+00 0.  1.
         11    1    4    4    0    0  0.20553893082E+02  0.21287599370E+02  0.17124052962E+02  0.34188559459E+02  0.51100000000E-03 0. -1.
        -11    1    4    4    0    0  0.79380939903E+01  0.38556914843E+01  0.23911633891E+01  0.91431589528E+01  0.51100000000E-03 0.  1.
         12    1    4    4    0    0 -0.16806098379E+01 -0.50016354285E+00  0.40960097220E+01  0.44555480740E+01  0.00000000000E+00 0. -1.
</event>
<event>
 8    1  0.5331800E-011  0.9118800E+02  0.7816164E-02  0.1184000E+00
        -11   -1    0    0    0    0  0.00000000000E+00  0.00000000000E+00  0.45593999997E+02  0.45594000000E+02  0.51100000000E-03 0. -1.
         11   -1    0    0    0    0 -0.00000000000E+00 -0.00000000000E+00 -0.45593999997E+02  0.45594000000E+02  0.51100000000E-03 0.  1.
         23    2    1    2    0    0  0.35527136788E-14  0.00000000000E+00 -0.71054273576E-14  0.91188000000E+02  0.91188000000E+02 0.  0.
    9900012    2    3    3    0    0  0.12267572054E+02  0.12371084287E+02 -0.39750301381E+02  0.47787268320E+02  0.19999987577E+02 0.  0.
         12    1    3    3    0    0 -0.12267572054E+02 -0.12371084287E+02  0.39750301381E+02  0.43400731680E+02  0.00000000000E+00 0. -1.
         11    1    4    4    0    0  0.12209997921E+02  0.53998205646E+01 -0.16751206527E+02  0.21420668330E+02  0.51100000000E-03 0. -1.
        -11    1    4    4    0    0 -0.13026490903E+01  0.15305123062E+01 -0.19816732824E+02  0.19918390061E+02  0.51100000000E-03 0.  1.
        -12    1    4    4    0    0  0.13602232233E+01  0.54407514157E+01 -0.31823620306E+01  0.64482099282E+01  0.00000000000E+00 0.  1.
</event>
<event>
 8    1  0.5331800E-011  0.9118800E+02  0.7816164E-02  0.1184000E+00
        -11   -1    0    0    0    0  0.00000000000E+00  0.00000000000E+00  0.45593999997E+02  0.45594000000E+02  0.51100000000E-03 0. -1.
         11   -1    0    0    0    0 -0.00000000000E+00 -0.00000000000E+00 -0.45593999997E+02  0.45594000000E+02  0.51100000000E-03 0.  1.
         23    2    1    2    0    0  0.00000000000E+00  0.71054273576E-14  0.71054273576E-14  0.91188000000E+02  0.91188000000E+02 0.  0.
    9900012    2    3    3    0    0  0.17269933626E+02  0.16640091473E+02  0.36172917804E+02  0.47787271502E+02  0.20000002088E+02 0.  0.
        -12    1    3    3    0    0 -0.17269933626E+02 -0.16640091473E+02 -0.36172917804E+02  0.43400728498E+02  0.00000000000E+00 0.  1.
         11    1    4    4    0    0  0.13011906214E+02  0.11937894559E+02  0.31067335321E+02  0.35735169707E+02  0.51100000000E-03 0. -1.
        -11    1    4    4    0    0  0.18187148088E+01 -0.10410752407E+01 -0.17873939047E+01  0.27543308524E+01  0.51100000000E-03 0.  1.
        -12    1    4    4    0    0  0.24393126032E+01  0.57432721548E+01  0.68929763880E+01  0.92977709428E+01  0.00000000000E+00 0.  1.
</event>
<event>
 8    1  0.5331800E-011  0.9118800E+02  0.7816164E-02  0.1184000E+00
        -11   -1    0    0    0    0  0.00000000000E+00  0.00000000000E+00  0.45593999997E+02  0.45594000000E+02  0.51100000000E-03 0. -1.
         11   -1    0    0    0    0 -0.00000000000E+00 -0.00000000000E+00 -0.45593999997E+02  0.45594000000E+02  0.51100000000E-03 0.  1.
         23    2    1    2    0    0  0.00000000000E+00  0.00000000000E+00  0.00000000000E+00  0.91188000000E+02  0.91188000000E+02 0.  0.
    9900012    2    3    3    0    0 -0.22895738713E+02 -0.28291471391E+02 -0.23643198299E+02  0.47787273848E+02  0.20000012784E+02 0.  0.
         12    1    3    3    0    0  0.22895738713E+02  0.28291471391E+02  0.23643198299E+02  0.43400726152E+02  0.00000000000E+00 0. -1.
         11    1    4    4    0    0  0.32456924993E+01 -0.29108278427E+01 -0.12796408780E+01  0.45436680741E+01  0.51100000000E-03 0. -1.
        -11    1    4    4    0    0 -0.16119741215E+02 -0.19269880775E+02 -0.17027797440E+02  0.30349962896E+02  0.51100000000E-03 0.  1.
        -12    1    4    4    0    0 -0.10021689997E+02 -0.61107627733E+01 -0.53357599818E+01  0.12893642878E+02  0.00000000000E+00 0.  1.
</event>
<event>
 8    1  0.5331800E-011  0.9118800E+02  0.7816164E-02  0.1184000E+00
        -11   -1    0    0    0    0  0.00000000000E+00  0.00000000000E+00  0.45593999997E+02  0.45594000000E+02  0.51100000000E-03 0.  1.
         11   -1    0    0    0    0 -0.00000000000E+00 -0.00000000000E+00 -0.45593999997E+02  0.45594000000E+02  0.51100000000E-03 0. -1.
         23    2    1    2    0    0  0.00000000000E+00  0.00000000000E+00  0.35527136788E-14  0.91188000000E+02  0.91188000000E+02 0.  0.
    9900012    2    3    3    0    0  0.25711094008E+02 -0.18837017463E+02  0.29457250637E+02  0.47787271929E+02  0.20000004032E+02 0.  0.
        -12    1    3    3    0    0 -0.25711094008E+02  0.18837017463E+02 -0.29457250637E+02  0.43400728071E+02  0.00000000000E+00 0.  1.
         11    1    4    4    0    0  0.41943575794E+01 -0.84540702317E+01  0.86089233086E+01  0.12774094871E+02  0.51100000000E-03 0. -1.
        -11    1    4    4    0    0  0.18721761409E+02 -0.28375975675E+01  0.97313736397E+01  0.21289808439E+02  0.51100000000E-03 0.  1.
        -12    1    4    4    0    0  0.27949750199E+01 -0.75453496634E+01  0.11116953689E+02  0.13723368618E+02  0.00000000000E+00 0.  1.
</event>
<event>
 8    1  0.5331800E-011  0.9118800E+02  0.7816164E-02  0.1184000E+00
        -11   -1    0    0    0    0  0.00000000000E+00  0.00000000000E+00  0.45593999997E+02  0.45594000000E+02  0.51100000000E-03 0. -1.
         11   -1    0    0    0    0 -0.00000000000E+00 -0.00000000000E+00 -0.45593999997E+02  0.45594000000E+02  0.51100000000E-03 0.  1.
         23    2    1    2    0    0  0.35527136788E-14 -0.33306690739E-15 -0.71054273576E-14  0.91188000000E+02  0.91188000000E+02 0.  0.
    9900012    2    3    3    0    0  0.18217106012E+02 -0.43568845654E+00 -0.39389983536E+02  0.47787267531E+02  0.19999983980E+02 0.  0.
         12    1    3    3    0    0 -0.18217106012E+02  0.43568845654E+00  0.39389983536E+02  0.43400732469E+02  0.00000000000E+00 0. -1.
         11    1    4    4    0    0  0.20367792554E+00 -0.33334778476E+01 -0.13512269805E+02  0.13918871894E+02  0.51100000000E-03 0. -1.
        -11    1    4    4    0    0  0.79920589681E+01  0.70370759604E+01 -0.97708052211E+01  0.14452061429E+02  0.51100000000E-03 0.  1.
         12    1    4    4    0    0  0.10021369118E+02 -0.41392865693E+01 -0.16106908510E+02  0.19416334208E+02  0.00000000000E+00 0. -1.
</event>
<event>
 8    1  0.5331800E-011  0.9118800E+02  0.7816164E-02  0.1184000E+00
        -11   -1    0    0    0    0  0.00000000000E+00  0.00000000000E+00  0.45593999997E+02  0.45594000000E+02  0.51100000000E-03 0. -1.
         11   -1    0    0    0    0 -0.00000000000E+00 -0.00000000000E+00 -0.45593999997E+02  0.45594000000E+02  0.51100000000E-03 0.  1.
         23    2    1    2    0    0  0.00000000000E+00  0.35527136788E-14  0.35527136788E-14  0.91188000000E+02  0.91188000000E+02 0.  0.
    9900012    2    3    3    0    0  0.11651937305E+02  0.31148174789E+02  0.27886320498E+02  0.47787270668E+02  0.19999998285E+02 0.  0.
        -12    1    3    3    0    0 -0.11651937305E+02 -0.31148174789E+02 -0.27886320498E+02  0.43400729332E+02  0.00000000000E+00 0.  1.
         11    1    4    4    0    0  0.14775830796E+01  0.10183458819E+02  0.25067792962E+01  0.10591035265E+02  0.51100000000E-03 0. -1.
        -11    1    4    4    0    0  0.77049911179E+01  0.38128953015E+01  0.14118834850E+02  0.16530171097E+02  0.51100000000E-03 0.  1.
        -12    1    4    4    0    0  0.24693631078E+01  0.17151820668E+02  0.11260706351E+02  0.20666064306E+02  0.00000000000E+00 0.  1.
</event>
<event>
 8    1  0.5331800E-011  0.9118800E+02  0.7816164E-02  0.1184000E+00
        -11   -1    0    0    0    0  0.00000000000E+00  0.00000000000E+00  0.45593999997E+02  0.45594000000E+02  0.51100000000E-03 0. -1.
         11   -1    0    0    0    0 -0.00000000000E+00 -0.00000000000E+00 -0.45593999997E+02  0.45594000000E+02  0.51100000000E-03 0.  1.
         23    2    1    2    0    0  0.00000000000E+00  0.00000000000E+00  0.00000000000E+00  0.91188000000E+02  0.91188000000E+02 0.  0.
    9900012    2    3    3    0    0 -0.85483833578E+01 -0.14747366335E+02 -0.39913200550E+02  0.47787271320E+02  0.20000001257E+02 0.  0.
         12    1    3    3    0    0  0.85483833578E+01  0.14747366335E+02  0.39913200550E+02  0.43400728680E+02  0.00000000000E+00 0. -1.
         11    1    4    4    0    0 -0.10097123036E+02 -0.14029254770E+02 -0.34677580822E+02  0.38746696568E+02  0.51100000000E-03 0. -1.
        -11    1    4    4    0    0  0.32848476009E+01 -0.29780083755E+01 -0.24989255293E+01  0.50895369836E+01  0.51100000000E-03 0.  1.
         12    1    4    4    0    0 -0.17361079229E+01  0.22598968104E+01 -0.27366941986E+01  0.39510377688E+01  0.00000000000E+00 0. -1.
</event>
<event>
 8    1  0.5331800E-011  0.9118800E+02  0.7816164E-02  0.1184000E+00
        -11   -1    0    0    0    0  0.00000000000E+00  0.00000000000E+00  0.45593999997E+02  0.45594000000E+02  0.51100000000E-03 0. -1.
         11   -1    0    0    0    0 -0.00000000000E+00 -0.00000000000E+00 -0.45593999997E+02  0.45594000000E+02  0.51100000000E-03 0.  1.
         23    2    1    2    0    0  0.88817841970E-15  0.00000000000E+00 -0.71054273576E-14  0.91188000000E+02  0.91188000000E+02 0.  0.
    9900012    2    3    3    0    0 -0.64138569307E+01 -0.18203202924E+02  0.38873246980E+02  0.47787268575E+02  0.19999988742E+02 0.  0.
        -12    1    3    3    0    0  0.64138569307E+01  0.18203202924E+02 -0.38873246980E+02  0.43400731425E+02  0.00000000000E+00 0.  1.
         11    1    4    4    0    0 -0.86179513975E+01 -0.93878172699E+01  0.14958053566E+02  0.19650536026E+02  0.51100000000E-03 0. -1.
        -11    1    4    4    0    0  0.37962098679E+01 -0.11192759155E+02  0.17558521277E+02  0.21165791659E+02  0.51100000000E-03 0.  1.
        -12    1    4    4    0    0 -0.15921154011E+01  0.23773735018E+01  0.63566721382E+01  0.69709408899E+01  0.00000000000E+00 0.  1.
</event>
<event>
 8    1  0.5331800E-011  0.9118800E+02  0.7816164E-02  0.1184000E+00
        -11   -1    0    0    0    0  0.00000000000E+00  0.00000000000E+00  0.45593999997E+02  0.45594000000E+02  0.51100000000E-03 0. -1.
         11   -1    0    0    0    0 -0.00000000000E+00 -0.00000000000E+00 -0.45593999997E+02  0.45594000000E+02  0.51100000000E-03 0.  1.
         23    2    1    2    0    0  0.00000000000E+00  0.00000000000E+00  0.00000000000E+00  0.91188000000E+02  0.91188000000E+02 0.  0.
    9900012    2    3    3    0    0  0.14418276171E+02 -0.37590108899E+02  0.16208638661E+02  0.47787274867E+02  0.20000017430E+02 0.  0.
        -12    1    3    3    0    0 -0.14418276171E+02  0.37590108899E+02 -0.16208638661E+02  0.43400725133E+02  0.00000000000E+00 0.  1.
         11    1    4    4    0    0  0.14547545473E+02 -0.25340455666E+02  0.15385448276E+02  0.33022443755E+02  0.51100000000E-03 0. -1.
        -11    1    4    4    0    0 -0.49565701723E+00 -0.13398862470E+02  0.12932982686E+01  0.13470256569E+02  0.51100000000E-03 0.  1.
         12    1    4    4    0    0  0.36638771540E+00  0.11492092363E+01 -0.47010788332E+00  0.12945745435E+01  0.00000000000E+00 0. -1.
</event>
<event>
 8    1  0.5331800E-011  0.9118800E+02  0.7816164E-02  0.1184000E+00
        -11   -1    0    0    0    0  0.00000000000E+00  0.00000000000E+00  0.45593999997E+02  0.45594000000E+02  0.51100000000E-03 0.  1.
         11   -1    0    0    0    0 -0.00000000000E+00 -0.00000000000E+00 -0.45593999997E+02  0.45594000000E+02  0.51100000000E-03 0. -1.
         23    2    1    2    0    0  0.00000000000E+00 -0.35527136788E-14  0.00000000000E+00  0.91188000000E+02  0.91188000000E+02 0.  0.
    9900012    2    3    3    0    0 -0.36911274945E+02 -0.22352616399E+02  0.46411358919E+01  0.47787287790E+02  0.20000076351E+02 0.  0.
         12    1    3    3    0    0  0.36911274945E+02  0.22352616399E+02 -0.46411358919E+01  0.43400712210E+02  0.00000000000E+00 0. -1.
         11    1    4    4    0    0 -0.19116113351E+02 -0.11950232649E+01  0.21075411485E+01  0.19269032156E+02  0.51100000000E-03 0.  1.
        -11    1    4    4    0    0 -0.98269902920E+01 -0.16414783983E+02  0.18246964151E+01  0.19218334701E+02  0.51100000000E-03 0. -1.
         12    1    4    4    0    0 -0.79681713019E+01 -0.47428091506E+01  0.70889832834E+00  0.92999209338E+01  0.00000000000E+00 0. -1.
</event>
<event>
 8    1  0.5331800E-011  0.9118800E+02  0.7816164E-02  0.1184000E+00
        -11   -1    0    0    0    0  0.00000000000E+00  0.00000000000E+00  0.45593999997E+02  0.45594000000E+02  0.51100000000E-03 0. -1.
         11   -1    0    0    0    0 -0.00000000000E+00 -0.00000000000E+00 -0.45593999997E+02  0.45594000000E+02  0.51100000000E-03 0.  1.
         23    2    1    2    0    0  0.00000000000E+00  0.71054273576E-14  0.00000000000E+00  0.91188000000E+02  0.91188000000E+02 0.  0.
    9900012    2    3    3    0    0  0.30942354505E+01  0.41806261852E+02  0.11237682864E+02  0.47787270292E+02  0.19999996568E+02 0.  0.
        -12    1    3    3    0    0 -0.30942354505E+01 -0.41806261852E+02 -0.11237682864E+02  0.43400729708E+02  0.00000000000E+00 0.  1.
         11    1    4    4    0    0 -0.99769060107E+00 -0.17100841664E+01  0.51970861171E-01  0.19805240779E+01  0.51100000000E-03 0. -1.
        -11    1    4    4    0    0  0.39465760219E+01  0.85620855091E+01  0.31524161360E+01  0.99409505741E+01  0.51100000000E-03 0.  1.
         12    1    4    4    0    0  0.14535002963E+00  0.34954260509E+02  0.80332958665E+01  0.35865795640E+02  0.00000000000E+00 0. -1.
</event>
<event>
 8    1  0.5331800E-011  0.9118800E+02  0.7816164E-02  0.1184000E+00
        -11   -1    0    0    0    0  0.00000000000E+00  0.00000000000E+00  0.45593999997E+02  0.45594000000E+02  0.51100000000E-03 0. -1.
         11   -1    0    0    0    0 -0.00000000000E+00 -0.00000000000E+00 -0.45593999997E+02  0.45594000000E+02  0.51100000000E-03 0.  1.
         23    2    1    2    0    0  0.00000000000E+00 -0.35527136788E-14  0.35527136788E-14  0.91188000000E+02  0.91188000000E+02 0.  0.
    9900012    2    3    3    0    0  0.27232481455E+02 -0.19167276536E+02  0.27832188592E+02  0.47787271229E+02  0.20000000842E+02 0.  0.
        -12    1    3    3    0    0 -0.27232481455E+02  0.19167276536E+02 -0.27832188592E+02  0.43400728771E+02  0.00000000000E+00 0.  1.
         11    1    4    4    0    0  0.20970966659E+02 -0.19586149402E+02  0.20218032978E+02  0.35102244213E+02  0.51100000000E-03 0. -1.
        -11    1    4    4    0    0 -0.10168423184E+01 -0.10319935914E+01 -0.64100291861E+00  0.15842550540E+01  0.51100000000E-03 0.  1.
         12    1    4    4    0    0  0.72783571141E+01  0.14508664569E+01  0.82551585331E+01  0.11100771962E+02  0.00000000000E+00 0. -1.
</event>
<event>
 8    1  0.5331800E-011  0.9118800E+02  0.7816164E-02  0.1184000E+00
        -11   -1    0    0    0    0  0.00000000000E+00  0.00000000000E+00  0.45593999997E+02  0.45594000000E+02  0.51100000000E-03 0. -1.
         11   -1    0    0    0    0 -0.00000000000E+00 -0.00000000000E+00 -0.45593999997E+02  0.45594000000E+02  0.51100000000E-03 0.  1.
         23    2    1    2    0    0  0.00000000000E+00  0.00000000000E+00 -0.71054273576E-14  0.91188000000E+02  0.91188000000E+02 0.  0.
    9900012    2    3    3    0    0 -0.23431222091E+02  0.71307898818E+01  0.35829498860E+02  0.47787270495E+02  0.19999997495E+02 0.  0.
        -12    1    3    3    0    0  0.23431222091E+02 -0.71307898818E+01 -0.35829498860E+02  0.43400729505E+02  0.00000000000E+00 0.  1.
         11    1    4    4    0    0 -0.17935786071E+02 -0.20209243029E+01  0.24593321964E+02  0.30505868984E+02  0.51100000000E-03 0. -1.
        -11    1    4    4    0    0  0.11327104928E+01  0.48734078902E+01  0.60021507761E+01  0.78140227620E+01  0.51100000000E-03 0.  1.
        -12    1    4    4    0    0 -0.66281465134E+01  0.42783062944E+01  0.52340261198E+01  0.94673787489E+01  0.00000000000E+00 0.  1.
</event>
<event>
 8    1  0.5331800E-011  0.9118800E+02  0.7816164E-02  0.1184000E+00
        -11   -1    0    0    0    0  0.00000000000E+00  0.00000000000E+00  0.45593999997E+02  0.45594000000E+02  0.51100000000E-03 0. -1.
         11   -1    0    0    0    0 -0.00000000000E+00 -0.00000000000E+00 -0.45593999997E+02  0.45594000000E+02  0.51100000000E-03 0.  1.
         23    2    1    2    0    0  0.35527136788E-14  0.00000000000E+00 -0.71054273576E-14  0.91188000000E+02  0.91188000000E+02 0.  0.
    9900012    2    3    3    0    0  0.17665218812E+02 -0.14703809300E+02  0.36815233684E+02  0.47787269651E+02  0.19999993645E+02 0.  0.
        -12    1    3    3    0    0 -0.17665218812E+02  0.14703809300E+02 -0.36815233684E+02  0.43400730349E+02  0.00000000000E+00 0.  1.
         11    1    4    4    0    0 -0.27728306200E+00 -0.66997480911E+01  0.14871934607E+02  0.16313734998E+02  0.51100000000E-03 0. -1.
        -11    1    4    4    0    0  0.15121568255E+02 -0.45151542672E+01  0.21891243427E+02  0.26986570431E+02  0.51100000000E-03 0.  1.
        -12    1    4    4    0    0  0.28209336190E+01 -0.34889069420E+01  0.52055649991E-01  0.44869642213E+01  0.00000000000E+00 0.  1.
</event>
<event>
 8    1  0.5331800E-011  0.9118800E+02  0.7816164E-02  0.1184000E+00
        -11   -1    0    0    0    0  0.00000000000E+00  0.00000000000E+00  0.45593999997E+02  0.45594000000E+02  0.51100000000E-03 0. -1.
         11   -1    0    0    0    0 -0.00000000000E+00 -0.00000000000E+00 -0.45593999997E+02  0.45594000000E+02  0.51100000000E-03 0.  1.
         23    2    1    2    0    0  0.00000000000E+00 -0.44408920985E-15  0.00000000000E+00  0.91188000000E+02  0.91188000000E+02 0.  0.
    9900012    2    3    3    0    0 -0.70948928560E+01  0.24371414038E+01  0.42747466078E+02  0.47787273982E+02  0.20000013392E+02 0.  0.
        -12    1    3    3    0    0  0.70948928560E+01 -0.24371414038E+01 -0.42747466078E+02  0.43400726018E+02  0.00000000000E+00 0.  1.
         11    1    4    4    0    0 -0.14495762728E+01 -0.15736106787E+01  0.24562719709E+01  0.32574214027E+01  0.51100000000E-03 0. -1.
        -11    1    4    4    0    0  0.52829009998E+01  0.55001114881E+01  0.12671215207E+02  0.14789184035E+02  0.51100000000E-03 0.  1.
        -12    1    4    4    0    0 -0.10928217583E+02 -0.14893594056E+01  0.27619978900E+02  0.29740668544E+02  0.00000000000E+00 0.  1.
</event>
<event>
 8    1  0.5331800E-011  0.9118800E+02  0.7816164E-02  0.1184000E+00
        -11   -1    0    0    0    0  0.00000000000E+00  0.00000000000E+00  0.45593999997E+02  0.45594000000E+02  0.51100000000E-03 0. -1.
         11   -1    0    0    0    0 -0.00000000000E+00 -0.00000000000E+00 -0.45593999997E+02  0.45594000000E+02  0.51100000000E-03 0.  1.
         23    2    1    2    0    0 -0.35527136788E-14  0.00000000000E+00  0.71054273576E-14  0.91188000000E+02  0.91188000000E+02 0.  0.
    9900012    2    3    3    0    0 -0.17270629693E+02 -0.12719615201E+02  0.37730103982E+02  0.47787262594E+02  0.19999961472E+02 0.  0.
        -12    1    3    3    0    0  0.17270629693E+02  0.12719615201E+02 -0.37730103982E+02  0.43400737406E+02  0.00000000000E+00 0.  1.
         11    1    4    4    0    0 -0.16508354448E+02 -0.36740215905E+01  0.21244273632E+02  0.27154067165E+02  0.51100000000E-03 0. -1.
        -11    1    4    4    0    0  0.17999353271E+00 -0.10590075627E+02  0.14313331115E+02  0.17805997510E+02  0.51100000000E-03 0.  1.
        -12    1    4    4    0    0 -0.94226877845E+00  0.15444820157E+01  0.21724992353E+01  0.28271979193E+01  0.00000000000E+00 0.  1.
</event>
<event>
 8    1  0.5331800E-011  0.9118800E+02  0.7816164E-02  0.1184000E+00
        -11   -1    0    0    0    0  0.00000000000E+00  0.00000000000E+00  0.45593999997E+02  0.45594000000E+02  0.51100000000E-03 0. -1.
         11   -1    0    0    0    0 -0.00000000000E+00 -0.00000000000E+00 -0.45593999997E+02  0.45594000000E+02  0.51100000000E-03 0.  1.
         23    2    1    2    0    0 -0.35527136788E-14  0.00000000000E+00  0.00000000000E+00  0.91188000000E+02  0.91188000000E+02 0.  0.
    9900012    2    3    3    0    0  0.31764342618E+02 -0.29367868197E+02 -0.34897344121E+01  0.47787269699E+02  0.19999993868E+02 0.  0.
         12    1    3    3    0    0 -0.31764342618E+02  0.29367868197E+02  0.34897344121E+01  0.43400730301E+02  0.00000000000E+00 0. -1.
         11    1    4    4    0    0  0.12502326516E+02 -0.17820614929E+01 -0.24840999408E+01  0.12870690124E+02  0.51100000000E-03 0. -1.
        -11    1    4    4    0    0  0.10095903545E+01 -0.56689098498E+01 -0.26680987568E+01  0.63462242953E+01  0.51100000000E-03 0.  1.
         12    1    4    4    0    0  0.18252425747E+02 -0.21916896854E+02  0.16624642855E+01  0.28570355281E+02  0.00000000000E+00 0. -1.
</event>
<event>
 8    1  0.5331800E-011  0.9118800E+02  0.7816164E-02  0.1184000E+00
        -11   -1    0    0    0    0  0.00000000000E+00  0.00000000000E+00  0.45593999997E+02  0.45594000000E+02  0.51100000000E-03 0.  1.
         11   -1    0    0    0    0 -0.00000000000E+00 -0.00000000000E+00 -0.45593999997E+02  0.45594000000E+02  0.51100000000E-03 0. -1.
         23    2    1    2    0    0  0.00000000000E+00 -0.16653345369E-15 -0.71054273576E-14  0.91188000000E+02  0.91188000000E+02 0.  0.
    9900012    2    3    3    0    0 -0.24596579885E+02  0.30810806735E+00  0.35756632512E+02  0.47787269116E+02  0.19999991208E+02 0.  0.
        -12    1    3    3    0    0  0.24596579885E+02 -0.30810806735E+00 -0.35756632512E+02  0.43400730884E+02  0.00000000000E+00 0.  1.
         11    1    4    4    0    0 -0.17678250790E+02 -0.11321596507E+01  0.89129250131E+01  0.19830344652E+02  0.51100000000E-03 0. -1.
        -11    1    4    4    0    0 -0.60487358834E+01  0.22457334493E+01  0.20110976142E+02  0.21120650704E+02  0.51100000000E-03 0.  1.
        -12    1    4    4    0    0 -0.86959321212E+00 -0.80546573125E+00  0.67327313569E+01  0.68362737601E+01  0.00000000000E+00 0.  1.
</event>
<event>
 8    1  0.5331800E-011  0.9118800E+02  0.7816164E-02  0.1184000E+00
        -11   -1    0    0    0    0  0.00000000000E+00  0.00000000000E+00  0.45593999997E+02  0.45594000000E+02  0.51100000000E-03 0. -1.
         11   -1    0    0    0    0 -0.00000000000E+00 -0.00000000000E+00 -0.45593999997E+02  0.45594000000E+02  0.51100000000E-03 0.  1.
         23    2    1    2    0    0  0.00000000000E+00  0.00000000000E+00  0.00000000000E+00  0.91188000000E+02  0.91188000000E+02 0.  0.
    9900012    2    3    3    0    0 -0.40243895916E+02 -0.83215666703E+01 -0.13957210939E+02  0.47787269966E+02  0.19999995082E+02 0.  0.
         12    1    3    3    0    0  0.40243895916E+02  0.83215666703E+01  0.13957210939E+02  0.43400730034E+02  0.00000000000E+00 0. -1.
         11    1    4    4    0    0 -0.94524397023E+01 -0.55794563137E+01 -0.10200911897E+02  0.14984577167E+02  0.51100000000E-03 0. -1.
        -11    1    4    4    0    0 -0.23590235056E+02  0.20858123381E+01 -0.99283942454E+00  0.23703070128E+02  0.51100000000E-03 0.  1.
         12    1    4    4    0    0 -0.72012211577E+01 -0.48279226947E+01 -0.27634596173E+01  0.90996226716E+01  0.00000000000E+00 0. -1.
</event>
<event>
 8    1  0.5331800E-011  0.9118800E+02  0.7816164E-02  0.1184000E+00
        -11   -1    0    0    0    0  0.00000000000E+00  0.00000000000E+00  0.45593999997E+02  0.45594000000E+02  0.51100000000E-03 0. -1.
         11   -1    0    0    0    0 -0.00000000000E+00 -0.00000000000E+00 -0.45593999997E+02  0.45594000000E+02  0.51100000000E-03 0.  1.
         23    2    1    2    0    0  0.22204460493E-15  0.00000000000E+00  0.00000000000E+00  0.91188000000E+02  0.91188000000E+02 0.  0.
    9900012    2    3    3    0    0  0.11128652313E+01 -0.91980332296E+01 -0.42400243557E+02  0.47787274914E+02  0.20000017641E+02 0.  0.
         12    1    3    3    0    0 -0.11128652313E+01  0.91980332296E+01  0.42400243557E+02  0.43400725086E+02  0.00000000000E+00 0. -1.
         11    1    4    4    0    0  0.31489299089E+01 -0.19018742373E+01 -0.46264906814E+01  0.59107784150E+01  0.51100000000E-03 0. -1.
        -11    1    4    4    0    0 -0.33686768030E+01 -0.20318621103E+01 -0.22857972013E+00  0.39406466459E+01  0.51100000000E-03 0.  1.
        -12    1    4    4    0    0  0.13326121254E+01 -0.52642968819E+01 -0.37545173156E+02  0.37935849853E+02  0.00000000000E+00 0.  1.
</event>
<event>
 8    1  0.5331800E-011  0.9118800E+02  0.7816164E-02  0.1184000E+00
        -11   -1    0    0    0    0  0.00000000000E+00  0.00000000000E+00  0.45593999997E+02  0.45594000000E+02  0.51100000000E-03 0. -1.
         11   -1    0    0    0    0 -0.00000000000E+00 -0.00000000000E+00 -0.45593999997E+02  0.45594000000E+02  0.51100000000E-03 0.  1.
         23    2    1    2    0    0  0.35527136788E-14  0.00000000000E+00  0.00000000000E+00  0.91188000000E+02  0.91188000000E+02 0.  0.
    9900012    2    3    3    0    0 -0.16618302572E+02  0.77052236075E+01  0.39345708873E+02  0.47787271228E+02  0.20000000838E+02 0.  0.
        -12    1    3    3    0    0  0.16618302572E+02 -0.77052236075E+01 -0.39345708873E+02  0.43400728772E+02  0.00000000000E+00 0.  1.
         11    1    4    4    0    0 -0.71860066479E+00  0.39457918076E+01  0.44073901183E+01  0.59590895127E+01  0.51100000000E-03 0. -1.
        -11    1    4    4    0    0 -0.13561809255E+01  0.76900862202E+01  0.99289516395E+01  0.12631735182E+02  0.51100000000E-03 0.  1.
        -12    1    4    4    0    0 -0.14543520981E+02 -0.39306544203E+01  0.25009367115E+02  0.29196446534E+02  0.00000000000E+00 0.  1.
</event>
<event>
 8    1  0.5331800E-011  0.9118800E+02  0.7816164E-02  0.1184000E+00
        -11   -1    0    0    0    0  0.00000000000E+00  0.00000000000E+00  0.45593999997E+02  0.45594000000E+02  0.51100000000E-03 0. -1.
         11   -1    0    0    0    0 -0.00000000000E+00 -0.00000000000E+00 -0.45593999997E+02  0.45594000000E+02  0.51100000000E-03 0.  1.
         23    2    1    2    0    0  0.00000000000E+00  0.00000000000E+00  0.00000000000E+00  0.91188000000E+02  0.91188000000E+02 0.  0.
    9900012    2    3    3    0    0  0.29925081062E+02 -0.11254866291E+02 -0.29350323640E+02  0.47787262799E+02  0.19999962408E+02 0.  0.
         12    1    3    3    0    0 -0.29925081062E+02  0.11254866291E+02  0.29350323640E+02  0.43400737201E+02  0.00000000000E+00 0. -1.
         11    1    4    4    0    0  0.18061953962E+01  0.40130756859E+01 -0.29649919360E+01  0.53064390801E+01  0.51100000000E-03 0. -1.
        -11    1    4    4    0    0  0.25980865345E+02 -0.10872557371E+02 -0.20524341981E+02  0.34849196288E+02  0.51100000000E-03 0.  1.
         12    1    4    4    0    0  0.21380203199E+01 -0.43953846056E+01 -0.58609897231E+01  0.76316274316E+01  0.00000000000E+00 0. -1.
</event>
<event>
 8    1  0.5331800E-011  0.9118800E+02  0.7816164E-02  0.1184000E+00
        -11   -1    0    0    0    0  0.00000000000E+00  0.00000000000E+00  0.45593999997E+02  0.45594000000E+02  0.51100000000E-03 0. -1.
         11   -1    0    0    0    0 -0.00000000000E+00 -0.00000000000E+00 -0.45593999997E+02  0.45594000000E+02  0.51100000000E-03 0.  1.
         23    2    1    2    0    0  0.88817841970E-15  0.35527136788E-14  0.00000000000E+00  0.91188000000E+02  0.91188000000E+02 0.  0.
    9900012    2    3    3    0    0  0.76135809117E+01  0.30812838488E+02 -0.29601117757E+02  0.47787264955E+02  0.19999972235E+02 0.  0.
         12    1    3    3    0    0 -0.76135809117E+01 -0.30812838488E+02  0.29601117757E+02  0.43400735045E+02  0.00000000000E+00 0. -1.
         11    1    4    4    0    0  0.60455028135E+01  0.64819173877E+01 -0.13016422014E+02  0.15747717282E+02  0.51100000000E-03 0. -1.
        -11    1    4    4    0    0  0.36010078652E+01  0.21204871469E+02 -0.84829836175E+01  0.23120874616E+02  0.51100000000E-03 0.  1.
        -12    1    4    4    0    0 -0.20329297670E+01  0.31260496312E+01 -0.81017121251E+01  0.89186730567E+01  0.00000000000E+00 0.  1.
</event>
<event>
 8    1  0.5331800E-011  0.9118800E+02  0.7816164E-02  0.1184000E+00
        -11   -1    0    0    0    0  0.00000000000E+00  0.00000000000E+00  0.45593999997E+02  0.45594000000E+02  0.51100000000E-03 0. -1.
         11   -1    0    0    0    0 -0.00000000000E+00 -0.00000000000E+00 -0.45593999997E+02  0.45594000000E+02  0.51100000000E-03 0.  1.
         23    2    1    2    0    0  0.44408920985E-15  0.00000000000E+00  0.00000000000E+00  0.91188000000E+02  0.91188000000E+02 0.  0.
    9900012    2    3    3    0    0  0.22855235430E+01 -0.32207570702E+02  0.29001237599E+02  0.47787274077E+02  0.20000013827E+02 0.  0.
        -12    1    3    3    0    0 -0.22855235430E+01  0.32207570702E+02 -0.29001237599E+02  0.43400725923E+02  0.00000000000E+00 0.  1.
         11    1    4    4    0    0  0.11288362661E+01 -0.64241448780E+00  0.34424588838E+01  0.36793329718E+01  0.51100000000E-03 0. -1.
        -11    1    4    4    0    0 -0.56979098830E+01 -0.29896582664E+01  0.32220673892E+01  0.71962456953E+01  0.51100000000E-03 0.  1.
        -12    1    4    4    0    0  0.68545971599E+01 -0.28575497948E+02  0.22336711326E+02  0.36911695410E+02  0.00000000000E+00 0.  1.
</event>
<event>
 8    1  0.5331800E-011  0.9118800E+02  0.7816164E-02  0.1184000E+00
        -11   -1    0    0    0    0  0.00000000000E+00  0.00000000000E+00  0.45593999997E+02  0.45594000000E+02  0.51100000000E-03 0. -1.
         11   -1    0    0    0    0 -0.00000000000E+00 -0.00000000000E+00 -0.45593999997E+02  0.45594000000E+02  0.51100000000E-03 0.  1.
         23    2    1    2    0    0  0.00000000000E+00  0.24980018054E-15  0.00000000000E+00  0.91188000000E+02  0.91188000000E+02 0.  0.
    9900012    2    3    3    0    0  0.19150085273E+02  0.20673359134E+00  0.38946816298E+02  0.47787274148E+02  0.20000014151E+02 0.  0.
        -12    1    3    3    0    0 -0.19150085273E+02 -0.20673359134E+00 -0.38946816298E+02  0.43400725852E+02  0.00000000000E+00 0.  1.
         11    1    4    4    0    0  0.40920492135E+01 -0.15311403822E+01  0.14968047897E+02  0.15592681481E+02  0.51100000000E-03 0. -1.
        -11    1    4    4    0    0  0.17510194951E+02  0.40623777256E+01  0.21377745468E+02  0.27930589710E+02  0.51100000000E-03 0.  1.
        -12    1    4    4    0    0 -0.24521588919E+01 -0.23245037521E+01  0.26010229323E+01  0.42640029572E+01  0.00000000000E+00 0.  1.
</event>
<event>
 8    1  0.5331800E-011  0.9118800E+02  0.7816164E-02  0.1184000E+00
        -11   -1    0    0    0    0  0.00000000000E+00  0.00000000000E+00  0.45593999997E+02  0.45594000000E+02  0.51100000000E-03 0. -1.
         11   -1    0    0    0    0 -0.00000000000E+00 -0.00000000000E+00 -0.45593999997E+02  0.45594000000E+02  0.51100000000E-03 0.  1.
         23    2    1    2    0    0  0.00000000000E+00  0.00000000000E+00  0.35527136788E-14  0.91188000000E+02  0.91188000000E+02 0.  0.
    9900012    2    3    3    0    0  0.83146495667E+01 -0.31119575778E+02 -0.29087165169E+02  0.47787256094E+02  0.19999931836E+02 0.  0.
         12    1    3    3    0    0 -0.83146495667E+01  0.31119575778E+02  0.29087165169E+02  0.43400743906E+02  0.00000000000E+00 0. -1.
         11    1    4    4    0    0 -0.23019765886E+01 -0.19625892753E+01  0.18099571313E+01  0.35251663729E+01  0.51100000000E-03 0. -1.
        -11    1    4    4    0    0  0.95122506747E+01 -0.17388615619E+02 -0.20584303070E+02  0.28575520978E+02  0.51100000000E-03 0.  1.
         12    1    4    4    0    0  0.11043754806E+01 -0.11768370883E+02 -0.10312819230E+02  0.15686568743E+02  0.00000000000E+00 0. -1.
</event>
<event>
 8    1  0.5331800E-011  0.9118800E+02  0.7816164E-02  0.1184000E+00
        -11   -1    0    0    0    0  0.00000000000E+00  0.00000000000E+00  0.45593999997E+02  0.45594000000E+02  0.51100000000E-03 0. -1.
         11   -1    0    0    0    0 -0.00000000000E+00 -0.00000000000E+00 -0.45593999997E+02  0.45594000000E+02  0.51100000000E-03 0.  1.
         23    2    1    2    0    0  0.00000000000E+00 -0.17763568394E-14  0.00000000000E+00  0.91188000000E+02  0.91188000000E+02 0.  0.
    9900012    2    3    3    0    0 -0.41232289064E+02 -0.10742082870E+02 -0.82540474120E+01  0.47787270691E+02  0.19999998391E+02 0.  0.
         12    1    3    3    0    0  0.41232289064E+02  0.10742082870E+02  0.82540474120E+01  0.43400729309E+02  0.00000000000E+00 0. -1.
         11    1    4    4    0    0 -0.43936050828E-02  0.16752236752E+01  0.56921953006E+00  0.17692950009E+01  0.51100000000E-03 0. -1.
        -11    1    4    4    0    0 -0.24182440224E+02 -0.10907404476E+02 -0.11095877289E+02  0.28755527828E+02  0.51100000000E-03 0.  1.
        -12    1    4    4    0    0 -0.17045455235E+02 -0.15099020689E+01  0.22726103469E+01  0.17262447863E+02  0.00000000000E+00 0.  1.
</event>
<event>
 8    1  0.5331800E-011  0.9118800E+02  0.7816164E-02  0.1184000E+00
        -11   -1    0    0    0    0  0.00000000000E+00  0.00000000000E+00  0.45593999997E+02  0.45594000000E+02  0.51100000000E-03 0. -1.
         11   -1    0    0    0    0 -0.00000000000E+00 -0.00000000000E+00 -0.45593999997E+02  0.45594000000E+02  0.51100000000E-03 0.  1.
         23    2    1    2    0    0  0.35527136788E-14  0.00000000000E+00  0.00000000000E+00  0.91188000000E+02  0.91188000000E+02 0.  0.
    9900012    2    3    3    0    0  0.21707468179E+02 -0.11759954263E+02  0.35694682497E+02  0.47787296577E+02  0.20000116414E+02 0.  0.
        -12    1    3    3    0    0 -0.21707468179E+02  0.11759954263E+02 -0.35694682497E+02  0.43400703423E+02  0.00000000000E+00 0.  1.
         11    1    4    4    0    0  0.41942597614E+01  0.29850070214E+01  0.35492297395E+01  0.62529284234E+01  0.51100000000E-03 0. -1.
        -11    1    4    4    0    0  0.24775546811E+01 -0.82985208965E+01  0.17720836198E+02  0.19723888108E+02  0.51100000000E-03 0.  1.
        -12    1    4    4    0    0  0.15035653736E+02 -0.64464403875E+01  0.14424616560E+02  0.21810480046E+02  0.00000000000E+00 0.  1.
</event>
<event>
 8    1  0.5331800E-011  0.9118800E+02  0.7816164E-02  0.1184000E+00
        -11   -1    0    0    0    0  0.00000000000E+00  0.00000000000E+00  0.45593999997E+02  0.45594000000E+02  0.51100000000E-03 0. -1.
         11   -1    0    0    0    0 -0.00000000000E+00 -0.00000000000E+00 -0.45593999997E+02  0.45594000000E+02  0.51100000000E-03 0.  1.
         23    2    1    2    0    0  0.00000000000E+00  0.00000000000E+00  0.00000000000E+00  0.91188000000E+02  0.91188000000E+02 0.  0.
    9900012    2    3    3    0    0  0.27080955544E+02  0.19776707259E+02 -0.27552253182E+02  0.47787274676E+02  0.20000016559E+02 0.  0.
         12    1    3    3    0    0 -0.27080955544E+02 -0.19776707259E+02  0.27552253182E+02  0.43400725324E+02  0.00000000000E+00 0. -1.
         11    1    4    4    0    0  0.87599141012E+01  0.18101230306E+02 -0.14991706167E+02  0.25082700965E+02  0.51100000000E-03 0. -1.
        -11    1    4    4    0    0  0.33897593972E+01  0.20261059969E+01 -0.31515680498E+01  0.50525197392E+01  0.51100000000E-03 0.  1.
         12    1    4    4    0    0  0.14931282046E+02 -0.35062904336E+00 -0.94089789651E+01  0.17652053972E+02  0.00000000000E+00 0. -1.
</event>
<event>
 8    1  0.5331800E-011  0.9118800E+02  0.7816164E-02  0.1184000E+00
        -11   -1    0    0    0    0  0.00000000000E+00  0.00000000000E+00  0.45593999997E+02  0.45594000000E+02  0.51100000000E-03 0. -1.
         11   -1    0    0    0    0 -0.00000000000E+00 -0.00000000000E+00 -0.45593999997E+02  0.45594000000E+02  0.51100000000E-03 0.  1.
         23    2    1    2    0    0  0.00000000000E+00 -0.35648567431E-15 -0.17763568394E-14  0.91188000000E+02  0.91188000000E+02 0.  0.
    9900012    2    3    3    0    0 -0.41586574328E+02 -0.34347225284E-02 -0.12416912830E+02  0.47787275348E+02  0.20000019622E+02 0.  0.
         12    1    3    3    0    0  0.41586574328E+02  0.34347225284E-02  0.12416912830E+02  0.43400724652E+02  0.00000000000E+00 0. -1.
         11    1    4    4    0    0 -0.67677821880E+01 -0.25179612998E+01 -0.76721752027E+01  0.10535904207E+02  0.51100000000E-03 0. -1.
        -11    1    4    4    0    0 -0.32114736276E+01 -0.15105706133E+01 -0.40448624683E+01  0.53811057495E+01  0.51100000000E-03 0.  1.
         12    1    4    4    0    0 -0.31607318512E+02  0.40250971905E+01 -0.69987515880E+00  0.31870265392E+02  0.00000000000E+00 0. -1.
</event>
<event>
 8    1  0.5331800E-011  0.9118800E+02  0.7816164E-02  0.1184000E+00
        -11   -1    0    0    0    0  0.00000000000E+00  0.00000000000E+00  0.45593999997E+02  0.45594000000E+02  0.51100000000E-03 0. -1.
         11   -1    0    0    0    0 -0.00000000000E+00 -0.00000000000E+00 -0.45593999997E+02  0.45594000000E+02  0.51100000000E-03 0.  1.
         23    2    1    2    0    0  0.00000000000E+00  0.35527136788E-14  0.00000000000E+00  0.91188000000E+02  0.91188000000E+02 0.  0.
    9900012    2    3    3    0    0  0.18021236070E+02 -0.17032313246E+02 -0.35619642631E+02  0.47787267458E+02  0.19999983650E+02 0.  0.
         12    1    3    3    0    0 -0.18021236070E+02  0.17032313246E+02  0.35619642631E+02  0.43400732542E+02  0.00000000000E+00 0. -1.
         11    1    4    4    0    0  0.17624106030E+02 -0.57930815550E+01 -0.23090332482E+02  0.29619796786E+02  0.51100000000E-03 0. -1.
        -11    1    4    4    0    0  0.79310092566E+00 -0.77544838501E+01 -0.12414014641E+02  0.14658403345E+02  0.51100000000E-03 0.  1.
         12    1    4    4    0    0 -0.39597088505E+00 -0.34847478408E+01 -0.11529550781E+00  0.35090673276E+01  0.00000000000E+00 0. -1.
</event>
<event>
 8    1  0.5331800E-011  0.9118800E+02  0.7816164E-02  0.1184000E+00
        -11   -1    0    0    0    0  0.00000000000E+00  0.00000000000E+00  0.45593999997E+02  0.45594000000E+02  0.51100000000E-03 0. -1.
         11   -1    0    0    0    0 -0.00000000000E+00 -0.00000000000E+00 -0.45593999997E+02  0.45594000000E+02  0.51100000000E-03 0.  1.
         23    2    1    2    0    0 -0.88817841970E-15  0.00000000000E+00  0.00000000000E+00  0.91188000000E+02  0.91188000000E+02 0.  0.
    9900012    2    3    3    0    0  0.70515316901E+01  0.27005362719E+01 -0.42738766834E+02  0.47787318141E+02  0.20000214731E+02 0.  0.
         12    1    3    3    0    0 -0.70515316901E+01 -0.27005362719E+01  0.42738766834E+02  0.43400681859E+02  0.00000000000E+00 0. -1.
         11    1    4    4    0    0 -0.31575270168E+01  0.64448630586E+01 -0.12865039650E+02  0.14731445352E+02  0.51100000000E-03 0. -1.
        -11    1    4    4    0    0  0.78049726905E+00  0.71490471443E-01 -0.15094033416E+02  0.15114368392E+02  0.51100000000E-03 0.  1.
         12    1    4    4    0    0  0.94285614378E+01 -0.38158172581E+01 -0.14779693768E+02  0.17941504397E+02  0.00000000000E+00 0. -1.
</event>
<event>
 8    1  0.5331800E-011  0.9118800E+02  0.7816164E-02  0.1184000E+00
        -11   -1    0    0    0    0  0.00000000000E+00  0.00000000000E+00  0.45593999997E+02  0.45594000000E+02  0.51100000000E-03 0. -1.
         11   -1    0    0    0    0 -0.00000000000E+00 -0.00000000000E+00 -0.45593999997E+02  0.45594000000E+02  0.51100000000E-03 0.  1.
         23    2    1    2    0    0  0.00000000000E+00 -0.44408920985E-15  0.00000000000E+00  0.91188000000E+02  0.91188000000E+02 0.  0.
    9900012    2    3    3    0    0 -0.17585876959E+02  0.31513746853E+01  0.39552865692E+02  0.47787269415E+02  0.19999992572E+02 0.  0.
        -12    1    3    3    0    0  0.17585876959E+02 -0.31513746853E+01 -0.39552865692E+02  0.43400730585E+02  0.00000000000E+00 0.  1.
         11    1    4    4    0    0 -0.74990342997E+01 -0.55952297861E+01  0.29491842745E+02  0.30940441182E+02  0.51100000000E-03 0. -1.
        -11    1    4    4    0    0 -0.76548318887E+01  0.54050261977E+01  0.66957305643E+01  0.11517098918E+02  0.51100000000E-03 0.  1.
         12    1    4    4    0    0 -0.24320107707E+01  0.33415782738E+01  0.33652923832E+01  0.53297293152E+01  0.00000000000E+00 0. -1.
</event>
<event>
 8    1  0.5331800E-011  0.9118800E+02  0.7816164E-02  0.1184000E+00
        -11   -1    0    0    0    0  0.00000000000E+00  0.00000000000E+00  0.45593999997E+02  0.45594000000E+02  0.51100000000E-03 0. -1.
         11   -1    0    0    0    0 -0.00000000000E+00 -0.00000000000E+00 -0.45593999997E+02  0.45594000000E+02  0.51100000000E-03 0.  1.
         23    2    1    2    0    0 -0.35527136788E-14  0.00000000000E+00  0.00000000000E+00  0.91188000000E+02  0.91188000000E+02 0.  0.
    9900012    2    3    3    0    0  0.24554374194E+02 -0.32602143797E+02 -0.14758265939E+02  0.47787268603E+02  0.19999988870E+02 0.  0.
         12    1    3    3    0    0 -0.24554374194E+02  0.32602143797E+02  0.14758265939E+02  0.43400731397E+02  0.00000000000E+00 0. -1.
         11    1    4    4    0    0  0.58780623666E+00 -0.33633374981E+01  0.23736348422E+01  0.41583287416E+01  0.51100000000E-03 0. -1.
        -11    1    4    4    0    0  0.22346916688E+02 -0.24086046542E+02 -0.93579289073E+01  0.34162745164E+02  0.51100000000E-03 0.  1.
        -12    1    4    4    0    0  0.16196512695E+01 -0.51527597571E+01 -0.77739718740E+01  0.94661946973E+01  0.00000000000E+00 0.  1.
</event>
<event>
 8    1  0.5331800E-011  0.9118800E+02  0.7816164E-02  0.1184000E+00
        -11   -1    0    0    0    0  0.00000000000E+00  0.00000000000E+00  0.45593999997E+02  0.45594000000E+02  0.51100000000E-03 0.  1.
         11   -1    0    0    0    0 -0.00000000000E+00 -0.00000000000E+00 -0.45593999997E+02  0.45594000000E+02  0.51100000000E-03 0. -1.
         23    2    1    2    0    0 -0.11102230246E-15  0.00000000000E+00  0.35527136788E-14  0.91188000000E+02  0.91188000000E+02 0.  0.
    9900012    2    3    3    0    0 -0.85962035808E+00 -0.36803142044E+02  0.22987280473E+02  0.47787247990E+02  0.19999894886E+02 0.  0.
        -12    1    3    3    0    0  0.85962035808E+00  0.36803142044E+02 -0.22987280473E+02  0.43400752010E+02  0.00000000000E+00 0.  1.
         11    1    4    4    0    0  0.13333414892E+01 -0.21568412757E+02  0.22743126501E+02  0.31372345014E+02  0.51100000000E-03 0. -1.
        -11    1    4    4    0    0 -0.12028613896E+01 -0.15142364415E+02  0.91140553645E+00  0.15217382690E+02  0.51100000000E-03 0.  1.
        -12    1    4    4    0    0 -0.99010045770E+00 -0.92364872114E-01 -0.66725156464E+00  0.11975202864E+01  0.00000000000E+00 0.  1.
</event>
<event>
 8    1  0.5331800E-011  0.9118800E+02  0.7816164E-02  0.1184000E+00
        -11   -1    0    0    0    0  0.00000000000E+00  0.00000000000E+00  0.45593999997E+02  0.45594000000E+02  0.51100000000E-03 0. -1.
         11   -1    0    0    0    0 -0.00000000000E+00 -0.00000000000E+00 -0.45593999997E+02  0.45594000000E+02  0.51100000000E-03 0.  1.
         23    2    1    2    0    0  0.00000000000E+00  0.00000000000E+00 -0.35527136788E-14  0.91188000000E+02  0.91188000000E+02 0.  0.
    9900012    2    3    3    0    0  0.23624878359E+02 -0.24396934397E+02  0.27023661508E+02  0.47787267671E+02  0.19999984617E+02 0.  0.
        -12    1    3    3    0    0 -0.23624878359E+02  0.24396934397E+02 -0.27023661508E+02  0.43400732329E+02  0.00000000000E+00 0.  1.
         11    1    4    4    0    0  0.37332683212E+01  0.50107491305E+00  0.11269311840E+02  0.11882161337E+02  0.51100000000E-03 0. -1.
        -11    1    4    4    0    0  0.18829098708E+02 -0.23024882351E+02  0.13136581808E+02  0.32515380165E+02  0.51100000000E-03 0.  1.
        -12    1    4    4    0    0  0.10625113297E+01 -0.18731269599E+01  0.26177678592E+01  0.33897261687E+01  0.00000000000E+00 0.  1.
</event>
<event>
 8    1  0.5331800E-011  0.9118800E+02  0.7816164E-02  0.1184000E+00
        -11   -1    0    0    0    0  0.00000000000E+00  0.00000000000E+00  0.45593999997E+02  0.45594000000E+02  0.51100000000E-03 0. -1.
         11   -1    0    0    0    0 -0.00000000000E+00 -0.00000000000E+00 -0.45593999997E+02  0.45594000000E+02  0.51100000000E-03 0.  1.
         23    2    1    2    0    0 -0.35527136788E-14  0.00000000000E+00  0.00000000000E+00  0.91188000000E+02  0.91188000000E+02 0.  0.
    9900012    2    3    3    0    0 -0.25113349058E+02 -0.98128446433E+01  0.34009572852E+02  0.47787271130E+02  0.20000000388E+02 0.  0.
        -12    1    3    3    0    0  0.25113349058E+02  0.98128446433E+01 -0.34009572852E+02  0.43400728870E+02  0.00000000000E+00 0.  1.
         11    1    4    4    0    0 -0.91844162626E+01 -0.34851563557E+01  0.66254873048E+01  0.11848919748E+02  0.51100000000E-03 0. -1.
        -11    1    4    4    0    0 -0.37742949457E+01 -0.78042246916E+01  0.40099109217E+01  0.95514716790E+01  0.51100000000E-03 0.  1.
        -12    1    4    4    0    0 -0.12154637850E+02  0.14765364039E+01  0.23374174625E+02  0.26386879703E+02  0.00000000000E+00 0.  1.
</event>
<event>
 8    1  0.5331800E-011  0.9118800E+02  0.7816164E-02  0.1184000E+00
        -11   -1    0    0    0    0  0.00000000000E+00  0.00000000000E+00  0.45593999997E+02  0.45594000000E+02  0.51100000000E-03 0. -1.
         11   -1    0    0    0    0 -0.00000000000E+00 -0.00000000000E+00 -0.45593999997E+02  0.45594000000E+02  0.51100000000E-03 0.  1.
         23    2    1    2    0    0  0.00000000000E+00  0.00000000000E+00  0.00000000000E+00  0.91188000000E+02  0.91188000000E+02 0.  0.
    9900012    2    3    3    0    0 -0.20728174604E+02 -0.15464633950E+02 -0.34854136287E+02  0.47787274868E+02  0.20000017435E+02 0.  0.
         12    1    3    3    0    0  0.20728174604E+02  0.15464633950E+02  0.34854136287E+02  0.43400725132E+02  0.00000000000E+00 0. -1.
         11    1    4    4    0    0 -0.19995787554E+01 -0.33845277489E+01 -0.14485548757E+02  0.15009479216E+02  0.51100000000E-03 0. -1.
        -11    1    4    4    0    0 -0.13433978088E+02 -0.14571511993E+02 -0.16107304437E+02  0.25539106983E+02  0.51100000000E-03 0.  1.
        -12    1    4    4    0    0 -0.52946177606E+01  0.24914057914E+01 -0.42612830936E+01  0.72386886694E+01  0.00000000000E+00 0.  1.
</event>
<event>
 8    1  0.5331800E-011  0.9118800E+02  0.7816164E-02  0.1184000E+00
        -11   -1    0    0    0    0  0.00000000000E+00  0.00000000000E+00  0.45593999997E+02  0.45594000000E+02  0.51100000000E-03 0. -1.
         11   -1    0    0    0    0 -0.00000000000E+00 -0.00000000000E+00 -0.45593999997E+02  0.45594000000E+02  0.51100000000E-03 0.  1.
         23    2    1    2    0    0  0.00000000000E+00  0.00000000000E+00  0.00000000000E+00  0.91188000000E+02  0.91188000000E+02 0.  0.
    9900012    2    3    3    0    0 -0.27303197819E+02  0.25017090937E+02  0.22634126979E+02  0.47787272424E+02  0.20000006288E+02 0.  0.
        -12    1    3    3    0    0  0.27303197819E+02 -0.25017090937E+02 -0.22634126979E+02  0.43400727576E+02  0.00000000000E+00 0.  1.
         11    1    4    4    0    0 -0.10962448458E+02  0.13601206508E+02  0.44106216627E+01  0.18017260568E+02  0.51100000000E-03 0. -1.
        -11    1    4    4    0    0 -0.11926688957E+02  0.70951090430E+00  0.97323469952E+01  0.15409993300E+02  0.51100000000E-03 0.  1.
         12    1    4    4    0    0 -0.44140604036E+01  0.10706373524E+02  0.84911583209E+01  0.14360018555E+02  0.00000000000E+00 0. -1.
</event>
<event>
 8    1  0.5331800E-011  0.9118800E+02  0.7816164E-02  0.1184000E+00
        -11   -1    0    0    0    0  0.00000000000E+00  0.00000000000E+00  0.45593999997E+02  0.45594000000E+02  0.51100000000E-03 0. -1.
         11   -1    0    0    0    0 -0.00000000000E+00 -0.00000000000E+00 -0.45593999997E+02  0.45594000000E+02  0.51100000000E-03 0.  1.
         23    2    1    2    0    0 -0.35527136788E-14 -0.17763568394E-14  0.00000000000E+00  0.91188000000E+02  0.91188000000E+02 0.  0.
    9900012    2    3    3    0    0 -0.22985381285E+02  0.14083878000E+02  0.34013814177E+02  0.47787275038E+02  0.20000018210E+02 0.  0.
        -12    1    3    3    0    0  0.22985381285E+02 -0.14083878000E+02 -0.34013814177E+02  0.43400724962E+02  0.00000000000E+00 0.  1.
         11    1    4    4    0    0 -0.14396402173E+02  0.17230354638E+02  0.23489210449E+02  0.32494376810E+02  0.51100000000E-03 0. -1.
        -11    1    4    4    0    0 -0.61459910936E+01 -0.24442635813E+01  0.28388123720E+01  0.71976723266E+01  0.51100000000E-03 0.  1.
         12    1    4    4    0    0 -0.24429880187E+01 -0.70221305684E+00  0.76857913561E+01  0.80952259021E+01  0.00000000000E+00 0. -1.
</event>
<event>
 8    1  0.5331800E-011  0.9118800E+02  0.7816164E-02  0.1184000E+00
        -11   -1    0    0    0    0  0.00000000000E+00  0.00000000000E+00  0.45593999997E+02  0.45594000000E+02  0.51100000000E-03 0. -1.
         11   -1    0    0    0    0 -0.00000000000E+00 -0.00000000000E+00 -0.45593999997E+02  0.45594000000E+02  0.51100000000E-03 0.  1.
         23    2    1    2    0    0  0.00000000000E+00  0.00000000000E+00  0.00000000000E+00  0.91188000000E+02  0.91188000000E+02 0.  0.
    9900012    2    3    3    0    0 -0.22766589899E+02 -0.14236540214E+02  0.34097330825E+02  0.47787255049E+02  0.19999927071E+02 0.  0.
        -12    1    3    3    0    0  0.22766589899E+02  0.14236540214E+02 -0.34097330825E+02  0.43400744951E+02  0.00000000000E+00 0.  1.
         11    1    4    4    0    0 -0.14366538746E+02 -0.18939101647E+01  0.12336611504E+02  0.19030930480E+02  0.51100000000E-03 0. -1.
        -11    1    4    4    0    0 -0.78147484897E+01 -0.12697093717E+02  0.12459638794E+02  0.19430107615E+02  0.51100000000E-03 0.  1.
        -12    1    4    4    0    0 -0.58530266256E+00  0.35446366705E+00  0.93010805271E+01  0.93262169539E+01  0.00000000000E+00 0.  1.
</event>
<event>
 8    1  0.5331800E-011  0.9118800E+02  0.7816164E-02  0.1184000E+00
        -11   -1    0    0    0    0  0.00000000000E+00  0.00000000000E+00  0.45593999997E+02  0.45594000000E+02  0.51100000000E-03 0.  1.
         11   -1    0    0    0    0 -0.00000000000E+00 -0.00000000000E+00 -0.45593999997E+02  0.45594000000E+02  0.51100000000E-03 0. -1.
         23    2    1    2    0    0  0.00000000000E+00  0.00000000000E+00  0.17763568394E-14  0.91188000000E+02  0.91188000000E+02 0.  0.
    9900012    2    3    3    0    0  0.17260023837E+02  0.39213172494E+02 -0.69312356702E+01  0.47787270192E+02  0.19999996114E+02 0.  0.
        -12    1    3    3    0    0 -0.17260023837E+02 -0.39213172494E+02  0.69312356702E+01  0.43400729808E+02  0.00000000000E+00 0.  1.
         11    1    4    4    0    0  0.33616073075E+00  0.56297264941E+01 -0.52647057994E+01  0.77151767220E+01  0.51100000000E-03 0. -1.
        -11    1    4    4    0    0  0.13574743790E+02  0.23603184211E+02  0.48986137911E+01  0.27665509054E+02  0.51100000000E-03 0.  1.
        -12    1    4    4    0    0  0.33491193161E+01  0.99802617891E+01 -0.65651436618E+01  0.12406584416E+02  0.00000000000E+00 0.  1.
</event>
<event>
 8    1  0.5331800E-011  0.9118800E+02  0.7816164E-02  0.1184000E+00
        -11   -1    0    0    0    0  0.00000000000E+00  0.00000000000E+00  0.45593999997E+02  0.45594000000E+02  0.51100000000E-03 0. -1.
         11   -1    0    0    0    0 -0.00000000000E+00 -0.00000000000E+00 -0.45593999997E+02  0.45594000000E+02  0.51100000000E-03 0.  1.
         23    2    1    2    0    0  0.17763568394E-14  0.00000000000E+00  0.00000000000E+00  0.91188000000E+02  0.91188000000E+02 0.  0.
    9900012    2    3    3    0    0  0.11262952430E+02  0.20772243416E+02 -0.36404436090E+02  0.47787272345E+02  0.20000005929E+02 0.  0.
         12    1    3    3    0    0 -0.11262952430E+02 -0.20772243416E+02  0.36404436090E+02  0.43400727655E+02  0.00000000000E+00 0. -1.
         11    1    4    4    0    0  0.62812823379E+01  0.21808235149E+02 -0.19739893975E+02  0.30078514633E+02  0.51100000000E-03 0. -1.
        -11    1    4    4    0    0  0.25875342633E+01 -0.38927608559E+00 -0.13147169857E+02  0.13405034313E+02  0.51100000000E-03 0.  1.
         12    1    4    4    0    0  0.23941358286E+01 -0.64671564683E+00 -0.35173722575E+01  0.43037233986E+01  0.00000000000E+00 0. -1.
</event>
<event>
 8    1  0.5331800E-011  0.9118800E+02  0.7816164E-02  0.1184000E+00
        -11   -1    0    0    0    0  0.00000000000E+00  0.00000000000E+00  0.45593999997E+02  0.45594000000E+02  0.51100000000E-03 0. -1.
         11   -1    0    0    0    0 -0.00000000000E+00 -0.00000000000E+00 -0.45593999997E+02  0.45594000000E+02  0.51100000000E-03 0.  1.
         23    2    1    2    0    0  0.00000000000E+00 -0.35527136788E-14  0.00000000000E+00  0.91188000000E+02  0.91188000000E+02 0.  0.
    9900012    2    3    3    0    0  0.20765308384E+02  0.25288280346E+02  0.28511897069E+02  0.47787269250E+02  0.19999991817E+02 0.  0.
        -12    1    3    3    0    0 -0.20765308384E+02 -0.25288280346E+02 -0.28511897069E+02  0.43400730750E+02  0.00000000000E+00 0.  1.
         11    1    4    4    0    0 -0.58577805665E+00  0.38344309077E+00  0.78954454503E+01  0.79264256545E+01  0.51100000000E-03 0.  1.
        -11    1    4    4    0    0  0.93747181953E+01  0.81768214822E+01  0.30495927187E+01  0.12808035244E+02  0.51100000000E-03 0. -1.
         12    1    4    4    0    0  0.11976368246E+02  0.16728015773E+02  0.17566858900E+02  0.27052808351E+02  0.00000000000E+00 0. -1.
</event>
<event>
 8    1  0.5331800E-011  0.9118800E+02  0.7816164E-02  0.1184000E+00
        -11   -1    0    0    0    0  0.00000000000E+00  0.00000000000E+00  0.45593999997E+02  0.45594000000E+02  0.51100000000E-03 0. -1.
         11   -1    0    0    0    0 -0.00000000000E+00 -0.00000000000E+00 -0.45593999997E+02  0.45594000000E+02  0.51100000000E-03 0.  1.
         23    2    1    2    0    0  0.00000000000E+00  0.88817841970E-15 -0.35527136788E-14  0.91188000000E+02  0.91188000000E+02 0.  0.
    9900012    2    3    3    0    0  0.32663198137E+02 -0.22257487451E+01 -0.28491790878E+02  0.47787301648E+02  0.20000139532E+02 0.  0.
         12    1    3    3    0    0 -0.32663198137E+02  0.22257487451E+01  0.28491790878E+02  0.43400698352E+02  0.00000000000E+00 0. -1.
         11    1    4    4    0    0  0.23244644012E+01 -0.51227845929E+01 -0.87822878314E+01  0.10429507973E+02  0.51100000000E-03 0. -1.
        -11    1    4    4    0    0  0.13508173005E+02 -0.27136805301E+01 -0.64725129083E+01  0.15222622098E+02  0.51100000000E-03 0.  1.
         12    1    4    4    0    0  0.16830560731E+02  0.56107163779E+01 -0.13236990138E+02  0.22135171577E+02  0.00000000000E+00 0. -1.
</event>
<event>
 8    1  0.5331800E-011  0.9118800E+02  0.7816164E-02  0.1184000E+00
        -11   -1    0    0    0    0  0.00000000000E+00  0.00000000000E+00  0.45593999997E+02  0.45594000000E+02  0.51100000000E-03 0. -1.
         11   -1    0    0    0    0 -0.00000000000E+00 -0.00000000000E+00 -0.45593999997E+02  0.45594000000E+02  0.51100000000E-03 0.  1.
         23    2    1    2    0    0 -0.35527136788E-14  0.00000000000E+00  0.00000000000E+00  0.91188000000E+02  0.91188000000E+02 0.  0.
    9900012    2    3    3    0    0  0.20506501596E+02  0.14870097715E+02 -0.35241846659E+02  0.47787260724E+02  0.19999952946E+02 0.  0.
         12    1    3    3    0    0 -0.20506501596E+02 -0.14870097715E+02  0.35241846659E+02  0.43400739276E+02  0.00000000000E+00 0. -1.
         11    1    4    4    0    0 -0.13351550010E+01  0.39592631669E+01 -0.89613643977E+00  0.42733434780E+01  0.51100000000E-03 0. -1.
        -11    1    4    4    0    0  0.22960137861E+02  0.93551305829E+01 -0.31584653920E+02  0.40153166280E+02  0.51100000000E-03 0.  1.
        -12    1    4    4    0    0 -0.11184812645E+01  0.15557039656E+01 -0.27610562990E+01  0.33607509657E+01  0.00000000000E+00 0.  1.
</event>
<event>
 8    1  0.5331800E-011  0.9118800E+02  0.7816164E-02  0.1184000E+00
        -11   -1    0    0    0    0  0.00000000000E+00  0.00000000000E+00  0.45593999997E+02  0.45594000000E+02  0.51100000000E-03 0. -1.
         11   -1    0    0    0    0 -0.00000000000E+00 -0.00000000000E+00 -0.45593999997E+02  0.45594000000E+02  0.51100000000E-03 0.  1.
         23    2    1    2    0    0  0.00000000000E+00  0.00000000000E+00  0.00000000000E+00  0.91188000000E+02  0.91188000000E+02 0.  0.
    9900012    2    3    3    0    0 -0.22410276312E+01 -0.16996075075E+02  0.39871471818E+02  0.47787273765E+02  0.20000012403E+02 0.  0.
        -12    1    3    3    0    0  0.22410276312E+01  0.16996075075E+02 -0.39871471818E+02  0.43400726235E+02  0.00000000000E+00 0.  1.
         11    1    4    4    0    0 -0.29358882931E+01 -0.15775270998E+02  0.14974068890E+02  0.21947695881E+02  0.51100000000E-03 0. -1.
        -11    1    4    4    0    0  0.84959253390E+00  0.27815304565E+01  0.10585902238E+02  0.10978162215E+02  0.51100000000E-03 0.  1.
         12    1    4    4    0    0 -0.15473187202E+00 -0.40023345335E+01  0.14311500690E+02  0.14861415669E+02  0.00000000000E+00 0. -1.
</event>
<event>
 8    1  0.5331800E-011  0.9118800E+02  0.7816164E-02  0.1184000E+00
        -11   -1    0    0    0    0  0.00000000000E+00  0.00000000000E+00  0.45593999997E+02  0.45594000000E+02  0.51100000000E-03 0. -1.
         11   -1    0    0    0    0 -0.00000000000E+00 -0.00000000000E+00 -0.45593999997E+02  0.45594000000E+02  0.51100000000E-03 0.  1.
         23    2    1    2    0    0  0.00000000000E+00 -0.35527136788E-14  0.00000000000E+00  0.91188000000E+02  0.91188000000E+02 0.  0.
    9900012    2    3    3    0    0  0.16439946157E+02 -0.25657975872E+02 -0.30903387489E+02  0.47787275193E+02  0.20000018914E+02 0.  0.
         12    1    3    3    0    0 -0.16439946157E+02  0.25657975872E+02  0.30903387489E+02  0.43400724807E+02  0.00000000000E+00 0. -1.
         11    1    4    4    0    0 -0.17952477667E+01 -0.65724134061E+01 -0.86187720188E+00  0.68674860828E+01  0.51100000000E-03 0. -1.
        -11    1    4    4    0    0  0.30978510232E+01 -0.69671829442E+01 -0.45070461266E+01  0.88573011798E+01  0.51100000000E-03 0.  1.
         12    1    4    4    0    0  0.15137342901E+02 -0.12118379522E+02 -0.25534464160E+02  0.32062487930E+02  0.00000000000E+00 0. -1.
</event>
<event>
 8    1  0.5331800E-011  0.9118800E+02  0.7816164E-02  0.1184000E+00
        -11   -1    0    0    0    0  0.00000000000E+00  0.00000000000E+00  0.45593999997E+02  0.45594000000E+02  0.51100000000E-03 0. -1.
         11   -1    0    0    0    0 -0.00000000000E+00 -0.00000000000E+00 -0.45593999997E+02  0.45594000000E+02  0.51100000000E-03 0.  1.
         23    2    1    2    0    0  0.00000000000E+00 -0.13322676296E-14  0.00000000000E+00  0.91188000000E+02  0.91188000000E+02 0.  0.
    9900012    2    3    3    0    0 -0.38747843683E+02 -0.22326334357E+01 -0.19422740127E+02  0.47787275626E+02  0.20000020888E+02 0.  0.
         12    1    3    3    0    0  0.38747843683E+02  0.22326334357E+01  0.19422740127E+02  0.43400724374E+02  0.00000000000E+00 0. -1.
         11    1    4    4    0    0 -0.53813171778E+01  0.23257897250E+01  0.20619660437E+00  0.58660369683E+01  0.51100000000E-03 0. -1.
        -11    1    4    4    0    0 -0.13623625460E+02  0.33601947854E+01 -0.14209331243E+02  0.19969956792E+02  0.51100000000E-03 0.  1.
        -12    1    4    4    0    0 -0.19742901045E+02 -0.79186179461E+01 -0.54196054891E+01  0.21951281865E+02  0.00000000000E+00 0.  1.
</event>
<event>
 8    1  0.5331800E-011  0.9118800E+02  0.7816164E-02  0.1184000E+00
        -11   -1    0    0    0    0  0.00000000000E+00  0.00000000000E+00  0.45593999997E+02  0.45594000000E+02  0.51100000000E-03 0.  1.
         11   -1    0    0    0    0 -0.00000000000E+00 -0.00000000000E+00 -0.45593999997E+02  0.45594000000E+02  0.51100000000E-03 0. -1.
         23    2    1    2    0    0  0.00000000000E+00  0.35527136788E-14 -0.35527136788E-14  0.91188000000E+02  0.91188000000E+02 0.  0.
    9900012    2    3    3    0    0 -0.17580165775E+02  0.31078863871E+02 -0.24671140706E+02  0.47787271989E+02  0.20000004306E+02 0.  0.
         12    1    3    3    0    0  0.17580165775E+02 -0.31078863871E+02  0.24671140706E+02  0.43400728011E+02  0.00000000000E+00 0. -1.
         11    1    4    4    0    0 -0.34426069833E+01  0.47750625728E+01 -0.12316061652E+02  0.13650572893E+02  0.51100000000E-03 0. -1.
        -11    1    4    4    0    0 -0.11135802387E+02  0.26357844512E+02 -0.12269312810E+02  0.31133231429E+02  0.51100000000E-03 0.  1.
         12    1    4    4    0    0 -0.30017564041E+01 -0.54043213716E-01 -0.85766243667E-01  0.30034676670E+01  0.00000000000E+00 0. -1.
</event>
<event>
 8    1  0.5331800E-011  0.9118800E+02  0.7816164E-02  0.1184000E+00
        -11   -1    0    0    0    0  0.00000000000E+00  0.00000000000E+00  0.45593999997E+02  0.45594000000E+02  0.51100000000E-03 0. -1.
         11   -1    0    0    0    0 -0.00000000000E+00 -0.00000000000E+00 -0.45593999997E+02  0.45594000000E+02  0.51100000000E-03 0.  1.
         23    2    1    2    0    0  0.88817841970E-15  0.00000000000E+00  0.00000000000E+00  0.91188000000E+02  0.91188000000E+02 0.  0.
    9900012    2    3    3    0    0  0.59316472957E+01 -0.29806698134E+02  0.30983848983E+02  0.47787278911E+02  0.20000035866E+02 0.  0.
        -12    1    3    3    0    0 -0.59316472957E+01  0.29806698134E+02 -0.30983848983E+02  0.43400721089E+02  0.00000000000E+00 0.  1.
         11    1    4    4    0    0 -0.56424426288E+01 -0.68571900447E+01  0.31022684932E+01  0.94065022295E+01  0.51100000000E-03 0. -1.
        -11    1    4    4    0    0  0.40902713571E+01 -0.31906438353E+01  0.45041557941E+01  0.68700762395E+01  0.51100000000E-03 0.  1.
         12    1    4    4    0    0  0.74838185674E+01 -0.19758864254E+02  0.23377424696E+02  0.31510700442E+02  0.00000000000E+00 0. -1.
</event>
<event>
 8    1  0.5331800E-011  0.9118800E+02  0.7816164E-02  0.1184000E+00
        -11   -1    0    0    0    0  0.00000000000E+00  0.00000000000E+00  0.45593999997E+02  0.45594000000E+02  0.51100000000E-03 0. -1.
         11   -1    0    0    0    0 -0.00000000000E+00 -0.00000000000E+00 -0.45593999997E+02  0.45594000000E+02  0.51100000000E-03 0.  1.
         23    2    1    2    0    0  0.00000000000E+00 -0.35527136788E-14  0.00000000000E+00  0.91188000000E+02  0.91188000000E+02 0.  0.
    9900012    2    3    3    0    0 -0.27993278728E+02  0.20881777460E+02  0.25767242299E+02  0.47787273514E+02  0.20000011260E+02 0.  0.
        -12    1    3    3    0    0  0.27993278728E+02 -0.20881777460E+02 -0.25767242299E+02  0.43400726486E+02  0.00000000000E+00 0.  1.
         11    1    4    4    0    0 -0.12779631513E+02  0.16442215764E+02  0.21294024384E+02  0.29784239382E+02  0.51100000000E-03 0. -1.
        -11    1    4    4    0    0 -0.13812661979E+02  0.46953834014E+01  0.14495271937E+01  0.14660743009E+02  0.51100000000E-03 0.  1.
         12    1    4    4    0    0 -0.14009852365E+01 -0.25582170506E+00  0.30236907215E+01  0.33422911239E+01  0.00000000000E+00 0. -1.
</event>
<event>
 8    1  0.5331800E-011  0.9118800E+02  0.7816164E-02  0.1184000E+00
        -11   -1    0    0    0    0  0.00000000000E+00  0.00000000000E+00  0.45593999997E+02  0.45594000000E+02  0.51100000000E-03 0. -1.
         11   -1    0    0    0    0 -0.00000000000E+00 -0.00000000000E+00 -0.45593999997E+02  0.45594000000E+02  0.51100000000E-03 0.  1.
         23    2    1    2    0    0  0.17763568394E-14  0.00000000000E+00  0.00000000000E+00  0.91188000000E+02  0.91188000000E+02 0.  0.
    9900012    2    3    3    0    0 -0.79620074465E+01  0.18381389621E+02  0.38501352993E+02  0.47787271558E+02  0.20000002342E+02 0.  0.
        -12    1    3    3    0    0  0.79620074465E+01 -0.18381389621E+02 -0.38501352993E+02  0.43400728442E+02  0.00000000000E+00 0.  1.
         11    1    4    4    0    0 -0.31046262173E+01  0.11757357143E+02  0.24499292203E+02  0.27351224281E+02  0.51100000000E-03 0. -1.
        -11    1    4    4    0    0 -0.87839621148E+01  0.39645698602E+01  0.67310224024E+01  0.11755103890E+02  0.51100000000E-03 0.  1.
        -12    1    4    4    0    0  0.39265808857E+01  0.26594626178E+01  0.72710383874E+01  0.86809433876E+01  0.00000000000E+00 0.  1.
</event>
<event>
 8    1  0.5331800E-011  0.9118800E+02  0.7816164E-02  0.1184000E+00
        -11   -1    0    0    0    0  0.00000000000E+00  0.00000000000E+00  0.45593999997E+02  0.45594000000E+02  0.51100000000E-03 0. -1.
         11   -1    0    0    0    0 -0.00000000000E+00 -0.00000000000E+00 -0.45593999997E+02  0.45594000000E+02  0.51100000000E-03 0.  1.
         23    2    1    2    0    0  0.00000000000E+00  0.22204460493E-15  0.00000000000E+00  0.91188000000E+02  0.91188000000E+02 0.  0.
    9900012    2    3    3    0    0  0.75015129580E+01 -0.10754713109E+01  0.42733989902E+02  0.47787271571E+02  0.20000002402E+02 0.  0.
        -12    1    3    3    0    0 -0.75015129580E+01  0.10754713109E+01 -0.42733989902E+02  0.43400728429E+02  0.00000000000E+00 0.  1.
         11    1    4    4    0    0 -0.21349506096E+01 -0.71540581167E+01  0.20135630109E+02  0.21475152195E+02  0.51100000000E-03 0. -1.
        -11    1    4    4    0    0  0.95065799351E+01  0.37241548047E+01  0.13576653132E+02  0.16987345337E+02  0.51100000000E-03 0.  1.
        -12    1    4    4    0    0  0.12988363243E+00  0.23544320011E+01  0.90217066612E+01  0.93247740395E+01  0.00000000000E+00 0.  1.
</event>
<event>
 8    1  0.5331800E-011  0.9118800E+02  0.7816164E-02  0.1184000E+00
        -11   -1    0    0    0    0  0.00000000000E+00  0.00000000000E+00  0.45593999997E+02  0.45594000000E+02  0.51100000000E-03 0. -1.
         11   -1    0    0    0    0 -0.00000000000E+00 -0.00000000000E+00 -0.45593999997E+02  0.45594000000E+02  0.51100000000E-03 0.  1.
         23    2    1    2    0    0  0.00000000000E+00  0.00000000000E+00  0.00000000000E+00  0.91188000000E+02  0.91188000000E+02 0.  0.
    9900012    2    3    3    0    0  0.36688306408E+02  0.11297584851E+02 -0.20247379322E+02  0.47787267057E+02  0.19999981820E+02 0.  0.
         12    1    3    3    0    0 -0.36688306408E+02 -0.11297584851E+02  0.20247379322E+02  0.43400732943E+02  0.00000000000E+00 0. -1.
         11    1    4    4    0    0  0.94354533590E+01 -0.29140698605E+01  0.78261819775E+00  0.99061634726E+01  0.51100000000E-03 0. -1.
        -11    1    4    4    0    0  0.19142134177E+02  0.86917608404E+01 -0.17817189813E+02  0.27557580816E+02  0.51100000000E-03 0.  1.
        -12    1    4    4    0    0  0.81107188726E+01  0.55198938714E+01 -0.32128077065E+01  0.10323522768E+02  0.00000000000E+00 0.  1.
</event>
<event>
 8    1  0.5331800E-011  0.9118800E+02  0.7816164E-02  0.1184000E+00
        -11   -1    0    0    0    0  0.00000000000E+00  0.00000000000E+00  0.45593999997E+02  0.45594000000E+02  0.51100000000E-03 0. -1.
         11   -1    0    0    0    0 -0.00000000000E+00 -0.00000000000E+00 -0.45593999997E+02  0.45594000000E+02  0.51100000000E-03 0.  1.
         23    2    1    2    0    0 -0.35527136788E-14  0.33306690739E-15  0.00000000000E+00  0.91188000000E+02  0.91188000000E+02 0.  0.
    9900012    2    3    3    0    0  0.27297893282E+02  0.72107387083E+00 -0.33733192888E+02  0.47787271578E+02  0.20000002432E+02 0.  0.
         12    1    3    3    0    0 -0.27297893282E+02 -0.72107387083E+00  0.33733192888E+02  0.43400728422E+02  0.00000000000E+00 0. -1.
         11    1    4    4    0    0  0.12717362866E+02  0.44427880608E+01 -0.55729866877E+01  0.14578335464E+02  0.51100000000E-03 0. -1.
        -11    1    4    4    0    0  0.82969064602E+01 -0.41592103713E+01 -0.85758568150E+01  0.12636574223E+02  0.51100000000E-03 0.  1.
         12    1    4    4    0    0  0.62836239556E+01  0.43749618124E+00 -0.19584349385E+02  0.20572361891E+02  0.00000000000E+00 0. -1.
</event>
<event>
 8    1  0.5331800E-011  0.9118800E+02  0.7816164E-02  0.1184000E+00
        -11   -1    0    0    0    0  0.00000000000E+00  0.00000000000E+00  0.45593999997E+02  0.45594000000E+02  0.51100000000E-03 0. -1.
         11   -1    0    0    0    0 -0.00000000000E+00 -0.00000000000E+00 -0.45593999997E+02  0.45594000000E+02  0.51100000000E-03 0.  1.
         23    2    1    2    0    0 -0.35527136788E-14 -0.88817841970E-15  0.00000000000E+00  0.91188000000E+02  0.91188000000E+02 0.  0.
    9900012    2    3    3    0    0  0.29704303657E+02  0.76954443767E+01 -0.30692955449E+02  0.47787273807E+02  0.20000012595E+02 0.  0.
         12    1    3    3    0    0 -0.29704303657E+02 -0.76954443767E+01  0.30692955449E+02  0.43400726193E+02  0.00000000000E+00 0. -1.
         11    1    4    4    0    0  0.70496708278E+00  0.37615420146E+00 -0.10453119103E+02  0.10483614349E+02  0.51100000000E-03 0. -1.
        -11    1    4    4    0    0  0.27865968573E+02  0.76852827836E+01 -0.16294816319E+02  0.33182778894E+02  0.51100000000E-03 0.  1.
        -12    1    4    4    0    0  0.11333680015E+01 -0.36599260833E+00 -0.39450200257E+01  0.41208805636E+01  0.00000000000E+00 0.  1.
</event>
<event>
 8    1  0.5331800E-011  0.9118800E+02  0.7816164E-02  0.1184000E+00
        -11   -1    0    0    0    0  0.00000000000E+00  0.00000000000E+00  0.45593999997E+02  0.45594000000E+02  0.51100000000E-03 0. -1.
         11   -1    0    0    0    0 -0.00000000000E+00 -0.00000000000E+00 -0.45593999997E+02  0.45594000000E+02  0.51100000000E-03 0.  1.
         23    2    1    2    0    0  0.00000000000E+00 -0.35527136788E-14  0.00000000000E+00  0.91188000000E+02  0.91188000000E+02 0.  0.
    9900012    2    3    3    0    0  0.23987413736E+02  0.31411030058E+02 -0.17932494804E+02  0.47787271931E+02  0.20000004041E+02 0.  0.
         12    1    3    3    0    0 -0.23987413736E+02 -0.31411030058E+02  0.17932494804E+02  0.43400728069E+02  0.00000000000E+00 0. -1.
         11    1    4    4    0    0  0.11586296704E+02  0.16013691454E+02  0.40247747307E+00  0.19769738836E+02  0.51100000000E-03 0. -1.
        -11    1    4    4    0    0  0.64020165255E+01  0.12975412680E+02 -0.10614517667E+02  0.17944780171E+02  0.51100000000E-03 0.  1.
         12    1    4    4    0    0  0.59991005067E+01  0.24219259245E+01 -0.77204546103E+01  0.10072752924E+02  0.00000000000E+00 0. -1.
</event>
<event>
 8    1  0.5331800E-011  0.9118800E+02  0.7816164E-02  0.1184000E+00
        -11   -1    0    0    0    0  0.00000000000E+00  0.00000000000E+00  0.45593999997E+02  0.45594000000E+02  0.51100000000E-03 0.  1.
         11   -1    0    0    0    0 -0.00000000000E+00 -0.00000000000E+00 -0.45593999997E+02  0.45594000000E+02  0.51100000000E-03 0. -1.
         23    2    1    2    0    0  0.00000000000E+00  0.00000000000E+00  0.00000000000E+00  0.91188000000E+02  0.91188000000E+02 0.  0.
    9900012    2    3    3    0    0 -0.17954527155E+02 -0.38971514196E+02 -0.65176079451E+01  0.47787272156E+02  0.20000005068E+02 0.  0.
         12    1    3    3    0    0  0.17954527155E+02  0.38971514196E+02  0.65176079451E+01  0.43400727844E+02  0.00000000000E+00 0. -1.
         11    1    4    4    0    0 -0.22390210548E+01  0.80959839863E+00  0.51289555059E+00  0.24355136948E+01  0.51100000000E-03 0. -1.
        -11    1    4    4    0    0 -0.15973621995E+01 -0.21159191120E+02 -0.55655656763E+01  0.21937147864E+02  0.51100000000E-03 0.  1.
        -12    1    4    4    0    0 -0.14118143901E+02 -0.18621921474E+02 -0.14649378195E+01  0.23414610597E+02  0.00000000000E+00 0.  1.
</event>
<event>
 8    1  0.5331800E-011  0.9118800E+02  0.7816164E-02  0.1184000E+00
        -11   -1    0    0    0    0  0.00000000000E+00  0.00000000000E+00  0.45593999997E+02  0.45594000000E+02  0.51100000000E-03 0. -1.
         11   -1    0    0    0    0 -0.00000000000E+00 -0.00000000000E+00 -0.45593999997E+02  0.45594000000E+02  0.51100000000E-03 0.  1.
         23    2    1    2    0    0 -0.71054273576E-14  0.00000000000E+00  0.35527136788E-14  0.91188000000E+02  0.91188000000E+02 0.  0.
    9900012    2    3    3    0    0  0.34072297445E+02  0.83835126973E+01  0.25542495207E+02  0.47787264986E+02  0.19999972379E+02 0.  0.
        -12    1    3    3    0    0 -0.34072297445E+02 -0.83835126973E+01 -0.25542495207E+02  0.43400735014E+02  0.00000000000E+00 0.  1.
         11    1    4    4    0    0  0.18701636349E+02  0.79632392722E+01  0.20595209748E+02  0.28936603924E+02  0.51100000000E-03 0. -1.
        -11    1    4    4    0    0  0.12948030788E+02 -0.36480152224E+01  0.38033796707E+01  0.13979456839E+02  0.51100000000E-03 0.  1.
        -12    1    4    4    0    0  0.24226303080E+01  0.40682886475E+01  0.11439057882E+01  0.48712042229E+01  0.00000000000E+00 0.  1.
</event>
<event>
 8    1  0.5331800E-011  0.9118800E+02  0.7816164E-02  0.1184000E+00
        -11   -1    0    0    0    0  0.00000000000E+00  0.00000000000E+00  0.45593999997E+02  0.45594000000E+02  0.51100000000E-03 0.  1.
         11   -1    0    0    0    0 -0.00000000000E+00 -0.00000000000E+00 -0.45593999997E+02  0.45594000000E+02  0.51100000000E-03 0. -1.
         23    2    1    2    0    0  0.00000000000E+00  0.00000000000E+00  0.33306690739E-15  0.91188000000E+02  0.91188000000E+02 0.  0.
    9900012    2    3    3    0    0 -0.35745277367E+02  0.24600161655E+02 -0.85456553683E+00  0.47787273165E+02  0.20000009670E+02 0.  0.
        -12    1    3    3    0    0  0.35745277367E+02 -0.24600161655E+02  0.85456553683E+00  0.43400726835E+02  0.00000000000E+00 0.  1.
         11    1    4    4    0    0 -0.26632445833E+02  0.23484031818E+02  0.15479500783E+01  0.35541286853E+02  0.51100000000E-03 0. -1.
        -11    1    4    4    0    0  0.65260875458E+00 -0.16841561598E+01 -0.73977767618E+00  0.19518072212E+01  0.51100000000E-03 0.  1.
         12    1    4    4    0    0 -0.97654402890E+01  0.28002859972E+01 -0.16627379389E+01  0.10294179091E+02  0.00000000000E+00 0. -1.
</event>
<event>
 8    1  0.5331800E-011  0.9118800E+02  0.7816164E-02  0.1184000E+00
        -11   -1    0    0    0    0  0.00000000000E+00  0.00000000000E+00  0.45593999997E+02  0.45594000000E+02  0.51100000000E-03 0. -1.
         11   -1    0    0    0    0 -0.00000000000E+00 -0.00000000000E+00 -0.45593999997E+02  0.45594000000E+02  0.51100000000E-03 0.  1.
         23    2    1    2    0    0 -0.71054273576E-14 -0.33306690739E-15  0.00000000000E+00  0.91188000000E+02  0.91188000000E+02 0.  0.
    9900012    2    3    3    0    0  0.32606309458E+02 -0.54603356662E+00 -0.28638318554E+02  0.47787275827E+02  0.20000021807E+02 0.  0.
         12    1    3    3    0    0 -0.32606309458E+02  0.54603356662E+00  0.28638318554E+02  0.43400724173E+02  0.00000000000E+00 0. -1.
         11    1    4    4    0    0 -0.14427271344E+01 -0.36337727758E+01 -0.25057143591E+01  0.46437453506E+01  0.51100000000E-03 0. -1.
        -11    1    4    4    0    0  0.20576911302E+02  0.30727730116E+01 -0.14700803162E+02  0.25474788058E+02  0.51100000000E-03 0.  1.
         12    1    4    4    0    0  0.13472125290E+02  0.14966197575E-01 -0.11431801033E+02  0.17668742419E+02  0.00000000000E+00 0. -1.
</event>
<event>
 8    1  0.5331800E-011  0.9118800E+02  0.7816164E-02  0.1184000E+00
        -11   -1    0    0    0    0  0.00000000000E+00  0.00000000000E+00  0.45593999997E+02  0.45594000000E+02  0.51100000000E-03 0. -1.
         11   -1    0    0    0    0 -0.00000000000E+00 -0.00000000000E+00 -0.45593999997E+02  0.45594000000E+02  0.51100000000E-03 0.  1.
         23    2    1    2    0    0  0.00000000000E+00  0.00000000000E+00  0.00000000000E+00  0.91188000000E+02  0.91188000000E+02 0.  0.
    9900012    2    3    3    0    0  0.23485874538E+02  0.20497653362E+02  0.30197409693E+02  0.47787266730E+02  0.19999980330E+02 0.  0.
        -12    1    3    3    0    0 -0.23485874538E+02 -0.20497653362E+02 -0.30197409693E+02  0.43400733270E+02  0.00000000000E+00 0.  1.
         11    1    4    4    0    0  0.25540979970E+01 -0.34303641941E+01  0.72515674535E+01  0.84187912361E+01  0.51100000000E-03 0.  1.
        -11    1    4    4    0    0  0.14317876874E+02  0.16959692452E+02  0.14005169388E+02  0.26244571555E+02  0.51100000000E-03 0. -1.
         12    1    4    4    0    0  0.66138996677E+01  0.69683251037E+01  0.89406728518E+01  0.13123903939E+02  0.00000000000E+00 0. -1.
</event>
<event>
 8    1  0.7238890E-011  0.9118800E+02  0.7816164E-02  0.1184000E+00
        -11   -1    0    0    0    0  0.00000000000E+00  0.00000000000E+00  0.45593999997E+02  0.45594000000E+02  0.51100000000E-03 0. -1.
         11   -1    0    0    0    0 -0.00000000000E+00 -0.00000000000E+00 -0.45593999997E+02  0.45594000000E+02  0.51100000000E-03 0.  1.
         23    2    1    2    0    0  0.00000000000E+00  0.00000000000E+00  0.00000000000E+00  0.91188000000E+02  0.91188000000E+02 0.  0.
    9900012    2    3    3    0    0  0.15138451696E+01 -0.92900472098E+01  0.42367752681E+02  0.47787272223E+02  0.20000005372E+02 0.  0.
        -12    1    3    3    0    0 -0.15138451696E+01  0.92900472098E+01 -0.42367752681E+02  0.43400727777E+02  0.00000000000E+00 0.  1.
         11    1    4    4    0    0 -0.91081592280E+00 -0.64011771279E+01  0.21230920626E+02  0.22193617217E+02  0.51100000000E-03 0. -1.
        -11    1    4    4    0    0 -0.13959861365E+01  0.49381647871E+01  0.11564122348E+02  0.12651607593E+02  0.51100000000E-03 0.  1.
        -12    1    4    4    0    0  0.38206472288E+01 -0.78270348691E+01  0.95727097069E+01  0.12942047412E+02  0.00000000000E+00 0.  1.
</event>
<event>
 8    1  0.5331800E-011  0.9118800E+02  0.7816164E-02  0.1184000E+00
        -11   -1    0    0    0    0  0.00000000000E+00  0.00000000000E+00  0.45593999997E+02  0.45594000000E+02  0.51100000000E-03 0. -1.
         11   -1    0    0    0    0 -0.00000000000E+00 -0.00000000000E+00 -0.45593999997E+02  0.45594000000E+02  0.51100000000E-03 0.  1.
         23    2    1    2    0    0  0.00000000000E+00  0.17763568394E-14 -0.35527136788E-14  0.91188000000E+02  0.91188000000E+02 0.  0.
    9900012    2    3    3    0    0 -0.32512698625E+02 -0.12775085305E+02  0.25755470088E+02  0.47787278625E+02  0.20000034562E+02 0.  0.
        -12    1    3    3    0    0  0.32512698625E+02  0.12775085305E+02 -0.25755470088E+02  0.43400721375E+02  0.00000000000E+00 0.  1.
         11    1    4    4    0    0 -0.95523259352E+01 -0.13655033555E+02  0.14269227182E+02  0.21938954323E+02  0.51100000000E-03 0. -1.
        -11    1    4    4    0    0 -0.61613623799E+01  0.11934734686E+01  0.21959235301E+01  0.66489732823E+01  0.51100000000E-03 0.  1.
         12    1    4    4    0    0 -0.16799010310E+02 -0.31352521879E+00  0.92903193758E+01  0.19199351020E+02  0.00000000000E+00 0. -1.
</event>
<event>
 8    1  0.5331800E-011  0.9118800E+02  0.7816164E-02  0.1184000E+00
        -11   -1    0    0    0    0  0.00000000000E+00  0.00000000000E+00  0.45593999997E+02  0.45594000000E+02  0.51100000000E-03 0. -1.
         11   -1    0    0    0    0 -0.00000000000E+00 -0.00000000000E+00 -0.45593999997E+02  0.45594000000E+02  0.51100000000E-03 0.  1.
         23    2    1    2    0    0  0.17763568394E-14  0.71054273576E-14  0.44408920985E-15  0.91188000000E+02  0.91188000000E+02 0.  0.
    9900012    2    3    3    0    0 -0.10301952335E+02 -0.42156697179E+02  0.55310509447E+00  0.47787271156E+02  0.20000000508E+02 0.  0.
        -12    1    3    3    0    0  0.10301952335E+02  0.42156697179E+02 -0.55310509447E+00  0.43400728844E+02  0.00000000000E+00 0.  1.
         11    1    4    4    0    0 -0.97273303367E+01 -0.25490445683E+02 -0.61058827580E+01  0.27958282872E+02  0.51100000000E-03 0. -1.
        -11    1    4    4    0    0 -0.10251464602E+01 -0.15374789189E+02  0.84512891784E+01  0.17574394923E+02  0.51100000000E-03 0.  1.
         12    1    4    4    0    0  0.45052446242E+00 -0.12914623070E+01 -0.17923013259E+01  0.22545933612E+01  0.00000000000E+00 0. -1.
</event>
<event>
 8    1  0.5331800E-011  0.9118800E+02  0.7816164E-02  0.1184000E+00
        -11   -1    0    0    0    0  0.00000000000E+00  0.00000000000E+00  0.45593999997E+02  0.45594000000E+02  0.51100000000E-03 0. -1.
         11   -1    0    0    0    0 -0.00000000000E+00 -0.00000000000E+00 -0.45593999997E+02  0.45594000000E+02  0.51100000000E-03 0.  1.
         23    2    1    2    0    0  0.00000000000E+00  0.00000000000E+00  0.00000000000E+00  0.91188000000E+02  0.91188000000E+02 0.  0.
    9900012    2    3    3    0    0 -0.30632815673E+02  0.80175193181E+01  0.29681195623E+02  0.47787269756E+02  0.19999994126E+02 0.  0.
        -12    1    3    3    0    0  0.30632815673E+02 -0.80175193181E+01 -0.29681195623E+02  0.43400730244E+02  0.00000000000E+00 0.  1.
         11    1    4    4    0    0 -0.24585747578E+02  0.13727510358E+02  0.19768056101E+02  0.34404644555E+02  0.51100000000E-03 0. -1.
        -11    1    4    4    0    0 -0.20830476777E+01 -0.42713173940E+01  0.57075767604E+01  0.74269558128E+01  0.51100000000E-03 0.  1.
         12    1    4    4    0    0 -0.39640204171E+01 -0.14386736463E+01  0.42055627613E+01  0.59556693886E+01  0.00000000000E+00 0. -1.
</event>
<event>
 8    1  0.5331800E-011  0.9118800E+02  0.7816164E-02  0.1184000E+00
        -11   -1    0    0    0    0  0.00000000000E+00  0.00000000000E+00  0.45593999997E+02  0.45594000000E+02  0.51100000000E-03 0. -1.
         11   -1    0    0    0    0 -0.00000000000E+00 -0.00000000000E+00 -0.45593999997E+02  0.45594000000E+02  0.51100000000E-03 0.  1.
         23    2    1    2    0    0 -0.35527136788E-14  0.00000000000E+00  0.00000000000E+00  0.91188000000E+02  0.91188000000E+02 0.  0.
    9900012    2    3    3    0    0  0.17252790270E+02 -0.19726901045E+02 -0.34595006706E+02  0.47787263994E+02  0.19999967853E+02 0.  0.
         12    1    3    3    0    0 -0.17252790270E+02  0.19726901045E+02  0.34595006706E+02  0.43400736006E+02  0.00000000000E+00 0. -1.
         11    1    4    4    0    0  0.10330496974E+02 -0.10362251549E+02 -0.29737582739E+02  0.33142408668E+02  0.51100000000E-03 0. -1.
        -11    1    4    4    0    0  0.55247106236E+01 -0.94670403518E+01 -0.62926081998E+01  0.12638995162E+02  0.51100000000E-03 0.  1.
         12    1    4    4    0    0  0.13975826726E+01  0.10239085634E+00  0.14351842327E+01  0.20058601636E+01  0.00000000000E+00 0. -1.
</event>
<event>
 8    1  0.5331800E-011  0.9118800E+02  0.7816164E-02  0.1184000E+00
        -11   -1    0    0    0    0  0.00000000000E+00  0.00000000000E+00  0.45593999997E+02  0.45594000000E+02  0.51100000000E-03 0. -1.
         11   -1    0    0    0    0 -0.00000000000E+00 -0.00000000000E+00 -0.45593999997E+02  0.45594000000E+02  0.51100000000E-03 0.  1.
         23    2    1    2    0    0  0.00000000000E+00  0.00000000000E+00  0.00000000000E+00  0.91188000000E+02  0.91188000000E+02 0.  0.
    9900012    2    3    3    0    0 -0.71308028140E+01 -0.33782964680E+02  0.26296128713E+02  0.47787269169E+02  0.19999991450E+02 0.  0.
        -12    1    3    3    0    0  0.71308028140E+01  0.33782964680E+02 -0.26296128713E+02  0.43400730831E+02  0.00000000000E+00 0.  1.
         11    1    4    4    0    0 -0.88788628970E+01 -0.30151162870E+02  0.28447350910E+02  0.42393143347E+02  0.51100000000E-03 0. -1.
        -11    1    4    4    0    0  0.33807751868E+00  0.10367882181E+00 -0.12525547230E+01  0.13015142342E+01  0.51100000000E-03 0.  1.
        -12    1    4    4    0    0  0.14099825643E+01 -0.37354806319E+01 -0.89866747393E+00  0.40926115881E+01  0.00000000000E+00 0.  1.
</event>
<event>
 8    1  0.5331800E-011  0.9118800E+02  0.7816164E-02  0.1184000E+00
        -11   -1    0    0    0    0  0.00000000000E+00  0.00000000000E+00  0.45593999997E+02  0.45594000000E+02  0.51100000000E-03 0. -1.
         11   -1    0    0    0    0 -0.00000000000E+00 -0.00000000000E+00 -0.45593999997E+02  0.45594000000E+02  0.51100000000E-03 0.  1.
         23    2    1    2    0    0  0.00000000000E+00  0.00000000000E+00  0.71054273576E-14  0.91188000000E+02  0.91188000000E+02 0.  0.
    9900012    2    3    3    0    0  0.25972793492E+02 -0.10198836739E+02 -0.33241853611E+02  0.47787273000E+02  0.20000008918E+02 0.  0.
         12    1    3    3    0    0 -0.25972793492E+02  0.10198836739E+02  0.33241853611E+02  0.43400727000E+02  0.00000000000E+00 0. -1.
         11    1    4    4    0    0  0.52376065064E+01  0.26385059207E+01 -0.56658771848E+00  0.58919654882E+01  0.51100000000E-03 0. -1.
        -11    1    4    4    0    0 -0.62520122969E+00 -0.11519132101E+01 -0.43531565655E+01  0.45461800411E+01  0.51100000000E-03 0.  1.
         12    1    4    4    0    0  0.21360388215E+02 -0.11685429450E+02 -0.28322109327E+02  0.37349127471E+02  0.00000000000E+00 0. -1.
</event>
<event>
 8    1  0.6257785E-011  0.9118800E+02  0.7816164E-02  0.1184000E+00
        -11   -1    0    0    0    0  0.00000000000E+00  0.00000000000E+00  0.45593999997E+02  0.45594000000E+02  0.51100000000E-03 0. -1.
         11   -1    0    0    0    0 -0.00000000000E+00 -0.00000000000E+00 -0.45593999997E+02  0.45594000000E+02  0.51100000000E-03 0.  1.
         23    2    1    2    0    0 -0.88817841970E-15  0.00000000000E+00  0.00000000000E+00  0.91188000000E+02  0.91188000000E+02 0.  0.
    9900012    2    3    3    0    0  0.66792831272E+01 -0.16696602939E+02 -0.39499785566E+02  0.47787280737E+02  0.20000044192E+02 0.  0.
         12    1    3    3    0    0 -0.66792831272E+01  0.16696602939E+02  0.39499785566E+02  0.43400719263E+02  0.00000000000E+00 0. -1.
         11    1    4    4    0    0  0.38019345070E+01 -0.35029258717E+01 -0.15334841107E+01  0.53922879594E+01  0.51100000000E-03 0. -1.
        -11    1    4    4    0    0  0.52952166866E+01 -0.13899637436E+02 -0.36649328517E+02  0.39552655051E+02  0.51100000000E-03 0.  1.
        -12    1    4    4    0    0 -0.24178680664E+01  0.70596036932E+00 -0.13169729387E+01  0.28423377264E+01  0.00000000000E+00 0.  1.
</event>
<event>
 8    1  0.5331800E-011  0.9118800E+02  0.7816164E-02  0.1184000E+00
        -11   -1    0    0    0    0  0.00000000000E+00  0.00000000000E+00  0.45593999997E+02  0.45594000000E+02  0.51100000000E-03 0. -1.
         11   -1    0    0    0    0 -0.00000000000E+00 -0.00000000000E+00 -0.45593999997E+02  0.45594000000E+02  0.51100000000E-03 0.  1.
         23    2    1    2    0    0  0.00000000000E+00  0.88817841970E-15  0.00000000000E+00  0.91188000000E+02  0.91188000000E+02 0.  0.
    9900012    2    3    3    0    0 -0.20887795122E+02 -0.78210788288E+01 -0.37231087770E+02  0.47787272407E+02  0.20000006211E+02 0.  0.
         12    1    3    3    0    0  0.20887795122E+02  0.78210788288E+01  0.37231087770E+02  0.43400727593E+02  0.00000000000E+00 0. -1.
         11    1    4    4    0    0 -0.42193882960E+01 -0.29427077112E+01  0.65162728502E+00  0.51853046821E+01  0.51100000000E-03 0. -1.
        -11    1    4    4    0    0 -0.14930190553E+02 -0.58614716875E+01 -0.25976387249E+02  0.30529332371E+02  0.51100000000E-03 0.  1.
         12    1    4    4    0    0 -0.17382162729E+01  0.98310056992E+00 -0.11906327806E+02  0.12072635353E+02  0.00000000000E+00 0. -1.
</event>
<event>
 8    1  0.5331800E-011  0.9118800E+02  0.7816164E-02  0.1184000E+00
        -11   -1    0    0    0    0  0.00000000000E+00  0.00000000000E+00  0.45593999997E+02  0.45594000000E+02  0.51100000000E-03 0. -1.
         11   -1    0    0    0    0 -0.00000000000E+00 -0.00000000000E+00 -0.45593999997E+02  0.45594000000E+02  0.51100000000E-03 0.  1.
         23    2    1    2    0    0  0.00000000000E+00 -0.17763568394E-14  0.35527136788E-14  0.91188000000E+02  0.91188000000E+02 0.  0.
    9900012    2    3    3    0    0  0.37599602200E+02  0.10888636921E+02 -0.18743812709E+02  0.47787274033E+02  0.20000013625E+02 0.  0.
         12    1    3    3    0    0 -0.37599602200E+02 -0.10888636921E+02  0.18743812709E+02  0.43400725967E+02  0.00000000000E+00 0. -1.
         11    1    4    4    0    0  0.12908683855E+02  0.77956000077E+01  0.27748898206E-01  0.15079995644E+02  0.51100000000E-03 0. -1.
        -11    1    4    4    0    0  0.11542481344E+02  0.43110033085E+01 -0.14041498020E+02  0.18680933917E+02  0.51100000000E-03 0.  1.
        -12    1    4    4    0    0  0.13148437001E+02 -0.12179663955E+01 -0.47300635864E+01  0.14026344472E+02  0.00000000000E+00 0.  1.
</event>
<event>
 8    1  0.5331800E-011  0.9118800E+02  0.7816164E-02  0.1184000E+00
        -11   -1    0    0    0    0  0.00000000000E+00  0.00000000000E+00  0.45593999997E+02  0.45594000000E+02  0.51100000000E-03 0. -1.
         11   -1    0    0    0    0 -0.00000000000E+00 -0.00000000000E+00 -0.45593999997E+02  0.45594000000E+02  0.51100000000E-03 0.  1.
         23    2    1    2    0    0 -0.17763568394E-14  0.88817841970E-15 -0.71054273576E-14  0.91188000000E+02  0.91188000000E+02 0.  0.
    9900012    2    3    3    0    0 -0.13376833227E+02 -0.58611586694E+01 -0.40869672741E+02  0.47787274222E+02  0.20000014487E+02 0.  0.
         12    1    3    3    0    0  0.13376833227E+02  0.58611586694E+01  0.40869672741E+02  0.43400725778E+02  0.00000000000E+00 0. -1.
         11    1    4    4    0    0 -0.90474479180E+01 -0.11016905139E+02 -0.21597234902E+02  0.25877964919E+02  0.51100000000E-03 0. -1.
        -11    1    4    4    0    0  0.47584736554E+00  0.30875503558E+01 -0.14484695235E+02  0.14817752671E+02  0.51100000000E-03 0.  1.
         12    1    4    4    0    0 -0.48052326746E+01  0.20681961137E+01 -0.47877426039E+01  0.70915566319E+01  0.00000000000E+00 0. -1.
</event>
<event>
 8    1  0.5331800E-011  0.9118800E+02  0.7816164E-02  0.1184000E+00
        -11   -1    0    0    0    0  0.00000000000E+00  0.00000000000E+00  0.45593999997E+02  0.45594000000E+02  0.51100000000E-03 0. -1.
         11   -1    0    0    0    0 -0.00000000000E+00 -0.00000000000E+00 -0.45593999997E+02  0.45594000000E+02  0.51100000000E-03 0.  1.
         23    2    1    2    0    0  0.00000000000E+00  0.00000000000E+00  0.00000000000E+00  0.91188000000E+02  0.91188000000E+02 0.  0.
    9900012    2    3    3    0    0 -0.42628534365E+02 -0.75036827541E+01 -0.31821659416E+01  0.47787269856E+02  0.19999994580E+02 0.  0.
         12    1    3    3    0    0  0.42628534365E+02  0.75036827541E+01  0.31821659416E+01  0.43400730144E+02  0.00000000000E+00 0. -1.
         11    1    4    4    0    0 -0.15410041054E+00 -0.37029656954E+01 -0.16155527584E+01  0.40429831627E+01  0.51100000000E-03 0. -1.
        -11    1    4    4    0    0 -0.57640154804E+01  0.98753203351E+00 -0.32391581667E+01  0.66851506988E+01  0.51100000000E-03 0.  1.
         12    1    4    4    0    0 -0.36710418474E+02 -0.47882490922E+01  0.16725449835E+01  0.37059135994E+02  0.00000000000E+00 0. -1.
</event>
<event>
 8    1  0.5331800E-011  0.9118800E+02  0.7816164E-02  0.1184000E+00
        -11   -1    0    0    0    0  0.00000000000E+00  0.00000000000E+00  0.45593999997E+02  0.45594000000E+02  0.51100000000E-03 0. -1.
         11   -1    0    0    0    0 -0.00000000000E+00 -0.00000000000E+00 -0.45593999997E+02  0.45594000000E+02  0.51100000000E-03 0.  1.
         23    2    1    2    0    0  0.35527136788E-14 -0.17763568394E-14  0.00000000000E+00  0.91188000000E+02  0.91188000000E+02 0.  0.
    9900012    2    3    3    0    0 -0.26712502257E+02 -0.12673655772E+02  0.31771748327E+02  0.47787270522E+02  0.19999997616E+02 0.  0.
        -12    1    3    3    0    0  0.26712502257E+02  0.12673655772E+02 -0.31771748327E+02  0.43400729478E+02  0.00000000000E+00 0.  1.
         11    1    4    4    0    0 -0.17874924047E+02 -0.12551204970E+02  0.19295265033E+02  0.29143659839E+02  0.51100000000E-03 0. -1.
        -11    1    4    4    0    0 -0.24832548746E+01  0.27982993078E+01  0.10831339132E+02  0.11459273164E+02  0.51100000000E-03 0.  1.
         12    1    4    4    0    0 -0.63543233362E+01 -0.29207501101E+01  0.16451441625E+01  0.71843375186E+01  0.00000000000E+00 0. -1.
</event>
<event>
 8    1  0.5331800E-011  0.9118800E+02  0.7816164E-02  0.1184000E+00
        -11   -1    0    0    0    0  0.00000000000E+00  0.00000000000E+00  0.45593999997E+02  0.45594000000E+02  0.51100000000E-03 0. -1.
         11   -1    0    0    0    0 -0.00000000000E+00 -0.00000000000E+00 -0.45593999997E+02  0.45594000000E+02  0.51100000000E-03 0.  1.
         23    2    1    2    0    0  0.71054273576E-14  0.00000000000E+00  0.00000000000E+00  0.91188000000E+02  0.91188000000E+02 0.  0.
    9900012    2    3    3    0    0  0.38996274979E+02  0.15820237451E+02 -0.10612909911E+02  0.47787271527E+02  0.20000002198E+02 0.  0.
         12    1    3    3    0    0 -0.38996274979E+02 -0.15820237451E+02  0.10612909911E+02  0.43400728473E+02  0.00000000000E+00 0. -1.
         11    1    4    4    0    0  0.14884146732E+02  0.71719168719E+01  0.55465026985E+01  0.17428078150E+02  0.51100000000E-03 0. -1.
        -11    1    4    4    0    0  0.13338122080E+02  0.41145920965E+01 -0.97698970532E+01  0.17037789100E+02  0.51100000000E-03 0.  1.
        -12    1    4    4    0    0  0.10774006167E+02  0.45337284829E+01 -0.63895155563E+01  0.13321404276E+02  0.00000000000E+00 0.  1.
</event>
<event>
 8    1  0.5331800E-011  0.9118800E+02  0.7816164E-02  0.1184000E+00
        -11   -1    0    0    0    0  0.00000000000E+00  0.00000000000E+00  0.45593999997E+02  0.45594000000E+02  0.51100000000E-03 0. -1.
         11   -1    0    0    0    0 -0.00000000000E+00 -0.00000000000E+00 -0.45593999997E+02  0.45594000000E+02  0.51100000000E-03 0.  1.
         23    2    1    2    0    0  0.17763568394E-14 -0.17763568394E-14  0.00000000000E+00  0.91188000000E+02  0.91188000000E+02 0.  0.
    9900012    2    3    3    0    0  0.15331536702E+02  0.14448120131E+02  0.37944948303E+02  0.47787270804E+02  0.19999998905E+02 0.  0.
        -12    1    3    3    0    0 -0.15331536702E+02 -0.14448120131E+02 -0.37944948303E+02  0.43400729196E+02  0.00000000000E+00 0.  1.
         11    1    4    4    0    0  0.12247027062E+02  0.16713175978E+02  0.18321562830E+02  0.27658625923E+02  0.51100000000E-03 0. -1.
        -11    1    4    4    0    0  0.86328346402E+00 -0.17528288467E+01  0.58439737977E+01  0.61619556404E+01  0.51100000000E-03 0.  1.
         12    1    4    4    0    0  0.22212261761E+01 -0.51222700062E+00  0.13779411676E+02  0.13966689241E+02  0.00000000000E+00 0. -1.
</event>
<event>
 8    1  0.5331800E-011  0.9118800E+02  0.7816164E-02  0.1184000E+00
        -11   -1    0    0    0    0  0.00000000000E+00  0.00000000000E+00  0.45593999997E+02  0.45594000000E+02  0.51100000000E-03 0. -1.
         11   -1    0    0    0    0 -0.00000000000E+00 -0.00000000000E+00 -0.45593999997E+02  0.45594000000E+02  0.51100000000E-03 0.  1.
         23    2    1    2    0    0  0.00000000000E+00  0.00000000000E+00  0.00000000000E+00  0.91188000000E+02  0.91188000000E+02 0.  0.
    9900012    2    3    3    0    0 -0.29474606033E+02  0.15576550740E+02  0.27789243536E+02  0.47787269706E+02  0.19999993900E+02 0.  0.
        -12    1    3    3    0    0  0.29474606033E+02 -0.15576550740E+02 -0.27789243536E+02  0.43400730294E+02  0.00000000000E+00 0.  1.
         11    1    4    4    0    0  0.54312316270E+00  0.46292593305E+01 -0.87634179981E+00  0.47426785607E+01  0.51100000000E-03 0.  1.
        -11    1    4    4    0    0 -0.21667862778E+02  0.71345985397E+01  0.18714517425E+02  0.29506472788E+02  0.51100000000E-03 0. -1.
        -12    1    4    4    0    0 -0.83498664175E+01  0.38126928694E+01  0.99510679103E+01  0.13538118358E+02  0.00000000000E+00 0.  1.
</event>
<event>
 8    1  0.5331800E-011  0.9118800E+02  0.7816164E-02  0.1184000E+00
        -11   -1    0    0    0    0  0.00000000000E+00  0.00000000000E+00  0.45593999997E+02  0.45594000000E+02  0.51100000000E-03 0.  1.
         11   -1    0    0    0    0 -0.00000000000E+00 -0.00000000000E+00 -0.45593999997E+02  0.45594000000E+02  0.51100000000E-03 0. -1.
         23    2    1    2    0    0  0.00000000000E+00  0.35527136788E-14  0.00000000000E+00  0.91188000000E+02  0.91188000000E+02 0.  0.
    9900012    2    3    3    0    0  0.31363670662E+02  0.29972359500E+02  0.12653357696E+01  0.47787271366E+02  0.20000001464E+02 0.  0.
         12    1    3    3    0    0 -0.31363670662E+02 -0.29972359500E+02 -0.12653357696E+01  0.43400728634E+02  0.00000000000E+00 0. -1.
         11    1    4    4    0    0  0.58456211361E+01  0.99015458550E+01  0.53659992393E+01  0.12688807859E+02  0.51100000000E-03 0. -1.
        -11    1    4    4    0    0  0.11635413960E+02  0.53359312354E+01 -0.70922052335E+01  0.14634015017E+02  0.51100000000E-03 0.  1.
        -12    1    4    4    0    0  0.13882635566E+02  0.14734882410E+02  0.29915417639E+01  0.20464448490E+02  0.00000000000E+00 0.  1.
</event>
<event>
 8    1  0.5331800E-011  0.9118800E+02  0.7816164E-02  0.1184000E+00
        -11   -1    0    0    0    0  0.00000000000E+00  0.00000000000E+00  0.45593999997E+02  0.45594000000E+02  0.51100000000E-03 0. -1.
         11   -1    0    0    0    0 -0.00000000000E+00 -0.00000000000E+00 -0.45593999997E+02  0.45594000000E+02  0.51100000000E-03 0.  1.
         23    2    1    2    0    0 -0.88817841970E-15  0.00000000000E+00  0.00000000000E+00  0.91188000000E+02  0.91188000000E+02 0.  0.
    9900012    2    3    3    0    0 -0.10658794223E+01  0.34771294346E+02  0.25950808168E+02  0.47787268969E+02  0.19999990537E+02 0.  0.
        -12    1    3    3    0    0  0.10658794223E+01 -0.34771294346E+02 -0.25950808168E+02  0.43400731031E+02  0.00000000000E+00 0.  1.
         11    1    4    4    0    0  0.50633033631E+01  0.20996258023E+02  0.22078252102E+02  0.30885742796E+02  0.51100000000E-03 0. -1.
        -11    1    4    4    0    0 -0.60664472686E+01  0.11170715513E+02  0.54776648454E+01  0.13841657414E+02  0.51100000000E-03 0.  1.
         12    1    4    4    0    0 -0.62735516865E-01  0.26043208104E+01 -0.16051087799E+01  0.30598687593E+01  0.00000000000E+00 0. -1.
</event>
<event>
 8    1  0.5331800E-011  0.9118800E+02  0.7816164E-02  0.1184000E+00
        -11   -1    0    0    0    0  0.00000000000E+00  0.00000000000E+00  0.45593999997E+02  0.45594000000E+02  0.51100000000E-03 0.  1.
         11   -1    0    0    0    0 -0.00000000000E+00 -0.00000000000E+00 -0.45593999997E+02  0.45594000000E+02  0.51100000000E-03 0. -1.
         23    2    1    2    0    0  0.00000000000E+00  0.00000000000E+00  0.00000000000E+00  0.91188000000E+02  0.91188000000E+02 0.  0.
    9900012    2    3    3    0    0 -0.36169896225E+02 -0.17180722331E+02 -0.16738717107E+02  0.47787271168E+02  0.20000000564E+02 0.  0.
         12    1    3    3    0    0  0.36169896225E+02  0.17180722331E+02  0.16738717107E+02  0.43400728832E+02  0.00000000000E+00 0. -1.
         11    1    4    4    0    0 -0.20882463790E+01 -0.61398786134E+01  0.69597980926E+00  0.65225202554E+01  0.51100000000E-03 0. -1.
        -11    1    4    4    0    0 -0.27991328936E+02 -0.47243136499E+01 -0.15242565101E+02  0.32220636651E+02  0.51100000000E-03 0.  1.
         12    1    4    4    0    0 -0.60903209097E+01 -0.63165300676E+01 -0.21921318160E+01  0.90441142616E+01  0.00000000000E+00 0. -1.
</event>
<event>
 8    1  0.5331800E-011  0.9118800E+02  0.7816164E-02  0.1184000E+00
        -11   -1    0    0    0    0  0.00000000000E+00  0.00000000000E+00  0.45593999997E+02  0.45594000000E+02  0.51100000000E-03 0. -1.
         11   -1    0    0    0    0 -0.00000000000E+00 -0.00000000000E+00 -0.45593999997E+02  0.45594000000E+02  0.51100000000E-03 0.  1.
         23    2    1    2    0    0  0.00000000000E+00  0.35527136788E-14 -0.35527136788E-14  0.91188000000E+02  0.91188000000E+02 0.  0.
    9900012    2    3    3    0    0  0.21885201217E+02 -0.22219742368E+02  0.30181862354E+02  0.47787265002E+02  0.19999972451E+02 0.  0.
        -12    1    3    3    0    0 -0.21885201217E+02  0.22219742368E+02 -0.30181862354E+02  0.43400734998E+02  0.00000000000E+00 0.  1.
         11    1    4    4    0    0  0.11721083659E+02 -0.17716729515E+02  0.11421626208E+02  0.24118869218E+02  0.51100000000E-03 0. -1.
        -11    1    4    4    0    0  0.73578069541E+01  0.34631172224E+00  0.52586333745E+01  0.90504408849E+01  0.51100000000E-03 0.  1.
         12    1    4    4    0    0  0.28063106033E+01 -0.48493245746E+01  0.13501602772E+02  0.14617954899E+02  0.00000000000E+00 0. -1.
</event>
<event>
 8    1  0.5331800E-011  0.9118800E+02  0.7816164E-02  0.1184000E+00
        -11   -1    0    0    0    0  0.00000000000E+00  0.00000000000E+00  0.45593999997E+02  0.45594000000E+02  0.51100000000E-03 0. -1.
         11   -1    0    0    0    0 -0.00000000000E+00 -0.00000000000E+00 -0.45593999997E+02  0.45594000000E+02  0.51100000000E-03 0.  1.
         23    2    1    2    0    0  0.00000000000E+00  0.00000000000E+00  0.00000000000E+00  0.91188000000E+02  0.91188000000E+02 0.  0.
    9900012    2    3    3    0    0 -0.19903026604E+02  0.23698834508E+02 -0.30427948121E+02  0.47787248257E+02  0.19999896102E+02 0.  0.
         12    1    3    3    0    0  0.19903026604E+02 -0.23698834508E+02  0.30427948121E+02  0.43400751743E+02  0.00000000000E+00 0. -1.
         11    1    4    4    0    0 -0.55062804994E+01  0.47621699916E+01 -0.20038204728E+02  0.21319639700E+02  0.51100000000E-03 0. -1.
        -11    1    4    4    0    0 -0.54436562493E+01  0.60171356542E+01 -0.10451416388E+01  0.81811757192E+01  0.51100000000E-03 0.  1.
         12    1    4    4    0    0 -0.89530898553E+01  0.12919528862E+02 -0.93446017544E+01  0.18286432838E+02  0.00000000000E+00 0. -1.
</event>
<event>
 8    1  0.5331800E-011  0.9118800E+02  0.7816164E-02  0.1184000E+00
        -11   -1    0    0    0    0  0.00000000000E+00  0.00000000000E+00  0.45593999997E+02  0.45594000000E+02  0.51100000000E-03 0. -1.
         11   -1    0    0    0    0 -0.00000000000E+00 -0.00000000000E+00 -0.45593999997E+02  0.45594000000E+02  0.51100000000E-03 0.  1.
         23    2    1    2    0    0  0.35527136788E-14 -0.71054273576E-14 -0.35527136788E-14  0.91188000000E+02  0.91188000000E+02 0.  0.
    9900012    2    3    3    0    0 -0.19048799157E+02 -0.29095071593E+02 -0.25966189344E+02  0.47787275014E+02  0.20000018099E+02 0.  0.
         12    1    3    3    0    0  0.19048799157E+02  0.29095071593E+02  0.25966189344E+02  0.43400724986E+02  0.00000000000E+00 0. -1.
         11    1    4    4    0    0  0.14129871849E+01 -0.21207838926E+01  0.17924063511E+01  0.31156023322E+01  0.51100000000E-03 0. -1.
        -11    1    4    4    0    0 -0.40393381781E+01 -0.94666085672E+01 -0.12650340126E+02  0.16308403854E+02  0.51100000000E-03 0.  1.
         12    1    4    4    0    0 -0.16422448164E+02 -0.17507679133E+02 -0.15108255568E+02  0.28363268828E+02  0.00000000000E+00 0. -1.
</event>
<event>
 8    1  0.5331800E-011  0.9118800E+02  0.7816164E-02  0.1184000E+00
        -11   -1    0    0    0    0  0.00000000000E+00  0.00000000000E+00  0.45593999997E+02  0.45594000000E+02  0.51100000000E-03 0. -1.
         11   -1    0    0    0    0 -0.00000000000E+00 -0.00000000000E+00 -0.45593999997E+02  0.45594000000E+02  0.51100000000E-03 0.  1.
         23    2    1    2    0    0  0.00000000000E+00  0.00000000000E+00  0.35527136788E-14  0.91188000000E+02  0.91188000000E+02 0.  0.
    9900012    2    3    3    0    0  0.22540191123E+02 -0.26662494193E+02 -0.25781281347E+02  0.47787270970E+02  0.19999999660E+02 0.  0.
         12    1    3    3    0    0 -0.22540191123E+02  0.26662494193E+02  0.25781281347E+02  0.43400729030E+02  0.00000000000E+00 0. -1.
         11    1    4    4    0    0  0.24101117453E+02 -0.24927725119E+02 -0.19630262068E+02  0.39844730281E+02  0.51100000000E-03 0. -1.
        -11    1    4    4    0    0 -0.68761196070E+00 -0.28178902812E+01 -0.58343863573E+01  0.65156258543E+01  0.51100000000E-03 0.  1.
         12    1    4    4    0    0 -0.87331436856E+00  0.10831212077E+01 -0.31663292158E+00  0.14269148341E+01  0.00000000000E+00 0. -1.
</event>
<event>
 8    1  0.5331800E-011  0.9118800E+02  0.7816164E-02  0.1184000E+00
        -11   -1    0    0    0    0  0.00000000000E+00  0.00000000000E+00  0.45593999997E+02  0.45594000000E+02  0.51100000000E-03 0.  1.
         11   -1    0    0    0    0 -0.00000000000E+00 -0.00000000000E+00 -0.45593999997E+02  0.45594000000E+02  0.51100000000E-03 0. -1.
         23    2    1    2    0    0  0.00000000000E+00  0.00000000000E+00  0.00000000000E+00  0.91188000000E+02  0.91188000000E+02 0.  0.
    9900012    2    3    3    0    0 -0.37058336499E+02  0.93460776014E+01  0.20565840347E+02  0.47787271207E+02  0.20000000739E+02 0.  0.
        -12    1    3    3    0    0  0.37058336499E+02 -0.93460776014E+01 -0.20565840347E+02  0.43400728793E+02  0.00000000000E+00 0.  1.
         11    1    4    4    0    0 -0.14877739030E+02 -0.25807359800E+01  0.50089298044E+01  0.15909013008E+02  0.51100000000E-03 0. -1.
        -11    1    4    4    0    0 -0.26832700766E+01  0.67376521368E+01  0.65905855490E+01  0.97995771726E+01  0.51100000000E-03 0.  1.
        -12    1    4    4    0    0 -0.19497327393E+02  0.51891614446E+01  0.89663249938E+01  0.22078681026E+02  0.00000000000E+00 0.  1.
</event>
<event>
 8    1  0.5331800E-011  0.9118800E+02  0.7816164E-02  0.1184000E+00
        -11   -1    0    0    0    0  0.00000000000E+00  0.00000000000E+00  0.45593999997E+02  0.45594000000E+02  0.51100000000E-03 0. -1.
         11   -1    0    0    0    0 -0.00000000000E+00 -0.00000000000E+00 -0.45593999997E+02  0.45594000000E+02  0.51100000000E-03 0.  1.
         23    2    1    2    0    0  0.00000000000E+00  0.00000000000E+00  0.00000000000E+00  0.91188000000E+02  0.91188000000E+02 0.  0.
    9900012    2    3    3    0    0  0.18059595654E+01  0.10697916239E+02  0.42022804113E+02  0.47787274576E+02  0.20000016101E+02 0.  0.
        -12    1    3    3    0    0 -0.18059595654E+01 -0.10697916239E+02 -0.42022804113E+02  0.43400725424E+02  0.00000000000E+00 0.  1.
         11    1    4    4    0    0 -0.12861367504E+01  0.98784803878E+01  0.11108162739E+02  0.14920784236E+02  0.51100000000E-03 0. -1.
        -11    1    4    4    0    0  0.57581806135E+01 -0.28272212088E+01  0.14794130801E+02  0.16125015664E+02  0.51100000000E-03 0.  1.
         12    1    4    4    0    0 -0.26660842978E+01  0.36466570602E+01  0.16120510573E+02  0.16741474676E+02  0.00000000000E+00 0. -1.
</event>
<event>
 8    1  0.5331800E-011  0.9118800E+02  0.7816164E-02  0.1184000E+00
        -11   -1    0    0    0    0  0.00000000000E+00  0.00000000000E+00  0.45593999997E+02  0.45594000000E+02  0.51100000000E-03 0.  1.
         11   -1    0    0    0    0 -0.00000000000E+00 -0.00000000000E+00 -0.45593999997E+02  0.45594000000E+02  0.51100000000E-03 0. -1.
         23    2    1    2    0    0  0.71054273576E-14  0.33306690739E-15  0.00000000000E+00  0.91188000000E+02  0.91188000000E+02 0.  0.
    9900012    2    3    3    0    0  0.39451342021E+02 -0.98961428464E+00  0.18061995841E+02  0.47787269390E+02  0.19999992458E+02 0.  0.
        -12    1    3    3    0    0 -0.39451342021E+02  0.98961428464E+00 -0.18061995841E+02  0.43400730610E+02  0.00000000000E+00 0.  1.
         11    1    4    4    0    0  0.12404047096E+02  0.40939805616E+01  0.11612819689E+02  0.17477947322E+02  0.51100000000E-03 0.  1.
        -11    1    4    4    0    0  0.88771332884E+01 -0.59504357241E+01 -0.82330942073E+00  0.10718629548E+02  0.51100000000E-03 0. -1.
         12    1    4    4    0    0  0.18170161637E+02  0.86684087778E+00  0.72724855725E+01  0.19590692520E+02  0.00000000000E+00 0. -1.
</event>
<event>
 8    1  0.5331800E-011  0.9118800E+02  0.7816164E-02  0.1184000E+00
        -11   -1    0    0    0    0  0.00000000000E+00  0.00000000000E+00  0.45593999997E+02  0.45594000000E+02  0.51100000000E-03 0. -1.
         11   -1    0    0    0    0 -0.00000000000E+00 -0.00000000000E+00 -0.45593999997E+02  0.45594000000E+02  0.51100000000E-03 0.  1.
         23    2    1    2    0    0  0.20816681712E-16  0.00000000000E+00  0.00000000000E+00  0.91188000000E+02  0.91188000000E+02 0.  0.
    9900012    2    3    3    0    0 -0.38738116656E-01  0.41663795474E+02 -0.12155241594E+02  0.47787271295E+02  0.20000001142E+02 0.  0.
         12    1    3    3    0    0  0.38738116656E-01 -0.41663795474E+02  0.12155241594E+02  0.43400728705E+02  0.00000000000E+00 0. -1.
         11    1    4    4    0    0 -0.11892665762E+01  0.21664360570E+02  0.38160474073E+01  0.22030004357E+02  0.51100000000E-03 0. -1.
        -11    1    4    4    0    0  0.18898959304E+01  0.97635814875E+01 -0.77734459976E+01  0.12622428175E+02  0.51100000000E-03 0.  1.
         12    1    4    4    0    0 -0.73936747086E+00  0.10235853417E+02 -0.81978430036E+01  0.13134838763E+02  0.00000000000E+00 0. -1.
</event>
<event>
 8    1  0.5536149E-011  0.9118800E+02  0.7816164E-02  0.1184000E+00
        -11   -1    0    0    0    0  0.00000000000E+00  0.00000000000E+00  0.45593999997E+02  0.45594000000E+02  0.51100000000E-03 0. -1.
         11   -1    0    0    0    0 -0.00000000000E+00 -0.00000000000E+00 -0.45593999997E+02  0.45594000000E+02  0.51100000000E-03 0.  1.
         23    2    1    2    0    0  0.00000000000E+00  0.00000000000E+00 -0.71054273576E-14  0.91188000000E+02  0.91188000000E+02 0.  0.
    9900012    2    3    3    0    0  0.25455327765E+02 -0.91393252620E+00 -0.35139926486E+02  0.47787269388E+02  0.19999992447E+02 0.  0.
         12    1    3    3    0    0 -0.25455327765E+02  0.91393252620E+00  0.35139926486E+02  0.43400730612E+02  0.00000000000E+00 0. -1.
         11    1    4    4    0    0 -0.17486922847E+01  0.32179012858E+00 -0.12012490139E+01  0.21458035903E+01  0.51100000000E-03 0. -1.
        -11    1    4    4    0    0  0.21884701777E+02  0.92786893942E+00 -0.33307129310E+02  0.39864344668E+02  0.51100000000E-03 0.  1.
        -12    1    4    4    0    0  0.53193182723E+01 -0.21635915942E+01 -0.63154816153E+00  0.57771211298E+01  0.00000000000E+00 0.  1.
</event>
<event>
 8    1  0.5331800E-011  0.9118800E+02  0.7816164E-02  0.1184000E+00
        -11   -1    0    0    0    0  0.00000000000E+00  0.00000000000E+00  0.45593999997E+02  0.45594000000E+02  0.51100000000E-03 0. -1.
         11   -1    0    0    0    0 -0.00000000000E+00 -0.00000000000E+00 -0.45593999997E+02  0.45594000000E+02  0.51100000000E-03 0.  1.
         23    2    1    2    0    0 -0.11102230246E-14  0.00000000000E+00  0.00000000000E+00  0.91188000000E+02  0.91188000000E+02 0.  0.
    9900012    2    3    3    0    0 -0.17358787790E+01  0.19394270210E+02 -0.38787530352E+02  0.47787268406E+02  0.19999987971E+02 0.  0.
         12    1    3    3    0    0  0.17358787790E+01 -0.19394270210E+02  0.38787530352E+02  0.43400731594E+02  0.00000000000E+00 0. -1.
         11    1    4    4    0    0  0.48794800544E+01  0.10268799451E+02 -0.21775293950E+02  0.24564628934E+02  0.51100000000E-03 0.  1.
        -11    1    4    4    0    0 -0.27607971886E+01 -0.42901980146E+00 -0.10880092527E+02  0.11233097203E+02  0.51100000000E-03 0. -1.
         12    1    4    4    0    0 -0.38545616447E+01  0.95544905601E+01 -0.61321438738E+01  0.11989542269E+02  0.00000000000E+00 0. -1.
</event>
<event>
 8    1  0.5331800E-011  0.9118800E+02  0.7816164E-02  0.1184000E+00
        -11   -1    0    0    0    0  0.00000000000E+00  0.00000000000E+00  0.45593999997E+02  0.45594000000E+02  0.51100000000E-03 0. -1.
         11   -1    0    0    0    0 -0.00000000000E+00 -0.00000000000E+00 -0.45593999997E+02  0.45594000000E+02  0.51100000000E-03 0.  1.
         23    2    1    2    0    0  0.00000000000E+00  0.00000000000E+00  0.35527136788E-14  0.91188000000E+02  0.91188000000E+02 0.  0.
    9900012    2    3    3    0    0 -0.45920120340E+01  0.35257886175E+02 -0.24888106518E+02  0.47787274683E+02  0.20000016588E+02 0.  0.
         12    1    3    3    0    0  0.45920120340E+01 -0.35257886175E+02  0.24888106518E+02  0.43400725317E+02  0.00000000000E+00 0. -1.
         11    1    4    4    0    0 -0.28298707495E+01  0.11812480607E+02 -0.59018879552E+00  0.12161052160E+02  0.51100000000E-03 0. -1.
        -11    1    4    4    0    0 -0.45428259883E+01  0.18289855665E+02 -0.22799545046E+02  0.29579982130E+02  0.51100000000E-03 0.  1.
         12    1    4    4    0    0  0.27806847038E+01  0.51555499022E+01 -0.14983726760E+01  0.60462403932E+01  0.00000000000E+00 0. -1.
</event>
<event>
 8    1  0.5331800E-011  0.9118800E+02  0.7816164E-02  0.1184000E+00
        -11   -1    0    0    0    0  0.00000000000E+00  0.00000000000E+00  0.45593999997E+02  0.45594000000E+02  0.51100000000E-03 0. -1.
         11   -1    0    0    0    0 -0.00000000000E+00 -0.00000000000E+00 -0.45593999997E+02  0.45594000000E+02  0.51100000000E-03 0.  1.
         23    2    1    2    0    0  0.00000000000E+00  0.35527136788E-14  0.00000000000E+00  0.91188000000E+02  0.91188000000E+02 0.  0.
    9900012    2    3    3    0    0  0.19720703849E+02 -0.20331860274E+02 -0.32883626327E+02  0.47787267484E+02  0.19999983766E+02 0.  0.
         12    1    3    3    0    0 -0.19720703849E+02  0.20331860274E+02  0.32883626327E+02  0.43400732516E+02  0.00000000000E+00 0. -1.
         11    1    4    4    0    0  0.86926614654E+00 -0.65644858226E+01 -0.11219146295E+01  0.67161589057E+01  0.51100000000E-03 0. -1.
        -11    1    4    4    0    0  0.10658823515E+02 -0.33914999878E+01 -0.21854152139E+02  0.24550290363E+02  0.51100000000E-03 0.  1.
        -12    1    4    4    0    0  0.81926141875E+01 -0.10375874464E+02 -0.99075595579E+01  0.16520818216E+02  0.00000000000E+00 0.  1.
</event>
<event>
 8    1  0.5331800E-011  0.9118800E+02  0.7816164E-02  0.1184000E+00
        -11   -1    0    0    0    0  0.00000000000E+00  0.00000000000E+00  0.45593999997E+02  0.45594000000E+02  0.51100000000E-03 0.  1.
         11   -1    0    0    0    0 -0.00000000000E+00 -0.00000000000E+00 -0.45593999997E+02  0.45594000000E+02  0.51100000000E-03 0. -1.
         23    2    1    2    0    0  0.35527136788E-14 -0.35527136788E-14  0.35527136788E-14  0.91188000000E+02  0.91188000000E+02 0.  0.
    9900012    2    3    3    0    0 -0.24948177509E+02 -0.26087843186E+02 -0.24096393639E+02  0.47787270634E+02  0.19999998129E+02 0.  0.
         12    1    3    3    0    0  0.24948177509E+02  0.26087843186E+02  0.24096393639E+02  0.43400729366E+02  0.00000000000E+00 0. -1.
         11    1    4    4    0    0  0.14475053473E+01 -0.12312736001E+01  0.16641197395E+01  0.25259851895E+01  0.51100000000E-03 0. -1.
        -11    1    4    4    0    0 -0.35690466787E+00 -0.14265358750E+01  0.42107366554E+00  0.15296041440E+01  0.51100000000E-03 0.  1.
         12    1    4    4    0    0 -0.26038778188E+02 -0.23430033711E+02 -0.26181587044E+02  0.43731681300E+02  0.00000000000E+00 0. -1.
</event>
<event>
 8    1  0.5331800E-011  0.9118800E+02  0.7816164E-02  0.1184000E+00
        -11   -1    0    0    0    0  0.00000000000E+00  0.00000000000E+00  0.45593999997E+02  0.45594000000E+02  0.51100000000E-03 0. -1.
         11   -1    0    0    0    0 -0.00000000000E+00 -0.00000000000E+00 -0.45593999997E+02  0.45594000000E+02  0.51100000000E-03 0.  1.
         23    2    1    2    0    0  0.00000000000E+00  0.00000000000E+00  0.00000000000E+00  0.91188000000E+02  0.91188000000E+02 0.  0.
    9900012    2    3    3    0    0  0.99329424609E+01 -0.10252355439E+02 -0.40985956375E+02  0.47787276988E+02  0.20000027099E+02 0.  0.
         12    1    3    3    0    0 -0.99329424609E+01  0.10252355439E+02  0.40985956375E+02  0.43400723012E+02  0.00000000000E+00 0. -1.
         11    1    4    4    0    0  0.45840857826E+01 -0.10019506421E+02 -0.31897333663E+02  0.33746766459E+02  0.51100000000E-03 0. -1.
        -11    1    4    4    0    0  0.78467812420E+01 -0.33998369792E+00 -0.82805816125E+01  0.11412957412E+02  0.51100000000E-03 0.  1.
         12    1    4    4    0    0 -0.24979245637E+01  0.10713468043E+00 -0.80804109997E+00  0.26275531174E+01  0.00000000000E+00 0. -1.
</event>
<event>
 8    1  0.5331800E-011  0.9118800E+02  0.7816164E-02  0.1184000E+00
        -11   -1    0    0    0    0  0.00000000000E+00  0.00000000000E+00  0.45593999997E+02  0.45594000000E+02  0.51100000000E-03 0.  1.
         11   -1    0    0    0    0 -0.00000000000E+00 -0.00000000000E+00 -0.45593999997E+02  0.45594000000E+02  0.51100000000E-03 0. -1.
         23    2    1    2    0    0 -0.35527136788E-14  0.00000000000E+00  0.00000000000E+00  0.91188000000E+02  0.91188000000E+02 0.  0.
    9900012    2    3    3    0    0  0.24436203201E+02  0.35279829603E+02 -0.64675269648E+01  0.47787270643E+02  0.19999998171E+02 0.  0.
         12    1    3    3    0    0 -0.24436203201E+02 -0.35279829603E+02  0.64675269648E+01  0.43400729357E+02  0.00000000000E+00 0. -1.
         11    1    4    4    0    0  0.86076233279E+01  0.15857319031E+01  0.61370298386E+00  0.87739590059E+01  0.51100000000E-03 0. -1.
        -11    1    4    4    0    0  0.15868483556E+02  0.27887437465E+02 -0.37126705440E+01  0.32300183615E+02  0.51100000000E-03 0.  1.
         12    1    4    4    0    0 -0.39903683599E-01  0.58066602341E+01 -0.33685594046E+01  0.67131280221E+01  0.00000000000E+00 0. -1.
</event>
<event>
 8    1  0.5331800E-011  0.9118800E+02  0.7816164E-02  0.1184000E+00
        -11   -1    0    0    0    0  0.00000000000E+00  0.00000000000E+00  0.45593999997E+02  0.45594000000E+02  0.51100000000E-03 0. -1.
         11   -1    0    0    0    0 -0.00000000000E+00 -0.00000000000E+00 -0.45593999997E+02  0.45594000000E+02  0.51100000000E-03 0.  1.
         23    2    1    2    0    0  0.35527136788E-14  0.00000000000E+00  0.00000000000E+00  0.91188000000E+02  0.91188000000E+02 0.  0.
    9900012    2    3    3    0    0  0.22283449238E+02  0.18260166521E+02  0.32459776635E+02  0.47787275461E+02  0.20000020136E+02 0.  0.
        -12    1    3    3    0    0 -0.22283449238E+02 -0.18260166521E+02 -0.32459776635E+02  0.43400724539E+02  0.00000000000E+00 0.  1.
         11    1    4    4    0    0  0.22346970859E+01 -0.65062820436E-01  0.88266387243E+01  0.91053641150E+01  0.51100000000E-03 0. -1.
        -11    1    4    4    0    0  0.21825715617E+02  0.14808553898E+02  0.18525749641E+02  0.32231328405E+02  0.51100000000E-03 0.  1.
        -12    1    4    4    0    0 -0.17769634650E+01  0.35166754437E+01  0.51073882702E+01  0.64505829407E+01  0.00000000000E+00 0.  1.
</event>
<event>
 8    1  0.5331800E-011  0.9118800E+02  0.7816164E-02  0.1184000E+00
        -11   -1    0    0    0    0  0.00000000000E+00  0.00000000000E+00  0.45593999997E+02  0.45594000000E+02  0.51100000000E-03 0.  1.
         11   -1    0    0    0    0 -0.00000000000E+00 -0.00000000000E+00 -0.45593999997E+02  0.45594000000E+02  0.51100000000E-03 0. -1.
         23    2    1    2    0    0 -0.17763568394E-14 -0.71054273576E-14  0.00000000000E+00  0.91188000000E+02  0.91188000000E+02 0.  0.
    9900012    2    3    3    0    0  0.92918008752E+01 -0.40353746860E+02 -0.12994644644E+02  0.47787271451E+02  0.20000001854E+02 0.  0.
        -12    1    3    3    0    0 -0.92918008752E+01  0.40353746860E+02  0.12994644644E+02  0.43400728549E+02  0.00000000000E+00 0.  1.
         11    1    4    4    0    0  0.19402680317E+01  0.40827131023E-01  0.18502321841E+01  0.26813553076E+01  0.51100000000E-03 0. -1.
        -11    1    4    4    0    0  0.93628314400E+01 -0.27312030560E+02 -0.13271634124E+02  0.31776499154E+02  0.51100000000E-03 0.  1.
         12    1    4    4    0    0 -0.20112985965E+01 -0.13082543432E+02 -0.15732427040E+01  0.13329416990E+02  0.00000000000E+00 0. -1.
</event>
<event>
 8    1  0.5331800E-011  0.9118800E+02  0.7816164E-02  0.1184000E+00
        -11   -1    0    0    0    0  0.00000000000E+00  0.00000000000E+00  0.45593999997E+02  0.45594000000E+02  0.51100000000E-03 0. -1.
         11   -1    0    0    0    0 -0.00000000000E+00 -0.00000000000E+00 -0.45593999997E+02  0.45594000000E+02  0.51100000000E-03 0.  1.
         23    2    1    2    0    0  0.00000000000E+00 -0.35527136788E-14  0.00000000000E+00  0.91188000000E+02  0.91188000000E+02 0.  0.
    9900012    2    3    3    0    0  0.45735985842E+01  0.27179445024E+02  0.33525857676E+02  0.47787272256E+02  0.20000005522E+02 0.  0.
        -12    1    3    3    0    0 -0.45735985842E+01 -0.27179445024E+02 -0.33525857676E+02  0.43400727744E+02  0.00000000000E+00 0.  1.
         11    1    4    4    0    0  0.73594935933E+01  0.16170798485E+02  0.29491316405E+02  0.34429560165E+02  0.51100000000E-03 0. -1.
        -11    1    4    4    0    0 -0.12853510569E+01  0.20752981337E+01 -0.13801682726E+01  0.28042564799E+01  0.51100000000E-03 0.  1.
         12    1    4    4    0    0 -0.15005439522E+01  0.89333484049E+01  0.54147095439E+01  0.10553455610E+02  0.00000000000E+00 0. -1.
</event>
<event>
 8    1  0.5331800E-011  0.9118800E+02  0.7816164E-02  0.1184000E+00
        -11   -1    0    0    0    0  0.00000000000E+00  0.00000000000E+00  0.45593999997E+02  0.45594000000E+02  0.51100000000E-03 0. -1.
         11   -1    0    0    0    0 -0.00000000000E+00 -0.00000000000E+00 -0.45593999997E+02  0.45594000000E+02  0.51100000000E-03 0.  1.
         23    2    1    2    0    0  0.00000000000E+00  0.00000000000E+00  0.00000000000E+00  0.91188000000E+02  0.91188000000E+02 0.  0.
    9900012    2    3    3    0    0  0.52086955268E+01  0.27552502090E+02  0.33126251777E+02  0.47787315244E+02  0.20000201523E+02 0.  0.
        -12    1    3    3    0    0 -0.52086955268E+01 -0.27552502090E+02 -0.33126251777E+02  0.43400684756E+02  0.00000000000E+00 0.  1.
         11    1    4    4    0    0  0.53230097141E+00  0.24904533710E+02  0.22922098972E+02  0.33851761626E+02  0.51100000000E-03 0. -1.
        -11    1    4    4    0    0 -0.11755154297E+01 -0.17643753765E+01  0.28597002935E+01  0.35598796362E+01  0.51100000000E-03 0.  1.
        -12    1    4    4    0    0  0.58519099850E+01  0.44123437567E+01  0.73444525107E+01  0.10375673982E+02  0.00000000000E+00 0.  1.
</event>
<event>
 8    1  0.5331800E-011  0.9118800E+02  0.7816164E-02  0.1184000E+00
        -11   -1    0    0    0    0  0.00000000000E+00  0.00000000000E+00  0.45593999997E+02  0.45594000000E+02  0.51100000000E-03 0. -1.
         11   -1    0    0    0    0 -0.00000000000E+00 -0.00000000000E+00 -0.45593999997E+02  0.45594000000E+02  0.51100000000E-03 0.  1.
         23    2    1    2    0    0  0.00000000000E+00  0.00000000000E+00 -0.71054273576E-14  0.91188000000E+02  0.91188000000E+02 0.  0.
    9900012    2    3    3    0    0  0.22188290275E+01 -0.57924305978E+01  0.42955157370E+02  0.47787297251E+02  0.20000119484E+02 0.  0.
        -12    1    3    3    0    0 -0.22188290275E+01  0.57924305978E+01 -0.42955157370E+02  0.43400702749E+02  0.00000000000E+00 0.  1.
         11    1    4    4    0    0  0.42208346854E+01 -0.10569050631E+02  0.39960155099E+02  0.41549178963E+02  0.51100000000E-03 0. -1.
        -11    1    4    4    0    0 -0.13362365877E+01  0.36829244547E+01  0.13293824238E+01  0.41372356287E+01  0.51100000000E-03 0.  1.
         12    1    4    4    0    0 -0.66576907031E+00  0.10936955783E+01  0.16656198465E+01  0.21008826588E+01  0.00000000000E+00 0. -1.
</event>
<event>
 8    1  0.5331800E-011  0.9118800E+02  0.7816164E-02  0.1184000E+00
        -11   -1    0    0    0    0  0.00000000000E+00  0.00000000000E+00  0.45593999997E+02  0.45594000000E+02  0.51100000000E-03 0. -1.
         11   -1    0    0    0    0 -0.00000000000E+00 -0.00000000000E+00 -0.45593999997E+02  0.45594000000E+02  0.51100000000E-03 0.  1.
         23    2    1    2    0    0 -0.13322676296E-14  0.00000000000E+00  0.00000000000E+00  0.91188000000E+02  0.91188000000E+02 0.  0.
    9900012    2    3    3    0    0  0.39882411337E+01  0.63448872179E+01  0.42748793488E+02  0.47787274133E+02  0.20000014082E+02 0.  0.
        -12    1    3    3    0    0 -0.39882411337E+01 -0.63448872179E+01 -0.42748793488E+02  0.43400725867E+02  0.00000000000E+00 0.  1.
         11    1    4    4    0    0  0.83070716897E+01  0.32841302112E+01  0.17477504065E+02  0.19627941815E+02  0.51100000000E-03 0. -1.
        -11    1    4    4    0    0 -0.46909411806E+01  0.53770161874E+01  0.24747382066E+02  0.25755584862E+02  0.51100000000E-03 0.  1.
        -12    1    4    4    0    0  0.37211062465E+00 -0.23162591806E+01  0.52390735662E+00  0.24037474550E+01  0.00000000000E+00 0.  1.
</event>
<event>
 8    1  0.5331800E-011  0.9118800E+02  0.7816164E-02  0.1184000E+00
        -11   -1    0    0    0    0  0.00000000000E+00  0.00000000000E+00  0.45593999997E+02  0.45594000000E+02  0.51100000000E-03 0. -1.
         11   -1    0    0    0    0 -0.00000000000E+00 -0.00000000000E+00 -0.45593999997E+02  0.45594000000E+02  0.51100000000E-03 0.  1.
         23    2    1    2    0    0  0.00000000000E+00  0.35527136788E-14  0.00000000000E+00  0.91188000000E+02  0.91188000000E+02 0.  0.
    9900012    2    3    3    0    0  0.17967346173E+02 -0.23882824172E+02 -0.31470756895E+02  0.47787270069E+02  0.19999995554E+02 0.  0.
         12    1    3    3    0    0 -0.17967346173E+02  0.23882824172E+02  0.31470756895E+02  0.43400729931E+02  0.00000000000E+00 0. -1.
         11    1    4    4    0    0  0.59875085528E-01 -0.24314559782E+01  0.89430775575E+00  0.25913992018E+01  0.51100000000E-03 0. -1.
        -11    1    4    4    0    0  0.19149368289E+02 -0.18104621195E+02 -0.32218127441E+02  0.41623110775E+02  0.51100000000E-03 0.  1.
        -12    1    4    4    0    0 -0.12418972016E+01 -0.33467469992E+01 -0.14693720930E+00  0.35727600926E+01  0.00000000000E+00 0.  1.
</event>
<event>
 8    1  0.5331800E-011  0.9118800E+02  0.7816164E-02  0.1184000E+00
        -11   -1    0    0    0    0  0.00000000000E+00  0.00000000000E+00  0.45593999997E+02  0.45594000000E+02  0.51100000000E-03 0. -1.
         11   -1    0    0    0    0 -0.00000000000E+00 -0.00000000000E+00 -0.45593999997E+02  0.45594000000E+02  0.51100000000E-03 0.  1.
         23    2    1    2    0    0  0.00000000000E+00 -0.88817841970E-15 -0.71054273576E-14  0.91188000000E+02  0.91188000000E+02 0.  0.
    9900012    2    3    3    0    0 -0.11679077176E+02  0.42251172217E+01  0.41585708592E+02  0.47787267076E+02  0.19999981907E+02 0.  0.
        -12    1    3    3    0    0  0.11679077176E+02 -0.42251172217E+01 -0.41585708592E+02  0.43400732924E+02  0.00000000000E+00 0.  1.
         11    1    4    4    0    0 -0.10965334034E+02  0.76243429217E+00  0.17049728958E+02  0.20285786017E+02  0.51100000000E-03 0. -1.
        -11    1    4    4    0    0  0.52903097415E+01  0.35803951004E+01  0.13587511488E+02  0.15014229082E+02  0.51100000000E-03 0.  1.
        -12    1    4    4    0    0 -0.60040528838E+01 -0.11771217089E+00  0.10948468147E+02  0.12487251977E+02  0.00000000000E+00 0.  1.
</event>
<event>
 8    1  0.5334275E-011  0.9118800E+02  0.7816164E-02  0.1184000E+00
        -11   -1    0    0    0    0  0.00000000000E+00  0.00000000000E+00  0.45593999997E+02  0.45594000000E+02  0.51100000000E-03 0. -1.
         11   -1    0    0    0    0 -0.00000000000E+00 -0.00000000000E+00 -0.45593999997E+02  0.45594000000E+02  0.51100000000E-03 0.  1.
         23    2    1    2    0    0  0.00000000000E+00 -0.88817841970E-15  0.00000000000E+00  0.91188000000E+02  0.91188000000E+02 0.  0.
    9900012    2    3    3    0    0  0.25443774998E+02  0.56012562953E+01 -0.34711140530E+02  0.47787273795E+02  0.20000012541E+02 0.  0.
         12    1    3    3    0    0 -0.25443774998E+02 -0.56012562953E+01  0.34711140530E+02  0.43400726205E+02  0.00000000000E+00 0. -1.
         11    1    4    4    0    0 -0.12331092244E+00  0.11630427456E+01  0.14392217713E+00  0.11783835818E+01  0.51100000000E-03 0.  1.
        -11    1    4    4    0    0  0.83081567868E+00 -0.41935181506E+01 -0.24129001231E+01  0.49089649048E+01  0.51100000000E-03 0. -1.
        -12    1    4    4    0    0  0.24736270242E+02  0.86317317002E+01 -0.32442162584E+02  0.41699925308E+02  0.00000000000E+00 0.  1.
</event>
<event>
 8    1  0.5331800E-011  0.9118800E+02  0.7816164E-02  0.1184000E+00
        -11   -1    0    0    0    0  0.00000000000E+00  0.00000000000E+00  0.45593999997E+02  0.45594000000E+02  0.51100000000E-03 0. -1.
         11   -1    0    0    0    0 -0.00000000000E+00 -0.00000000000E+00 -0.45593999997E+02  0.45594000000E+02  0.51100000000E-03 0.  1.
         23    2    1    2    0    0  0.00000000000E+00 -0.17763568394E-14  0.00000000000E+00  0.91188000000E+02  0.91188000000E+02 0.  0.
    9900012    2    3    3    0    0 -0.17909979641E+02  0.98414428576E+01  0.38288396177E+02  0.47787278231E+02  0.20000032765E+02 0.  0.
        -12    1    3    3    0    0  0.17909979641E+02 -0.98414428576E+01 -0.38288396177E+02  0.43400721769E+02  0.00000000000E+00 0.  1.
         11    1    4    4    0    0 -0.16966535170E+02  0.24109394873E+01  0.14221183540E+02  0.22269216565E+02  0.51100000000E-03 0. -1.
        -11    1    4    4    0    0 -0.20821485291E+01  0.31336602514E+01  0.14304201504E+02  0.14790718373E+02  0.51100000000E-03 0.  1.
         12    1    4    4    0    0  0.11387040582E+01  0.42968431189E+01  0.97630111339E+01  0.10727343293E+02  0.00000000000E+00 0. -1.
</event>
<event>
 8    1  0.5331800E-011  0.9118800E+02  0.7816164E-02  0.1184000E+00
        -11   -1    0    0    0    0  0.00000000000E+00  0.00000000000E+00  0.45593999997E+02  0.45594000000E+02  0.51100000000E-03 0.  1.
         11   -1    0    0    0    0 -0.00000000000E+00 -0.00000000000E+00 -0.45593999997E+02  0.45594000000E+02  0.51100000000E-03 0. -1.
         23    2    1    2    0    0  0.00000000000E+00  0.00000000000E+00 -0.55511151231E-15  0.91188000000E+02  0.91188000000E+02 0.  0.
    9900012    2    3    3    0    0  0.53361730559E+01  0.43064108839E+02 -0.79393254674E+00  0.47787279477E+02  0.20000038449E+02 0.  0.
         12    1    3    3    0    0 -0.53361730559E+01 -0.43064108839E+02  0.79393254674E+00  0.43400720523E+02  0.00000000000E+00 0. -1.
         11    1    4    4    0    0  0.15101174017E+01  0.17503752166E+02  0.64901647195E+01  0.18729229370E+02  0.51100000000E-03 0. -1.
        -11    1    4    4    0    0  0.22504201080E+01  0.71863298018E+01 -0.74820897723E+01  0.10615526096E+02  0.51100000000E-03 0.  1.
        -12    1    4    4    0    0  0.15756355462E+01  0.18374026871E+02  0.19799250611E+00  0.18442524011E+02  0.00000000000E+00 0.  1.
</event>
<event>
 8    1  0.5331800E-011  0.9118800E+02  0.7816164E-02  0.1184000E+00
        -11   -1    0    0    0    0  0.00000000000E+00  0.00000000000E+00  0.45593999997E+02  0.45594000000E+02  0.51100000000E-03 0. -1.
         11   -1    0    0    0    0 -0.00000000000E+00 -0.00000000000E+00 -0.45593999997E+02  0.45594000000E+02  0.51100000000E-03 0.  1.
         23    2    1    2    0    0  0.00000000000E+00  0.00000000000E+00  0.00000000000E+00  0.91188000000E+02  0.91188000000E+02 0.  0.
    9900012    2    3    3    0    0  0.19659256853E+02 -0.33938899376E+02  0.18581926617E+02  0.47787271116E+02  0.20000000326E+02 0.  0.
        -12    1    3    3    0    0 -0.19659256853E+02  0.33938899376E+02 -0.18581926617E+02  0.43400728884E+02  0.00000000000E+00 0.  1.
         11    1    4    4    0    0  0.85097905087E+01 -0.20194012071E+02  0.10220541870E+02  0.24180035865E+02  0.51100000000E-03 0. -1.
        -11    1    4    4    0    0  0.71958075383E+01 -0.38150434910E+01 -0.23487279880E+01  0.84764807786E+01  0.51100000000E-03 0.  1.
        -12    1    4    4    0    0  0.39536588062E+01 -0.99298438135E+01  0.10710112735E+02  0.15130754473E+02  0.00000000000E+00 0.  1.
</event>
<event>
 8    1  0.5331800E-011  0.9118800E+02  0.7816164E-02  0.1184000E+00
        -11   -1    0    0    0    0  0.00000000000E+00  0.00000000000E+00  0.45593999997E+02  0.45594000000E+02  0.51100000000E-03 0. -1.
         11   -1    0    0    0    0 -0.00000000000E+00 -0.00000000000E+00 -0.45593999997E+02  0.45594000000E+02  0.51100000000E-03 0.  1.
         23    2    1    2    0    0  0.00000000000E+00  0.35527136788E-14 -0.35527136788E-14  0.91188000000E+02  0.91188000000E+02 0.  0.
    9900012    2    3    3    0    0  0.13827432438E+02 -0.29837787960E+02  0.28321929320E+02  0.47787272372E+02  0.20000006054E+02 0.  0.
        -12    1    3    3    0    0 -0.13827432438E+02  0.29837787960E+02 -0.28321929320E+02  0.43400727628E+02  0.00000000000E+00 0.  1.
         11    1    4    4    0    0  0.13016062200E+02 -0.28727120875E+02  0.24962814619E+02  0.40221977362E+02  0.51100000000E-03 0. -1.
        -11    1    4    4    0    0 -0.84329432485E+00 -0.33986235644E+00  0.50174107915E+01  0.50991237533E+01  0.51100000000E-03 0.  1.
         12    1    4    4    0    0  0.16546645632E+01 -0.77080472859E+00 -0.16582960899E+01  0.24661712568E+01  0.00000000000E+00 0. -1.
</event>
<event>
 8    1  0.5331800E-011  0.9118800E+02  0.7816164E-02  0.1184000E+00
        -11   -1    0    0    0    0  0.00000000000E+00  0.00000000000E+00  0.45593999997E+02  0.45594000000E+02  0.51100000000E-03 0. -1.
         11   -1    0    0    0    0 -0.00000000000E+00 -0.00000000000E+00 -0.45593999997E+02  0.45594000000E+02  0.51100000000E-03 0.  1.
         23    2    1    2    0    0  0.00000000000E+00 -0.22204460493E-15  0.00000000000E+00  0.91188000000E+02  0.91188000000E+02 0.  0.
    9900012    2    3    3    0    0  0.34067851805E+02  0.76673757595E+00  0.26877815300E+02  0.47787269955E+02  0.19999995034E+02 0.  0.
        -12    1    3    3    0    0 -0.34067851805E+02 -0.76673757595E+00 -0.26877815300E+02  0.43400730045E+02  0.00000000000E+00 0.  1.
         11    1    4    4    0    0  0.14782879714E+01  0.10720875238E+01  0.53036488526E+01  0.56092244025E+01  0.51100000000E-03 0. -1.
        -11    1    4    4    0    0  0.26568338281E+02  0.62885450157E+01  0.16701349768E+02  0.32005585165E+02  0.51100000000E-03 0.  1.
        -12    1    4    4    0    0  0.60212255528E+01 -0.65938949635E+01  0.48728166798E+01  0.10172460388E+02  0.00000000000E+00 0.  1.
</event>
<event>
 8    1  0.5331800E-011  0.9118800E+02  0.7816164E-02  0.1184000E+00
        -11   -1    0    0    0    0  0.00000000000E+00  0.00000000000E+00  0.45593999997E+02  0.45594000000E+02  0.51100000000E-03 0. -1.
         11   -1    0    0    0    0 -0.00000000000E+00 -0.00000000000E+00 -0.45593999997E+02  0.45594000000E+02  0.51100000000E-03 0.  1.
         23    2    1    2    0    0 -0.35527136788E-14  0.00000000000E+00  0.17763568394E-14  0.91188000000E+02  0.91188000000E+02 0.  0.
    9900012    2    3    3    0    0  0.24959160304E+02  0.33702227682E+02 -0.11172447641E+02  0.47787269360E+02  0.19999992320E+02 0.  0.
         12    1    3    3    0    0 -0.24959160304E+02 -0.33702227682E+02  0.11172447641E+02  0.43400730640E+02  0.00000000000E+00 0. -1.
         11    1    4    4    0    0  0.70102953735E+01  0.41155732559E+01  0.34416831263E+01  0.88276479003E+01  0.51100000000E-03 0. -1.
        -11    1    4    4    0    0  0.16827812846E+02  0.25060677214E+02 -0.15906875601E+02  0.34120983562E+02  0.51100000000E-03 0.  1.
        -12    1    4    4    0    0  0.11210520848E+01  0.45259772117E+01  0.12927448338E+01  0.48386378975E+01  0.00000000000E+00 0.  1.
</event>
<event>
 8    1  0.5331800E-011  0.9118800E+02  0.7816164E-02  0.1184000E+00
        -11   -1    0    0    0    0  0.00000000000E+00  0.00000000000E+00  0.45593999997E+02  0.45594000000E+02  0.51100000000E-03 0.  1.
         11   -1    0    0    0    0 -0.00000000000E+00 -0.00000000000E+00 -0.45593999997E+02  0.45594000000E+02  0.51100000000E-03 0. -1.
         23    2    1    2    0    0  0.00000000000E+00  0.00000000000E+00  0.00000000000E+00  0.91188000000E+02  0.91188000000E+02 0.  0.
    9900012    2    3    3    0    0  0.23612387837E+02  0.34668772107E+02  0.11142462974E+02  0.47787273049E+02  0.20000009138E+02 0.  0.
        -12    1    3    3    0    0 -0.23612387837E+02 -0.34668772107E+02 -0.11142462974E+02  0.43400726951E+02  0.00000000000E+00 0.  1.
         11    1    4    4    0    0  0.10403071752E+02  0.10046331703E+02 -0.38274495997E+01  0.14960015150E+02  0.51100000000E-03 0.  1.
        -11    1    4    4    0    0  0.18210309014E+01  0.11772861048E+02  0.76801838277E+01  0.14173977377E+02  0.51100000000E-03 0. -1.
        -12    1    4    4    0    0  0.11388285184E+02  0.12849579355E+02  0.72897287456E+01  0.18653280522E+02  0.00000000000E+00 0.  1.
</event>
<event>
 8    1  0.5331800E-011  0.9118800E+02  0.7816164E-02  0.1184000E+00
        -11   -1    0    0    0    0  0.00000000000E+00  0.00000000000E+00  0.45593999997E+02  0.45594000000E+02  0.51100000000E-03 0. -1.
         11   -1    0    0    0    0 -0.00000000000E+00 -0.00000000000E+00 -0.45593999997E+02  0.45594000000E+02  0.51100000000E-03 0.  1.
         23    2    1    2    0    0  0.00000000000E+00  0.00000000000E+00  0.00000000000E+00  0.91188000000E+02  0.91188000000E+02 0.  0.
    9900012    2    3    3    0    0 -0.68694761919E+01  0.10242434533E+02  0.41611603797E+02  0.47787277208E+02  0.20000028102E+02 0.  0.
        -12    1    3    3    0    0  0.68694761919E+01 -0.10242434533E+02 -0.41611603797E+02  0.43400722792E+02  0.00000000000E+00 0.  1.
         11    1    4    4    0    0 -0.12662218844E+02  0.34114180144E+01  0.17507783129E+02  0.21874460663E+02  0.51100000000E-03 0. -1.
        -11    1    4    4    0    0  0.46881370231E+01  0.55854283953E+01  0.22281958306E+02  0.23444856693E+02  0.51100000000E-03 0.  1.
         12    1    4    4    0    0  0.11046056294E+01  0.12455881236E+01  0.18218623614E+01  0.24679598526E+01  0.00000000000E+00 0. -1.
</event>
<event>
 8    1  0.5331800E-011  0.9118800E+02  0.7816164E-02  0.1184000E+00
        -11   -1    0    0    0    0  0.00000000000E+00  0.00000000000E+00  0.45593999997E+02  0.45594000000E+02  0.51100000000E-03 0. -1.
         11   -1    0    0    0    0 -0.00000000000E+00 -0.00000000000E+00 -0.45593999997E+02  0.45594000000E+02  0.51100000000E-03 0.  1.
         23    2    1    2    0    0  0.00000000000E+00  0.17763568394E-14 -0.35527136788E-14  0.91188000000E+02  0.91188000000E+02 0.  0.
    9900012    2    3    3    0    0 -0.32053448908E+02  0.11983193171E+02 -0.26694621765E+02  0.47787270321E+02  0.19999996703E+02 0.  0.
         12    1    3    3    0    0  0.32053448908E+02 -0.11983193171E+02  0.26694621765E+02  0.43400729679E+02  0.00000000000E+00 0. -1.
         11    1    4    4    0    0 -0.24670585931E+02  0.76116671648E+01 -0.13387448219E+02  0.29082624663E+02  0.51100000000E-03 0. -1.
        -11    1    4    4    0    0 -0.51640960752E+01 -0.19907523565E+01 -0.27490845530E+01  0.61796803607E+01  0.51100000000E-03 0.  1.
         12    1    4    4    0    0 -0.22187669020E+01  0.63622783630E+01 -0.10558088992E+02  0.12524965298E+02  0.00000000000E+00 0. -1.
</event>
<event>
 8    1  0.9220477E-011  0.9118800E+02  0.7816164E-02  0.1184000E+00
        -11   -1    0    0    0    0  0.00000000000E+00  0.00000000000E+00  0.45593999997E+02  0.45594000000E+02  0.51100000000E-03 0. -1.
         11   -1    0    0    0    0 -0.00000000000E+00 -0.00000000000E+00 -0.45593999997E+02  0.45594000000E+02  0.51100000000E-03 0.  1.
         23    2    1    2    0    0  0.00000000000E+00 -0.44408920985E-15  0.00000000000E+00  0.91188000000E+02  0.91188000000E+02 0.  0.
    9900012    2    3    3    0    0  0.51400066783E+01  0.27817591112E+01 -0.43005409154E+02  0.47787273406E+02  0.20000010768E+02 0.  0.
         12    1    3    3    0    0 -0.51400066783E+01 -0.27817591112E+01  0.43005409154E+02  0.43400726594E+02  0.00000000000E+00 0. -1.
         11    1    4    4    0    0  0.41078089310E+01 -0.16920701297E+01 -0.14308031665E+01  0.46673754402E+01  0.51100000000E-03 0. -1.
        -11    1    4    4    0    0  0.35679650896E+01  0.52333043197E+01 -0.38689164216E+02  0.39204199737E+02  0.51100000000E-03 0.  1.
        -12    1    4    4    0    0 -0.25357673423E+01 -0.75947507889E+00 -0.28854417708E+01  0.39156982292E+01  0.00000000000E+00 0.  1.
</event>
<event>
 8    1  0.5331800E-011  0.9118800E+02  0.7816164E-02  0.1184000E+00
        -11   -1    0    0    0    0  0.00000000000E+00  0.00000000000E+00  0.45593999997E+02  0.45594000000E+02  0.51100000000E-03 0.  1.
         11   -1    0    0    0    0 -0.00000000000E+00 -0.00000000000E+00 -0.45593999997E+02  0.45594000000E+02  0.51100000000E-03 0. -1.
         23    2    1    2    0    0  0.00000000000E+00  0.00000000000E+00 -0.22204460493E-15  0.91188000000E+02  0.91188000000E+02 0.  0.
    9900012    2    3    3    0    0  0.27119042748E+02 -0.33846384175E+02  0.16135946976E+01  0.47787263956E+02  0.19999967680E+02 0.  0.
        -12    1    3    3    0    0 -0.27119042748E+02  0.33846384175E+02 -0.16135946976E+01  0.43400736044E+02  0.00000000000E+00 0.  1.
         11    1    4    4    0    0  0.14892630688E+02 -0.14821369340E+02  0.15854751616E+01  0.21070765759E+02  0.51100000000E-03 0. -1.
        -11    1    4    4    0    0 -0.26195484390E+01 -0.58950052864E+01 -0.20984648074E+01  0.67835592545E+01  0.51100000000E-03 0.  1.
        -12    1    4    4    0    0  0.14845960500E+02 -0.13130009549E+02  0.21265843433E+01  0.19932938942E+02  0.00000000000E+00 0.  1.
</event>
<event>
 8    1  0.5331800E-011  0.9118800E+02  0.7816164E-02  0.1184000E+00
        -11   -1    0    0    0    0  0.00000000000E+00  0.00000000000E+00  0.45593999997E+02  0.45594000000E+02  0.51100000000E-03 0. -1.
         11   -1    0    0    0    0 -0.00000000000E+00 -0.00000000000E+00 -0.45593999997E+02  0.45594000000E+02  0.51100000000E-03 0.  1.
         23    2    1    2    0    0  0.00000000000E+00  0.00000000000E+00  0.35527136788E-14  0.91188000000E+02  0.91188000000E+02 0.  0.
    9900012    2    3    3    0    0  0.12288278127E+02 -0.33384642066E+02 -0.24861356702E+02  0.47787272331E+02  0.20000005864E+02 0.  0.
         12    1    3    3    0    0 -0.12288278127E+02  0.33384642066E+02  0.24861356702E+02  0.43400727669E+02  0.00000000000E+00 0. -1.
         11    1    4    4    0    0  0.18175144284E+01 -0.25666153421E+02 -0.18441042862E+02  0.31656387226E+02  0.51100000000E-03 0. -1.
        -11    1    4    4    0    0  0.23781842944E+00 -0.38509138547E+01 -0.17295776728E+01  0.42281833343E+01  0.51100000000E-03 0.  1.
         12    1    4    4    0    0  0.10232945269E+02 -0.38675747900E+01 -0.46907361673E+01  0.11902701770E+02  0.00000000000E+00 0. -1.
</event>
<event>
 8    1  0.5331800E-011  0.9118800E+02  0.7816164E-02  0.1184000E+00
        -11   -1    0    0    0    0  0.00000000000E+00  0.00000000000E+00  0.45593999997E+02  0.45594000000E+02  0.51100000000E-03 0. -1.
         11   -1    0    0    0    0 -0.00000000000E+00 -0.00000000000E+00 -0.45593999997E+02  0.45594000000E+02  0.51100000000E-03 0.  1.
         23    2    1    2    0    0  0.88817841970E-15 -0.88817841970E-15 -0.71054273576E-14  0.91188000000E+02  0.91188000000E+02 0.  0.
    9900012    2    3    3    0    0  0.66832165681E+01 -0.77899336845E+01 -0.42169596889E+02  0.47787270141E+02  0.19999995882E+02 0.  0.
         12    1    3    3    0    0 -0.66832165681E+01  0.77899336845E+01  0.42169596889E+02  0.43400729859E+02  0.00000000000E+00 0. -1.
         11    1    4    4    0    0 -0.15182170405E+01 -0.33329246740E+01 -0.36739007060E+00  0.36808077360E+01  0.51100000000E-03 0. -1.
        -11    1    4    4    0    0  0.14610784023E+01  0.27180398116E+01 -0.19298726834E+02  0.19543882628E+02  0.51100000000E-03 0.  1.
        -12    1    4    4    0    0  0.67403552063E+01 -0.71750488221E+01 -0.22503479984E+02  0.24562579777E+02  0.00000000000E+00 0.  1.
</event>
<event>
 8    1  0.5331800E-011  0.9118800E+02  0.7816164E-02  0.1184000E+00
        -11   -1    0    0    0    0  0.00000000000E+00  0.00000000000E+00  0.45593999997E+02  0.45594000000E+02  0.51100000000E-03 0. -1.
         11   -1    0    0    0    0 -0.00000000000E+00 -0.00000000000E+00 -0.45593999997E+02  0.45594000000E+02  0.51100000000E-03 0.  1.
         23    2    1    2    0    0  0.00000000000E+00  0.00000000000E+00  0.00000000000E+00  0.91188000000E+02  0.91188000000E+02 0.  0.
    9900012    2    3    3    0    0  0.19454115362E+02 -0.70125737747E+01 -0.38157361217E+02  0.47787274078E+02  0.20000013833E+02 0.  0.
         12    1    3    3    0    0 -0.19454115362E+02  0.70125737747E+01  0.38157361217E+02  0.43400725922E+02  0.00000000000E+00 0. -1.
         11    1    4    4    0    0  0.15117574691E+02 -0.11621791052E+02 -0.18618966825E+02  0.26650947782E+02  0.51100000000E-03 0. -1.
        -11    1    4    4    0    0 -0.66034072315E+00  0.25202390957E+01 -0.73745733894E+01  0.78212523235E+01  0.51100000000E-03 0.  1.
         12    1    4    4    0    0  0.49968813936E+01  0.20889781820E+01 -0.12163821003E+02  0.13315073973E+02  0.00000000000E+00 0. -1.
</event>
<event>
 8    1  0.5331800E-011  0.9118800E+02  0.7816164E-02  0.1184000E+00
        -11   -1    0    0    0    0  0.00000000000E+00  0.00000000000E+00  0.45593999997E+02  0.45594000000E+02  0.51100000000E-03 0. -1.
         11   -1    0    0    0    0 -0.00000000000E+00 -0.00000000000E+00 -0.45593999997E+02  0.45594000000E+02  0.51100000000E-03 0.  1.
         23    2    1    2    0    0  0.00000000000E+00 -0.71054273576E-14 -0.71054273576E-14  0.91188000000E+02  0.91188000000E+02 0.  0.
    9900012    2    3    3    0    0 -0.44220130653E+01 -0.37504304895E+02 -0.21389148527E+02  0.47787276966E+02  0.20000026997E+02 0.  0.
         12    1    3    3    0    0  0.44220130653E+01  0.37504304895E+02  0.21389148527E+02  0.43400723034E+02  0.00000000000E+00 0. -1.
         11    1    4    4    0    0  0.19247536299E+01  0.10551555300E+01 -0.32513271520E+01  0.39229017626E+01  0.51100000000E-03 0. -1.
        -11    1    4    4    0    0 -0.80178291865E+01 -0.31476829745E+02 -0.16378530365E+02  0.36377639462E+02  0.51100000000E-03 0.  1.
         12    1    4    4    0    0  0.16710624914E+01 -0.70826306796E+01 -0.17592910101E+01  0.74867357407E+01  0.00000000000E+00 0. -1.
</event>
<event>
 8    1  0.5331800E-011  0.9118800E+02  0.7816164E-02  0.1184000E+00
        -11   -1    0    0    0    0  0.00000000000E+00  0.00000000000E+00  0.45593999997E+02  0.45594000000E+02  0.51100000000E-03 0. -1.
         11   -1    0    0    0    0 -0.00000000000E+00 -0.00000000000E+00 -0.45593999997E+02  0.45594000000E+02  0.51100000000E-03 0.  1.
         23    2    1    2    0    0 -0.35527136788E-14  0.00000000000E+00  0.00000000000E+00  0.91188000000E+02  0.91188000000E+02 0.  0.
    9900012    2    3    3    0    0 -0.27707518840E+02  0.21764107323E+02  0.25342466690E+02  0.47787267451E+02  0.19999983617E+02 0.  0.
        -12    1    3    3    0    0  0.27707518840E+02 -0.21764107323E+02 -0.25342466690E+02  0.43400732549E+02  0.00000000000E+00 0.  1.
         11    1    4    4    0    0 -0.18619043854E+02  0.13439706664E+02  0.12903743418E+02  0.26340104474E+02  0.51100000000E-03 0. -1.
        -11    1    4    4    0    0  0.81600654514E+00  0.56823886529E+01  0.57669026044E+00  0.57695735893E+01  0.51100000000E-03 0.  1.
        -12    1    4    4    0    0 -0.99044815306E+01  0.26420120066E+01  0.11862033012E+02  0.15677589388E+02  0.00000000000E+00 0.  1.
</event>
<event>
 8    1  0.5331800E-011  0.9118800E+02  0.7816164E-02  0.1184000E+00
        -11   -1    0    0    0    0  0.00000000000E+00  0.00000000000E+00  0.45593999997E+02  0.45594000000E+02  0.51100000000E-03 0. -1.
         11   -1    0    0    0    0 -0.00000000000E+00 -0.00000000000E+00 -0.45593999997E+02  0.45594000000E+02  0.51100000000E-03 0.  1.
         23    2    1    2    0    0  0.00000000000E+00  0.00000000000E+00  0.35527136788E-14  0.91188000000E+02  0.91188000000E+02 0.  0.
    9900012    2    3    3    0    0 -0.23398856857E+02  0.20964883982E+02  0.29943119378E+02  0.47787271196E+02  0.20000000693E+02 0.  0.
        -12    1    3    3    0    0  0.23398856857E+02 -0.20964883982E+02 -0.29943119378E+02  0.43400728804E+02  0.00000000000E+00 0.  1.
         11    1    4    4    0    0 -0.15992624308E+02  0.18246371766E+02  0.16374013664E+02  0.29271187858E+02  0.51100000000E-03 0. -1.
        -11    1    4    4    0    0 -0.89476055668E+01  0.16506032372E+01  0.13898882850E+02  0.16612136562E+02  0.51100000000E-03 0.  1.
         12    1    4    4    0    0  0.15413730177E+01  0.10679089790E+01 -0.32977713625E+00  0.19039467762E+01  0.00000000000E+00 0. -1.
</event>
<event>
 8    1  0.5331800E-011  0.9118800E+02  0.7816164E-02  0.1184000E+00
        -11   -1    0    0    0    0  0.00000000000E+00  0.00000000000E+00  0.45593999997E+02  0.45594000000E+02  0.51100000000E-03 0. -1.
         11   -1    0    0    0    0 -0.00000000000E+00 -0.00000000000E+00 -0.45593999997E+02  0.45594000000E+02  0.51100000000E-03 0.  1.
         23    2    1    2    0    0 -0.35527136788E-14  0.44408920985E-15 -0.71054273576E-14  0.91188000000E+02  0.91188000000E+02 0.  0.
    9900012    2    3    3    0    0  0.16917120573E+02  0.14035027293E+01  0.39943274490E+02  0.47787263078E+02  0.19999963678E+02 0.  0.
        -12    1    3    3    0    0 -0.16917120573E+02 -0.14035027293E+01 -0.39943274490E+02  0.43400736922E+02  0.00000000000E+00 0.  1.
         11    1    4    4    0    0 -0.14991172845E+00  0.18991543993E+01  0.15008797522E+02  0.15129218892E+02  0.51100000000E-03 0. -1.
        -11    1    4    4    0    0  0.34485519376E+00  0.38041729583E+01  0.47899297727E+01  0.61265067119E+01  0.51100000000E-03 0.  1.
        -12    1    4    4    0    0  0.16722177108E+02 -0.42998246283E+01  0.20144547195E+02  0.26531537474E+02  0.00000000000E+00 0.  1.
</event>
<event>
 8    1  0.5331800E-011  0.9118800E+02  0.7816164E-02  0.1184000E+00
        -11   -1    0    0    0    0  0.00000000000E+00  0.00000000000E+00  0.45593999997E+02  0.45594000000E+02  0.51100000000E-03 0. -1.
         11   -1    0    0    0    0 -0.00000000000E+00 -0.00000000000E+00 -0.45593999997E+02  0.45594000000E+02  0.51100000000E-03 0.  1.
         23    2    1    2    0    0  0.00000000000E+00 -0.71054273576E-14  0.00000000000E+00  0.91188000000E+02  0.91188000000E+02 0.  0.
    9900012    2    3    3    0    0 -0.29711753487E+02 -0.31414392207E+02  0.37376781400E+01  0.47787279143E+02  0.20000036924E+02 0.  0.
        -12    1    3    3    0    0  0.29711753487E+02  0.31414392207E+02 -0.37376781400E+01  0.43400720857E+02  0.00000000000E+00 0.  1.
         11    1    4    4    0    0 -0.12321328772E+02 -0.14828025563E+02  0.13185717318E+01  0.19324184756E+02  0.51100000000E-03 0. -1.
        -11    1    4    4    0    0 -0.17727249114E+02 -0.15049236173E+02  0.64535579929E+01  0.24132618622E+02  0.51100000000E-03 0.  1.
        -12    1    4    4    0    0  0.33682439837E+00 -0.15371304708E+01 -0.40344515847E+01  0.43304757647E+01  0.00000000000E+00 0.  1.
</event>
<event>
 8    1  0.5331800E-011  0.9118800E+02  0.7816164E-02  0.1184000E+00
        -11   -1    0    0    0    0  0.00000000000E+00  0.00000000000E+00  0.45593999997E+02  0.45594000000E+02  0.51100000000E-03 0. -1.
         11   -1    0    0    0    0 -0.00000000000E+00 -0.00000000000E+00 -0.45593999997E+02  0.45594000000E+02  0.51100000000E-03 0.  1.
         23    2    1    2    0    0  0.00000000000E+00  0.00000000000E+00  0.00000000000E+00  0.91188000000E+02  0.91188000000E+02 0.  0.
    9900012    2    3    3    0    0 -0.21433093321E+02 -0.36026323131E+02 -0.11240535606E+02  0.47787273182E+02  0.20000009746E+02 0.  0.
         12    1    3    3    0    0  0.21433093321E+02  0.36026323131E+02  0.11240535606E+02  0.43400726818E+02  0.00000000000E+00 0. -1.
         11    1    4    4    0    0  0.12196902000E+01 -0.62618383927E+00 -0.41468931998E+01  0.43676622873E+01  0.51100000000E-03 0. -1.
        -11    1    4    4    0    0 -0.13820806845E+02 -0.27434969410E+02 -0.70868498121E+01  0.31526428420E+02  0.51100000000E-03 0.  1.
         12    1    4    4    0    0 -0.88319766755E+01 -0.79651698817E+01 -0.67925938294E-02  0.11893182475E+02  0.00000000000E+00 0. -1.
</event>
<event>
 8    1  0.5331800E-011  0.9118800E+02  0.7816164E-02  0.1184000E+00
        -11   -1    0    0    0    0  0.00000000000E+00  0.00000000000E+00  0.45593999997E+02  0.45594000000E+02  0.51100000000E-03 0. -1.
         11   -1    0    0    0    0 -0.00000000000E+00 -0.00000000000E+00 -0.45593999997E+02  0.45594000000E+02  0.51100000000E-03 0.  1.
         23    2    1    2    0    0  0.00000000000E+00 -0.35527136788E-14  0.00000000000E+00  0.91188000000E+02  0.91188000000E+02 0.  0.
    9900012    2    3    3    0    0  0.79227619594E+01  0.23637850888E+02 -0.35526124312E+02  0.47787266592E+02  0.19999979700E+02 0.  0.
         12    1    3    3    0    0 -0.79227619594E+01 -0.23637850888E+02  0.35526124312E+02  0.43400733408E+02  0.00000000000E+00 0. -1.
         11    1    4    4    0    0  0.88876697404E+00 -0.15890342109E+01 -0.11333049695E+02  0.11478368879E+02  0.51100000000E-03 0. -1.
        -11    1    4    4    0    0  0.77731410859E+01  0.16858570235E+02 -0.18129913227E+02  0.25948542668E+02  0.51100000000E-03 0.  1.
        -12    1    4    4    0    0 -0.73914610057E+00  0.83683148645E+01 -0.60631613897E+01  0.10360355045E+02  0.00000000000E+00 0.  1.
</event>
<event>
 8    1  0.5331800E-011  0.9118800E+02  0.7816164E-02  0.1184000E+00
        -11   -1    0    0    0    0  0.00000000000E+00  0.00000000000E+00  0.45593999997E+02  0.45594000000E+02  0.51100000000E-03 0. -1.
         11   -1    0    0    0    0 -0.00000000000E+00 -0.00000000000E+00 -0.45593999997E+02  0.45594000000E+02  0.51100000000E-03 0.  1.
         23    2    1    2    0    0 -0.35527136788E-14 -0.17763568394E-14 -0.35527136788E-14  0.91188000000E+02  0.91188000000E+02 0.  0.
    9900012    2    3    3    0    0  0.30108838609E+02  0.13843253032E+02  0.28025796707E+02  0.47787273071E+02  0.20000009238E+02 0.  0.
        -12    1    3    3    0    0 -0.30108838609E+02 -0.13843253032E+02 -0.28025796707E+02  0.43400726929E+02  0.00000000000E+00 0.  1.
         11    1    4    4    0    0  0.99443492998E+01  0.92290974333E+01  0.16746161065E+02  0.21552267471E+02  0.51100000000E-03 0. -1.
        -11    1    4    4    0    0  0.19722906214E+02  0.11801487722E+01  0.75647106926E+01  0.21156810459E+02  0.51100000000E-03 0.  1.
        -12    1    4    4    0    0  0.44158309527E+00  0.34340068266E+01  0.37149249492E+01  0.50781951413E+01  0.00000000000E+00 0.  1.
</event>
<event>
 8    1  0.5331800E-011  0.9118800E+02  0.7816164E-02  0.1184000E+00
        -11   -1    0    0    0    0  0.00000000000E+00  0.00000000000E+00  0.45593999997E+02  0.45594000000E+02  0.51100000000E-03 0. -1.
         11   -1    0    0    0    0 -0.00000000000E+00 -0.00000000000E+00 -0.45593999997E+02  0.45594000000E+02  0.51100000000E-03 0.  1.
         23    2    1    2    0    0 -0.17763568394E-14  0.00000000000E+00  0.00000000000E+00  0.91188000000E+02  0.91188000000E+02 0.  0.
    9900012    2    3    3    0    0 -0.15560136422E+02 -0.20750401476E+02  0.34798365676E+02  0.47787271197E+02  0.20000000696E+02 0.  0.
        -12    1    3    3    0    0  0.15560136422E+02  0.20750401476E+02 -0.34798365676E+02  0.43400728803E+02  0.00000000000E+00 0.  1.
         11    1    4    4    0    0 -0.59896451632E+01 -0.55578310904E+01  0.10038640539E+02  0.12943710432E+02  0.51100000000E-03 0. -1.
        -11    1    4    4    0    0 -0.11920954109E+02 -0.39930108814E+01  0.94396333574E+01  0.15721321858E+02  0.51100000000E-03 0.  1.
        -12    1    4    4    0    0  0.23504628500E+01 -0.11199559504E+02  0.15320091780E+02  0.19122238908E+02  0.00000000000E+00 0.  1.
</event>
<event>
 8    1  0.5331800E-011  0.9118800E+02  0.7816164E-02  0.1184000E+00
        -11   -1    0    0    0    0  0.00000000000E+00  0.00000000000E+00  0.45593999997E+02  0.45594000000E+02  0.51100000000E-03 0.  1.
         11   -1    0    0    0    0 -0.00000000000E+00 -0.00000000000E+00 -0.45593999997E+02  0.45594000000E+02  0.51100000000E-03 0. -1.
         23    2    1    2    0    0  0.00000000000E+00  0.35527136788E-14  0.00000000000E+00  0.91188000000E+02  0.91188000000E+02 0.  0.
    9900012    2    3    3    0    0 -0.29711135522E+02  0.31250202983E+02 -0.49291804632E+01  0.47787267512E+02  0.19999983895E+02 0.  0.
         12    1    3    3    0    0  0.29711135522E+02 -0.31250202983E+02  0.49291804632E+01  0.43400732488E+02  0.00000000000E+00 0. -1.
         11    1    4    4    0    0  0.80576428366E+00  0.86861286072E+01  0.14436316898E+01  0.88420675738E+01  0.51100000000E-03 0. -1.
        -11    1    4    4    0    0 -0.25714240287E+02  0.20990020176E+02 -0.42536050608E+01  0.33464851065E+02  0.51100000000E-03 0.  1.
         12    1    4    4    0    0 -0.48026595184E+01  0.15740541989E+01 -0.21192070923E+01  0.54803488731E+01  0.00000000000E+00 0. -1.
</event>
<event>
 8    1  0.5331800E-011  0.9118800E+02  0.7816164E-02  0.1184000E+00
        -11   -1    0    0    0    0  0.00000000000E+00  0.00000000000E+00  0.45593999997E+02  0.45594000000E+02  0.51100000000E-03 0.  1.
         11   -1    0    0    0    0 -0.00000000000E+00 -0.00000000000E+00 -0.45593999997E+02  0.45594000000E+02  0.51100000000E-03 0. -1.
         23    2    1    2    0    0  0.00000000000E+00  0.71054273576E-14 -0.11102230246E-14  0.91188000000E+02  0.91188000000E+02 0.  0.
    9900012    2    3    3    0    0  0.16839060032E+02 -0.39954060469E+02 -0.19344886624E+01  0.47787272620E+02  0.20000007185E+02 0.  0.
         12    1    3    3    0    0 -0.16839060032E+02  0.39954060469E+02  0.19344886624E+01  0.43400727380E+02  0.00000000000E+00 0. -1.
         11    1    4    4    0    0  0.23663119223E+01 -0.26313039499E+01 -0.56249936711E+01  0.66455809867E+01  0.51100000000E-03 0. -1.
        -11    1    4    4    0    0  0.74866312023E+01 -0.22345698814E+02  0.63398926194E+01  0.24404387739E+02  0.51100000000E-03 0.  1.
        -12    1    4    4    0    0  0.69861169078E+01 -0.14977057705E+02 -0.26493876108E+01  0.16737303894E+02  0.00000000000E+00 0.  1.
</event>
<event>
 8    1  0.5331800E-011  0.9118800E+02  0.7816164E-02  0.1184000E+00
        -11   -1    0    0    0    0  0.00000000000E+00  0.00000000000E+00  0.45593999997E+02  0.45594000000E+02  0.51100000000E-03 0. -1.
         11   -1    0    0    0    0 -0.00000000000E+00 -0.00000000000E+00 -0.45593999997E+02  0.45594000000E+02  0.51100000000E-03 0.  1.
         23    2    1    2    0    0  0.00000000000E+00  0.00000000000E+00  0.00000000000E+00  0.91188000000E+02  0.91188000000E+02 0.  0.
    9900012    2    3    3    0    0 -0.44930228131E+01  0.24254983850E+02  0.35708974209E+02  0.47787281866E+02  0.20000049338E+02 0.  0.
        -12    1    3    3    0    0  0.44930228131E+01 -0.24254983850E+02 -0.35708974209E+02  0.43400718134E+02  0.00000000000E+00 0.  1.
         11    1    4    4    0    0 -0.62682352201E+00  0.22876602459E+02  0.33349018671E+02  0.40446123354E+02  0.51100000000E-03 0. -1.
        -11    1    4    4    0    0 -0.12705661508E+01  0.97068400805E+00  0.39560147366E+01  0.42669214481E+01  0.51100000000E-03 0.  1.
         12    1    4    4    0    0 -0.25956331403E+01  0.40769738227E+00 -0.15960591989E+01  0.30742370632E+01  0.00000000000E+00 0. -1.
</event>
<event>
 8    1  0.5331800E-011  0.9118800E+02  0.7816164E-02  0.1184000E+00
        -11   -1    0    0    0    0  0.00000000000E+00  0.00000000000E+00  0.45593999997E+02  0.45594000000E+02  0.51100000000E-03 0. -1.
         11   -1    0    0    0    0 -0.00000000000E+00 -0.00000000000E+00 -0.45593999997E+02  0.45594000000E+02  0.51100000000E-03 0.  1.
         23    2    1    2    0    0  0.17763568394E-14  0.00000000000E+00 -0.13322676296E-14  0.91188000000E+02  0.91188000000E+02 0.  0.
    9900012    2    3    3    0    0  0.14491663792E+02 -0.40791722522E+02  0.31064794837E+01  0.47787272350E+02  0.20000005951E+02 0.  0.
        -12    1    3    3    0    0 -0.14491663792E+02  0.40791722522E+02 -0.31064794837E+01  0.43400727650E+02  0.00000000000E+00 0.  1.
         11    1    4    4    0    0  0.11466049569E+02 -0.27889394054E+02 -0.52587708465E+01  0.30609528982E+02  0.51100000000E-03 0. -1.
        -11    1    4    4    0    0 -0.37060173525E+00  0.74306843134E+00  0.10133878935E+01  0.13101342006E+01  0.51100000000E-03 0.  1.
         12    1    4    4    0    0  0.33962159580E+01 -0.13645396900E+02  0.73518624368E+01  0.15867609167E+02  0.00000000000E+00 0. -1.
</event>
<event>
 8    1  0.5331800E-011  0.9118800E+02  0.7816164E-02  0.1184000E+00
        -11   -1    0    0    0    0  0.00000000000E+00  0.00000000000E+00  0.45593999997E+02  0.45594000000E+02  0.51100000000E-03 0. -1.
         11   -1    0    0    0    0 -0.00000000000E+00 -0.00000000000E+00 -0.45593999997E+02  0.45594000000E+02  0.51100000000E-03 0.  1.
         23    2    1    2    0    0  0.00000000000E+00 -0.17763568394E-14  0.00000000000E+00  0.91188000000E+02  0.91188000000E+02 0.  0.
    9900012    2    3    3    0    0  0.73378031259E+01 -0.15513003198E+02  0.39863851323E+02  0.47787271144E+02  0.20000000455E+02 0.  0.
        -12    1    3    3    0    0 -0.73378031259E+01  0.15513003198E+02 -0.39863851323E+02  0.43400728856E+02  0.00000000000E+00 0.  1.
         11    1    4    4    0    0  0.20011669393E+01 -0.20242498039E+01  0.24625282551E+02  0.24789247616E+02  0.51100000000E-03 0. -1.
        -11    1    4    4    0    0  0.69603830076E+01 -0.13872438634E+02  0.13294227556E+02  0.20435948029E+02  0.51100000000E-03 0.  1.
        -12    1    4    4    0    0 -0.16237468210E+01  0.38368523962E+00  0.19443412157E+01  0.25620754994E+01  0.00000000000E+00 0.  1.
</event>
<event>
 8    1  0.5331800E-011  0.9118800E+02  0.7816164E-02  0.1184000E+00
        -11   -1    0    0    0    0  0.00000000000E+00  0.00000000000E+00  0.45593999997E+02  0.45594000000E+02  0.51100000000E-03 0. -1.
         11   -1    0    0    0    0 -0.00000000000E+00 -0.00000000000E+00 -0.45593999997E+02  0.45594000000E+02  0.51100000000E-03 0.  1.
         23    2    1    2    0    0  0.00000000000E+00  0.00000000000E+00  0.00000000000E+00  0.91188000000E+02  0.91188000000E+02 0.  0.
    9900012    2    3    3    0    0 -0.14771926027E+02 -0.23540660633E+02 -0.33335431431E+02  0.47787268551E+02  0.19999988633E+02 0.  0.
         12    1    3    3    0    0  0.14771926027E+02  0.23540660633E+02  0.33335431431E+02  0.43400731449E+02  0.00000000000E+00 0. -1.
         11    1    4    4    0    0 -0.91348544858E+01 -0.12001903564E+02 -0.72540497714E+01  0.16736561594E+02  0.51100000000E-03 0. -1.
        -11    1    4    4    0    0 -0.76392975174E+01 -0.10774800435E+02 -0.25669741860E+02  0.28868509459E+02  0.51100000000E-03 0.  1.
        -12    1    4    4    0    0  0.20022259761E+01 -0.76395663337E+00 -0.41163979994E+00  0.21821974984E+01  0.00000000000E+00 0.  1.
</event>
<event>
 8    1  0.5331800E-011  0.9118800E+02  0.7816164E-02  0.1184000E+00
        -11   -1    0    0    0    0  0.00000000000E+00  0.00000000000E+00  0.45593999997E+02  0.45594000000E+02  0.51100000000E-03 0. -1.
         11   -1    0    0    0    0 -0.00000000000E+00 -0.00000000000E+00 -0.45593999997E+02  0.45594000000E+02  0.51100000000E-03 0.  1.
         23    2    1    2    0    0  0.00000000000E+00  0.00000000000E+00  0.00000000000E+00  0.91188000000E+02  0.91188000000E+02 0.  0.
    9900012    2    3    3    0    0  0.52705623426E+01  0.11084310597E+02 -0.41629109538E+02  0.47787268097E+02  0.19999986560E+02 0.  0.
         12    1    3    3    0    0 -0.52705623426E+01 -0.11084310597E+02  0.41629109538E+02  0.43400731903E+02  0.00000000000E+00 0. -1.
         11    1    4    4    0    0  0.36033459139E+01  0.50005908052E+01 -0.27451342745E+01  0.67472789050E+01  0.51100000000E-03 0. -1.
        -11    1    4    4    0    0  0.37856514984E+01  0.65311069932E+01 -0.37930121939E+02  0.38674030904E+02  0.51100000000E-03 0.  1.
        -12    1    4    4    0    0 -0.21184350696E+01 -0.44738720180E+00 -0.95385332476E+00  0.23659582874E+01  0.00000000000E+00 0.  1.
</event>
<event>
 8    1  0.5331800E-011  0.9118800E+02  0.7816164E-02  0.1184000E+00
        -11   -1    0    0    0    0  0.00000000000E+00  0.00000000000E+00  0.45593999997E+02  0.45594000000E+02  0.51100000000E-03 0. -1.
         11   -1    0    0    0    0 -0.00000000000E+00 -0.00000000000E+00 -0.45593999997E+02  0.45594000000E+02  0.51100000000E-03 0.  1.
         23    2    1    2    0    0  0.13877787808E-15  0.00000000000E+00  0.00000000000E+00  0.91188000000E+02  0.91188000000E+02 0.  0.
    9900012    2    3    3    0    0 -0.16787430007E-01  0.35590344501E+02  0.24838483742E+02  0.47787272147E+02  0.20000005027E+02 0.  0.
        -12    1    3    3    0    0  0.16787430007E-01 -0.35590344501E+02 -0.24838483742E+02  0.43400727853E+02  0.00000000000E+00 0.  1.
         11    1    4    4    0    0 -0.91442720480E-01  0.44886790707E+01 -0.21943948129E+01  0.49971962566E+01  0.51100000000E-03 0.  1.
        -11    1    4    4    0    0  0.19605585497E+01  0.20527361841E+02  0.23973097360E+02  0.31621602921E+02  0.51100000000E-03 0. -1.
        -12    1    4    4    0    0 -0.18859032592E+01  0.10574303590E+02  0.30597811952E+01  0.11168472970E+02  0.00000000000E+00 0.  1.
</event>
<event>
 8    1  0.5331800E-011  0.9118800E+02  0.7816164E-02  0.1184000E+00
        -11   -1    0    0    0    0  0.00000000000E+00  0.00000000000E+00  0.45593999997E+02  0.45594000000E+02  0.51100000000E-03 0. -1.
         11   -1    0    0    0    0 -0.00000000000E+00 -0.00000000000E+00 -0.45593999997E+02  0.45594000000E+02  0.51100000000E-03 0.  1.
         23    2    1    2    0    0  0.71054273576E-14 -0.17763568394E-14  0.00000000000E+00  0.91188000000E+02  0.91188000000E+02 0.  0.
    9900012    2    3    3    0    0  0.37128750942E+02  0.87273481334E+01  0.20710193568E+02  0.47787275702E+02  0.20000021237E+02 0.  0.
        -12    1    3    3    0    0 -0.37128750942E+02 -0.87273481334E+01 -0.20710193568E+02  0.43400724298E+02  0.00000000000E+00 0.  1.
         11    1    4    4    0    0  0.20521849813E+02  0.90758521229E+01  0.15046409203E+02  0.27016880680E+02  0.51100000000E-03 0. -1.
        -11    1    4    4    0    0 -0.12474580436E+01 -0.99755895767E+00 -0.78021922826E+00  0.17776438760E+01  0.51100000000E-03 0.  1.
         12    1    4    4    0    0  0.17854359172E+02  0.64905496816E+00  0.64440035933E+01  0.18992751147E+02  0.00000000000E+00 0. -1.
</event>
<event>
 8    1  0.5331800E-011  0.9118800E+02  0.7816164E-02  0.1184000E+00
        -11   -1    0    0    0    0  0.00000000000E+00  0.00000000000E+00  0.45593999997E+02  0.45594000000E+02  0.51100000000E-03 0. -1.
         11   -1    0    0    0    0 -0.00000000000E+00 -0.00000000000E+00 -0.45593999997E+02  0.45594000000E+02  0.51100000000E-03 0.  1.
         23    2    1    2    0    0  0.00000000000E+00  0.00000000000E+00  0.00000000000E+00  0.91188000000E+02  0.91188000000E+02 0.  0.
    9900012    2    3    3    0    0  0.35954419920E+02  0.22098720062E+02 -0.10126665016E+02  0.47787273226E+02  0.20000009945E+02 0.  0.
         12    1    3    3    0    0 -0.35954419920E+02 -0.22098720062E+02  0.10126665016E+02  0.43400726774E+02  0.00000000000E+00 0. -1.
         11    1    4    4    0    0  0.40862685974E+01  0.68196557732E+01  0.26315072714E+01  0.83743732121E+01  0.51100000000E-03 0. -1.
        -11    1    4    4    0    0  0.92474602508E+01  0.21353159081E+01 -0.88194688194E+01  0.12956007318E+02  0.51100000000E-03 0.  1.
        -12    1    4    4    0    0  0.22620691072E+02  0.13143748381E+02 -0.39387034677E+01  0.26456892695E+02  0.00000000000E+00 0.  1.
</event>
<event>
 8    1  0.5331800E-011  0.9118800E+02  0.7816164E-02  0.1184000E+00
        -11   -1    0    0    0    0  0.00000000000E+00  0.00000000000E+00  0.45593999997E+02  0.45594000000E+02  0.51100000000E-03 0. -1.
         11   -1    0    0    0    0 -0.00000000000E+00 -0.00000000000E+00 -0.45593999997E+02  0.45594000000E+02  0.51100000000E-03 0.  1.
         23    2    1    2    0    0  0.00000000000E+00  0.44408920985E-15  0.00000000000E+00  0.91188000000E+02  0.91188000000E+02 0.  0.
    9900012    2    3    3    0    0 -0.18501329818E+02  0.39103384157E+01 -0.39064480197E+02  0.47787267695E+02  0.19999984727E+02 0.  0.
         12    1    3    3    0    0  0.18501329818E+02 -0.39103384157E+01  0.39064480197E+02  0.43400732305E+02  0.00000000000E+00 0. -1.
         11    1    4    4    0    0 -0.68268201209E+01  0.15738132081E-01 -0.22623906877E+01  0.71919491473E+01  0.51100000000E-03 0. -1.
        -11    1    4    4    0    0 -0.36190842862E+01  0.54718740370E+01 -0.27118938050E+02  0.27901182372E+02  0.51100000000E-03 0.  1.
        -12    1    4    4    0    0 -0.80554254105E+01 -0.15772737534E+01 -0.96831514595E+01  0.12694136175E+02  0.00000000000E+00 0.  1.
</event>
<event>
 8    1  0.5331800E-011  0.9118800E+02  0.7816164E-02  0.1184000E+00
        -11   -1    0    0    0    0  0.00000000000E+00  0.00000000000E+00  0.45593999997E+02  0.45594000000E+02  0.51100000000E-03 0. -1.
         11   -1    0    0    0    0 -0.00000000000E+00 -0.00000000000E+00 -0.45593999997E+02  0.45594000000E+02  0.51100000000E-03 0.  1.
         23    2    1    2    0    0  0.00000000000E+00 -0.35527136788E-14  0.00000000000E+00  0.91188000000E+02  0.91188000000E+02 0.  0.
    9900012    2    3    3    0    0 -0.90701673013E+01  0.17186501622E+02 -0.38806953002E+02  0.47787269889E+02  0.19999994733E+02 0.  0.
         12    1    3    3    0    0  0.90701673013E+01 -0.17186501622E+02  0.38806953002E+02  0.43400730111E+02  0.00000000000E+00 0. -1.
         11    1    4    4    0    0  0.26207990612E+01  0.18375694834E+01  0.96218497392E+00  0.33423120008E+01  0.51100000000E-03 0. -1.
        -11    1    4    4    0    0 -0.10669603159E+02  0.12728272650E+02 -0.36692556384E+02  0.40276457770E+02  0.51100000000E-03 0.  1.
        -12    1    4    4    0    0 -0.10213632031E+01  0.26206594888E+01 -0.30765815917E+01  0.41685001186E+01  0.00000000000E+00 0.  1.
</event>
<event>
 8    1  0.5519767E-011  0.9118800E+02  0.7816164E-02  0.1184000E+00
        -11   -1    0    0    0    0  0.00000000000E+00  0.00000000000E+00  0.45593999997E+02  0.45594000000E+02  0.51100000000E-03 0. -1.
         11   -1    0    0    0    0 -0.00000000000E+00 -0.00000000000E+00 -0.45593999997E+02  0.45594000000E+02  0.51100000000E-03 0.  1.
         23    2    1    2    0    0  0.00000000000E+00  0.35527136788E-14 -0.71054273576E-14  0.91188000000E+02  0.91188000000E+02 0.  0.
    9900012    2    3    3    0    0 -0.16377892330E+02 -0.17220801058E+02  0.36315727353E+02  0.47787269598E+02  0.19999993404E+02 0.  0.
        -12    1    3    3    0    0  0.16377892330E+02  0.17220801058E+02 -0.36315727353E+02  0.43400730402E+02  0.00000000000E+00 0.  1.
         11    1    4    4    0    0 -0.79360308796E+01 -0.98331093864E+01  0.25418502116E+02  0.28386103579E+02  0.51100000000E-03 0. -1.
        -11    1    4    4    0    0 -0.27338600991E+01 -0.75720873771E+01  0.11891302666E+01  0.81378454974E+01  0.51100000000E-03 0.  1.
        -12    1    4    4    0    0 -0.57080013510E+01  0.18439570543E+00  0.97080949712E+01  0.11263320521E+02  0.00000000000E+00 0.  1.
</event>
<event>
 8    1  0.5331800E-011  0.9118800E+02  0.7816164E-02  0.1184000E+00
        -11   -1    0    0    0    0  0.00000000000E+00  0.00000000000E+00  0.45593999997E+02  0.45594000000E+02  0.51100000000E-03 0. -1.
         11   -1    0    0    0    0 -0.00000000000E+00 -0.00000000000E+00 -0.45593999997E+02  0.45594000000E+02  0.51100000000E-03 0.  1.
         23    2    1    2    0    0  0.00000000000E+00  0.00000000000E+00  0.00000000000E+00  0.91188000000E+02  0.91188000000E+02 0.  0.
    9900012    2    3    3    0    0 -0.13696639030E+02  0.10077540198E+02 -0.39930796777E+02  0.47787271108E+02  0.20000000288E+02 0.  0.
         12    1    3    3    0    0  0.13696639030E+02 -0.10077540198E+02  0.39930796777E+02  0.43400728892E+02  0.00000000000E+00 0. -1.
         11    1    4    4    0    0 -0.50935876370E+01  0.17911422520E+01 -0.16530287378E+02  0.17389744870E+02  0.51100000000E-03 0. -1.
        -11    1    4    4    0    0 -0.10334274537E+02  0.64388899397E+01 -0.24709994874E+02  0.27547057571E+02  0.51100000000E-03 0.  1.
         12    1    4    4    0    0  0.17312231441E+01  0.18475080061E+01  0.13094854757E+01  0.28504686664E+01  0.00000000000E+00 0. -1.
</event>
<event>
 8    1  0.5331800E-011  0.9118800E+02  0.7816164E-02  0.1184000E+00
        -11   -1    0    0    0    0  0.00000000000E+00  0.00000000000E+00  0.45593999997E+02  0.45594000000E+02  0.51100000000E-03 0. -1.
         11   -1    0    0    0    0 -0.00000000000E+00 -0.00000000000E+00 -0.45593999997E+02  0.45594000000E+02  0.51100000000E-03 0.  1.
         23    2    1    2    0    0  0.00000000000E+00  0.00000000000E+00  0.35527136788E-14  0.91188000000E+02  0.91188000000E+02 0.  0.
    9900012    2    3    3    0    0 -0.21451211674E+02  0.30899804063E+02 -0.21648800617E+02  0.47787274873E+02  0.20000017454E+02 0.  0.
         12    1    3    3    0    0  0.21451211674E+02 -0.30899804063E+02  0.21648800617E+02  0.43400725127E+02  0.00000000000E+00 0. -1.
         11    1    4    4    0    0  0.11856542142E+01  0.77234262839E+01 -0.58811465393E+01  0.97798248632E+01  0.51100000000E-03 0. -1.
        -11    1    4    4    0    0 -0.16031185915E+02  0.83738896464E+01 -0.10745525959E+02  0.21037758390E+02  0.51100000000E-03 0.  1.
        -12    1    4    4    0    0 -0.66056799733E+01  0.14802488133E+02 -0.50221281181E+01  0.16969691620E+02  0.00000000000E+00 0.  1.
</event>
<event>
 8    1  0.5331800E-011  0.9118800E+02  0.7816164E-02  0.1184000E+00
        -11   -1    0    0    0    0  0.00000000000E+00  0.00000000000E+00  0.45593999997E+02  0.45594000000E+02  0.51100000000E-03 0.  1.
         11   -1    0    0    0    0 -0.00000000000E+00 -0.00000000000E+00 -0.45593999997E+02  0.45594000000E+02  0.51100000000E-03 0. -1.
         23    2    1    2    0    0 -0.71054273576E-14  0.00000000000E+00  0.13322676296E-14  0.91188000000E+02  0.91188000000E+02 0.  0.
    9900012    2    3    3    0    0  0.39893510793E+02 -0.16823639135E+02 -0.30160521609E+01  0.47787267198E+02  0.19999982461E+02 0.  0.
         12    1    3    3    0    0 -0.39893510793E+02  0.16823639135E+02  0.30160521609E+01  0.43400732802E+02  0.00000000000E+00 0. -1.
         11    1    4    4    0    0 -0.17588087659E+01 -0.18896970425E+01  0.16654556600E+01  0.30721500620E+01  0.51100000000E-03 0. -1.
        -11    1    4    4    0    0  0.12082915193E+02 -0.51227020076E+01 -0.32867876728E+01  0.13529297428E+02  0.51100000000E-03 0.  1.
         12    1    4    4    0    0  0.29569404366E+02 -0.98112400848E+01 -0.13947201481E+01  0.31185819708E+02  0.00000000000E+00 0. -1.
</event>
<event>
 8    1  0.5331800E-011  0.9118800E+02  0.7816164E-02  0.1184000E+00
        -11   -1    0    0    0    0  0.00000000000E+00  0.00000000000E+00  0.45593999997E+02  0.45594000000E+02  0.51100000000E-03 0. -1.
         11   -1    0    0    0    0 -0.00000000000E+00 -0.00000000000E+00 -0.45593999997E+02  0.45594000000E+02  0.51100000000E-03 0.  1.
         23    2    1    2    0    0  0.17763568394E-14  0.00000000000E+00  0.71054273576E-14  0.91188000000E+02  0.91188000000E+02 0.  0.
    9900012    2    3    3    0    0 -0.10793130935E+02 -0.29149454240E+02 -0.30289282640E+02  0.47787274191E+02  0.20000014348E+02 0.  0.
         12    1    3    3    0    0  0.10793130935E+02  0.29149454240E+02  0.30289282640E+02  0.43400725809E+02  0.00000000000E+00 0. -1.
         11    1    4    4    0    0 -0.26069843606E+01 -0.22131461477E+02 -0.11351301602E+02  0.25008998438E+02  0.51100000000E-03 0.  1.
        -11    1    4    4    0    0 -0.54718006713E+01 -0.47367829101E+00 -0.70170205913E+01  0.89108670706E+01  0.51100000000E-03 0. -1.
        -12    1    4    4    0    0 -0.27143459027E+01 -0.65443144718E+01 -0.11920960447E+02  0.13867408683E+02  0.00000000000E+00 0.  1.
</event>
<event>
 8    1  0.5331800E-011  0.9118800E+02  0.7816164E-02  0.1184000E+00
        -11   -1    0    0    0    0  0.00000000000E+00  0.00000000000E+00  0.45593999997E+02  0.45594000000E+02  0.51100000000E-03 0. -1.
         11   -1    0    0    0    0 -0.00000000000E+00 -0.00000000000E+00 -0.45593999997E+02  0.45594000000E+02  0.51100000000E-03 0.  1.
         23    2    1    2    0    0  0.88817841970E-15  0.71054273576E-14  0.00000000000E+00  0.91188000000E+02  0.91188000000E+02 0.  0.
    9900012    2    3    3    0    0 -0.24378145631E+01  0.38557378098E+02  0.19773922150E+02  0.47787281770E+02  0.20000048903E+02 0.  0.
        -12    1    3    3    0    0  0.24378145631E+01 -0.38557378098E+02 -0.19773922150E+02  0.43400718230E+02  0.00000000000E+00 0.  1.
         11    1    4    4    0    0  0.63581433221E+01  0.10257202534E+02  0.95665541930E+01  0.15399842522E+02  0.51100000000E-03 0. -1.
        -11    1    4    4    0    0 -0.96027183488E+01  0.28323013516E+02  0.97293260111E+01  0.31449405070E+02  0.51100000000E-03 0.  1.
        -12    1    4    4    0    0  0.80676046363E+00 -0.22837951858E-01  0.47804194625E+00  0.93803417854E+00  0.00000000000E+00 0.  1.
</event>
<event>
 8    1  0.5331800E-011  0.9118800E+02  0.7816164E-02  0.1184000E+00
        -11   -1    0    0    0    0  0.00000000000E+00  0.00000000000E+00  0.45593999997E+02  0.45594000000E+02  0.51100000000E-03 0. -1.
         11   -1    0    0    0    0 -0.00000000000E+00 -0.00000000000E+00 -0.45593999997E+02  0.45594000000E+02  0.51100000000E-03 0.  1.
         23    2    1    2    0    0  0.44408920985E-15  0.00000000000E+00  0.00000000000E+00  0.91188000000E+02  0.91188000000E+02 0.  0.
    9900012    2    3    3    0    0  0.39112068858E+01 -0.13088695788E+02 -0.41194810015E+02  0.47787264189E+02  0.19999968743E+02 0.  0.
         12    1    3    3    0    0 -0.39112068858E+01  0.13088695788E+02  0.41194810015E+02  0.43400735811E+02  0.00000000000E+00 0. -1.
         11    1    4    4    0    0  0.23817923404E+01 -0.17374445816E+02 -0.34980419699E+02  0.39130219329E+02  0.51100000000E-03 0. -1.
        -11    1    4    4    0    0  0.18527825444E+01  0.96512389696E+00 -0.68396923076E+00  0.21981995959E+01  0.51100000000E-03 0.  1.
         12    1    4    4    0    0 -0.32336799910E+00  0.33206261303E+01 -0.55304210860E+01  0.64588452643E+01  0.00000000000E+00 0. -1.
</event>
<event>
 8    1  0.5331800E-011  0.9118800E+02  0.7816164E-02  0.1184000E+00
        -11   -1    0    0    0    0  0.00000000000E+00  0.00000000000E+00  0.45593999997E+02  0.45594000000E+02  0.51100000000E-03 0. -1.
         11   -1    0    0    0    0 -0.00000000000E+00 -0.00000000000E+00 -0.45593999997E+02  0.45594000000E+02  0.51100000000E-03 0.  1.
         23    2    1    2    0    0  0.17763568394E-14  0.00000000000E+00  0.00000000000E+00  0.91188000000E+02  0.91188000000E+02 0.  0.
    9900012    2    3    3    0    0 -0.13405915279E+02 -0.26304547706E+02 -0.31811571207E+02  0.47787264325E+02  0.19999969363E+02 0.  0.
         12    1    3    3    0    0  0.13405915279E+02  0.26304547706E+02  0.31811571207E+02  0.43400735675E+02  0.00000000000E+00 0. -1.
         11    1    4    4    0    0 -0.68522047137E+01 -0.24926621142E+01 -0.42184796425E+01  0.84238734920E+01  0.51100000000E-03 0. -1.
        -11    1    4    4    0    0 -0.62575042226E+00 -0.14178602738E+02 -0.23265562038E+02  0.27252719431E+02  0.51100000000E-03 0.  1.
        -12    1    4    4    0    0 -0.59279601427E+01 -0.96332828541E+01 -0.43275295266E+01  0.12110671402E+02  0.00000000000E+00 0.  1.
</event>
<event>
 8    1  0.5331800E-011  0.9118800E+02  0.7816164E-02  0.1184000E+00
        -11   -1    0    0    0    0  0.00000000000E+00  0.00000000000E+00  0.45593999997E+02  0.45594000000E+02  0.51100000000E-03 0. -1.
         11   -1    0    0    0    0 -0.00000000000E+00 -0.00000000000E+00 -0.45593999997E+02  0.45594000000E+02  0.51100000000E-03 0.  1.
         23    2    1    2    0    0 -0.88817841970E-15  0.00000000000E+00  0.00000000000E+00  0.91188000000E+02  0.91188000000E+02 0.  0.
    9900012    2    3    3    0    0 -0.23667859434E+00 -0.19244482889E+02  0.38900092419E+02  0.47787270413E+02  0.19999997123E+02 0.  0.
        -12    1    3    3    0    0  0.23667859434E+00  0.19244482889E+02 -0.38900092419E+02  0.43400729587E+02  0.00000000000E+00 0.  1.
         11    1    4    4    0    0 -0.83013250516E+01 -0.52106219220E+01  0.15825279290E+02  0.18614565353E+02  0.51100000000E-03 0. -1.
        -11    1    4    4    0    0  0.33635372723E-01  0.65052935192E+00 -0.18926030573E-01  0.65167340882E+00  0.51100000000E-03 0.  1.
         12    1    4    4    0    0  0.80310110846E+01 -0.14684390318E+02  0.23093739160E+02  0.28521031652E+02  0.00000000000E+00 0. -1.
</event>
<event>
 8    1  0.5331800E-011  0.9118800E+02  0.7816164E-02  0.1184000E+00
        -11   -1    0    0    0    0  0.00000000000E+00  0.00000000000E+00  0.45593999997E+02  0.45594000000E+02  0.51100000000E-03 0. -1.
         11   -1    0    0    0    0 -0.00000000000E+00 -0.00000000000E+00 -0.45593999997E+02  0.45594000000E+02  0.51100000000E-03 0.  1.
         23    2    1    2    0    0  0.00000000000E+00  0.35527136788E-14 -0.35527136788E-14  0.91188000000E+02  0.91188000000E+02 0.  0.
    9900012    2    3    3    0    0 -0.18173868721E+02 -0.28482934946E+02  0.27240705054E+02  0.47787273056E+02  0.20000009170E+02 0.  0.
        -12    1    3    3    0    0  0.18173868721E+02  0.28482934946E+02 -0.27240705054E+02  0.43400726944E+02  0.00000000000E+00 0.  1.
         11    1    4    4    0    0 -0.13213089669E+02 -0.18933439105E+02  0.24719198006E+02  0.33824541464E+02  0.51100000000E-03 0. -1.
        -11    1    4    4    0    0 -0.63556565765E+01 -0.53953667673E+01 -0.92448243982E+00  0.83880284403E+01  0.51100000000E-03 0.  1.
         12    1    4    4    0    0  0.13948775242E+01 -0.41541290745E+01  0.34459894877E+01  0.55747031513E+01  0.00000000000E+00 0. -1.
</event>
<event>
 8    1  0.5331800E-011  0.9118800E+02  0.7816164E-02  0.1184000E+00
        -11   -1    0    0    0    0  0.00000000000E+00  0.00000000000E+00  0.45593999997E+02  0.45594000000E+02  0.51100000000E-03 0. -1.
         11   -1    0    0    0    0 -0.00000000000E+00 -0.00000000000E+00 -0.45593999997E+02  0.45594000000E+02  0.51100000000E-03 0.  1.
         23    2    1    2    0    0  0.00000000000E+00  0.00000000000E+00  0.00000000000E+00  0.91188000000E+02  0.91188000000E+02 0.  0.
    9900012    2    3    3    0    0 -0.90309838883E+01  0.16481850293E+02 -0.39120495307E+02  0.47787271756E+02  0.20000003245E+02 0.  0.
         12    1    3    3    0    0  0.90309838883E+01 -0.16481850293E+02  0.39120495307E+02  0.43400728244E+02  0.00000000000E+00 0. -1.
         11    1    4    4    0    0 -0.86973589537E+01  0.70124306294E+01 -0.11738132261E+02  0.16204998777E+02  0.51100000000E-03 0. -1.
        -11    1    4    4    0    0  0.43334766190E+01  0.99964215787E+01 -0.20998310094E+02  0.23656637357E+02  0.51100000000E-03 0.  1.
        -12    1    4    4    0    0 -0.46671015536E+01 -0.52700191557E+00 -0.63840529512E+01  0.79256356221E+01  0.00000000000E+00 0.  1.
</event>
<event>
 8    1  0.5331800E-011  0.9118800E+02  0.7816164E-02  0.1184000E+00
        -11   -1    0    0    0    0  0.00000000000E+00  0.00000000000E+00  0.45593999997E+02  0.45594000000E+02  0.51100000000E-03 0. -1.
         11   -1    0    0    0    0 -0.00000000000E+00 -0.00000000000E+00 -0.45593999997E+02  0.45594000000E+02  0.51100000000E-03 0.  1.
         23    2    1    2    0    0  0.00000000000E+00  0.00000000000E+00  0.00000000000E+00  0.91188000000E+02  0.91188000000E+02 0.  0.
    9900012    2    3    3    0    0  0.23042859401E+02  0.19833302059E+02  0.30972409023E+02  0.47787270045E+02  0.19999995442E+02 0.  0.
        -12    1    3    3    0    0 -0.23042859401E+02 -0.19833302059E+02 -0.30972409023E+02  0.43400729955E+02  0.00000000000E+00 0.  1.
         11    1    4    4    0    0  0.19513322011E+01  0.80206036704E+01  0.20926949273E+01  0.85157003774E+01  0.51100000000E-03 0.  1.
        -11    1    4    4    0    0  0.10455002397E+02  0.89961743073E+01  0.22941165498E+02  0.26768177038E+02  0.51100000000E-03 0. -1.
        -12    1    4    4    0    0  0.10636524803E+02  0.28165240812E+01  0.59385485976E+01  0.12503392629E+02  0.00000000000E+00 0.  1.
</event>
<event>
 8    1  0.5331800E-011  0.9118800E+02  0.7816164E-02  0.1184000E+00
        -11   -1    0    0    0    0  0.00000000000E+00  0.00000000000E+00  0.45593999997E+02  0.45594000000E+02  0.51100000000E-03 0. -1.
         11   -1    0    0    0    0 -0.00000000000E+00 -0.00000000000E+00 -0.45593999997E+02  0.45594000000E+02  0.51100000000E-03 0.  1.
         23    2    1    2    0    0  0.00000000000E+00  0.00000000000E+00 -0.71054273576E-14  0.91188000000E+02  0.91188000000E+02 0.  0.
    9900012    2    3    3    0    0 -0.22225824556E+02  0.14460316010E+02 -0.34358914466E+02  0.47787273974E+02  0.20000013358E+02 0.  0.
         12    1    3    3    0    0  0.22225824556E+02 -0.14460316010E+02  0.34358914466E+02  0.43400726026E+02  0.00000000000E+00 0. -1.
         11    1    4    4    0    0 -0.71338690542E+01  0.53402356325E+01 -0.16014924591E+01  0.90540036807E+01  0.51100000000E-03 0. -1.
        -11    1    4    4    0    0 -0.12593850809E+02  0.11521770391E+02 -0.28750453892E+02  0.33435682593E+02  0.51100000000E-03 0.  1.
        -12    1    4    4    0    0 -0.24981046925E+01 -0.24016900138E+01 -0.40069681146E+01  0.52975877008E+01  0.00000000000E+00 0.  1.
</event>
<event>
 8    1  0.5331800E-011  0.9118800E+02  0.7816164E-02  0.1184000E+00
        -11   -1    0    0    0    0  0.00000000000E+00  0.00000000000E+00  0.45593999997E+02  0.45594000000E+02  0.51100000000E-03 0. -1.
         11   -1    0    0    0    0 -0.00000000000E+00 -0.00000000000E+00 -0.45593999997E+02  0.45594000000E+02  0.51100000000E-03 0.  1.
         23    2    1    2    0    0  0.00000000000E+00  0.00000000000E+00  0.00000000000E+00  0.91188000000E+02  0.91188000000E+02 0.  0.
    9900012    2    3    3    0    0 -0.48262408323E+01  0.29270525259E+02  0.31679138916E+02  0.47787261619E+02  0.19999957026E+02 0.  0.
        -12    1    3    3    0    0  0.48262408323E+01 -0.29270525259E+02 -0.31679138916E+02  0.43400738381E+02  0.00000000000E+00 0.  1.
         11    1    4    4    0    0 -0.32020104084E+01  0.22925137224E+02  0.13873422414E+02  0.26986786343E+02  0.51100000000E-03 0. -1.
        -11    1    4    4    0    0  0.15012539130E+01  0.37170905975E+01  0.15704156570E+02  0.16207746902E+02  0.51100000000E-03 0.  1.
         12    1    4    4    0    0 -0.31254843368E+01  0.26282974379E+01  0.21015599321E+01  0.45927283732E+01  0.00000000000E+00 0. -1.
</event>
<event>
 8    1  0.5331800E-011  0.9118800E+02  0.7816164E-02  0.1184000E+00
        -11   -1    0    0    0    0  0.00000000000E+00  0.00000000000E+00  0.45593999997E+02  0.45594000000E+02  0.51100000000E-03 0. -1.
         11   -1    0    0    0    0 -0.00000000000E+00 -0.00000000000E+00 -0.45593999997E+02  0.45594000000E+02  0.51100000000E-03 0.  1.
         23    2    1    2    0    0  0.00000000000E+00 -0.71054273576E-14  0.00000000000E+00  0.91188000000E+02  0.91188000000E+02 0.  0.
    9900012    2    3    3    0    0  0.13400205280E+02 -0.40543550383E+02  0.77639153632E+01  0.47787270041E+02  0.19999995427E+02 0.  0.
        -12    1    3    3    0    0 -0.13400205280E+02  0.40543550383E+02 -0.77639153632E+01  0.43400729959E+02  0.00000000000E+00 0.  1.
         11    1    4    4    0    0  0.10021873312E+02 -0.35243509423E+02  0.38119094038E+01  0.36838479267E+02  0.51100000000E-03 0. -1.
        -11    1    4    4    0    0 -0.13476012464E+01 -0.42418368632E+01  0.41726114240E+01  0.61008110485E+01  0.51100000000E-03 0.  1.
         12    1    4    4    0    0  0.47259332141E+01 -0.10582040965E+01 -0.22060546463E+00  0.48479797261E+01  0.00000000000E+00 0. -1.
</event>
<event>
 8    1  0.5331800E-011  0.9118800E+02  0.7816164E-02  0.1184000E+00
        -11   -1    0    0    0    0  0.00000000000E+00  0.00000000000E+00  0.45593999997E+02  0.45594000000E+02  0.51100000000E-03 0. -1.
         11   -1    0    0    0    0 -0.00000000000E+00 -0.00000000000E+00 -0.45593999997E+02  0.45594000000E+02  0.51100000000E-03 0.  1.
         23    2    1    2    0    0  0.44408920985E-15  0.00000000000E+00  0.00000000000E+00  0.91188000000E+02  0.91188000000E+02 0.  0.
    9900012    2    3    3    0    0 -0.16450709023E+01  0.22164707573E+02 -0.37277906426E+02  0.47787276187E+02  0.20000023445E+02 0.  0.
         12    1    3    3    0    0  0.16450709023E+01 -0.22164707573E+02  0.37277906426E+02  0.43400723813E+02  0.00000000000E+00 0. -1.
         11    1    4    4    0    0 -0.63422360691E+01  0.52547760193E+01 -0.11247472202E+02  0.13940669301E+02  0.51100000000E-03 0. -1.
        -11    1    4    4    0    0  0.80692713428E+01  0.78923771051E+01 -0.18294082706E+02  0.21495958194E+02  0.51100000000E-03 0.  1.
        -12    1    4    4    0    0 -0.33721061760E+01  0.90175544482E+01 -0.77363515176E+01  0.12350648691E+02  0.00000000000E+00 0.  1.
</event>
<event>
 8    1  0.5331800E-011  0.9118800E+02  0.7816164E-02  0.1184000E+00
        -11   -1    0    0    0    0  0.00000000000E+00  0.00000000000E+00  0.45593999997E+02  0.45594000000E+02  0.51100000000E-03 0. -1.
         11   -1    0    0    0    0 -0.00000000000E+00 -0.00000000000E+00 -0.45593999997E+02  0.45594000000E+02  0.51100000000E-03 0.  1.
         23    2    1    2    0    0  0.00000000000E+00 -0.17763568394E-14  0.71054273576E-14  0.91188000000E+02  0.91188000000E+02 0.  0.
    9900012    2    3    3    0    0 -0.14788334360E+02  0.12843269728E+02 -0.38729561150E+02  0.47787270544E+02  0.19999997718E+02 0.  0.
         12    1    3    3    0    0  0.14788334360E+02 -0.12843269728E+02  0.38729561150E+02  0.43400729456E+02  0.00000000000E+00 0. -1.
         11    1    4    4    0    0 -0.49743799096E+01  0.12854360606E+02 -0.11919212312E+02  0.18222147637E+02  0.51100000000E-03 0. -1.
        -11    1    4    4    0    0 -0.65586024606E+01  0.34140562862E+01 -0.19559714794E+02  0.20910607108E+02  0.51100000000E-03 0.  1.
         12    1    4    4    0    0 -0.32553519895E+01 -0.34251471647E+01 -0.72506340438E+01  0.86545157988E+01  0.00000000000E+00 0. -1.
</event>
<event>
 8    1  0.5331800E-011  0.9118800E+02  0.7816164E-02  0.1184000E+00
        -11   -1    0    0    0    0  0.00000000000E+00  0.00000000000E+00  0.45593999997E+02  0.45594000000E+02  0.51100000000E-03 0. -1.
         11   -1    0    0    0    0 -0.00000000000E+00 -0.00000000000E+00 -0.45593999997E+02  0.45594000000E+02  0.51100000000E-03 0.  1.
         23    2    1    2    0    0  0.35527136788E-14  0.00000000000E+00  0.35527136788E-14  0.91188000000E+02  0.91188000000E+02 0.  0.
    9900012    2    3    3    0    0 -0.31937323371E+02 -0.13585856853E+01 -0.29356146152E+02  0.47787289222E+02  0.20000082878E+02 0.  0.
         12    1    3    3    0    0  0.31937323371E+02  0.13585856853E+01  0.29356146152E+02  0.43400710778E+02  0.00000000000E+00 0. -1.
         11    1    4    4    0    0 -0.38524729821E+01  0.15259680968E+01  0.13040097497E+01  0.43440267493E+01  0.51100000000E-03 0. -1.
        -11    1    4    4    0    0 -0.46102029713E+01 -0.51195495375E+01 -0.96730172637E+01  0.11875648283E+02  0.51100000000E-03 0.  1.
        -12    1    4    4    0    0 -0.23474647417E+02  0.22349957554E+01 -0.20987138638E+02  0.31567614189E+02  0.00000000000E+00 0.  1.
</event>
<event>
 8    1  0.5331800E-011  0.9118800E+02  0.7816164E-02  0.1184000E+00
        -11   -1    0    0    0    0  0.00000000000E+00  0.00000000000E+00  0.45593999997E+02  0.45594000000E+02  0.51100000000E-03 0.  1.
         11   -1    0    0    0    0 -0.00000000000E+00 -0.00000000000E+00 -0.45593999997E+02  0.45594000000E+02  0.51100000000E-03 0. -1.
         23    2    1    2    0    0 -0.71054273576E-14  0.00000000000E+00  0.88817841970E-15  0.91188000000E+02  0.91188000000E+02 0.  0.
    9900012    2    3    3    0    0 -0.38693754371E+02 -0.18543820238E+02 -0.65225564621E+01  0.47787266837E+02  0.19999980815E+02 0.  0.
         12    1    3    3    0    0  0.38693754371E+02  0.18543820238E+02  0.65225564621E+01  0.43400733163E+02  0.00000000000E+00 0. -1.
         11    1    4    4    0    0 -0.24290421630E+02 -0.55005155452E+01 -0.57371386640E+01  0.25557680148E+02  0.51100000000E-03 0. -1.
        -11    1    4    4    0    0 -0.66481278298E+01 -0.10224069318E+02 -0.47336479955E+01  0.13081919609E+02  0.51100000000E-03 0.  1.
        -12    1    4    4    0    0 -0.77552049110E+01 -0.28192353752E+01  0.39482301973E+01  0.91476670798E+01  0.00000000000E+00 0.  1.
</event>
<event>
 8    1  0.5331800E-011  0.9118800E+02  0.7816164E-02  0.1184000E+00
        -11   -1    0    0    0    0  0.00000000000E+00  0.00000000000E+00  0.45593999997E+02  0.45594000000E+02  0.51100000000E-03 0. -1.
         11   -1    0    0    0    0 -0.00000000000E+00 -0.00000000000E+00 -0.45593999997E+02  0.45594000000E+02  0.51100000000E-03 0.  1.
         23    2    1    2    0    0  0.00000000000E+00  0.00000000000E+00 -0.71054273576E-14  0.91188000000E+02  0.91188000000E+02 0.  0.
    9900012    2    3    3    0    0 -0.56722221083E+01 -0.24196524385E+02 -0.35580571180E+02  0.47787274874E+02  0.20000017462E+02 0.  0.
         12    1    3    3    0    0  0.56722221083E+01  0.24196524385E+02  0.35580571180E+02  0.43400725126E+02  0.00000000000E+00 0. -1.
         11    1    4    4    0    0  0.16743756588E+00  0.31363302612E+01 -0.16475675949E+01  0.35467001687E+01  0.51100000000E-03 0. -1.
        -11    1    4    4    0    0 -0.60544065400E+01 -0.16980610045E+02 -0.21914760104E+02  0.28376991855E+02  0.51100000000E-03 0.  1.
         12    1    4    4    0    0  0.21474686578E+00 -0.10352244601E+02 -0.12018243481E+02  0.15863582851E+02  0.00000000000E+00 0. -1.
</event>
<event>
 8    1  0.5331800E-011  0.9118800E+02  0.7816164E-02  0.1184000E+00
        -11   -1    0    0    0    0  0.00000000000E+00  0.00000000000E+00  0.45593999997E+02  0.45594000000E+02  0.51100000000E-03 0. -1.
         11   -1    0    0    0    0 -0.00000000000E+00 -0.00000000000E+00 -0.45593999997E+02  0.45594000000E+02  0.51100000000E-03 0.  1.
         23    2    1    2    0    0  0.00000000000E+00  0.00000000000E+00  0.35527136788E-14  0.91188000000E+02  0.91188000000E+02 0.  0.
    9900012    2    3    3    0    0  0.62735865390E+01  0.31154910489E+02  0.29557350131E+02  0.47787270946E+02  0.19999999549E+02 0.  0.
        -12    1    3    3    0    0 -0.62735865390E+01 -0.31154910489E+02 -0.29557350131E+02  0.43400729054E+02  0.00000000000E+00 0.  1.
         11    1    4    4    0    0 -0.17037965026E+01  0.12787699105E+02  0.23622854650E+01  0.13115203536E+02  0.51100000000E-03 0. -1.
        -11    1    4    4    0    0  0.11419587624E+00  0.24563505103E+01  0.86924983997E+01  0.90336165083E+01  0.51100000000E-03 0.  1.
         12    1    4    4    0    0  0.78631871654E+01  0.15910860875E+02  0.18502566267E+02  0.25638450901E+02  0.00000000000E+00 0. -1.
</event>
<event>
 8    1  0.5331800E-011  0.9118800E+02  0.7816164E-02  0.1184000E+00
        -11   -1    0    0    0    0  0.00000000000E+00  0.00000000000E+00  0.45593999997E+02  0.45594000000E+02  0.51100000000E-03 0. -1.
         11   -1    0    0    0    0 -0.00000000000E+00 -0.00000000000E+00 -0.45593999997E+02  0.45594000000E+02  0.51100000000E-03 0.  1.
         23    2    1    2    0    0 -0.99920072216E-15  0.00000000000E+00  0.00000000000E+00  0.91188000000E+02  0.91188000000E+02 0.  0.
    9900012    2    3    3    0    0 -0.83415330805E+00  0.36693510037E+01 -0.43237293264E+02  0.47787268700E+02  0.19999989313E+02 0.  0.
         12    1    3    3    0    0  0.83415330805E+00 -0.36693510037E+01  0.43237293264E+02  0.43400731300E+02  0.00000000000E+00 0. -1.
         11    1    4    4    0    0 -0.18409965494E+01  0.11719038893E+01  0.52078141209E-01  0.21829657383E+01  0.51100000000E-03 0. -1.
        -11    1    4    4    0    0  0.42165460241E+01  0.11783908733E+01 -0.41442788129E+02  0.41673403432E+02  0.51100000000E-03 0.  1.
        -12    1    4    4    0    0 -0.32097027827E+01  0.13190562410E+01 -0.18465832761E+01  0.39308995301E+01  0.00000000000E+00 0.  1.
</event>
<event>
 8    1  0.5331800E-011  0.9118800E+02  0.7816164E-02  0.1184000E+00
        -11   -1    0    0    0    0  0.00000000000E+00  0.00000000000E+00  0.45593999997E+02  0.45594000000E+02  0.51100000000E-03 0. -1.
         11   -1    0    0    0    0 -0.00000000000E+00 -0.00000000000E+00 -0.45593999997E+02  0.45594000000E+02  0.51100000000E-03 0.  1.
         23    2    1    2    0    0 -0.22204460493E-15  0.00000000000E+00  0.00000000000E+00  0.91188000000E+02  0.91188000000E+02 0.  0.
    9900012    2    3    3    0    0  0.19568214938E+01 -0.72587744452E+01  0.42744642069E+02  0.47787269794E+02  0.19999994298E+02 0.  0.
        -12    1    3    3    0    0 -0.19568214938E+01  0.72587744452E+01 -0.42744642069E+02  0.43400730206E+02  0.00000000000E+00 0.  1.
         11    1    4    4    0    0  0.12032479560E+01 -0.29525275754E+01  0.80199744429E+01  0.86304817393E+01  0.51100000000E-03 0. -1.
        -11    1    4    4    0    0 -0.49305041319E+01 -0.60629775543E+01  0.60813537959E+01  0.99021428020E+01  0.51100000000E-03 0.  1.
        -12    1    4    4    0    0  0.56840776697E+01  0.17567306845E+01  0.28643313830E+02  0.29254645252E+02  0.00000000000E+00 0.  1.
</event>
<event>
 8    1  0.5331800E-011  0.9118800E+02  0.7816164E-02  0.1184000E+00
        -11   -1    0    0    0    0  0.00000000000E+00  0.00000000000E+00  0.45593999997E+02  0.45594000000E+02  0.51100000000E-03 0. -1.
         11   -1    0    0    0    0 -0.00000000000E+00 -0.00000000000E+00 -0.45593999997E+02  0.45594000000E+02  0.51100000000E-03 0.  1.
         23    2    1    2    0    0  0.00000000000E+00  0.17763568394E-14  0.00000000000E+00  0.91188000000E+02  0.91188000000E+02 0.  0.
    9900012    2    3    3    0    0  0.18901708461E+02 -0.10110238002E+02 -0.37737671772E+02  0.47787269984E+02  0.19999995164E+02 0.  0.
         12    1    3    3    0    0 -0.18901708461E+02  0.10110238002E+02  0.37737671772E+02  0.43400730016E+02  0.00000000000E+00 0. -1.
         11    1    4    4    0    0  0.82450013079E+01  0.50143660448E+01 -0.13737486827E+02  0.16788164223E+02  0.51100000000E-03 0. -1.
        -11    1    4    4    0    0  0.11251296630E+02 -0.13893296561E+02 -0.23534069899E+02  0.29554488854E+02  0.51100000000E-03 0.  1.
         12    1    4    4    0    0 -0.59458947625E+00 -0.12313074862E+01 -0.46611504585E+00  0.14446169066E+01  0.00000000000E+00 0. -1.
</event>
<event>
 8    1  0.5331800E-011  0.9118800E+02  0.7816164E-02  0.1184000E+00
        -11   -1    0    0    0    0  0.00000000000E+00  0.00000000000E+00  0.45593999997E+02  0.45594000000E+02  0.51100000000E-03 0. -1.
         11   -1    0    0    0    0 -0.00000000000E+00 -0.00000000000E+00 -0.45593999997E+02  0.45594000000E+02  0.51100000000E-03 0.  1.
         23    2    1    2    0    0  0.17763568394E-14  0.00000000000E+00  0.00000000000E+00  0.91188000000E+02  0.91188000000E+02 0.  0.
    9900012    2    3    3    0    0 -0.13604356530E+02 -0.10342259908E+02  0.39894635188E+02  0.47787276810E+02  0.20000026288E+02 0.  0.
        -12    1    3    3    0    0  0.13604356530E+02  0.10342259908E+02 -0.39894635188E+02  0.43400723190E+02  0.00000000000E+00 0.  1.
         11    1    4    4    0    0  0.23594978247E+01  0.21522222029E+01  0.97405085761E+01  0.10250697439E+02  0.51100000000E-03 0.  1.
        -11    1    4    4    0    0 -0.73145018617E+01 -0.12159883505E+01  0.61201485861E+01  0.96144050326E+01  0.51100000000E-03 0. -1.
         12    1    4    4    0    0 -0.86493524931E+01 -0.11278493761E+02  0.24033978026E+02  0.27922174339E+02  0.00000000000E+00 0. -1.
</event>
<event>
 8    1  0.5331800E-011  0.9118800E+02  0.7816164E-02  0.1184000E+00
        -11   -1    0    0    0    0  0.00000000000E+00  0.00000000000E+00  0.45593999997E+02  0.45594000000E+02  0.51100000000E-03 0. -1.
         11   -1    0    0    0    0 -0.00000000000E+00 -0.00000000000E+00 -0.45593999997E+02  0.45594000000E+02  0.51100000000E-03 0.  1.
         23    2    1    2    0    0 -0.17763568394E-14  0.17763568394E-14 -0.71054273576E-14  0.91188000000E+02  0.91188000000E+02 0.  0.
    9900012    2    3    3    0    0 -0.12216256849E+02  0.62613126811E+01 -0.41172593646E+02  0.47787269184E+02  0.19999991517E+02 0.  0.
         12    1    3    3    0    0  0.12216256849E+02 -0.62613126811E+01  0.41172593646E+02  0.43400730816E+02  0.00000000000E+00 0. -1.
         11    1    4    4    0    0 -0.14985016261E+01 -0.48195389737E+01 -0.39522930929E+01  0.64104667534E+01  0.51100000000E-03 0. -1.
        -11    1    4    4    0    0  0.13933961271E+01 -0.29608742221E+00 -0.36769928328E+01  0.39432850622E+01  0.51100000000E-03 0.  1.
         12    1    4    4    0    0 -0.12111151349E+02  0.11376939077E+02 -0.33543307720E+02  0.37433517368E+02  0.00000000000E+00 0. -1.
</event>
<event>
 8    1  0.5331800E-011  0.9118800E+02  0.7816164E-02  0.1184000E+00
        -11   -1    0    0    0    0  0.00000000000E+00  0.00000000000E+00  0.45593999997E+02  0.45594000000E+02  0.51100000000E-03 0. -1.
         11   -1    0    0    0    0 -0.00000000000E+00 -0.00000000000E+00 -0.45593999997E+02  0.45594000000E+02  0.51100000000E-03 0.  1.
         23    2    1    2    0    0 -0.88817841970E-15  0.44408920985E-15  0.00000000000E+00  0.91188000000E+02  0.91188000000E+02 0.  0.
    9900012    2    3    3    0    0 -0.55343232753E+01  0.38101316508E+01  0.42877469860E+02  0.47787271217E+02  0.20000000788E+02 0.  0.
        -12    1    3    3    0    0  0.55343232753E+01 -0.38101316508E+01 -0.42877469860E+02  0.43400728783E+02  0.00000000000E+00 0.  1.
         11    1    4    4    0    0 -0.34620240885E+01  0.10056349417E+02  0.17076713312E+02  0.20117900293E+02  0.51100000000E-03 0. -1.
        -11    1    4    4    0    0  0.25371138844E+01 -0.37872840210E+01  0.92255708814E+01  0.10290365662E+02  0.51100000000E-03 0.  1.
         12    1    4    4    0    0 -0.46094130712E+01 -0.24589337452E+01  0.16575185666E+02  0.17379005262E+02  0.00000000000E+00 0. -1.
</event>
<event>
 8    1  0.5331800E-011  0.9118800E+02  0.7816164E-02  0.1184000E+00
        -11   -1    0    0    0    0  0.00000000000E+00  0.00000000000E+00  0.45593999997E+02  0.45594000000E+02  0.51100000000E-03 0. -1.
         11   -1    0    0    0    0 -0.00000000000E+00 -0.00000000000E+00 -0.45593999997E+02  0.45594000000E+02  0.51100000000E-03 0.  1.
         23    2    1    2    0    0  0.35527136788E-14  0.88817841970E-15  0.00000000000E+00  0.91188000000E+02  0.91188000000E+02 0.  0.
    9900012    2    3    3    0    0  0.16993074022E+02 -0.69776480712E+01 -0.39321382605E+02  0.47787271120E+02  0.20000000345E+02 0.  0.
         12    1    3    3    0    0 -0.16993074022E+02  0.69776480712E+01  0.39321382605E+02  0.43400728880E+02  0.00000000000E+00 0. -1.
         11    1    4    4    0    0  0.16740319496E+01  0.10329379975E+00 -0.23097917348E+00  0.16930458403E+01  0.51100000000E-03 0. -1.
        -11    1    4    4    0    0  0.18719010226E+02 -0.58780797297E+01 -0.26344526016E+02  0.32847940825E+02  0.51100000000E-03 0.  1.
        -12    1    4    4    0    0 -0.33999681535E+01 -0.12028621413E+01 -0.12745877416E+02  0.13246284455E+02  0.00000000000E+00 0.  1.
</event>
<event>
 8    1  0.5331800E-011  0.9118800E+02  0.7816164E-02  0.1184000E+00
        -11   -1    0    0    0    0  0.00000000000E+00  0.00000000000E+00  0.45593999997E+02  0.45594000000E+02  0.51100000000E-03 0. -1.
         11   -1    0    0    0    0 -0.00000000000E+00 -0.00000000000E+00 -0.45593999997E+02  0.45594000000E+02  0.51100000000E-03 0.  1.
         23    2    1    2    0    0  0.00000000000E+00  0.00000000000E+00 -0.35527136788E-14  0.91188000000E+02  0.91188000000E+02 0.  0.
    9900012    2    3    3    0    0  0.34380387462E+02 -0.13729136140E+02 -0.22652206719E+02  0.47787277766E+02  0.20000030648E+02 0.  0.
         12    1    3    3    0    0 -0.34380387462E+02  0.13729136140E+02  0.22652206719E+02  0.43400722234E+02  0.00000000000E+00 0. -1.
         11    1    4    4    0    0  0.13098387470E+01 -0.48003255233E+01 -0.91085459352E+01  0.10379037142E+02  0.51100000000E-03 0. -1.
        -11    1    4    4    0    0  0.17071370665E+02 -0.14040927491E+01 -0.77710197877E+01  0.18809357289E+02  0.51100000000E-03 0.  1.
         12    1    4    4    0    0  0.15999178049E+02 -0.75247178678E+01 -0.57726409958E+01  0.18598883335E+02  0.00000000000E+00 0. -1.
</event>
<event>
 8    1  0.5331800E-011  0.9118800E+02  0.7816164E-02  0.1184000E+00
        -11   -1    0    0    0    0  0.00000000000E+00  0.00000000000E+00  0.45593999997E+02  0.45594000000E+02  0.51100000000E-03 0. -1.
         11   -1    0    0    0    0 -0.00000000000E+00 -0.00000000000E+00 -0.45593999997E+02  0.45594000000E+02  0.51100000000E-03 0.  1.
         23    2    1    2    0    0  0.00000000000E+00  0.71054273576E-14 -0.88817841970E-15  0.91188000000E+02  0.91188000000E+02 0.  0.
    9900012    2    3    3    0    0  0.21502945822E+02 -0.37540076195E+02  0.34625974273E+01  0.47787267510E+02  0.19999983884E+02 0.  0.
        -12    1    3    3    0    0 -0.21502945822E+02  0.37540076195E+02 -0.34625974273E+01  0.43400732490E+02  0.00000000000E+00 0.  1.
         11    1    4    4    0    0  0.10503844847E+02 -0.13276654914E+02 -0.98783638250E+00  0.16958070151E+02  0.51100000000E-03 0. -1.
        -11    1    4    4    0    0 -0.32244432897E+01 -0.12790582538E+01  0.28310034736E+00  0.34803980538E+01  0.51100000000E-03 0.  1.
        -12    1    4    4    0    0  0.14223544265E+02 -0.22984363027E+02  0.41673334624E+01  0.27348799305E+02  0.00000000000E+00 0.  1.
</event>
<event>
 8    1  0.5331800E-011  0.9118800E+02  0.7816164E-02  0.1184000E+00
        -11   -1    0    0    0    0  0.00000000000E+00  0.00000000000E+00  0.45593999997E+02  0.45594000000E+02  0.51100000000E-03 0. -1.
         11   -1    0    0    0    0 -0.00000000000E+00 -0.00000000000E+00 -0.45593999997E+02  0.45594000000E+02  0.51100000000E-03 0.  1.
         23    2    1    2    0    0 -0.88817841970E-15  0.00000000000E+00  0.35527136788E-14  0.91188000000E+02  0.91188000000E+02 0.  0.
    9900012    2    3    3    0    0 -0.40338058693E+01 -0.33059061106E+02  0.27828944241E+02  0.47787271336E+02  0.20000001328E+02 0.  0.
        -12    1    3    3    0    0  0.40338058693E+01  0.33059061106E+02 -0.27828944241E+02  0.43400728664E+02  0.00000000000E+00 0.  1.
         11    1    4    4    0    0 -0.79792900745E+01 -0.92269540329E+01  0.35431110171E+01  0.12702731468E+02  0.51100000000E-03 0. -1.
        -11    1    4    4    0    0 -0.79065380466E+00  0.20839684555E+00  0.76192159989E+00  0.11176258182E+01  0.51100000000E-03 0.  1.
         12    1    4    4    0    0  0.47361380098E+01 -0.24040503919E+02  0.23523911624E+02  0.33966914049E+02  0.00000000000E+00 0. -1.
</event>
<event>
 8    1  0.5331800E-011  0.9118800E+02  0.7816164E-02  0.1184000E+00
        -11   -1    0    0    0    0  0.00000000000E+00  0.00000000000E+00  0.45593999997E+02  0.45594000000E+02  0.51100000000E-03 0. -1.
         11   -1    0    0    0    0 -0.00000000000E+00 -0.00000000000E+00 -0.45593999997E+02  0.45594000000E+02  0.51100000000E-03 0.  1.
         23    2    1    2    0    0  0.00000000000E+00  0.00000000000E+00  0.00000000000E+00  0.91188000000E+02  0.91188000000E+02 0.  0.
    9900012    2    3    3    0    0  0.23593030166E+02 -0.58371496495E+01  0.35957187895E+02  0.47787277083E+02  0.20000027531E+02 0.  0.
        -12    1    3    3    0    0 -0.23593030166E+02  0.58371496495E+01 -0.35957187895E+02  0.43400722917E+02  0.00000000000E+00 0.  1.
         11    1    4    4    0    0  0.17774143256E+02  0.36384607325E+00  0.31452000363E+02  0.36128671157E+02  0.51100000000E-03 0. -1.
        -11    1    4    4    0    0  0.50057573005E+01 -0.57578662182E+01  0.60897182104E+00  0.76538537012E+01  0.51100000000E-03 0.  1.
        -12    1    4    4    0    0  0.81312960930E+00 -0.44312950455E+00  0.38962157108E+01  0.40047522251E+01  0.00000000000E+00 0.  1.
</event>
<event>
 8    1  0.5331800E-011  0.9118800E+02  0.7816164E-02  0.1184000E+00
        -11   -1    0    0    0    0  0.00000000000E+00  0.00000000000E+00  0.45593999997E+02  0.45594000000E+02  0.51100000000E-03 0. -1.
         11   -1    0    0    0    0 -0.00000000000E+00 -0.00000000000E+00 -0.45593999997E+02  0.45594000000E+02  0.51100000000E-03 0.  1.
         23    2    1    2    0    0  0.35527136788E-14  0.00000000000E+00 -0.71054273576E-14  0.91188000000E+02  0.91188000000E+02 0.  0.
    9900012    2    3    3    0    0 -0.22043659248E+02 -0.63363967171E+01  0.36844951523E+02  0.47787270869E+02  0.19999999199E+02 0.  0.
        -12    1    3    3    0    0  0.22043659248E+02  0.63363967171E+01 -0.36844951523E+02  0.43400729131E+02  0.00000000000E+00 0.  1.
         11    1    4    4    0    0 -0.12289551467E+02 -0.60906922803E+01  0.22468792887E+02  0.26324442288E+02  0.51100000000E-03 0. -1.
        -11    1    4    4    0    0 -0.71336823368E+01  0.36396070134E+01  0.20367245707E+01  0.82634381545E+01  0.51100000000E-03 0.  1.
         12    1    4    4    0    0 -0.26204254440E+01 -0.38853114502E+01  0.12339434065E+02  0.13199390426E+02  0.00000000000E+00 0. -1.
</event>
<event>
 8    1  0.5331800E-011  0.9118800E+02  0.7816164E-02  0.1184000E+00
        -11   -1    0    0    0    0  0.00000000000E+00  0.00000000000E+00  0.45593999997E+02  0.45594000000E+02  0.51100000000E-03 0. -1.
         11   -1    0    0    0    0 -0.00000000000E+00 -0.00000000000E+00 -0.45593999997E+02  0.45594000000E+02  0.51100000000E-03 0.  1.
         23    2    1    2    0    0  0.35527136788E-14  0.00000000000E+00  0.00000000000E+00  0.91188000000E+02  0.91188000000E+02 0.  0.
    9900012    2    3    3    0    0 -0.21382705517E+02  0.84862453257E+01 -0.36801993568E+02  0.47787272062E+02  0.20000004641E+02 0.  0.
         12    1    3    3    0    0  0.21382705517E+02 -0.84862453257E+01  0.36801993568E+02  0.43400727938E+02  0.00000000000E+00 0. -1.
         11    1    4    4    0    0 -0.12223148235E+02 -0.25114711112E+01 -0.99609820957E+01  0.15966652889E+02  0.51100000000E-03 0. -1.
        -11    1    4    4    0    0 -0.65200252418E+00 -0.10087537614E+01 -0.70878827884E+01  0.71889341439E+01  0.51100000000E-03 0.  1.
         12    1    4    4    0    0 -0.85075547578E+01  0.12006470198E+02 -0.19753128684E+02  0.24631685029E+02  0.00000000000E+00 0. -1.
</event>
<event>
 8    1  0.5331800E-011  0.9118800E+02  0.7816164E-02  0.1184000E+00
        -11   -1    0    0    0    0  0.00000000000E+00  0.00000000000E+00  0.45593999997E+02  0.45594000000E+02  0.51100000000E-03 0. -1.
         11   -1    0    0    0    0 -0.00000000000E+00 -0.00000000000E+00 -0.45593999997E+02  0.45594000000E+02  0.51100000000E-03 0.  1.
         23    2    1    2    0    0  0.17763568394E-14  0.00000000000E+00  0.00000000000E+00  0.91188000000E+02  0.91188000000E+02 0.  0.
    9900012    2    3    3    0    0  0.13509793048E+02  0.11202824362E+02 -0.39693883390E+02  0.47787283872E+02  0.20000058485E+02 0.  0.
         12    1    3    3    0    0 -0.13509793048E+02 -0.11202824362E+02  0.39693883390E+02  0.43400716128E+02  0.00000000000E+00 0. -1.
         11    1    4    4    0    0  0.12458232468E+01 -0.93692012428E+00 -0.15308686133E+02  0.15387844757E+02  0.51100000000E-03 0. -1.
        -11    1    4    4    0    0  0.53530176609E+01  0.13176570965E+02 -0.14675759325E+02  0.20436602763E+02  0.51100000000E-03 0.  1.
        -12    1    4    4    0    0  0.69109521399E+01 -0.10368264783E+01 -0.97094379315E+01  0.11962836351E+02  0.00000000000E+00 0.  1.
</event>
<event>
 8    1  0.5331800E-011  0.9118800E+02  0.7816164E-02  0.1184000E+00
        -11   -1    0    0    0    0  0.00000000000E+00  0.00000000000E+00  0.45593999997E+02  0.45594000000E+02  0.51100000000E-03 0. -1.
         11   -1    0    0    0    0 -0.00000000000E+00 -0.00000000000E+00 -0.45593999997E+02  0.45594000000E+02  0.51100000000E-03 0.  1.
         23    2    1    2    0    0  0.35527136788E-14  0.00000000000E+00  0.00000000000E+00  0.91188000000E+02  0.91188000000E+02 0.  0.
    9900012    2    3    3    0    0 -0.26025726317E+02  0.20294776901E+02 -0.28185226337E+02  0.47787269782E+02  0.19999994244E+02 0.  0.
         12    1    3    3    0    0  0.26025726317E+02 -0.20294776901E+02  0.28185226337E+02  0.43400730218E+02  0.00000000000E+00 0. -1.
         11    1    4    4    0    0 -0.60963361359E+01  0.20121352952E+01  0.18257656874E+01  0.66743856148E+01  0.51100000000E-03 0. -1.
        -11    1    4    4    0    0 -0.56957019285E+01  0.10131857829E+02 -0.13936268428E+02  0.18147042224E+02  0.51100000000E-03 0.  1.
         12    1    4    4    0    0 -0.14233688252E+02  0.81507837765E+01 -0.16074723596E+02  0.22965841943E+02  0.00000000000E+00 0. -1.
</event>
<event>
 8    1  0.5331800E-011  0.9118800E+02  0.7816164E-02  0.1184000E+00
        -11   -1    0    0    0    0  0.00000000000E+00  0.00000000000E+00  0.45593999997E+02  0.45594000000E+02  0.51100000000E-03 0. -1.
         11   -1    0    0    0    0 -0.00000000000E+00 -0.00000000000E+00 -0.45593999997E+02  0.45594000000E+02  0.51100000000E-03 0.  1.
         23    2    1    2    0    0  0.00000000000E+00  0.00000000000E+00  0.00000000000E+00  0.91188000000E+02  0.91188000000E+02 0.  0.
    9900012    2    3    3    0    0 -0.14903293695E+02  0.73248008825E+01 -0.40098168644E+02  0.47787262684E+02  0.19999961883E+02 0.  0.
         12    1    3    3    0    0  0.14903293695E+02 -0.73248008825E+01  0.40098168644E+02  0.43400737316E+02  0.00000000000E+00 0. -1.
         11    1    4    4    0    0 -0.10199509063E+02  0.70943274405E+01 -0.22289528669E+02  0.25518278850E+02  0.51100000000E-03 0. -1.
        -11    1    4    4    0    0 -0.10940902046E+01  0.15162024194E+01  0.16152024310E+01  0.24707857671E+01  0.51100000000E-03 0.  1.
        -12    1    4    4    0    0 -0.36096944282E+01 -0.12857289775E+01 -0.19423842406E+02  0.19798198067E+02  0.00000000000E+00 0.  1.
</event>
<event>
 8    1  0.5331800E-011  0.9118800E+02  0.7816164E-02  0.1184000E+00
        -11   -1    0    0    0    0  0.00000000000E+00  0.00000000000E+00  0.45593999997E+02  0.45594000000E+02  0.51100000000E-03 0. -1.
         11   -1    0    0    0    0 -0.00000000000E+00 -0.00000000000E+00 -0.45593999997E+02  0.45594000000E+02  0.51100000000E-03 0.  1.
         23    2    1    2    0    0 -0.44408920985E-15  0.00000000000E+00  0.00000000000E+00  0.91188000000E+02  0.91188000000E+02 0.  0.
    9900012    2    3    3    0    0 -0.21211047669E+01  0.51127030592E+01  0.43046310597E+02  0.47787266434E+02  0.19999978980E+02 0.  0.
        -12    1    3    3    0    0  0.21211047669E+01 -0.51127030592E+01 -0.43046310597E+02  0.43400733566E+02  0.00000000000E+00 0.  1.
         11    1    4    4    0    0  0.94532027562E+00  0.61560879669E+00 -0.15716501939E+01  0.19346031136E+01  0.51100000000E-03 0.  1.
        -11    1    4    4    0    0 -0.31141741179E+01  0.71224085507E+01  0.36575028272E+02  0.37391970761E+02  0.51100000000E-03 0. -1.
        -12    1    4    4    0    0  0.47749075376E-01 -0.26253142882E+01  0.80429325191E+01  0.84606925599E+01  0.00000000000E+00 0.  1.
</event>
<event>
 8    1  0.5331800E-011  0.9118800E+02  0.7816164E-02  0.1184000E+00
        -11   -1    0    0    0    0  0.00000000000E+00  0.00000000000E+00  0.45593999997E+02  0.45594000000E+02  0.51100000000E-03 0. -1.
         11   -1    0    0    0    0 -0.00000000000E+00 -0.00000000000E+00 -0.45593999997E+02  0.45594000000E+02  0.51100000000E-03 0.  1.
         23    2    1    2    0    0  0.66613381478E-15  0.17763568394E-14  0.00000000000E+00  0.91188000000E+02  0.91188000000E+02 0.  0.
    9900012    2    3    3    0    0 -0.82356912386E+00  0.13370511616E+02  0.41281649528E+02  0.47787269192E+02  0.19999991552E+02 0.  0.
        -12    1    3    3    0    0  0.82356912386E+00 -0.13370511616E+02 -0.41281649528E+02  0.43400730808E+02  0.00000000000E+00 0.  1.
         11    1    4    4    0    0 -0.61213187901E+01  0.60727155352E+01  0.98742511594E+01  0.13109128648E+02  0.51100000000E-03 0. -1.
        -11    1    4    4    0    0  0.49100579097E+01  0.10432213518E+02  0.25253584005E+02  0.27761182484E+02  0.51100000000E-03 0.  1.
        -12    1    4    4    0    0  0.38769175653E+00 -0.31344174375E+01  0.61538143636E+01  0.69169580592E+01  0.00000000000E+00 0.  1.
</event>
<event>
 8    1  0.6098091E-011  0.9118800E+02  0.7816164E-02  0.1184000E+00
        -11   -1    0    0    0    0  0.00000000000E+00  0.00000000000E+00  0.45593999997E+02  0.45594000000E+02  0.51100000000E-03 0. -1.
         11   -1    0    0    0    0 -0.00000000000E+00 -0.00000000000E+00 -0.45593999997E+02  0.45594000000E+02  0.51100000000E-03 0.  1.
         23    2    1    2    0    0  0.00000000000E+00  0.00000000000E+00  0.00000000000E+00  0.91188000000E+02  0.91188000000E+02 0.  0.
    9900012    2    3    3    0    0 -0.17704771557E+02  0.53230827219E+01  0.39266131045E+02  0.47787271979E+02  0.20000004261E+02 0.  0.
        -12    1    3    3    0    0  0.17704771557E+02 -0.53230827219E+01 -0.39266131045E+02  0.43400728021E+02  0.00000000000E+00 0.  1.
         11    1    4    4    0    0 -0.36199402896E+01 -0.16552457812E+01  0.15684237772E+02  0.16181443726E+02  0.51100000000E-03 0. -1.
        -11    1    4    4    0    0 -0.31031882997E+01  0.78880159790E+01  0.45662631318E+01  0.96281531437E+01  0.51100000000E-03 0.  1.
        -12    1    4    4    0    0 -0.10981642967E+02 -0.90968747592E+00  0.19015630141E+02  0.21977675110E+02  0.00000000000E+00 0.  1.
</event>
<event>
 8    1  0.5331800E-011  0.9118800E+02  0.7816164E-02  0.1184000E+00
        -11   -1    0    0    0    0  0.00000000000E+00  0.00000000000E+00  0.45593999997E+02  0.45594000000E+02  0.51100000000E-03 0. -1.
         11   -1    0    0    0    0 -0.00000000000E+00 -0.00000000000E+00 -0.45593999997E+02  0.45594000000E+02  0.51100000000E-03 0.  1.
         23    2    1    2    0    0  0.35527136788E-14  0.71054273576E-14  0.35527136788E-14  0.91188000000E+02  0.91188000000E+02 0.  0.
    9900012    2    3    3    0    0  0.23704402071E+02  0.26900015272E+02  0.24456362428E+02  0.47787272329E+02  0.20000005858E+02 0.  0.
        -12    1    3    3    0    0 -0.23704402071E+02 -0.26900015272E+02 -0.24456362428E+02  0.43400727671E+02  0.00000000000E+00 0.  1.
         11    1    4    4    0    0  0.12954981880E+02  0.86948123295E+01  0.29392370053E+01  0.15876726092E+02  0.51100000000E-03 0. -1.
        -11    1    4    4    0    0  0.97081742868E+01  0.18641066587E+02  0.22216342223E+02  0.30582738163E+02  0.51100000000E-03 0.  1.
         12    1    4    4    0    0  0.10412459037E+01 -0.43586364482E+00 -0.69921680086E+00  0.13278080748E+01  0.00000000000E+00 0. -1.
</event>
<event>
 8    1  0.5331800E-011  0.9118800E+02  0.7816164E-02  0.1184000E+00
        -11   -1    0    0    0    0  0.00000000000E+00  0.00000000000E+00  0.45593999997E+02  0.45594000000E+02  0.51100000000E-03 0. -1.
         11   -1    0    0    0    0 -0.00000000000E+00 -0.00000000000E+00 -0.45593999997E+02  0.45594000000E+02  0.51100000000E-03 0.  1.
         23    2    1    2    0    0  0.00000000000E+00  0.00000000000E+00  0.00000000000E+00  0.91188000000E+02  0.91188000000E+02 0.  0.
    9900012    2    3    3    0    0 -0.32415494981E+02  0.19884707973E+02 -0.20915487635E+02  0.47787267874E+02  0.19999985546E+02 0.  0.
         12    1    3    3    0    0  0.32415494981E+02 -0.19884707973E+02  0.20915487635E+02  0.43400732126E+02  0.00000000000E+00 0. -1.
         11    1    4    4    0    0 -0.12677122866E+02  0.42377785442E+01 -0.35995171555E+01  0.13842858634E+02  0.51100000000E-03 0. -1.
        -11    1    4    4    0    0 -0.91736292791E+01  0.72307378198E+01 -0.16756012124E+02  0.20425547389E+02  0.51100000000E-03 0.  1.
        -12    1    4    4    0    0 -0.10564742836E+02  0.84161916087E+01 -0.55995835491E+00  0.13518861851E+02  0.00000000000E+00 0.  1.
</event>
<event>
 8    1  0.5331800E-011  0.9118800E+02  0.7816164E-02  0.1184000E+00
        -11   -1    0    0    0    0  0.00000000000E+00  0.00000000000E+00  0.45593999997E+02  0.45594000000E+02  0.51100000000E-03 0. -1.
         11   -1    0    0    0    0 -0.00000000000E+00 -0.00000000000E+00 -0.45593999997E+02  0.45594000000E+02  0.51100000000E-03 0.  1.
         23    2    1    2    0    0  0.00000000000E+00  0.00000000000E+00  0.00000000000E+00  0.91188000000E+02  0.91188000000E+02 0.  0.
    9900012    2    3    3    0    0 -0.17454856522E+02 -0.28009551896E+02  0.28185394481E+02  0.47787268720E+02  0.19999989401E+02 0.  0.
        -12    1    3    3    0    0  0.17454856522E+02  0.28009551896E+02 -0.28185394481E+02  0.43400731280E+02  0.00000000000E+00 0.  1.
         11    1    4    4    0    0 -0.15712842950E+02 -0.22527171660E+02  0.22431731245E+02  0.35461943876E+02  0.51100000000E-03 0. -1.
        -11    1    4    4    0    0  0.38305223272E+01 -0.22134462441E+01  0.26609711011E+01  0.51626556187E+01  0.51100000000E-03 0.  1.
        -12    1    4    4    0    0 -0.55725358989E+01 -0.32689339919E+01  0.30926921351E+01  0.71626692253E+01  0.00000000000E+00 0.  1.
</event>
<event>
 8    1  0.5331800E-011  0.9118800E+02  0.7816164E-02  0.1184000E+00
        -11   -1    0    0    0    0  0.00000000000E+00  0.00000000000E+00  0.45593999997E+02  0.45594000000E+02  0.51100000000E-03 0. -1.
         11   -1    0    0    0    0 -0.00000000000E+00 -0.00000000000E+00 -0.45593999997E+02  0.45594000000E+02  0.51100000000E-03 0.  1.
         23    2    1    2    0    0  0.00000000000E+00 -0.17763568394E-14  0.22204460493E-15  0.91188000000E+02  0.91188000000E+02 0.  0.
    9900012    2    3    3    0    0 -0.41409036215E+02 -0.12881020389E+02 -0.17304391330E+01  0.47787269751E+02  0.19999994103E+02 0.  0.
        -12    1    3    3    0    0  0.41409036215E+02  0.12881020389E+02  0.17304391330E+01  0.43400730249E+02  0.00000000000E+00 0.  1.
         11    1    4    4    0    0 -0.13580478695E+02 -0.12040683469E+02 -0.31296270801E+01  0.18417438092E+02  0.51100000000E-03 0. -1.
        -11    1    4    4    0    0 -0.53231426462E+01  0.35423691780E+01  0.68311349037E+00  0.64304643166E+01  0.51100000000E-03 0.  1.
         12    1    4    4    0    0 -0.22505414874E+02 -0.43827060988E+01  0.71607445671E+00  0.22939367342E+02  0.00000000000E+00 0. -1.
</event>
<event>
 8    1  0.5331800E-011  0.9118800E+02  0.7816164E-02  0.1184000E+00
        -11   -1    0    0    0    0  0.00000000000E+00  0.00000000000E+00  0.45593999997E+02  0.45594000000E+02  0.51100000000E-03 0. -1.
         11   -1    0    0    0    0 -0.00000000000E+00 -0.00000000000E+00 -0.45593999997E+02  0.45594000000E+02  0.51100000000E-03 0.  1.
         23    2    1    2    0    0  0.35527136788E-14  0.35527136788E-14  0.00000000000E+00  0.91188000000E+02  0.91188000000E+02 0.  0.
    9900012    2    3    3    0    0  0.28114446308E+02  0.21291589977E+02 -0.25295658314E+02  0.47787260093E+02  0.19999950068E+02 0.  0.
         12    1    3    3    0    0 -0.28114446308E+02 -0.21291589977E+02  0.25295658314E+02  0.43400739907E+02  0.00000000000E+00 0. -1.
         11    1    4    4    0    0  0.48525653734E+01  0.71939204049E+01 -0.39935222275E+01  0.95523872167E+01  0.51100000000E-03 0. -1.
        -11    1    4    4    0    0  0.35950514404E+01  0.19355805058E+01  0.27087829371E+01  0.48998338762E+01  0.51100000000E-03 0.  1.
        -12    1    4    4    0    0  0.19666829494E+02  0.12162089066E+02 -0.24010919023E+02  0.33335039000E+02  0.00000000000E+00 0.  1.
</event>
<event>
 8    1  0.5331800E-011  0.9118800E+02  0.7816164E-02  0.1184000E+00
        -11   -1    0    0    0    0  0.00000000000E+00  0.00000000000E+00  0.45593999997E+02  0.45594000000E+02  0.51100000000E-03 0. -1.
         11   -1    0    0    0    0 -0.00000000000E+00 -0.00000000000E+00 -0.45593999997E+02  0.45594000000E+02  0.51100000000E-03 0.  1.
         23    2    1    2    0    0  0.00000000000E+00  0.00000000000E+00  0.00000000000E+00  0.91188000000E+02  0.91188000000E+02 0.  0.
    9900012    2    3    3    0    0 -0.11160739198E+02  0.20381187791E+02  0.36656086222E+02  0.47787267606E+02  0.19999984322E+02 0.  0.
        -12    1    3    3    0    0  0.11160739198E+02 -0.20381187791E+02 -0.36656086222E+02  0.43400732394E+02  0.00000000000E+00 0.  1.
         11    1    4    4    0    0 -0.60340305221E+01  0.16512577488E+02  0.13233111030E+02  0.22004317018E+02  0.51100000000E-03 0. -1.
        -11    1    4    4    0    0 -0.29866237849E+01 -0.19088365770E+01  0.37162084510E+01  0.51355412784E+01  0.51100000000E-03 0.  1.
         12    1    4    4    0    0 -0.21400848905E+01  0.57774468798E+01  0.19706766742E+02  0.20647409310E+02  0.00000000000E+00 0. -1.
</event>
<event>
 8    1  0.5331800E-011  0.9118800E+02  0.7816164E-02  0.1184000E+00
        -11   -1    0    0    0    0  0.00000000000E+00  0.00000000000E+00  0.45593999997E+02  0.45594000000E+02  0.51100000000E-03 0. -1.
         11   -1    0    0    0    0 -0.00000000000E+00 -0.00000000000E+00 -0.45593999997E+02  0.45594000000E+02  0.51100000000E-03 0.  1.
         23    2    1    2    0    0 -0.35527136788E-14  0.35527136788E-14 -0.35527136788E-14  0.91188000000E+02  0.91188000000E+02 0.  0.
    9900012    2    3    3    0    0 -0.29705002392E+02  0.26960967369E+02 -0.16563280033E+02  0.47787272194E+02  0.20000005241E+02 0.  0.
         12    1    3    3    0    0  0.29705002392E+02 -0.26960967369E+02  0.16563280033E+02  0.43400727806E+02  0.00000000000E+00 0. -1.
         11    1    4    4    0    0 -0.19943779286E+02  0.15365130952E+02 -0.19409526112E+01  0.25250918373E+02  0.51100000000E-03 0. -1.
        -11    1    4    4    0    0 -0.94920558257E+01  0.79370801151E+01 -0.14214081324E+02  0.18845064943E+02  0.51100000000E-03 0.  1.
         12    1    4    4    0    0 -0.26916728049E+00  0.36587563025E+01 -0.40824609832E+00  0.36912888782E+01  0.00000000000E+00 0. -1.
</event>
<event>
 8    1  0.5331800E-011  0.9118800E+02  0.7816164E-02  0.1184000E+00
        -11   -1    0    0    0    0  0.00000000000E+00  0.00000000000E+00  0.45593999997E+02  0.45594000000E+02  0.51100000000E-03 0. -1.
         11   -1    0    0    0    0 -0.00000000000E+00 -0.00000000000E+00 -0.45593999997E+02  0.45594000000E+02  0.51100000000E-03 0.  1.
         23    2    1    2    0    0  0.00000000000E+00  0.00000000000E+00  0.00000000000E+00  0.91188000000E+02  0.91188000000E+02 0.  0.
    9900012    2    3    3    0    0  0.18102805670E+02  0.35104164721E+02 -0.17989130065E+02  0.47787277029E+02  0.20000027286E+02 0.  0.
         12    1    3    3    0    0 -0.18102805670E+02 -0.35104164721E+02  0.17989130065E+02  0.43400722971E+02  0.00000000000E+00 0. -1.
         11    1    4    4    0    0  0.32370551936E+01  0.64653599805E+00 -0.57490310212E+00  0.33506788807E+01  0.51100000000E-03 0. -1.
        -11    1    4    4    0    0  0.13788697652E+02  0.15732114082E+02 -0.14503963545E+02  0.25455697893E+02  0.51100000000E-03 0.  1.
        -12    1    4    4    0    0  0.10770528243E+01  0.18725514641E+02 -0.29102634187E+01  0.18980900255E+02  0.00000000000E+00 0.  1.
</event>
<event>
 8    1  0.5331800E-011  0.9118800E+02  0.7816164E-02  0.1184000E+00
        -11   -1    0    0    0    0  0.00000000000E+00  0.00000000000E+00  0.45593999997E+02  0.45594000000E+02  0.51100000000E-03 0. -1.
         11   -1    0    0    0    0 -0.00000000000E+00 -0.00000000000E+00 -0.45593999997E+02  0.45594000000E+02  0.51100000000E-03 0.  1.
         23    2    1    2    0    0  0.88817841970E-15  0.00000000000E+00 -0.71054273576E-14  0.91188000000E+02  0.91188000000E+02 0.  0.
    9900012    2    3    3    0    0 -0.49614855750E+01  0.51756303818E+01 -0.42804432089E+02  0.47787275405E+02  0.20000019881E+02 0.  0.
         12    1    3    3    0    0  0.49614855750E+01 -0.51756303818E+01  0.42804432089E+02  0.43400724595E+02  0.00000000000E+00 0. -1.
         11    1    4    4    0    0 -0.85179916793E+01 -0.77025479899E+00 -0.15648480486E+02  0.17833239091E+02  0.51100000000E-03 0. -1.
        -11    1    4    4    0    0  0.59080476360E+01  0.69628444436E+01 -0.15244997772E+02  0.17770655220E+02  0.51100000000E-03 0.  1.
        -12    1    4    4    0    0 -0.23515415317E+01 -0.10169592627E+01 -0.11910953831E+02  0.12183381094E+02  0.00000000000E+00 0.  1.
</event>
<event>
 8    1  0.5331800E-011  0.9118800E+02  0.7816164E-02  0.1184000E+00
        -11   -1    0    0    0    0  0.00000000000E+00  0.00000000000E+00  0.45593999997E+02  0.45594000000E+02  0.51100000000E-03 0. -1.
         11   -1    0    0    0    0 -0.00000000000E+00 -0.00000000000E+00 -0.45593999997E+02  0.45594000000E+02  0.51100000000E-03 0.  1.
         23    2    1    2    0    0  0.00000000000E+00 -0.44408920985E-15  0.17763568394E-14  0.91188000000E+02  0.91188000000E+02 0.  0.
    9900012    2    3    3    0    0  0.40398722048E+02 -0.15678181942E+01  0.15783169913E+02  0.47787271326E+02  0.20000001282E+02 0.  0.
        -12    1    3    3    0    0 -0.40398722048E+02  0.15678181942E+01 -0.15783169913E+02  0.43400728674E+02  0.00000000000E+00 0.  1.
         11    1    4    4    0    0  0.20530163766E+02 -0.20539836228E+01  0.31472391908E+01  0.20871310159E+02  0.51100000000E-03 0. -1.
        -11    1    4    4    0    0  0.84863179116E+01  0.30373501095E+01  0.12296713737E+02  0.15246385026E+02  0.51100000000E-03 0.  1.
        -12    1    4    4    0    0  0.11382240371E+02 -0.25511846809E+01  0.33921698492E+00  0.11669576140E+02  0.00000000000E+00 0.  1.
</event>
<event>
 8    1  0.5331800E-011  0.9118800E+02  0.7816164E-02  0.1184000E+00
        -11   -1    0    0    0    0  0.00000000000E+00  0.00000000000E+00  0.45593999997E+02  0.45594000000E+02  0.51100000000E-03 0. -1.
         11   -1    0    0    0    0 -0.00000000000E+00 -0.00000000000E+00 -0.45593999997E+02  0.45594000000E+02  0.51100000000E-03 0.  1.
         23    2    1    2    0    0  0.35527136788E-14  0.00000000000E+00  0.35527136788E-14  0.91188000000E+02  0.91188000000E+02 0.  0.
    9900012    2    3    3    0    0 -0.31154219827E+02  0.11409002659E+02 -0.27979858364E+02  0.47787271564E+02  0.20000002370E+02 0.  0.
         12    1    3    3    0    0  0.31154219827E+02 -0.11409002659E+02  0.27979858364E+02  0.43400728436E+02  0.00000000000E+00 0. -1.
         11    1    4    4    0    0 -0.86795575425E+01  0.61215195696E+00  0.82033685214E+00  0.87397026245E+01  0.51100000000E-03 0. -1.
        -11    1    4    4    0    0 -0.49065663627E+01  0.35947207275E+01 -0.12976216945E+02  0.14331036845E+02  0.51100000000E-03 0.  1.
         12    1    4    4    0    0 -0.17568095921E+02  0.72021299744E+01 -0.15823978271E+02  0.24716532095E+02  0.00000000000E+00 0. -1.
</event>
<event>
 8    1  0.5331800E-011  0.9118800E+02  0.7816164E-02  0.1184000E+00
        -11   -1    0    0    0    0  0.00000000000E+00  0.00000000000E+00  0.45593999997E+02  0.45594000000E+02  0.51100000000E-03 0. -1.
         11   -1    0    0    0    0 -0.00000000000E+00 -0.00000000000E+00 -0.45593999997E+02  0.45594000000E+02  0.51100000000E-03 0.  1.
         23    2    1    2    0    0  0.35527136788E-14  0.88817841970E-15  0.00000000000E+00  0.91188000000E+02  0.91188000000E+02 0.  0.
    9900012    2    3    3    0    0 -0.23070280071E+02 -0.47381835062E+01 -0.36454559650E+02  0.47787272762E+02  0.20000007833E+02 0.  0.
         12    1    3    3    0    0  0.23070280071E+02  0.47381835062E+01  0.36454559650E+02  0.43400727238E+02  0.00000000000E+00 0. -1.
         11    1    4    4    0    0 -0.18432075468E+02  0.24019009563E+01 -0.24482011848E+02  0.30738891305E+02  0.51100000000E-03 0. -1.
        -11    1    4    4    0    0 -0.63726148524E+01 -0.28655349268E+01 -0.95638826373E+01  0.11844381024E+02  0.51100000000E-03 0.  1.
         12    1    4    4    0    0  0.17344102487E+01 -0.42745495357E+01 -0.24086651641E+01  0.52040004339E+01  0.00000000000E+00 0. -1.
</event>
<event>
 8    1  0.5331800E-011  0.9118800E+02  0.7816164E-02  0.1184000E+00
        -11   -1    0    0    0    0  0.00000000000E+00  0.00000000000E+00  0.45593999997E+02  0.45594000000E+02  0.51100000000E-03 0. -1.
         11   -1    0    0    0    0 -0.00000000000E+00 -0.00000000000E+00 -0.45593999997E+02  0.45594000000E+02  0.51100000000E-03 0.  1.
         23    2    1    2    0    0  0.00000000000E+00  0.00000000000E+00  0.00000000000E+00  0.91188000000E+02  0.91188000000E+02 0.  0.
    9900012    2    3    3    0    0 -0.19164201283E+02  0.14898199013E+02  0.35977773480E+02  0.47787272711E+02  0.20000007597E+02 0.  0.
        -12    1    3    3    0    0  0.19164201283E+02 -0.14898199013E+02 -0.35977773480E+02  0.43400727289E+02  0.00000000000E+00 0.  1.
         11    1    4    4    0    0 -0.18006463917E+02  0.14948121535E+02  0.33558373041E+02  0.40912632300E+02  0.51100000000E-03 0. -1.
        -11    1    4    4    0    0 -0.20551512617E+01 -0.12055450230E+01  0.40406193069E+01  0.46907984561E+01  0.51100000000E-03 0.  1.
         12    1    4    4    0    0  0.89741389613E+00  0.11556225013E+01 -0.16212188680E+01  0.21838419551E+01  0.00000000000E+00 0. -1.
</event>
<event>
 8    1  0.5331800E-011  0.9118800E+02  0.7816164E-02  0.1184000E+00
        -11   -1    0    0    0    0  0.00000000000E+00  0.00000000000E+00  0.45593999997E+02  0.45594000000E+02  0.51100000000E-03 0. -1.
         11   -1    0    0    0    0 -0.00000000000E+00 -0.00000000000E+00 -0.45593999997E+02  0.45594000000E+02  0.51100000000E-03 0.  1.
         23    2    1    2    0    0  0.00000000000E+00 -0.13322676296E-14 -0.17763568394E-14  0.91188000000E+02  0.91188000000E+02 0.  0.
    9900012    2    3    3    0    0 -0.41760298150E+02 -0.25849094204E+01  0.11533368648E+02  0.47787275920E+02  0.20000022229E+02 0.  0.
        -12    1    3    3    0    0  0.41760298150E+02  0.25849094204E+01 -0.11533368648E+02  0.43400724080E+02  0.00000000000E+00 0.  1.
         11    1    4    4    0    0 -0.15598848804E+02  0.48624762919E+01 -0.33354805698E+00  0.16342552257E+02  0.51100000000E-03 0.  1.
        -11    1    4    4    0    0 -0.19502886090E+02 -0.86825201602E+01  0.12336349611E+02  0.24656322600E+02  0.51100000000E-03 0. -1.
        -12    1    4    4    0    0 -0.66585632560E+01  0.12351344479E+01 -0.46943290541E+00  0.67884010629E+01  0.00000000000E+00 0.  1.
</event>
<event>
 8    1  0.5331800E-011  0.9118800E+02  0.7816164E-02  0.1184000E+00
        -11   -1    0    0    0    0  0.00000000000E+00  0.00000000000E+00  0.45593999997E+02  0.45594000000E+02  0.51100000000E-03 0. -1.
         11   -1    0    0    0    0 -0.00000000000E+00 -0.00000000000E+00 -0.45593999997E+02  0.45594000000E+02  0.51100000000E-03 0.  1.
         23    2    1    2    0    0  0.35527136788E-14  0.55511151231E-16  0.00000000000E+00  0.91188000000E+02  0.91188000000E+02 0.  0.
    9900012    2    3    3    0    0 -0.27886431815E+02  0.65422267896E-01  0.33256074965E+02  0.47787264044E+02  0.19999968083E+02 0.  0.
        -12    1    3    3    0    0  0.27886431815E+02 -0.65422267896E-01 -0.33256074965E+02  0.43400735956E+02  0.00000000000E+00 0.  1.
         11    1    4    4    0    0 -0.69077409105E+01 -0.15485026547E+01  0.43183292764E+01  0.82923285608E+01  0.51100000000E-03 0. -1.
        -11    1    4    4    0    0 -0.21134654805E+02  0.32163304361E+01  0.16635986543E+02  0.27088271701E+02  0.51100000000E-03 0.  1.
        -12    1    4    4    0    0  0.15596389995E+00 -0.16024055135E+01  0.12301759145E+02  0.12406663783E+02  0.00000000000E+00 0.  1.
</event>
<event>
 8    1  0.5331800E-011  0.9118800E+02  0.7816164E-02  0.1184000E+00
        -11   -1    0    0    0    0  0.00000000000E+00  0.00000000000E+00  0.45593999997E+02  0.45594000000E+02  0.51100000000E-03 0. -1.
         11   -1    0    0    0    0 -0.00000000000E+00 -0.00000000000E+00 -0.45593999997E+02  0.45594000000E+02  0.51100000000E-03 0.  1.
         23    2    1    2    0    0  0.00000000000E+00  0.71054273576E-14  0.00000000000E+00  0.91188000000E+02  0.91188000000E+02 0.  0.
    9900012    2    3    3    0    0 -0.26715379461E+02 -0.33098424204E+02 -0.86259141480E+01  0.47787267525E+02  0.19999983953E+02 0.  0.
         12    1    3    3    0    0  0.26715379461E+02  0.33098424204E+02  0.86259141480E+01  0.43400732475E+02  0.00000000000E+00 0. -1.
         11    1    4    4    0    0 -0.88553565077E+01 -0.45930100736E+01  0.39791639741E+01  0.10739963995E+02  0.51100000000E-03 0. -1.
        -11    1    4    4    0    0 -0.11186388374E+02 -0.18734080867E+02 -0.12635883259E+02  0.25214412878E+02  0.51100000000E-03 0.  1.
         12    1    4    4    0    0 -0.66736345791E+01 -0.97713332628E+01  0.30805136515E-01  0.11832890652E+02  0.00000000000E+00 0. -1.
</event>
<event>
 8    1  0.5331800E-011  0.9118800E+02  0.7816164E-02  0.1184000E+00
        -11   -1    0    0    0    0  0.00000000000E+00  0.00000000000E+00  0.45593999997E+02  0.45594000000E+02  0.51100000000E-03 0. -1.
         11   -1    0    0    0    0 -0.00000000000E+00 -0.00000000000E+00 -0.45593999997E+02  0.45594000000E+02  0.51100000000E-03 0.  1.
         23    2    1    2    0    0  0.00000000000E+00  0.00000000000E+00 -0.35527136788E-14  0.91188000000E+02  0.91188000000E+02 0.  0.
    9900012    2    3    3    0    0 -0.10945438369E+02 -0.37834821924E+02 -0.18230379713E+02  0.47787272868E+02  0.20000008314E+02 0.  0.
         12    1    3    3    0    0  0.10945438369E+02  0.37834821924E+02  0.18230379713E+02  0.43400727132E+02  0.00000000000E+00 0. -1.
         11    1    4    4    0    0  0.10489752300E+00 -0.63376149447E+01 -0.10531014209E+02  0.12291404607E+02  0.51100000000E-03 0. -1.
        -11    1    4    4    0    0 -0.20635316789E+01 -0.47171449107E+01 -0.49034691974E+01  0.71101075610E+01  0.51100000000E-03 0.  1.
         12    1    4    4    0    0 -0.89868042133E+01 -0.26780062068E+02 -0.27958963067E+01  0.28385760700E+02  0.00000000000E+00 0. -1.
</event>
<event>
 8    1  0.7374634E-011  0.9118800E+02  0.7816164E-02  0.1184000E+00
        -11   -1    0    0    0    0  0.00000000000E+00  0.00000000000E+00  0.45593999997E+02  0.45594000000E+02  0.51100000000E-03 0. -1.
         11   -1    0    0    0    0 -0.00000000000E+00 -0.00000000000E+00 -0.45593999997E+02  0.45594000000E+02  0.51100000000E-03 0.  1.
         23    2    1    2    0    0  0.00000000000E+00  0.00000000000E+00  0.00000000000E+00  0.91188000000E+02  0.91188000000E+02 0.  0.
    9900012    2    3    3    0    0  0.28154943644E+01 -0.72782010497E+01 -0.42693375315E+02  0.47787268268E+02  0.19999987343E+02 0.  0.
         12    1    3    3    0    0 -0.28154943644E+01  0.72782010497E+01  0.42693375315E+02  0.43400731732E+02  0.00000000000E+00 0. -1.
         11    1    4    4    0    0 -0.46019715272E+00 -0.12962106021E+01  0.10273886830E+01  0.17168200580E+01  0.51100000000E-03 0. -1.
        -11    1    4    4    0    0  0.65058362492E+00 -0.62550460323E+01 -0.42823535960E+02  0.43282838311E+02  0.51100000000E-03 0.  1.
        -12    1    4    4    0    0  0.26251078922E+01  0.27305558475E+00 -0.89722803852E+00  0.27876098994E+01  0.00000000000E+00 0.  1.
</event>
<event>
 8    1  0.5331800E-011  0.9118800E+02  0.7816164E-02  0.1184000E+00
        -11   -1    0    0    0    0  0.00000000000E+00  0.00000000000E+00  0.45593999997E+02  0.45594000000E+02  0.51100000000E-03 0.  1.
         11   -1    0    0    0    0 -0.00000000000E+00 -0.00000000000E+00 -0.45593999997E+02  0.45594000000E+02  0.51100000000E-03 0. -1.
         23    2    1    2    0    0  0.00000000000E+00  0.00000000000E+00  0.00000000000E+00  0.91188000000E+02  0.91188000000E+02 0.  0.
    9900012    2    3    3    0    0  0.10905570101E+02  0.41308862520E+02 -0.76336647110E+01  0.47787234813E+02  0.19999834806E+02 0.  0.
         12    1    3    3    0    0 -0.10905570101E+02 -0.41308862520E+02  0.76336647110E+01  0.43400765187E+02  0.00000000000E+00 0. -1.
         11    1    4    4    0    0 -0.86740700118E+00  0.10075768488E+02 -0.53151205134E+01  0.11424710581E+02  0.51100000000E-03 0. -1.
        -11    1    4    4    0    0  0.13320171011E+02  0.15473000698E+02 -0.21086162323E+01  0.20525276345E+02  0.51100000000E-03 0.  1.
        -12    1    4    4    0    0 -0.15471939087E+01  0.15760093334E+02 -0.20992796534E+00  0.15837247887E+02  0.00000000000E+00 0.  1.
</event>
<event>
 8    1  0.5331800E-011  0.9118800E+02  0.7816164E-02  0.1184000E+00
        -11   -1    0    0    0    0  0.00000000000E+00  0.00000000000E+00  0.45593999997E+02  0.45594000000E+02  0.51100000000E-03 0. -1.
         11   -1    0    0    0    0 -0.00000000000E+00 -0.00000000000E+00 -0.45593999997E+02  0.45594000000E+02  0.51100000000E-03 0.  1.
         23    2    1    2    0    0 -0.71054273576E-14 -0.66613381478E-15  0.35527136788E-14  0.91188000000E+02  0.91188000000E+02 0.  0.
    9900012    2    3    3    0    0 -0.40042756419E+02  0.12521146955E+01  0.16692317247E+02  0.47787267427E+02  0.19999983506E+02 0.  0.
        -12    1    3    3    0    0  0.40042756419E+02 -0.12521146955E+01 -0.16692317247E+02  0.43400732573E+02  0.00000000000E+00 0.  1.
         11    1    4    4    0    0 -0.29669722972E+01  0.58029223357E+01 -0.49189250710E+00  0.65359613483E+01  0.51100000000E-03 0. -1.
        -11    1    4    4    0    0 -0.17721786605E+02 -0.17727611071E+01  0.64218412150E+01  0.18932629169E+02  0.51100000000E-03 0.  1.
         12    1    4    4    0    0 -0.19353997517E+02 -0.27780465331E+01  0.10762368539E+02  0.22318676909E+02  0.00000000000E+00 0. -1.
</event>
<event>
 8    1  0.5331800E-011  0.9118800E+02  0.7816164E-02  0.1184000E+00
        -11   -1    0    0    0    0  0.00000000000E+00  0.00000000000E+00  0.45593999997E+02  0.45594000000E+02  0.51100000000E-03 0. -1.
         11   -1    0    0    0    0 -0.00000000000E+00 -0.00000000000E+00 -0.45593999997E+02  0.45594000000E+02  0.51100000000E-03 0.  1.
         23    2    1    2    0    0 -0.35527136788E-14 -0.26645352591E-14 -0.71054273576E-14  0.91188000000E+02  0.91188000000E+02 0.  0.
    9900012    2    3    3    0    0  0.30049648445E+02  0.76341360753E+01  0.30370410665E+02  0.47787271328E+02  0.20000001292E+02 0.  0.
        -12    1    3    3    0    0 -0.30049648445E+02 -0.76341360753E+01 -0.30370410665E+02  0.43400728672E+02  0.00000000000E+00 0.  1.
         11    1    4    4    0    0  0.39443829629E+01  0.72133243711E+01  0.11744840875E+02  0.14336369585E+02  0.51100000000E-03 0. -1.
        -11    1    4    4    0    0  0.25389181079E+02  0.10018493269E+01  0.14566029268E+02  0.29287939956E+02  0.51100000000E-03 0.  1.
        -12    1    4    4    0    0  0.71608440360E+00 -0.58103762271E+00  0.40595405221E+01  0.41629617873E+01  0.00000000000E+00 0.  1.
</event>
<event>
 8    1  0.5331800E-011  0.9118800E+02  0.7816164E-02  0.1184000E+00
        -11   -1    0    0    0    0  0.00000000000E+00  0.00000000000E+00  0.45593999997E+02  0.45594000000E+02  0.51100000000E-03 0. -1.
         11   -1    0    0    0    0 -0.00000000000E+00 -0.00000000000E+00 -0.45593999997E+02  0.45594000000E+02  0.51100000000E-03 0.  1.
         23    2    1    2    0    0 -0.71054273576E-14  0.00000000000E+00  0.00000000000E+00  0.91188000000E+02  0.91188000000E+02 0.  0.
    9900012    2    3    3    0    0 -0.34086062160E+02  0.20600904442E+02  0.17244305437E+02  0.47787274574E+02  0.20000016094E+02 0.  0.
        -12    1    3    3    0    0  0.34086062160E+02 -0.20600904442E+02 -0.17244305437E+02  0.43400725426E+02  0.00000000000E+00 0.  1.
         11    1    4    4    0    0 -0.34301806059E+02  0.20046323400E+02  0.16332880487E+02  0.42956163307E+02  0.51100000000E-03 0. -1.
        -11    1    4    4    0    0 -0.38085460866E-01  0.16116292015E+01 -0.14899296717E+01  0.21951514465E+01  0.51100000000E-03 0.  1.
        -12    1    4    4    0    0  0.25382935984E+00 -0.10570481592E+01  0.24013546223E+01  0.26359598208E+01  0.00000000000E+00 0.  1.
</event>
<event>
 8    1  0.5331800E-011  0.9118800E+02  0.7816164E-02  0.1184000E+00
        -11   -1    0    0    0    0  0.00000000000E+00  0.00000000000E+00  0.45593999997E+02  0.45594000000E+02  0.51100000000E-03 0. -1.
         11   -1    0    0    0    0 -0.00000000000E+00 -0.00000000000E+00 -0.45593999997E+02  0.45594000000E+02  0.51100000000E-03 0.  1.
         23    2    1    2    0    0  0.00000000000E+00  0.00000000000E+00  0.00000000000E+00  0.91188000000E+02  0.91188000000E+02 0.  0.
    9900012    2    3    3    0    0 -0.57733512111E+01  0.24738288412E+02  0.35189608679E+02  0.47787273546E+02  0.20000011404E+02 0.  0.
        -12    1    3    3    0    0  0.57733512111E+01 -0.24738288412E+02 -0.35189608679E+02  0.43400726454E+02  0.00000000000E+00 0.  1.
         11    1    4    4    0    0  0.30155755652E+01  0.15469077668E+02  0.10624072384E+02  0.19006761275E+02  0.51100000000E-03 0. -1.
        -11    1    4    4    0    0 -0.80085927306E+01  0.10000404014E+02  0.24571538556E+02  0.27711119523E+02  0.51100000000E-03 0.  1.
        -12    1    4    4    0    0 -0.78033404570E+00 -0.73119327017E+00 -0.60022606927E-02  0.10693927475E+01  0.00000000000E+00 0.  1.
</event>
<event>
 8    1  0.5331800E-011  0.9118800E+02  0.7816164E-02  0.1184000E+00
        -11   -1    0    0    0    0  0.00000000000E+00  0.00000000000E+00  0.45593999997E+02  0.45594000000E+02  0.51100000000E-03 0. -1.
         11   -1    0    0    0    0 -0.00000000000E+00 -0.00000000000E+00 -0.45593999997E+02  0.45594000000E+02  0.51100000000E-03 0.  1.
         23    2    1    2    0    0  0.00000000000E+00  0.00000000000E+00  0.88817841970E-15  0.91188000000E+02  0.91188000000E+02 0.  0.
    9900012    2    3    3    0    0 -0.42361505813E+02 -0.82004715113E+01  0.46776460810E+01  0.47787247926E+02  0.19999894591E+02 0.  0.
        -12    1    3    3    0    0  0.42361505813E+02  0.82004715113E+01 -0.46776460810E+01  0.43400752074E+02  0.00000000000E+00 0.  1.
         11    1    4    4    0    0 -0.19190458513E+02 -0.74353663680E+01 -0.22071808610E+01  0.20698551123E+02  0.51100000000E-03 0. -1.
        -11    1    4    4    0    0 -0.19240135331E+02 -0.38161767673E+01  0.91226710862E+01  0.21632594404E+02  0.51100000000E-03 0.  1.
        -12    1    4    4    0    0 -0.39309119695E+01  0.30510716240E+01 -0.22378441442E+01  0.54561023983E+01  0.00000000000E+00 0.  1.
</event>
<event>
 8    1  0.5331800E-011  0.9118800E+02  0.7816164E-02  0.1184000E+00
        -11   -1    0    0    0    0  0.00000000000E+00  0.00000000000E+00  0.45593999997E+02  0.45594000000E+02  0.51100000000E-03 0. -1.
         11   -1    0    0    0    0 -0.00000000000E+00 -0.00000000000E+00 -0.45593999997E+02  0.45594000000E+02  0.51100000000E-03 0.  1.
         23    2    1    2    0    0  0.17763568394E-14  0.00000000000E+00  0.00000000000E+00  0.91188000000E+02  0.91188000000E+02 0.  0.
    9900012    2    3    3    0    0 -0.11943295146E+02  0.16215508420E+02  0.38445264238E+02  0.47787270115E+02  0.19999995761E+02 0.  0.
        -12    1    3    3    0    0  0.11943295146E+02 -0.16215508420E+02 -0.38445264238E+02  0.43400729885E+02  0.00000000000E+00 0.  1.
         11    1    4    4    0    0 -0.13540253147E+02  0.90733268822E+01  0.31907721690E+02  0.35829686291E+02  0.51100000000E-03 0. -1.
        -11    1    4    4    0    0  0.37473981905E+01  0.27642901767E+01  0.50250097329E+01  0.68509135490E+01  0.51100000000E-03 0.  1.
         12    1    4    4    0    0 -0.21504401892E+01  0.43778913610E+01  0.15125328147E+01  0.51066702745E+01  0.00000000000E+00 0. -1.
</event>
<event>
 8    1  0.5331800E-011  0.9118800E+02  0.7816164E-02  0.1184000E+00
        -11   -1    0    0    0    0  0.00000000000E+00  0.00000000000E+00  0.45593999997E+02  0.45594000000E+02  0.51100000000E-03 0.  1.
         11   -1    0    0    0    0 -0.00000000000E+00 -0.00000000000E+00 -0.45593999997E+02  0.45594000000E+02  0.51100000000E-03 0. -1.
         23    2    1    2    0    0  0.35527136788E-14  0.00000000000E+00  0.00000000000E+00  0.91188000000E+02  0.91188000000E+02 0.  0.
    9900012    2    3    3    0    0 -0.30998109951E+02  0.19824171483E+02 -0.23016140056E+02  0.47787270760E+02  0.19999998701E+02 0.  0.
         12    1    3    3    0    0  0.30998109951E+02 -0.19824171483E+02  0.23016140056E+02  0.43400729240E+02  0.00000000000E+00 0. -1.
         11    1    4    4    0    0 -0.29934158813E+01 -0.14061328847E+01 -0.47123797167E+01  0.57571061466E+01  0.51100000000E-03 0. -1.
        -11    1    4    4    0    0 -0.14341643285E+02  0.72417896961E+01 -0.13029312906E+01  0.16119053332E+02  0.51100000000E-03 0.  1.
        -12    1    4    4    0    0 -0.13663050785E+02  0.13988514672E+02 -0.17000829049E+02  0.25911111281E+02  0.00000000000E+00 0.  1.
</event>
<event>
 8    1  0.5331800E-011  0.9118800E+02  0.7816164E-02  0.1184000E+00
        -11   -1    0    0    0    0  0.00000000000E+00  0.00000000000E+00  0.45593999997E+02  0.45594000000E+02  0.51100000000E-03 0.  1.
         11   -1    0    0    0    0 -0.00000000000E+00 -0.00000000000E+00 -0.45593999997E+02  0.45594000000E+02  0.51100000000E-03 0. -1.
         23    2    1    2    0    0 -0.35527136788E-14  0.00000000000E+00  0.35527136788E-14  0.91188000000E+02  0.91188000000E+02 0.  0.
    9900012    2    3    3    0    0 -0.28926141961E+02 -0.18747428022E+02  0.26371103735E+02  0.47787275831E+02  0.20000021823E+02 0.  0.
        -12    1    3    3    0    0  0.28926141961E+02  0.18747428022E+02 -0.26371103735E+02  0.43400724169E+02  0.00000000000E+00 0.  1.
         11    1    4    4    0    0 -0.11636431068E+02  0.65607096165E+00  0.14932135706E+02  0.18942165507E+02  0.51100000000E-03 0. -1.
        -11    1    4    4    0    0 -0.89367994454E+01 -0.13273515735E+02  0.56065516056E+01  0.16955412866E+02  0.51100000000E-03 0.  1.
         12    1    4    4    0    0 -0.83529114481E+01 -0.61299832489E+01  0.58324164238E+01  0.11889697458E+02  0.00000000000E+00 0. -1.
</event>
<event>
 8    1  0.5331800E-011  0.9118800E+02  0.7816164E-02  0.1184000E+00
        -11   -1    0    0    0    0  0.00000000000E+00  0.00000000000E+00  0.45593999997E+02  0.45594000000E+02  0.51100000000E-03 0. -1.
         11   -1    0    0    0    0 -0.00000000000E+00 -0.00000000000E+00 -0.45593999997E+02  0.45594000000E+02  0.51100000000E-03 0.  1.
         23    2    1    2    0    0  0.17763568394E-14  0.00000000000E+00  0.00000000000E+00  0.91188000000E+02  0.91188000000E+02 0.  0.
    9900012    2    3    3    0    0 -0.13850452590E+02 -0.16885845474E+02  0.37505487400E+02  0.47787211996E+02  0.19999730772E+02 0.  0.
        -12    1    3    3    0    0  0.13850452590E+02  0.16885845474E+02 -0.37505487400E+02  0.43400788004E+02  0.00000000000E+00 0.  1.
         11    1    4    4    0    0 -0.20072965051E+01 -0.10273840273E+02  0.24810364401E+02  0.26928334802E+02  0.51100000000E-03 0. -1.
        -11    1    4    4    0    0  0.24549290982E+00  0.15132846053E+01  0.29781683535E+01  0.33495946125E+01  0.51100000000E-03 0.  1.
         12    1    4    4    0    0 -0.12088648995E+02 -0.81252898061E+01  0.97169546448E+01  0.17509282581E+02  0.00000000000E+00 0. -1.
</event>
<event>
 8    1  0.5331800E-011  0.9118800E+02  0.7816164E-02  0.1184000E+00
        -11   -1    0    0    0    0  0.00000000000E+00  0.00000000000E+00  0.45593999997E+02  0.45594000000E+02  0.51100000000E-03 0. -1.
         11   -1    0    0    0    0 -0.00000000000E+00 -0.00000000000E+00 -0.45593999997E+02  0.45594000000E+02  0.51100000000E-03 0.  1.
         23    2    1    2    0    0  0.00000000000E+00  0.35527136788E-14  0.71054273576E-14  0.91188000000E+02  0.91188000000E+02 0.  0.
    9900012    2    3    3    0    0 -0.18421463689E+02  0.18470641790E+02  0.34685863459E+02  0.47787262029E+02  0.19999958894E+02 0.  0.
        -12    1    3    3    0    0  0.18421463689E+02 -0.18470641790E+02 -0.34685863459E+02  0.43400737971E+02  0.00000000000E+00 0.  1.
         11    1    4    4    0    0 -0.13028691755E+02  0.15944654060E+02  0.27782533635E+02  0.34581034938E+02  0.51100000000E-03 0. -1.
        -11    1    4    4    0    0 -0.62657754728E+00 -0.98080104926E+00 -0.21184080325E+01  0.24170690876E+01  0.51100000000E-03 0.  1.
        -12    1    4    4    0    0 -0.47661943862E+01  0.35067887789E+01  0.90217378560E+01  0.10789158003E+02  0.00000000000E+00 0.  1.
</event>
<event>
 8    1  0.6080820E-011  0.9118800E+02  0.7816164E-02  0.1184000E+00
        -11   -1    0    0    0    0  0.00000000000E+00  0.00000000000E+00  0.45593999997E+02  0.45594000000E+02  0.51100000000E-03 0. -1.
         11   -1    0    0    0    0 -0.00000000000E+00 -0.00000000000E+00 -0.45593999997E+02  0.45594000000E+02  0.51100000000E-03 0.  1.
         23    2    1    2    0    0  0.00000000000E+00  0.11102230246E-15  0.00000000000E+00  0.91188000000E+02  0.91188000000E+02 0.  0.
    9900012    2    3    3    0    0 -0.33335908702E+02  0.84965922042E+00 -0.27778024279E+02  0.47787270022E+02  0.19999995339E+02 0.  0.
         12    1    3    3    0    0  0.33335908702E+02 -0.84965922042E+00  0.27778024279E+02  0.43400729978E+02  0.00000000000E+00 0. -1.
         11    1    4    4    0    0 -0.63739046155E+01  0.10574905943E+00  0.95112170359E+00  0.64453452714E+01  0.51100000000E-03 0. -1.
        -11    1    4    4    0    0 -0.11808351242E+02  0.26350630872E+01 -0.20976397160E+02  0.24215489973E+02  0.51100000000E-03 0.  1.
        -12    1    4    4    0    0 -0.15153652844E+02 -0.18911529262E+01 -0.77527488222E+01  0.17126434778E+02  0.00000000000E+00 0.  1.
</event>
<event>
 8    1  0.5331800E-011  0.9118800E+02  0.7816164E-02  0.1184000E+00
        -11   -1    0    0    0    0  0.00000000000E+00  0.00000000000E+00  0.45593999997E+02  0.45594000000E+02  0.51100000000E-03 0. -1.
         11   -1    0    0    0    0 -0.00000000000E+00 -0.00000000000E+00 -0.45593999997E+02  0.45594000000E+02  0.51100000000E-03 0.  1.
         23    2    1    2    0    0  0.00000000000E+00  0.00000000000E+00  0.00000000000E+00  0.91188000000E+02  0.91188000000E+02 0.  0.
    9900012    2    3    3    0    0 -0.18183058175E+02  0.29268138135E+02  0.26388960872E+02  0.47787253804E+02  0.19999921394E+02 0.  0.
        -12    1    3    3    0    0  0.18183058175E+02 -0.29268138135E+02 -0.26388960872E+02  0.43400746196E+02  0.00000000000E+00 0.  1.
         11    1    4    4    0    0  0.22365123299E+01  0.54914662634E+01  0.62102818983E+01  0.85863723796E+01  0.51100000000E-03 0. -1.
        -11    1    4    4    0    0 -0.29153311655E+01  0.10018554327E+02  0.23929711164E+01  0.10704994051E+02  0.51100000000E-03 0.  1.
         12    1    4    4    0    0 -0.17504239339E+02  0.13758117545E+02  0.17785707857E+02  0.28495887374E+02  0.00000000000E+00 0. -1.
</event>
<event>
 8    1  0.5331800E-011  0.9118800E+02  0.7816164E-02  0.1184000E+00
        -11   -1    0    0    0    0  0.00000000000E+00  0.00000000000E+00  0.45593999997E+02  0.45594000000E+02  0.51100000000E-03 0. -1.
         11   -1    0    0    0    0 -0.00000000000E+00 -0.00000000000E+00 -0.45593999997E+02  0.45594000000E+02  0.51100000000E-03 0.  1.
         23    2    1    2    0    0  0.00000000000E+00  0.17763568394E-14  0.00000000000E+00  0.91188000000E+02  0.91188000000E+02 0.  0.
    9900012    2    3    3    0    0 -0.35614475316E+01  0.10783822476E+02 -0.41888527274E+02  0.47787268982E+02  0.19999990595E+02 0.  0.
         12    1    3    3    0    0  0.35614475316E+01 -0.10783822476E+02  0.41888527274E+02  0.43400731018E+02  0.00000000000E+00 0. -1.
         11    1    4    4    0    0 -0.26398508024E+01 -0.27599977659E+01 -0.10867820779E+01  0.39708305772E+01  0.51100000000E-03 0. -1.
        -11    1    4    4    0    0 -0.13496687357E+01  0.11923174105E+02 -0.40326900582E+02  0.42074251001E+02  0.51100000000E-03 0.  1.
         12    1    4    4    0    0  0.42807200659E+00  0.16206461364E+01 -0.47484461407E+00  0.17421874037E+01  0.00000000000E+00 0. -1.
</event>
<event>
 8    1  0.5331800E-011  0.9118800E+02  0.7816164E-02  0.1184000E+00
        -11   -1    0    0    0    0  0.00000000000E+00  0.00000000000E+00  0.45593999997E+02  0.45594000000E+02  0.51100000000E-03 0.  1.
         11   -1    0    0    0    0 -0.00000000000E+00 -0.00000000000E+00 -0.45593999997E+02  0.45594000000E+02  0.51100000000E-03 0. -1.
         23    2    1    2    0    0  0.00000000000E+00  0.00000000000E+00  0.17763568394E-14  0.91188000000E+02  0.91188000000E+02 0.  0.
    9900012    2    3    3    0    0  0.35813220626E+02 -0.23018918012E+02  0.84359862340E+01  0.47787271645E+02  0.20000002736E+02 0.  0.
         12    1    3    3    0    0 -0.35813220626E+02  0.23018918012E+02 -0.84359862340E+01  0.43400728355E+02  0.00000000000E+00 0. -1.
         11    1    4    4    0    0  0.81696032362E+01 -0.79049271115E+01  0.39988179367E+01  0.12050760757E+02  0.51100000000E-03 0. -1.
        -11    1    4    4    0    0  0.66162242182E+01 -0.11344982155E+02 -0.23077362772E+01  0.13334492491E+02  0.51100000000E-03 0.  1.
        -12    1    4    4    0    0  0.21027393172E+02 -0.37690087453E+01  0.67449045746E+01  0.22402018397E+02  0.00000000000E+00 0.  1.
</event>
<event>
 8    1  0.5331800E-011  0.9118800E+02  0.7816164E-02  0.1184000E+00
        -11   -1    0    0    0    0  0.00000000000E+00  0.00000000000E+00  0.45593999997E+02  0.45594000000E+02  0.51100000000E-03 0. -1.
         11   -1    0    0    0    0 -0.00000000000E+00 -0.00000000000E+00 -0.45593999997E+02  0.45594000000E+02  0.51100000000E-03 0.  1.
         23    2    1    2    0    0  0.00000000000E+00  0.00000000000E+00  0.00000000000E+00  0.91188000000E+02  0.91188000000E+02 0.  0.
    9900012    2    3    3    0    0  0.16041327167E+02  0.14268508450E+02 -0.37718813712E+02  0.47787269378E+02  0.19999992404E+02 0.  0.
         12    1    3    3    0    0 -0.16041327167E+02 -0.14268508450E+02  0.37718813712E+02  0.43400730622E+02  0.00000000000E+00 0. -1.
         11    1    4    4    0    0 -0.23339003947E+01 -0.49847481243E+00 -0.33822230595E-01  0.23867786650E+01  0.51100000000E-03 0. -1.
        -11    1    4    4    0    0  0.19332193500E+02  0.13462519219E+02 -0.36281257024E+02  0.43258556850E+02  0.51100000000E-03 0.  1.
        -12    1    4    4    0    0 -0.95696593869E+00  0.13044640436E+01 -0.14037344571E+01  0.21419338634E+01  0.00000000000E+00 0.  1.
</event>
<event>
 8    1  0.5331800E-011  0.9118800E+02  0.7816164E-02  0.1184000E+00
        -11   -1    0    0    0    0  0.00000000000E+00  0.00000000000E+00  0.45593999997E+02  0.45594000000E+02  0.51100000000E-03 0. -1.
         11   -1    0    0    0    0 -0.00000000000E+00 -0.00000000000E+00 -0.45593999997E+02  0.45594000000E+02  0.51100000000E-03 0.  1.
         23    2    1    2    0    0  0.35527136788E-14  0.00000000000E+00  0.00000000000E+00  0.91188000000E+02  0.91188000000E+02 0.  0.
    9900012    2    3    3    0    0 -0.29862781605E+02 -0.43409756544E+01 -0.31192844395E+02  0.47787270326E+02  0.19999996723E+02 0.  0.
         12    1    3    3    0    0  0.29862781605E+02  0.43409756544E+01  0.31192844395E+02  0.43400729674E+02  0.00000000000E+00 0. -1.
         11    1    4    4    0    0 -0.43180060589E+00 -0.60400098812E+00 -0.11378909138E+02  0.11403106699E+02  0.51100000000E-03 0. -1.
        -11    1    4    4    0    0 -0.11066294013E+02  0.16856514005E+01 -0.92085108998E+01  0.14494859678E+02  0.51100000000E-03 0.  1.
         12    1    4    4    0    0 -0.18364686986E+02 -0.54226260668E+01 -0.10605424357E+02  0.21889303948E+02  0.00000000000E+00 0. -1.
</event>
<event>
 8    1  0.5331800E-011  0.9118800E+02  0.7816164E-02  0.1184000E+00
        -11   -1    0    0    0    0  0.00000000000E+00  0.00000000000E+00  0.45593999997E+02  0.45594000000E+02  0.51100000000E-03 0. -1.
         11   -1    0    0    0    0 -0.00000000000E+00 -0.00000000000E+00 -0.45593999997E+02  0.45594000000E+02  0.51100000000E-03 0.  1.
         23    2    1    2    0    0  0.88817841970E-15  0.00000000000E+00  0.00000000000E+00  0.91188000000E+02  0.91188000000E+02 0.  0.
    9900012    2    3    3    0    0  0.49640486804E+01  0.18938589333E+02  0.38733853023E+02  0.47787270568E+02  0.19999997827E+02 0.  0.
        -12    1    3    3    0    0 -0.49640486804E+01 -0.18938589333E+02 -0.38733853023E+02  0.43400729432E+02  0.00000000000E+00 0.  1.
         11    1    4    4    0    0 -0.32279617768E+01  0.57159552819E+01  0.61990542532E+01  0.90288513064E+01  0.51100000000E-03 0. -1.
        -11    1    4    4    0    0  0.16649002372E+01 -0.24728193128E+01  0.10581340208E+02  0.10993247428E+02  0.51100000000E-03 0.  1.
        -12    1    4    4    0    0  0.65271102200E+01  0.15695453364E+02  0.21953458562E+02  0.27765171834E+02  0.00000000000E+00 0.  1.
</event>
<event>
 8    1  0.5331800E-011  0.9118800E+02  0.7816164E-02  0.1184000E+00
        -11   -1    0    0    0    0  0.00000000000E+00  0.00000000000E+00  0.45593999997E+02  0.45594000000E+02  0.51100000000E-03 0. -1.
         11   -1    0    0    0    0 -0.00000000000E+00 -0.00000000000E+00 -0.45593999997E+02  0.45594000000E+02  0.51100000000E-03 0.  1.
         23    2    1    2    0    0 -0.35527136788E-14 -0.35527136788E-14  0.35527136788E-14  0.91188000000E+02  0.91188000000E+02 0.  0.
    9900012    2    3    3    0    0  0.18849440259E+02  0.29865399895E+02 -0.25226548255E+02  0.47787282888E+02  0.20000054000E+02 0.  0.
         12    1    3    3    0    0 -0.18849440259E+02 -0.29865399895E+02  0.25226548255E+02  0.43400717112E+02  0.00000000000E+00 0. -1.
         11    1    4    4    0    0 -0.21328436471E-01 -0.10484849622E+01 -0.14402465983E+01  0.17815965153E+01  0.51100000000E-03 0. -1.
        -11    1    4    4    0    0  0.10808642505E+02  0.10283949860E+02 -0.22059594199E+01  0.15081532904E+02  0.51100000000E-03 0.  1.
        -12    1    4    4    0    0  0.80621261905E+01  0.20629934997E+02 -0.21580342237E+02  0.30924153469E+02  0.00000000000E+00 0.  1.
</event>
<event>
 8    1  0.5331800E-011  0.9118800E+02  0.7816164E-02  0.1184000E+00
        -11   -1    0    0    0    0  0.00000000000E+00  0.00000000000E+00  0.45593999997E+02  0.45594000000E+02  0.51100000000E-03 0.  1.
         11   -1    0    0    0    0 -0.00000000000E+00 -0.00000000000E+00 -0.45593999997E+02  0.45594000000E+02  0.51100000000E-03 0. -1.
         23    2    1    2    0    0  0.00000000000E+00  0.00000000000E+00 -0.35527136788E-14  0.91188000000E+02  0.91188000000E+02 0.  0.
    9900012    2    3    3    0    0 -0.36740103223E+02  0.76473005767E+01  0.21801536878E+02  0.47787269578E+02  0.19999993315E+02 0.  0.
        -12    1    3    3    0    0  0.36740103223E+02 -0.76473005767E+01 -0.21801536878E+02  0.43400730422E+02  0.00000000000E+00 0.  1.
         11    1    4    4    0    0 -0.34012593215E+02  0.63564333479E+01  0.18343840405E+02  0.39163212626E+02  0.51100000000E-03 0. -1.
        -11    1    4    4    0    0  0.10301208804E+01  0.31238866783E+01  0.29391011853E+01  0.44111373868E+01  0.51100000000E-03 0.  1.
         12    1    4    4    0    0 -0.37576308880E+01 -0.18330194494E+01  0.51859528720E+00  0.42129195654E+01  0.00000000000E+00 0. -1.
</event>
<event>
 8    1  0.5331800E-011  0.9118800E+02  0.7816164E-02  0.1184000E+00
        -11   -1    0    0    0    0  0.00000000000E+00  0.00000000000E+00  0.45593999997E+02  0.45594000000E+02  0.51100000000E-03 0.  1.
         11   -1    0    0    0    0 -0.00000000000E+00 -0.00000000000E+00 -0.45593999997E+02  0.45594000000E+02  0.51100000000E-03 0. -1.
         23    2    1    2    0    0  0.35527136788E-14  0.00000000000E+00  0.00000000000E+00  0.91188000000E+02  0.91188000000E+02 0.  0.
    9900012    2    3    3    0    0  0.26243804026E+02 -0.33639920035E+02  0.79524563689E+01  0.47787273831E+02  0.20000012704E+02 0.  0.
        -12    1    3    3    0    0 -0.26243804026E+02  0.33639920035E+02 -0.79524563689E+01  0.43400726169E+02  0.00000000000E+00 0.  1.
         11    1    4    4    0    0  0.23971898981E+01  0.24963359558E+01 -0.23097686102E+00  0.34686543765E+01  0.51100000000E-03 0.  1.
        -11    1    4    4    0    0  0.91436288537E+01 -0.14841149874E+02  0.99091790476E+00  0.17459885359E+02  0.51100000000E-03 0. -1.
         12    1    4    4    0    0  0.14702985274E+02 -0.21295106117E+02  0.71925153251E+01  0.26858734095E+02  0.00000000000E+00 0. -1.
</event>
<event>
 8    1  0.5331800E-011  0.9118800E+02  0.7816164E-02  0.1184000E+00
        -11   -1    0    0    0    0  0.00000000000E+00  0.00000000000E+00  0.45593999997E+02  0.45594000000E+02  0.51100000000E-03 0. -1.
         11   -1    0    0    0    0 -0.00000000000E+00 -0.00000000000E+00 -0.45593999997E+02  0.45594000000E+02  0.51100000000E-03 0.  1.
         23    2    1    2    0    0 -0.35527136788E-14  0.71054273576E-14 -0.71054273576E-14  0.91188000000E+02  0.91188000000E+02 0.  0.
    9900012    2    3    3    0    0  0.12845457261E+02 -0.22289850908E+02  0.34953963294E+02  0.47787276783E+02  0.20000026166E+02 0.  0.
        -12    1    3    3    0    0 -0.12845457261E+02  0.22289850908E+02 -0.34953963294E+02  0.43400723217E+02  0.00000000000E+00 0.  1.
         11    1    4    4    0    0  0.12103687289E+01 -0.11278561119E+02  0.10815455527E+02  0.15673066448E+02  0.51100000000E-03 0. -1.
        -11    1    4    4    0    0  0.32252653615E+01 -0.58005545928E+01  0.70055055625E+00  0.66737951407E+01  0.51100000000E-03 0.  1.
        -12    1    4    4    0    0  0.84098231708E+01 -0.52107351962E+01  0.23437957211E+02  0.25440415194E+02  0.00000000000E+00 0.  1.
</event>
<event>
 8    1  0.5331800E-011  0.9118800E+02  0.7816164E-02  0.1184000E+00
        -11   -1    0    0    0    0  0.00000000000E+00  0.00000000000E+00  0.45593999997E+02  0.45594000000E+02  0.51100000000E-03 0.  1.
         11   -1    0    0    0    0 -0.00000000000E+00 -0.00000000000E+00 -0.45593999997E+02  0.45594000000E+02  0.51100000000E-03 0. -1.
         23    2    1    2    0    0  0.35527136788E-14 -0.71054273576E-14  0.22204460493E-15  0.91188000000E+02  0.91188000000E+02 0.  0.
    9900012    2    3    3    0    0 -0.19038545581E+02  0.38975385950E+02  0.14410122880E+01  0.47787269082E+02  0.19999991052E+02 0.  0.
        -12    1    3    3    0    0  0.19038545581E+02 -0.38975385950E+02 -0.14410122880E+01  0.43400730918E+02  0.00000000000E+00 0.  1.
         11    1    4    4    0    0  0.18025355218E+01  0.11046625425E+02 -0.23107763957E+01  0.11428768761E+02  0.51100000000E-03 0. -1.
        -11    1    4    4    0    0 -0.83584265938E+01  0.58177084772E+01  0.40656052645E+01  0.10965316843E+02  0.51100000000E-03 0.  1.
         12    1    4    4    0    0 -0.12482654509E+02  0.22111052048E+02 -0.31381658084E+00  0.25393183477E+02  0.00000000000E+00 0. -1.
</event>
<event>
 8    1  0.5331800E-011  0.9118800E+02  0.7816164E-02  0.1184000E+00
        -11   -1    0    0    0    0  0.00000000000E+00  0.00000000000E+00  0.45593999997E+02  0.45594000000E+02  0.51100000000E-03 0. -1.
         11   -1    0    0    0    0 -0.00000000000E+00 -0.00000000000E+00 -0.45593999997E+02  0.45594000000E+02  0.51100000000E-03 0.  1.
         23    2    1    2    0    0  0.00000000000E+00  0.44408920985E-15 -0.71054273576E-14  0.91188000000E+02  0.91188000000E+02 0.  0.
    9900012    2    3    3    0    0  0.18281438081E+02 -0.32997272232E+01 -0.39224031466E+02  0.47787264724E+02  0.19999971181E+02 0.  0.
         12    1    3    3    0    0 -0.18281438081E+02  0.32997272232E+01  0.39224031466E+02  0.43400735276E+02  0.00000000000E+00 0. -1.
         11    1    4    4    0    0  0.58519619152E+01  0.52454828007E+01 -0.83568459657E+01  0.11471591992E+02  0.51100000000E-03 0. -1.
        -11    1    4    4    0    0  0.13212408983E+02 -0.78534540322E+01 -0.31531083338E+02  0.35077823594E+02  0.51100000000E-03 0.  1.
         12    1    4    4    0    0 -0.78293281721E+00 -0.69175599166E+00  0.66389783760E+00  0.12378491374E+01  0.00000000000E+00 0. -1.
</event>
<event>
 8    1  0.5331800E-011  0.9118800E+02  0.7816164E-02  0.1184000E+00
        -11   -1    0    0    0    0  0.00000000000E+00  0.00000000000E+00  0.45593999997E+02  0.45594000000E+02  0.51100000000E-03 0. -1.
         11   -1    0    0    0    0 -0.00000000000E+00 -0.00000000000E+00 -0.45593999997E+02  0.45594000000E+02  0.51100000000E-03 0.  1.
         23    2    1    2    0    0 -0.17763568394E-14  0.00000000000E+00  0.00000000000E+00  0.91188000000E+02  0.91188000000E+02 0.  0.
    9900012    2    3    3    0    0 -0.15061514872E+02  0.20093942132E+02 -0.35397846076E+02  0.47787271348E+02  0.20000001386E+02 0.  0.
         12    1    3    3    0    0  0.15061514872E+02 -0.20093942132E+02  0.35397846076E+02  0.43400728652E+02  0.00000000000E+00 0. -1.
         11    1    4    4    0    0 -0.12358664825E+02  0.13089658291E+02 -0.16719721287E+02  0.24568777556E+02  0.51100000000E-03 0. -1.
        -11    1    4    4    0    0  0.35747886272E+01 -0.64549267524E+00 -0.31659085845E+01  0.48185840192E+01  0.51100000000E-03 0.  1.
        -12    1    4    4    0    0 -0.62776386742E+01  0.76497765163E+01 -0.15512216205E+02  0.18399909773E+02  0.00000000000E+00 0.  1.
</event>
<event>
 8    1  0.5331800E-011  0.9118800E+02  0.7816164E-02  0.1184000E+00
        -11   -1    0    0    0    0  0.00000000000E+00  0.00000000000E+00  0.45593999997E+02  0.45594000000E+02  0.51100000000E-03 0. -1.
         11   -1    0    0    0    0 -0.00000000000E+00 -0.00000000000E+00 -0.45593999997E+02  0.45594000000E+02  0.51100000000E-03 0.  1.
         23    2    1    2    0    0  0.88817841970E-15  0.00000000000E+00  0.00000000000E+00  0.91188000000E+02  0.91188000000E+02 0.  0.
    9900012    2    3    3    0    0  0.46714882714E+01 -0.27627027721E+02 -0.33144353821E+02  0.47787266670E+02  0.19999980055E+02 0.  0.
         12    1    3    3    0    0 -0.46714882714E+01  0.27627027721E+02  0.33144353821E+02  0.43400733330E+02  0.00000000000E+00 0. -1.
         11    1    4    4    0    0 -0.57628660809E+01 -0.33924497584E+01 -0.42459050908E+01  0.79213036258E+01  0.51100000000E-03 0. -1.
        -11    1    4    4    0    0  0.76121915620E+01 -0.11801163329E+02 -0.19482297780E+02  0.24016095506E+02  0.51100000000E-03 0.  1.
         12    1    4    4    0    0  0.28221627904E+01 -0.12433414634E+02 -0.94161509503E+01  0.15849867539E+02  0.00000000000E+00 0. -1.
</event>
<event>
 8    1  0.5331800E-011  0.9118800E+02  0.7816164E-02  0.1184000E+00
        -11   -1    0    0    0    0  0.00000000000E+00  0.00000000000E+00  0.45593999997E+02  0.45594000000E+02  0.51100000000E-03 0.  1.
         11   -1    0    0    0    0 -0.00000000000E+00 -0.00000000000E+00 -0.45593999997E+02  0.45594000000E+02  0.51100000000E-03 0. -1.
         23    2    1    2    0    0  0.00000000000E+00 -0.27755575616E-15  0.00000000000E+00  0.91188000000E+02  0.91188000000E+02 0.  0.
    9900012    2    3    3    0    0  0.42599508460E+02 -0.25727126345E+00 -0.82969068939E+01  0.47787274505E+02  0.20000015777E+02 0.  0.
         12    1    3    3    0    0 -0.42599508460E+02  0.25727126345E+00  0.82969068939E+01  0.43400725495E+02  0.00000000000E+00 0. -1.
         11    1    4    4    0    0  0.10993629432E+02  0.39675444133E+01  0.48929808804E+01  0.12670539014E+02  0.51100000000E-03 0. -1.
        -11    1    4    4    0    0  0.24251926359E+02 -0.56962111556E+01 -0.87644108766E+01  0.26408666228E+02  0.51100000000E-03 0.  1.
        -12    1    4    4    0    0  0.73539526688E+01  0.14713954788E+01 -0.44254768978E+01  0.87080692626E+01  0.00000000000E+00 0.  1.
</event>
<event>
 8    1  0.7047377E-011  0.9118800E+02  0.7816164E-02  0.1184000E+00
        -11   -1    0    0    0    0  0.00000000000E+00  0.00000000000E+00  0.45593999997E+02  0.45594000000E+02  0.51100000000E-03 0. -1.
         11   -1    0    0    0    0 -0.00000000000E+00 -0.00000000000E+00 -0.45593999997E+02  0.45594000000E+02  0.51100000000E-03 0.  1.
         23    2    1    2    0    0  0.00000000000E+00  0.00000000000E+00  0.00000000000E+00  0.91188000000E+02  0.91188000000E+02 0.  0.
    9900012    2    3    3    0    0 -0.48809231004E+01 -0.18703138426E+02 -0.38858624948E+02  0.47787268091E+02  0.19999986536E+02 0.  0.
         12    1    3    3    0    0  0.48809231004E+01  0.18703138426E+02  0.38858624948E+02  0.43400731909E+02  0.00000000000E+00 0. -1.
         11    1    4    4    0    0 -0.70748563703E-01  0.11580764247E+01  0.80963075074E+00  0.14147963028E+01  0.51100000000E-03 0. -1.
        -11    1    4    4    0    0 -0.66948412101E+01 -0.16374837676E+02 -0.38285387729E+02  0.42174958465E+02  0.51100000000E-03 0.  1.
        -12    1    4    4    0    0  0.18846666734E+01 -0.34863771750E+01 -0.13828679704E+01  0.41975133233E+01  0.00000000000E+00 0.  1.
</event>
<event>
 8    1  0.5331800E-011  0.9118800E+02  0.7816164E-02  0.1184000E+00
        -11   -1    0    0    0    0  0.00000000000E+00  0.00000000000E+00  0.45593999997E+02  0.45594000000E+02  0.51100000000E-03 0. -1.
         11   -1    0    0    0    0 -0.00000000000E+00 -0.00000000000E+00 -0.45593999997E+02  0.45594000000E+02  0.51100000000E-03 0.  1.
         23    2    1    2    0    0  0.00000000000E+00  0.00000000000E+00  0.00000000000E+00  0.91188000000E+02  0.91188000000E+02 0.  0.
    9900012    2    3    3    0    0 -0.15835414384E+02 -0.12540075718E+02 -0.38413655675E+02  0.47787276619E+02  0.20000025416E+02 0.  0.
         12    1    3    3    0    0  0.15835414384E+02  0.12540075718E+02  0.38413655675E+02  0.43400723381E+02  0.00000000000E+00 0. -1.
         11    1    4    4    0    0  0.37997883111E+01  0.42027164232E+00 -0.75380197346E+01  0.84520270493E+01  0.51100000000E-03 0. -1.
        -11    1    4    4    0    0 -0.15480896091E+02 -0.82041549974E+01 -0.18737821775E+02  0.25652919291E+02  0.51100000000E-03 0.  1.
         12    1    4    4    0    0 -0.41543066036E+01 -0.47561923634E+01 -0.12137814165E+02  0.13682330279E+02  0.00000000000E+00 0. -1.
</event>
<event>
 8    1  0.5331800E-011  0.9118800E+02  0.7816164E-02  0.1184000E+00
        -11   -1    0    0    0    0  0.00000000000E+00  0.00000000000E+00  0.45593999997E+02  0.45594000000E+02  0.51100000000E-03 0. -1.
         11   -1    0    0    0    0 -0.00000000000E+00 -0.00000000000E+00 -0.45593999997E+02  0.45594000000E+02  0.51100000000E-03 0.  1.
         23    2    1    2    0    0  0.17763568394E-14  0.00000000000E+00  0.35527136788E-14  0.91188000000E+02  0.91188000000E+02 0.  0.
    9900012    2    3    3    0    0 -0.10149525010E+02  0.28060481284E+02 -0.31515391003E+02  0.47787270307E+02  0.19999996639E+02 0.  0.
         12    1    3    3    0    0  0.10149525010E+02 -0.28060481284E+02  0.31515391003E+02  0.43400729693E+02  0.00000000000E+00 0. -1.
         11    1    4    4    0    0 -0.94948897742E+01  0.11636858526E+02 -0.21224163994E+02  0.26000664332E+02  0.51100000000E-03 0. -1.
        -11    1    4    4    0    0  0.32243180998E+01  0.26476670827E+01 -0.22553755765E-01  0.41721549734E+01  0.51100000000E-03 0.  1.
         12    1    4    4    0    0 -0.38789533351E+01  0.13775955675E+02 -0.10268673253E+02  0.17614451002E+02  0.00000000000E+00 0. -1.
</event>
<event>
 8    1  0.5383625E-011  0.9118800E+02  0.7816164E-02  0.1184000E+00
        -11   -1    0    0    0    0  0.00000000000E+00  0.00000000000E+00  0.45593999997E+02  0.45594000000E+02  0.51100000000E-03 0. -1.
         11   -1    0    0    0    0 -0.00000000000E+00 -0.00000000000E+00 -0.45593999997E+02  0.45594000000E+02  0.51100000000E-03 0.  1.
         23    2    1    2    0    0 -0.35527136788E-14 -0.35527136788E-14  0.71054273576E-14  0.91188000000E+02  0.91188000000E+02 0.  0.
    9900012    2    3    3    0    0 -0.27377242555E+02 -0.17182579164E+02  0.28963229324E+02  0.47787273168E+02  0.20000009683E+02 0.  0.
        -12    1    3    3    0    0  0.27377242555E+02  0.17182579164E+02 -0.28963229324E+02  0.43400726832E+02  0.00000000000E+00 0.  1.
         11    1    4    4    0    0 -0.20185042085E+02 -0.54074720583E+01  0.19884911412E+02  0.28845907512E+02  0.51100000000E-03 0.  1.
        -11    1    4    4    0    0  0.12770357593E+01 -0.36848025944E+01  0.54077198365E+01  0.66672351527E+01  0.51100000000E-03 0. -1.
        -12    1    4    4    0    0 -0.84692362292E+01 -0.80903045110E+01  0.36705980754E+01  0.12274130504E+02  0.00000000000E+00 0.  1.
</event>
<event>
 8    1  0.5331800E-011  0.9118800E+02  0.7816164E-02  0.1184000E+00
        -11   -1    0    0    0    0  0.00000000000E+00  0.00000000000E+00  0.45593999997E+02  0.45594000000E+02  0.51100000000E-03 0.  1.
         11   -1    0    0    0    0 -0.00000000000E+00 -0.00000000000E+00 -0.45593999997E+02  0.45594000000E+02  0.51100000000E-03 0. -1.
         23    2    1    2    0    0  0.00000000000E+00  0.00000000000E+00  0.00000000000E+00  0.91188000000E+02  0.91188000000E+02 0.  0.
    9900012    2    3    3    0    0 -0.33482872480E+02  0.27067623692E+02 -0.54648112209E+01  0.47787272315E+02  0.20000005794E+02 0.  0.
        -12    1    3    3    0    0  0.33482872480E+02 -0.27067623692E+02  0.54648112209E+01  0.43400727685E+02  0.00000000000E+00 0.  1.
         11    1    4    4    0    0 -0.27704901083E+02  0.23052949631E+02 -0.39929431372E+01  0.36262151423E+02  0.51100000000E-03 0. -1.
        -11    1    4    4    0    0 -0.33220656744E+01 -0.26412795600E+01 -0.12606732504E+01  0.44273892267E+01  0.51100000000E-03 0.  1.
        -12    1    4    4    0    0 -0.24559057234E+01  0.66559536215E+01 -0.21119483334E+00  0.70977316652E+01  0.00000000000E+00 0.  1.
</event>
<event>
 8    1  0.5331800E-011  0.9118800E+02  0.7816164E-02  0.1184000E+00
        -11   -1    0    0    0    0  0.00000000000E+00  0.00000000000E+00  0.45593999997E+02  0.45594000000E+02  0.51100000000E-03 0. -1.
         11   -1    0    0    0    0 -0.00000000000E+00 -0.00000000000E+00 -0.45593999997E+02  0.45594000000E+02  0.51100000000E-03 0.  1.
         23    2    1    2    0    0  0.00000000000E+00  0.71054273576E-14 -0.35527136788E-14  0.91188000000E+02  0.91188000000E+02 0.  0.
    9900012    2    3    3    0    0 -0.28359197105E+01  0.29603710565E+02 -0.31610147317E+02  0.47787268056E+02  0.19999986376E+02 0.  0.
         12    1    3    3    0    0  0.28359197105E+01 -0.29603710565E+02  0.31610147317E+02  0.43400731944E+02  0.00000000000E+00 0. -1.
         11    1    4    4    0    0 -0.14368914128E+01 -0.12979622968E+01 -0.88716508830E+00  0.21298885443E+01  0.51100000000E-03 0. -1.
        -11    1    4    4    0    0  0.15683314576E+01  0.25632625137E+02 -0.30117890631E+02  0.39580026166E+02  0.51100000000E-03 0.  1.
        -12    1    4    4    0    0 -0.29673597553E+01  0.52690477256E+01 -0.60509159736E+00  0.60773533461E+01  0.00000000000E+00 0.  1.
</event>
<event>
 8    1  0.5331800E-011  0.9118800E+02  0.7816164E-02  0.1184000E+00
        -11   -1    0    0    0    0  0.00000000000E+00  0.00000000000E+00  0.45593999997E+02  0.45594000000E+02  0.51100000000E-03 0.  1.
         11   -1    0    0    0    0 -0.00000000000E+00 -0.00000000000E+00 -0.45593999997E+02  0.45594000000E+02  0.51100000000E-03 0. -1.
         23    2    1    2    0    0  0.88817841970E-15 -0.35527136788E-14 -0.35527136788E-14  0.91188000000E+02  0.91188000000E+02 0.  0.
    9900012    2    3    3    0    0 -0.49446647867E+01 -0.29050661733E+02  0.31862715447E+02  0.47787270829E+02  0.19999999017E+02 0.  0.
        -12    1    3    3    0    0  0.49446647867E+01  0.29050661733E+02 -0.31862715447E+02  0.43400729171E+02  0.00000000000E+00 0.  1.
         11    1    4    4    0    0  0.39418134440E+01 -0.63331555549E+00  0.24036235472E+01  0.46600845741E+01  0.51100000000E-03 0.  1.
        -11    1    4    4    0    0 -0.70590579663E+01 -0.27406966696E+02  0.23412972103E+02  0.36730632799E+02  0.51100000000E-03 0. -1.
         12    1    4    4    0    0 -0.18274202644E+01 -0.10103794809E+01  0.60461197961E+01  0.63965534553E+01  0.00000000000E+00 0. -1.
</event>
<event>
 8    1  0.5331800E-011  0.9118800E+02  0.7816164E-02  0.1184000E+00
        -11   -1    0    0    0    0  0.00000000000E+00  0.00000000000E+00  0.45593999997E+02  0.45594000000E+02  0.51100000000E-03 0.  1.
         11   -1    0    0    0    0 -0.00000000000E+00 -0.00000000000E+00 -0.45593999997E+02  0.45594000000E+02  0.51100000000E-03 0. -1.
         23    2    1    2    0    0  0.00000000000E+00 -0.35527136788E-14  0.00000000000E+00  0.91188000000E+02  0.91188000000E+02 0.  0.
    9900012    2    3    3    0    0  0.39273264081E+02 -0.13364617152E+02 -0.12752300093E+02  0.47787269351E+02  0.19999992278E+02 0.  0.
         12    1    3    3    0    0 -0.39273264081E+02  0.13364617152E+02  0.12752300093E+02  0.43400730649E+02  0.00000000000E+00 0. -1.
         11    1    4    4    0    0 -0.14037279814E+01 -0.21084364808E+01  0.80596669537E-01  0.25342558520E+01  0.51100000000E-03 0. -1.
        -11    1    4    4    0    0  0.26393965875E+01  0.14319370523E+01  0.39687623907E+00  0.30289220984E+01  0.51100000000E-03 0.  1.
         12    1    4    4    0    0  0.38037595475E+02 -0.12688117724E+02 -0.13229773002E+02  0.42224091400E+02  0.00000000000E+00 0. -1.
</event>
<event>
 8    1  0.5331800E-011  0.9118800E+02  0.7816164E-02  0.1184000E+00
        -11   -1    0    0    0    0  0.00000000000E+00  0.00000000000E+00  0.45593999997E+02  0.45594000000E+02  0.51100000000E-03 0. -1.
         11   -1    0    0    0    0 -0.00000000000E+00 -0.00000000000E+00 -0.45593999997E+02  0.45594000000E+02  0.51100000000E-03 0.  1.
         23    2    1    2    0    0 -0.88817841970E-15  0.00000000000E+00  0.00000000000E+00  0.91188000000E+02  0.91188000000E+02 0.  0.
    9900012    2    3    3    0    0 -0.28325468525E+01 -0.21451385315E+02  0.37622307770E+02  0.47787270795E+02  0.19999998862E+02 0.  0.
        -12    1    3    3    0    0  0.28325468525E+01  0.21451385315E+02 -0.37622307770E+02  0.43400729205E+02  0.00000000000E+00 0.  1.
         11    1    4    4    0    0  0.67958501717E+01 -0.80791124237E+01  0.21645500396E+02  0.24082842955E+02  0.51100000000E-03 0. -1.
        -11    1    4    4    0    0 -0.67017831018E+01 -0.12334883252E+02  0.10982317887E+02  0.17823426943E+02  0.51100000000E-03 0.  1.
         12    1    4    4    0    0 -0.29266139223E+01 -0.10373896398E+01  0.49944894868E+01  0.58810008969E+01  0.00000000000E+00 0. -1.
</event>
<event>
 8    1  0.5331800E-011  0.9118800E+02  0.7816164E-02  0.1184000E+00
        -11   -1    0    0    0    0  0.00000000000E+00  0.00000000000E+00  0.45593999997E+02  0.45594000000E+02  0.51100000000E-03 0. -1.
         11   -1    0    0    0    0 -0.00000000000E+00 -0.00000000000E+00 -0.45593999997E+02  0.45594000000E+02  0.51100000000E-03 0.  1.
         23    2    1    2    0    0  0.17763568394E-14 -0.11102230246E-15  0.00000000000E+00  0.91188000000E+02  0.91188000000E+02 0.  0.
    9900012    2    3    3    0    0  0.39585123415E+01 -0.96659077305E+00  0.43209014623E+02  0.47787273481E+02  0.20000011109E+02 0.  0.
        -12    1    3    3    0    0 -0.39585123415E+01  0.96659077305E+00 -0.43209014623E+02  0.43400726519E+02  0.00000000000E+00 0.  1.
         11    1    4    4    0    0  0.10467673795E+02 -0.30657171242E+01  0.32362476616E+02  0.34151145064E+02  0.51100000000E-03 0. -1.
        -11    1    4    4    0    0 -0.38020874281E+01  0.14462128567E+01  0.98863712072E+01  0.10690544249E+02  0.51100000000E-03 0.  1.
         12    1    4    4    0    0 -0.27070740249E+01  0.65291349451E+00  0.96016679977E+00  0.29455841680E+01  0.00000000000E+00 0. -1.
</event>
<event>
 8    1  0.5331800E-011  0.9118800E+02  0.7816164E-02  0.1184000E+00
        -11   -1    0    0    0    0  0.00000000000E+00  0.00000000000E+00  0.45593999997E+02  0.45594000000E+02  0.51100000000E-03 0. -1.
         11   -1    0    0    0    0 -0.00000000000E+00 -0.00000000000E+00 -0.45593999997E+02  0.45594000000E+02  0.51100000000E-03 0.  1.
         23    2    1    2    0    0  0.00000000000E+00  0.44408920985E-15 -0.71054273576E-14  0.91188000000E+02  0.91188000000E+02 0.  0.
    9900012    2    3    3    0    0  0.26627519606E+01  0.29439958944E+01  0.43218811443E+02  0.47787273942E+02  0.20000013212E+02 0.  0.
        -12    1    3    3    0    0 -0.26627519606E+01 -0.29439958944E+01 -0.43218811443E+02  0.43400726058E+02  0.00000000000E+00 0.  1.
         11    1    4    4    0    0 -0.49854359522E+01  0.26858028039E+01  0.32353784897E+02  0.32845631456E+02  0.51100000000E-03 0. -1.
        -11    1    4    4    0    0  0.23815865298E+01  0.21857294868E+01  0.66314261036E+00  0.32998675991E+01  0.51100000000E-03 0.  1.
         12    1    4    4    0    0  0.52666013829E+01 -0.19275363963E+01  0.10201883935E+02  0.11641774887E+02  0.00000000000E+00 0. -1.
</event>
<event>
 8    1  0.5331800E-011  0.9118800E+02  0.7816164E-02  0.1184000E+00
        -11   -1    0    0    0    0  0.00000000000E+00  0.00000000000E+00  0.45593999997E+02  0.45594000000E+02  0.51100000000E-03 0.  1.
         11   -1    0    0    0    0 -0.00000000000E+00 -0.00000000000E+00 -0.45593999997E+02  0.45594000000E+02  0.51100000000E-03 0. -1.
         23    2    1    2    0    0  0.00000000000E+00  0.35527136788E-14  0.22204460493E-15  0.91188000000E+02  0.91188000000E+02 0.  0.
    9900012    2    3    3    0    0 -0.33382577979E+02 -0.27675920198E+02 -0.18083879228E+01  0.47787270303E+02  0.19999996620E+02 0.  0.
         12    1    3    3    0    0  0.33382577979E+02  0.27675920198E+02  0.18083879228E+01  0.43400729697E+02  0.00000000000E+00 0. -1.
         11    1    4    4    0    0 -0.11959462003E+02 -0.50472217196E+00 -0.17192156185E+01  0.12092939199E+02  0.51100000000E-03 0. -1.
        -11    1    4    4    0    0 -0.16466470263E+02 -0.23017510335E+02  0.31242717938E+01  0.28472995969E+02  0.51100000000E-03 0.  1.
         12    1    4    4    0    0 -0.49566457132E+01 -0.41536876915E+01 -0.32134440981E+01  0.72213351353E+01  0.00000000000E+00 0. -1.
</event>
<event>
 8    1  0.5331800E-011  0.9118800E+02  0.7816164E-02  0.1184000E+00
        -11   -1    0    0    0    0  0.00000000000E+00  0.00000000000E+00  0.45593999997E+02  0.45594000000E+02  0.51100000000E-03 0. -1.
         11   -1    0    0    0    0 -0.00000000000E+00 -0.00000000000E+00 -0.45593999997E+02  0.45594000000E+02  0.51100000000E-03 0.  1.
         23    2    1    2    0    0  0.00000000000E+00  0.00000000000E+00  0.00000000000E+00  0.91188000000E+02  0.91188000000E+02 0.  0.
    9900012    2    3    3    0    0 -0.63295144601E+01 -0.30165652805E+02 -0.30554770264E+02  0.47787270187E+02  0.19999996090E+02 0.  0.
         12    1    3    3    0    0  0.63295144601E+01  0.30165652805E+02  0.30554770264E+02  0.43400729813E+02  0.00000000000E+00 0. -1.
         11    1    4    4    0    0 -0.65566089251E+01 -0.21017809376E+02 -0.12299143049E+02  0.25219166354E+02  0.51100000000E-03 0. -1.
        -11    1    4    4    0    0 -0.27981111168E+01 -0.18982847072E+01 -0.87186239239E+00  0.34918555159E+01  0.51100000000E-03 0.  1.
         12    1    4    4    0    0  0.30252055819E+01 -0.72495587217E+01 -0.17383764822E+02  0.19076248317E+02  0.00000000000E+00 0. -1.
</event>
<event>
 8    1  0.5331800E-011  0.9118800E+02  0.7816164E-02  0.1184000E+00
        -11   -1    0    0    0    0  0.00000000000E+00  0.00000000000E+00  0.45593999997E+02  0.45594000000E+02  0.51100000000E-03 0. -1.
         11   -1    0    0    0    0 -0.00000000000E+00 -0.00000000000E+00 -0.45593999997E+02  0.45594000000E+02  0.51100000000E-03 0.  1.
         23    2    1    2    0    0 -0.71054273576E-14  0.88817841970E-15  0.00000000000E+00  0.91188000000E+02  0.91188000000E+02 0.  0.
    9900012    2    3    3    0    0  0.41475470283E+02 -0.95530363036E+00  0.12747402586E+02  0.47787268291E+02  0.19999987446E+02 0.  0.
        -12    1    3    3    0    0 -0.41475470283E+02  0.95530363036E+00 -0.12747402586E+02  0.43400731709E+02  0.00000000000E+00 0.  1.
         11    1    4    4    0    0  0.18961381020E+02 -0.66492445904E+01 -0.14469592121E+01  0.20145473810E+02  0.51100000000E-03 0. -1.
        -11    1    4    4    0    0  0.21739491222E+02  0.43552628752E+01  0.13326571166E+02  0.25868345378E+02  0.51100000000E-03 0.  1.
         12    1    4    4    0    0  0.77459804102E+00  0.13386780849E+01  0.86779063173E+00  0.17734491029E+01  0.00000000000E+00 0. -1.
</event>
<event>
 8    1  0.5331800E-011  0.9118800E+02  0.7816164E-02  0.1184000E+00
        -11   -1    0    0    0    0  0.00000000000E+00  0.00000000000E+00  0.45593999997E+02  0.45594000000E+02  0.51100000000E-03 0. -1.
         11   -1    0    0    0    0 -0.00000000000E+00 -0.00000000000E+00 -0.45593999997E+02  0.45594000000E+02  0.51100000000E-03 0.  1.
         23    2    1    2    0    0  0.00000000000E+00  0.00000000000E+00  0.00000000000E+00  0.91188000000E+02  0.91188000000E+02 0.  0.
    9900012    2    3    3    0    0  0.22863585777E+02  0.12112606048E+02 -0.34844865947E+02  0.47787268869E+02  0.19999990082E+02 0.  0.
         12    1    3    3    0    0 -0.22863585777E+02 -0.12112606048E+02  0.34844865947E+02  0.43400731131E+02  0.00000000000E+00 0. -1.
         11    1    4    4    0    0  0.32388691028E+01  0.88318032536E+01 -0.12044938851E+02  0.15283048582E+02  0.51100000000E-03 0. -1.
        -11    1    4    4    0    0  0.14761587289E+02 -0.31460231881E+01 -0.14320808853E+02  0.20805948372E+02  0.51100000000E-03 0.  1.
        -12    1    4    4    0    0  0.48631293849E+01  0.64268259826E+01 -0.84791182430E+01  0.11698271915E+02  0.00000000000E+00 0.  1.
</event>
<event>
 8    1  0.5331800E-011  0.9118800E+02  0.7816164E-02  0.1184000E+00
        -11   -1    0    0    0    0  0.00000000000E+00  0.00000000000E+00  0.45593999997E+02  0.45594000000E+02  0.51100000000E-03 0.  1.
         11   -1    0    0    0    0 -0.00000000000E+00 -0.00000000000E+00 -0.45593999997E+02  0.45594000000E+02  0.51100000000E-03 0. -1.
         23    2    1    2    0    0  0.00000000000E+00  0.00000000000E+00  0.00000000000E+00  0.91188000000E+02  0.91188000000E+02 0.  0.
    9900012    2    3    3    0    0  0.38627441375E+02  0.16325294238E+02  0.11181616628E+02  0.47787274090E+02  0.20000013884E+02 0.  0.
        -12    1    3    3    0    0 -0.38627441375E+02 -0.16325294238E+02 -0.11181616628E+02  0.43400725910E+02  0.00000000000E+00 0.  1.
         11    1    4    4    0    0  0.55862046398E+01  0.19232182278E+01  0.30601763088E+00  0.59159190056E+01  0.51100000000E-03 0. -1.
        -11    1    4    4    0    0  0.34044999138E+02  0.94834138064E+01  0.86757086185E+01  0.36390452374E+02  0.51100000000E-03 0.  1.
        -12    1    4    4    0    0 -0.10037624026E+01  0.49186622035E+01  0.21998903788E+01  0.54809027096E+01  0.00000000000E+00 0.  1.
</event>
<event>
 8    1  0.5331800E-011  0.9118800E+02  0.7816164E-02  0.1184000E+00
        -11   -1    0    0    0    0  0.00000000000E+00  0.00000000000E+00  0.45593999997E+02  0.45594000000E+02  0.51100000000E-03 0. -1.
         11   -1    0    0    0    0 -0.00000000000E+00 -0.00000000000E+00 -0.45593999997E+02  0.45594000000E+02  0.51100000000E-03 0.  1.
         23    2    1    2    0    0  0.00000000000E+00  0.17763568394E-14  0.00000000000E+00  0.91188000000E+02  0.91188000000E+02 0.  0.
    9900012    2    3    3    0    0 -0.20351917635E+02 -0.12868927550E+02 -0.36108361645E+02  0.47787266960E+02  0.19999981379E+02 0.  0.
         12    1    3    3    0    0  0.20351917635E+02  0.12868927550E+02  0.36108361645E+02  0.43400733040E+02  0.00000000000E+00 0. -1.
         11    1    4    4    0    0 -0.15705034584E+02 -0.16860411480E+01 -0.21780886105E+02  0.26905349762E+02  0.51100000000E-03 0.  1.
        -11    1    4    4    0    0 -0.67963905651E+01 -0.10943256473E+02 -0.13194981639E+02  0.18440534908E+02  0.51100000000E-03 0. -1.
         12    1    4    4    0    0  0.21495075139E+01 -0.23962992828E+00 -0.11324939004E+01  0.24413822907E+01  0.00000000000E+00 0. -1.
</event>
<event>
 8    1  0.5331800E-011  0.9118800E+02  0.7816164E-02  0.1184000E+00
        -11   -1    0    0    0    0  0.00000000000E+00  0.00000000000E+00  0.45593999997E+02  0.45594000000E+02  0.51100000000E-03 0. -1.
         11   -1    0    0    0    0 -0.00000000000E+00 -0.00000000000E+00 -0.45593999997E+02  0.45594000000E+02  0.51100000000E-03 0.  1.
         23    2    1    2    0    0  0.00000000000E+00  0.44408920985E-15  0.00000000000E+00  0.91188000000E+02  0.91188000000E+02 0.  0.
    9900012    2    3    3    0    0  0.34065572076E+02  0.21699689013E+01 -0.26803941554E+02  0.47787271334E+02  0.20000001321E+02 0.  0.
         12    1    3    3    0    0 -0.34065572076E+02 -0.21699689013E+01  0.26803941554E+02  0.43400728666E+02  0.00000000000E+00 0. -1.
         11    1    4    4    0    0 -0.11459834818E+00 -0.80842128428E+00 -0.56942648719E+00  0.99545192738E+00  0.51100000000E-03 0. -1.
        -11    1    4    4    0    0  0.27954477666E+02  0.70916188184E+01 -0.13078118091E+02  0.31666718366E+02  0.51100000000E-03 0.  1.
        -12    1    4    4    0    0  0.62256927587E+01 -0.41132286328E+01 -0.13156396975E+02  0.15125101041E+02  0.00000000000E+00 0.  1.
</event>
<event>
 8    1  0.6778642E-011  0.9118800E+02  0.7816164E-02  0.1184000E+00
        -11   -1    0    0    0    0  0.00000000000E+00  0.00000000000E+00  0.45593999997E+02  0.45594000000E+02  0.51100000000E-03 0. -1.
         11   -1    0    0    0    0 -0.00000000000E+00 -0.00000000000E+00 -0.45593999997E+02  0.45594000000E+02  0.51100000000E-03 0.  1.
         23    2    1    2    0    0  0.17763568394E-14  0.00000000000E+00  0.71054273576E-14  0.91188000000E+02  0.91188000000E+02 0.  0.
    9900012    2    3    3    0    0  0.11358784158E+02 -0.23453150945E+02  0.34706642180E+02  0.47787270994E+02  0.19999999771E+02 0.  0.
        -12    1    3    3    0    0 -0.11358784158E+02  0.23453150945E+02 -0.34706642180E+02  0.43400729006E+02  0.00000000000E+00 0.  1.
         11    1    4    4    0    0  0.58163092732E+01 -0.17782746628E+02  0.26323180572E+02  0.32294974329E+02  0.51100000000E-03 0. -1.
        -11    1    4    4    0    0  0.30648698150E+01  0.22037464549E+01  0.56533189779E+01  0.67977894310E+01  0.51100000000E-03 0.  1.
        -12    1    4    4    0    0  0.24776050701E+01 -0.78741507723E+01  0.27301426295E+01  0.86945072343E+01  0.00000000000E+00 0.  1.
</event>
<event>
 8    1  0.5331800E-011  0.9118800E+02  0.7816164E-02  0.1184000E+00
        -11   -1    0    0    0    0  0.00000000000E+00  0.00000000000E+00  0.45593999997E+02  0.45594000000E+02  0.51100000000E-03 0.  1.
         11   -1    0    0    0    0 -0.00000000000E+00 -0.00000000000E+00 -0.45593999997E+02  0.45594000000E+02  0.51100000000E-03 0. -1.
         23    2    1    2    0    0 -0.35527136788E-14  0.00000000000E+00  0.00000000000E+00  0.91188000000E+02  0.91188000000E+02 0.  0.
    9900012    2    3    3    0    0  0.16620172621E+02 -0.37111915348E+02 -0.15168984299E+02  0.47787280151E+02  0.20000041518E+02 0.  0.
         12    1    3    3    0    0 -0.16620172621E+02  0.37111915348E+02  0.15168984299E+02  0.43400719849E+02  0.00000000000E+00 0. -1.
         11    1    4    4    0    0 -0.59629220043E+00 -0.15301727473E+02  0.11703946146E+01  0.15358002860E+02  0.51100000000E-03 0. -1.
        -11    1    4    4    0    0  0.67338400460E+01 -0.68311620491E+01 -0.71721381427E+01  0.11977017263E+02  0.51100000000E-03 0.  1.
         12    1    4    4    0    0  0.10482624775E+02 -0.14979025827E+02 -0.91672407712E+01  0.20452260028E+02  0.00000000000E+00 0. -1.
</event>
<event>
 8    1  0.5331800E-011  0.9118800E+02  0.7816164E-02  0.1184000E+00
        -11   -1    0    0    0    0  0.00000000000E+00  0.00000000000E+00  0.45593999997E+02  0.45594000000E+02  0.51100000000E-03 0. -1.
         11   -1    0    0    0    0 -0.00000000000E+00 -0.00000000000E+00 -0.45593999997E+02  0.45594000000E+02  0.51100000000E-03 0.  1.
         23    2    1    2    0    0  0.22204460493E-15  0.35527136788E-14  0.00000000000E+00  0.91188000000E+02  0.91188000000E+02 0.  0.
    9900012    2    3    3    0    0  0.16331208260E+01  0.26661654615E+02  0.34206907202E+02  0.47787269467E+02  0.19999992810E+02 0.  0.
        -12    1    3    3    0    0 -0.16331208260E+01 -0.26661654615E+02 -0.34206907202E+02  0.43400730533E+02  0.00000000000E+00 0.  1.
         11    1    4    4    0    0  0.39112474387E+01  0.15143222361E+02  0.24900348828E+02  0.29404802533E+02  0.51100000000E-03 0. -1.
        -11    1    4    4    0    0  0.60472006557E+00 -0.19386466868E+01  0.68805988363E+00  0.21441697691E+01  0.51100000000E-03 0.  1.
         12    1    4    4    0    0 -0.28828466782E+01  0.13457078941E+02  0.86184984898E+01  0.16238297165E+02  0.00000000000E+00 0. -1.
</event>
<event>
 8    1  0.5331800E-011  0.9118800E+02  0.7816164E-02  0.1184000E+00
        -11   -1    0    0    0    0  0.00000000000E+00  0.00000000000E+00  0.45593999997E+02  0.45594000000E+02  0.51100000000E-03 0. -1.
         11   -1    0    0    0    0 -0.00000000000E+00 -0.00000000000E+00 -0.45593999997E+02  0.45594000000E+02  0.51100000000E-03 0.  1.
         23    2    1    2    0    0 -0.17763568394E-14  0.35527136788E-14  0.00000000000E+00  0.91188000000E+02  0.91188000000E+02 0.  0.
    9900012    2    3    3    0    0  0.12696190130E+02 -0.22623488165E+02 -0.34793792175E+02  0.47787269194E+02  0.19999991563E+02 0.  0.
         12    1    3    3    0    0 -0.12696190130E+02  0.22623488165E+02  0.34793792175E+02  0.43400730806E+02  0.00000000000E+00 0. -1.
         11    1    4    4    0    0  0.11423874216E+02 -0.86521785449E+01 -0.10827960324E+02  0.17961342397E+02  0.51100000000E-03 0. -1.
        -11    1    4    4    0    0  0.21045348049E+01 -0.12517174095E+01 -0.12317381917E+02  0.12558413943E+02  0.51100000000E-03 0.  1.
         12    1    4    4    0    0 -0.83221889039E+00 -0.12719592211E+02 -0.11648449934E+02  0.17267512854E+02  0.00000000000E+00 0. -1.
</event>
<event>
 8    1  0.5331800E-011  0.9118800E+02  0.7816164E-02  0.1184000E+00
        -11   -1    0    0    0    0  0.00000000000E+00  0.00000000000E+00  0.45593999997E+02  0.45594000000E+02  0.51100000000E-03 0. -1.
         11   -1    0    0    0    0 -0.00000000000E+00 -0.00000000000E+00 -0.45593999997E+02  0.45594000000E+02  0.51100000000E-03 0.  1.
         23    2    1    2    0    0 -0.44408920985E-15  0.71054273576E-14  0.10658141036E-13  0.91188000000E+02  0.91188000000E+02 0.  0.
    9900012    2    3    3    0    0 -0.22619535205E+01  0.29397670357E+02  0.31847822888E+02  0.47787270987E+02  0.19999999737E+02 0.  0.
        -12    1    3    3    0    0  0.22619535205E+01 -0.29397670357E+02 -0.31847822888E+02  0.43400729013E+02  0.00000000000E+00 0.  1.
         11    1    4    4    0    0  0.22926093411E+01  0.50416494493E+01 -0.10466588764E+01  0.56364689146E+01  0.51100000000E-03 0.  1.
        -11    1    4    4    0    0 -0.27044068904E+01  0.34066687906E+01  0.20244691762E+01  0.47976749144E+01  0.51100000000E-03 0. -1.
         12    1    4    4    0    0 -0.18501559712E+01  0.20949352117E+02  0.30870012588E+02  0.37353127158E+02  0.00000000000E+00 0. -1.
</event>
<event>
 8    1  0.5331800E-011  0.9118800E+02  0.7816164E-02  0.1184000E+00
        -11   -1    0    0    0    0  0.00000000000E+00  0.00000000000E+00  0.45593999997E+02  0.45594000000E+02  0.51100000000E-03 0. -1.
         11   -1    0    0    0    0 -0.00000000000E+00 -0.00000000000E+00 -0.45593999997E+02  0.45594000000E+02  0.51100000000E-03 0.  1.
         23    2    1    2    0    0 -0.17763568394E-14  0.00000000000E+00 -0.35527136788E-14  0.91188000000E+02  0.91188000000E+02 0.  0.
    9900012    2    3    3    0    0  0.81105575483E+01 -0.36643668479E+02 -0.21796413653E+02  0.47787271533E+02  0.20000002227E+02 0.  0.
         12    1    3    3    0    0 -0.81105575483E+01  0.36643668479E+02  0.21796413653E+02  0.43400728467E+02  0.00000000000E+00 0. -1.
         11    1    4    4    0    0 -0.22978190104E+01 -0.18441479455E+02 -0.84983692547E+01  0.20435029164E+02  0.51100000000E-03 0. -1.
        -11    1    4    4    0    0  0.93696445274E+00 -0.10295376597E+02 -0.10430066249E+02  0.14685331589E+02  0.51100000000E-03 0.  1.
         12    1    4    4    0    0  0.94714121059E+01 -0.79068124267E+01 -0.28679781493E+01  0.12666910780E+02  0.00000000000E+00 0. -1.
</event>
<event>
 8    1  0.5331800E-011  0.9118800E+02  0.7816164E-02  0.1184000E+00
        -11   -1    0    0    0    0  0.00000000000E+00  0.00000000000E+00  0.45593999997E+02  0.45594000000E+02  0.51100000000E-03 0.  1.
         11   -1    0    0    0    0 -0.00000000000E+00 -0.00000000000E+00 -0.45593999997E+02  0.45594000000E+02  0.51100000000E-03 0. -1.
         23    2    1    2    0    0  0.00000000000E+00  0.71054273576E-14 -0.17763568394E-14  0.91188000000E+02  0.91188000000E+02 0.  0.
    9900012    2    3    3    0    0  0.16364761074E+02 -0.38596209960E+02 -0.11231659470E+02  0.47787274168E+02  0.20000014241E+02 0.  0.
         12    1    3    3    0    0 -0.16364761074E+02  0.38596209960E+02  0.11231659470E+02  0.43400725832E+02  0.00000000000E+00 0. -1.
         11    1    4    4    0    0 -0.17555726359E+01 -0.64752906204E+01 -0.27560276511E+01  0.72530760767E+01  0.51100000000E-03 0. -1.
        -11    1    4    4    0    0  0.13766616510E+02 -0.11277828912E+02 -0.52108306710E+00  0.17803951329E+02  0.51100000000E-03 0.  1.
        -12    1    4    4    0    0  0.43537172003E+01 -0.20843090428E+02 -0.79545487514E+01  0.22730246762E+02  0.00000000000E+00 0.  1.
</event>
<event>
 8    1  0.5331800E-011  0.9118800E+02  0.7816164E-02  0.1184000E+00
        -11   -1    0    0    0    0  0.00000000000E+00  0.00000000000E+00  0.45593999997E+02  0.45594000000E+02  0.51100000000E-03 0. -1.
         11   -1    0    0    0    0 -0.00000000000E+00 -0.00000000000E+00 -0.45593999997E+02  0.45594000000E+02  0.51100000000E-03 0.  1.
         23    2    1    2    0    0  0.71054273576E-14 -0.35527136788E-14 -0.35527136788E-14  0.91188000000E+02  0.91188000000E+02 0.  0.
    9900012    2    3    3    0    0  0.27097757123E+02 -0.14465825077E+02 -0.30660636255E+02  0.47787272451E+02  0.20000006411E+02 0.  0.
         12    1    3    3    0    0 -0.27097757123E+02  0.14465825077E+02  0.30660636255E+02  0.43400727549E+02  0.00000000000E+00 0. -1.
         11    1    4    4    0    0  0.67849020398E+01 -0.49235560117E+01 -0.19067455301E+02  0.20828925834E+02  0.51100000000E-03 0. -1.
        -11    1    4    4    0    0  0.11804876148E+02 -0.10380100681E+02 -0.65256094960E+01  0.17020140145E+02  0.51100000000E-03 0.  1.
         12    1    4    4    0    0  0.85079789351E+01  0.83783161556E+00 -0.50675714586E+01  0.99382064712E+01  0.00000000000E+00 0. -1.
</event>
<event>
 8    1  0.6843621E-011  0.9118800E+02  0.7816164E-02  0.1184000E+00
        -11   -1    0    0    0    0  0.00000000000E+00  0.00000000000E+00  0.45593999997E+02  0.45594000000E+02  0.51100000000E-03 0. -1.
         11   -1    0    0    0    0 -0.00000000000E+00 -0.00000000000E+00 -0.45593999997E+02  0.45594000000E+02  0.51100000000E-03 0.  1.
         23    2    1    2    0    0 -0.17763568394E-14  0.00000000000E+00  0.00000000000E+00  0.91188000000E+02  0.91188000000E+02 0.  0.
    9900012    2    3    3    0    0  0.12171261835E+02  0.20194695700E+02 -0.36437036145E+02  0.47787274752E+02  0.20000016904E+02 0.  0.
         12    1    3    3    0    0 -0.12171261835E+02 -0.20194695700E+02  0.36437036145E+02  0.43400725248E+02  0.00000000000E+00 0. -1.
         11    1    4    4    0    0  0.79031571568E+01  0.33029423958E+01 -0.32903965889E+01  0.91758395522E+01  0.51100000000E-03 0. -1.
        -11    1    4    4    0    0  0.60219473949E+01  0.16145770872E+02 -0.25829597637E+02  0.31050247693E+02  0.51100000000E-03 0.  1.
        -12    1    4    4    0    0 -0.17538427166E+01  0.74598243179E+00 -0.73170419190E+01  0.75611875064E+01  0.00000000000E+00 0.  1.
</event>
<event>
 8    1  0.5331800E-011  0.9118800E+02  0.7816164E-02  0.1184000E+00
        -11   -1    0    0    0    0  0.00000000000E+00  0.00000000000E+00  0.45593999997E+02  0.45594000000E+02  0.51100000000E-03 0. -1.
         11   -1    0    0    0    0 -0.00000000000E+00 -0.00000000000E+00 -0.45593999997E+02  0.45594000000E+02  0.51100000000E-03 0.  1.
         23    2    1    2    0    0 -0.71054273576E-14  0.00000000000E+00 -0.35527136788E-14  0.91188000000E+02  0.91188000000E+02 0.  0.
    9900012    2    3    3    0    0 -0.25349408659E+02 -0.18508486748E+02 -0.29974434102E+02  0.47787270735E+02  0.19999998587E+02 0.  0.
         12    1    3    3    0    0  0.25349408659E+02  0.18508486748E+02  0.29974434102E+02  0.43400729265E+02  0.00000000000E+00 0. -1.
         11    1    4    4    0    0 -0.41261598937E+01 -0.81149013263E+00 -0.69557618998E+00  0.42623395221E+01  0.51100000000E-03 0. -1.
        -11    1    4    4    0    0 -0.23607542180E+01 -0.11333951086E+02 -0.65143115434E+01  0.13284120703E+02  0.51100000000E-03 0.  1.
        -12    1    4    4    0    0 -0.18862494547E+02 -0.63630455298E+01 -0.22764546368E+02  0.30240810510E+02  0.00000000000E+00 0.  1.
</event>
<event>
 8    1  0.5331800E-011  0.9118800E+02  0.7816164E-02  0.1184000E+00
        -11   -1    0    0    0    0  0.00000000000E+00  0.00000000000E+00  0.45593999997E+02  0.45594000000E+02  0.51100000000E-03 0. -1.
         11   -1    0    0    0    0 -0.00000000000E+00 -0.00000000000E+00 -0.45593999997E+02  0.45594000000E+02  0.51100000000E-03 0.  1.
         23    2    1    2    0    0  0.00000000000E+00  0.00000000000E+00 -0.35527136788E-14  0.91188000000E+02  0.91188000000E+02 0.  0.
    9900012    2    3    3    0    0  0.28772357764E+02 -0.16674779812E+02  0.27887746313E+02  0.47787271349E+02  0.20000001387E+02 0.  0.
        -12    1    3    3    0    0 -0.28772357764E+02  0.16674779812E+02 -0.27887746313E+02  0.43400728651E+02  0.00000000000E+00 0.  1.
         11    1    4    4    0    0  0.14566831815E+02 -0.37926687911E+01  0.57164603904E+01  0.16101392652E+02  0.51100000000E-03 0. -1.
        -11    1    4    4    0    0  0.30038992481E+01 -0.28349431445E+01  0.13930114473E+02  0.14529569946E+02  0.51100000000E-03 0.  1.
        -12    1    4    4    0    0  0.11201626701E+02 -0.10047167877E+02  0.82411714493E+01  0.17156308750E+02  0.00000000000E+00 0.  1.
</event>
<event>
 8    1  0.5331800E-011  0.9118800E+02  0.7816164E-02  0.1184000E+00
        -11   -1    0    0    0    0  0.00000000000E+00  0.00000000000E+00  0.45593999997E+02  0.45594000000E+02  0.51100000000E-03 0. -1.
         11   -1    0    0    0    0 -0.00000000000E+00 -0.00000000000E+00 -0.45593999997E+02  0.45594000000E+02  0.51100000000E-03 0.  1.
         23    2    1    2    0    0  0.00000000000E+00  0.00000000000E+00  0.00000000000E+00  0.91188000000E+02  0.91188000000E+02 0.  0.
    9900012    2    3    3    0    0  0.39125427284E+02  0.23879312411E+01 -0.18631082604E+02  0.47787325872E+02  0.20000249980E+02 0.  0.
         12    1    3    3    0    0 -0.39125427284E+02 -0.23879312411E+01  0.18631082604E+02  0.43400674128E+02  0.00000000000E+00 0. -1.
         11    1    4    4    0    0  0.56417439756E+01 -0.52217469781E+01 -0.83421796435E+01  0.11344067968E+02  0.51100000000E-03 0. -1.
        -11    1    4    4    0    0  0.30051146831E+02  0.47253820570E+01 -0.96511653874E+01  0.31914662070E+02  0.51100000000E-03 0.  1.
        -12    1    4    4    0    0  0.34325364771E+01  0.28842961623E+01 -0.63773757273E+00  0.45285958342E+01  0.00000000000E+00 0.  1.
</event>
<event>
 8    1  0.5331800E-011  0.9118800E+02  0.7816164E-02  0.1184000E+00
        -11   -1    0    0    0    0  0.00000000000E+00  0.00000000000E+00  0.45593999997E+02  0.45594000000E+02  0.51100000000E-03 0.  1.
         11   -1    0    0    0    0 -0.00000000000E+00 -0.00000000000E+00 -0.45593999997E+02  0.45594000000E+02  0.51100000000E-03 0. -1.
         23    2    1    2    0    0  0.00000000000E+00 -0.26645352591E-14 -0.88817841970E-15  0.91188000000E+02  0.91188000000E+02 0.  0.
    9900012    2    3    3    0    0 -0.42742370863E+02  0.50666365551E+01  0.55715089727E+01  0.47787276675E+02  0.20000025670E+02 0.  0.
         12    1    3    3    0    0  0.42742370863E+02 -0.50666365551E+01 -0.55715089727E+01  0.43400723325E+02  0.00000000000E+00 0. -1.
         11    1    4    4    0    0 -0.24726430852E+02 -0.52266783049E+01 -0.60298066306E+00  0.25279994754E+02  0.51100000000E-03 0. -1.
        -11    1    4    4    0    0 -0.16416716919E+02  0.68105507041E+01  0.55824546907E+01  0.18629438959E+02  0.51100000000E-03 0.  1.
         12    1    4    4    0    0 -0.15992230910E+01  0.34827641559E+01  0.59203494509E+00  0.38778429619E+01  0.00000000000E+00 0. -1.
</event>
<event>
 8    1  0.5541168E-011  0.9118800E+02  0.7816164E-02  0.1184000E+00
        -11   -1    0    0    0    0  0.00000000000E+00  0.00000000000E+00  0.45593999997E+02  0.45594000000E+02  0.51100000000E-03 0. -1.
         11   -1    0    0    0    0 -0.00000000000E+00 -0.00000000000E+00 -0.45593999997E+02  0.45594000000E+02  0.51100000000E-03 0.  1.
         23    2    1    2    0    0  0.00000000000E+00 -0.35527136788E-14  0.00000000000E+00  0.91188000000E+02  0.91188000000E+02 0.  0.
    9900012    2    3    3    0    0  0.23799718960E+02 -0.18042362015E+02 -0.31490788676E+02  0.47787271652E+02  0.20000002772E+02 0.  0.
         12    1    3    3    0    0 -0.23799718960E+02  0.18042362015E+02  0.31490788676E+02  0.43400728348E+02  0.00000000000E+00 0. -1.
         11    1    4    4    0    0  0.12432868305E+02 -0.11315093920E+02 -0.66770820024E+01  0.18088421408E+02  0.51100000000E-03 0. -1.
        -11    1    4    4    0    0  0.10648067551E+02 -0.12005772356E+01 -0.15455420088E+02  0.18806720571E+02  0.51100000000E-03 0.  1.
        -12    1    4    4    0    0  0.71878310415E+00 -0.55266908598E+01 -0.93582865853E+01  0.10892129673E+02  0.00000000000E+00 0.  1.
</event>
<event>
 8    1  0.5331800E-011  0.9118800E+02  0.7816164E-02  0.1184000E+00
        -11   -1    0    0    0    0  0.00000000000E+00  0.00000000000E+00  0.45593999997E+02  0.45594000000E+02  0.51100000000E-03 0. -1.
         11   -1    0    0    0    0 -0.00000000000E+00 -0.00000000000E+00 -0.45593999997E+02  0.45594000000E+02  0.51100000000E-03 0.  1.
         23    2    1    2    0    0  0.00000000000E+00  0.35527136788E-14  0.00000000000E+00  0.91188000000E+02  0.91188000000E+02 0.  0.
    9900012    2    3    3    0    0  0.16324435747E+02  0.24020792320E+02  0.32251162463E+02  0.47787272513E+02  0.20000006698E+02 0.  0.
        -12    1    3    3    0    0 -0.16324435747E+02 -0.24020792320E+02 -0.32251162463E+02  0.43400727487E+02  0.00000000000E+00 0.  1.
         11    1    4    4    0    0  0.45767945845E+01  0.19160035025E+02  0.12618219031E+02  0.23393876178E+02  0.51100000000E-03 0. -1.
        -11    1    4    4    0    0 -0.35170370896E-01  0.21032250721E+01  0.48679234665E+01  0.53029682062E+01  0.51100000000E-03 0.  1.
         12    1    4    4    0    0  0.11782811534E+02  0.27575322227E+01  0.14765019965E+02  0.19090428129E+02  0.00000000000E+00 0. -1.
</event>
<event>
 8    1  0.5331800E-011  0.9118800E+02  0.7816164E-02  0.1184000E+00
        -11   -1    0    0    0    0  0.00000000000E+00  0.00000000000E+00  0.45593999997E+02  0.45594000000E+02  0.51100000000E-03 0. -1.
         11   -1    0    0    0    0 -0.00000000000E+00 -0.00000000000E+00 -0.45593999997E+02  0.45594000000E+02  0.51100000000E-03 0.  1.
         23    2    1    2    0    0  0.88817841970E-15  0.00000000000E+00  0.00000000000E+00  0.91188000000E+02  0.91188000000E+02 0.  0.
    9900012    2    3    3    0    0  0.48424410944E+01 -0.87443235337E+01  0.42233977033E+02  0.47787294409E+02  0.20000106528E+02 0.  0.
        -12    1    3    3    0    0 -0.48424410944E+01  0.87443235337E+01 -0.42233977033E+02  0.43400705591E+02  0.00000000000E+00 0.  1.
         11    1    4    4    0    0  0.72315858754E+01 -0.75562900743E+01  0.38273620260E+02  0.39676987814E+02  0.51100000000E-03 0. -1.
        -11    1    4    4    0    0 -0.27193981104E+01 -0.17433937546E+01 -0.78246621266E+00  0.33236728933E+01  0.51100000000E-03 0.  1.
        -12    1    4    4    0    0  0.33025332936E+00  0.55536029529E+00  0.47428229857E+01  0.47866337016E+01  0.00000000000E+00 0.  1.
</event>
<event>
 8    1  0.5331800E-011  0.9118800E+02  0.7816164E-02  0.1184000E+00
        -11   -1    0    0    0    0  0.00000000000E+00  0.00000000000E+00  0.45593999997E+02  0.45594000000E+02  0.51100000000E-03 0. -1.
         11   -1    0    0    0    0 -0.00000000000E+00 -0.00000000000E+00 -0.45593999997E+02  0.45594000000E+02  0.51100000000E-03 0.  1.
         23    2    1    2    0    0 -0.71054273576E-14  0.17763568394E-14 -0.17763568394E-14  0.91188000000E+02  0.91188000000E+02 0.  0.
    9900012    2    3    3    0    0  0.38435462904E+02 -0.15943501099E+02  0.12334642921E+02  0.47787268993E+02  0.19999990648E+02 0.  0.
        -12    1    3    3    0    0 -0.38435462904E+02  0.15943501099E+02 -0.12334642921E+02  0.43400731007E+02  0.00000000000E+00 0.  1.
         11    1    4    4    0    0  0.97689360867E+01 -0.37951401073E+01  0.14501763976E+01  0.10580085659E+02  0.51100000000E-03 0. -1.
        -11    1    4    4    0    0  0.21717436604E+02 -0.12891703541E+02  0.12258331494E+01  0.25285287026E+02  0.51100000000E-03 0.  1.
        -12    1    4    4    0    0  0.69490902137E+01  0.74334254907E+00  0.96586333738E+01  0.11921896309E+02  0.00000000000E+00 0.  1.
</event>
<event>
 8    1  0.5331800E-011  0.9118800E+02  0.7816164E-02  0.1184000E+00
        -11   -1    0    0    0    0  0.00000000000E+00  0.00000000000E+00  0.45593999997E+02  0.45594000000E+02  0.51100000000E-03 0. -1.
         11   -1    0    0    0    0 -0.00000000000E+00 -0.00000000000E+00 -0.45593999997E+02  0.45594000000E+02  0.51100000000E-03 0.  1.
         23    2    1    2    0    0  0.00000000000E+00  0.00000000000E+00  0.00000000000E+00  0.91188000000E+02  0.91188000000E+02 0.  0.
    9900012    2    3    3    0    0 -0.17936468138E+02 -0.11789814649E+02  0.37721436204E+02  0.47787269960E+02  0.19999995055E+02 0.  0.
        -12    1    3    3    0    0  0.17936468138E+02  0.11789814649E+02 -0.37721436204E+02  0.43400730040E+02  0.00000000000E+00 0.  1.
         11    1    4    4    0    0 -0.93317062533E+01 -0.96653250057E+00  0.14172452352E+02  0.16996274080E+02  0.51100000000E-03 0. -1.
        -11    1    4    4    0    0 -0.30725870597E+01 -0.12724891419E+02  0.11616138974E+02  0.17501381025E+02  0.51100000000E-03 0.  1.
        -12    1    4    4    0    0 -0.55321748249E+01  0.19016092702E+01  0.11932844879E+02  0.13289614856E+02  0.00000000000E+00 0.  1.
</event>
<event>
 8    1  0.5331800E-011  0.9118800E+02  0.7816164E-02  0.1184000E+00
        -11   -1    0    0    0    0  0.00000000000E+00  0.00000000000E+00  0.45593999997E+02  0.45594000000E+02  0.51100000000E-03 0. -1.
         11   -1    0    0    0    0 -0.00000000000E+00 -0.00000000000E+00 -0.45593999997E+02  0.45594000000E+02  0.51100000000E-03 0.  1.
         23    2    1    2    0    0 -0.35527136788E-14  0.00000000000E+00  0.00000000000E+00  0.91188000000E+02  0.91188000000E+02 0.  0.
    9900012    2    3    3    0    0  0.20190644970E+02 -0.69787849305E+01  0.37779064144E+02  0.47787271078E+02  0.20000000151E+02 0.  0.
        -12    1    3    3    0    0 -0.20190644970E+02  0.69787849305E+01 -0.37779064144E+02  0.43400728922E+02  0.00000000000E+00 0.  1.
         11    1    4    4    0    0  0.10438689567E+02 -0.10449258588E+02  0.29997918171E+02  0.33436930777E+02  0.51100000000E-03 0. -1.
        -11    1    4    4    0    0  0.67313832967E+01  0.52357288499E+01  0.50404378374E+01  0.99060785142E+01  0.51100000000E-03 0.  1.
         12    1    4    4    0    0  0.30205721062E+01 -0.17652551929E+01  0.27407081356E+01  0.44442617868E+01  0.00000000000E+00 0. -1.
</event>
<event>
 8    1  0.5331800E-011  0.9118800E+02  0.7816164E-02  0.1184000E+00
        -11   -1    0    0    0    0  0.00000000000E+00  0.00000000000E+00  0.45593999997E+02  0.45594000000E+02  0.51100000000E-03 0.  1.
         11   -1    0    0    0    0 -0.00000000000E+00 -0.00000000000E+00 -0.45593999997E+02  0.45594000000E+02  0.51100000000E-03 0. -1.
         23    2    1    2    0    0  0.00000000000E+00  0.00000000000E+00  0.88817841970E-15  0.91188000000E+02  0.91188000000E+02 0.  0.
    9900012    2    3    3    0    0 -0.22326275753E+02 -0.36883274008E+02 -0.49782740539E+01  0.47787289141E+02  0.20000082508E+02 0.  0.
         12    1    3    3    0    0  0.22326275753E+02  0.36883274008E+02  0.49782740539E+01  0.43400710859E+02  0.00000000000E+00 0. -1.
         11    1    4    4    0    0 -0.11611775185E+02 -0.16203124163E+02  0.32805563785E+01  0.20202391096E+02  0.51100000000E-03 0. -1.
        -11    1    4    4    0    0 -0.11992103336E+02 -0.13294878150E+02 -0.90260204267E+01  0.20050769872E+02  0.51100000000E-03 0.  1.
        -12    1    4    4    0    0  0.12776027682E+01 -0.73852716944E+01  0.76718999433E+00  0.75341281725E+01  0.00000000000E+00 0.  1.
</event>
<event>
 8    1  0.5331800E-011  0.9118800E+02  0.7816164E-02  0.1184000E+00
        -11   -1    0    0    0    0  0.00000000000E+00  0.00000000000E+00  0.45593999997E+02  0.45594000000E+02  0.51100000000E-03 0. -1.
         11   -1    0    0    0    0 -0.00000000000E+00 -0.00000000000E+00 -0.45593999997E+02  0.45594000000E+02  0.51100000000E-03 0.  1.
         23    2    1    2    0    0  0.00000000000E+00 -0.88817841970E-15 -0.71054273576E-14  0.91188000000E+02  0.91188000000E+02 0.  0.
    9900012    2    3    3    0    0  0.10731821386E+02 -0.51917103046E+01  0.41731259782E+02  0.47787263956E+02  0.19999967681E+02 0.  0.
        -12    1    3    3    0    0 -0.10731821386E+02  0.51917103046E+01 -0.41731259782E+02  0.43400736044E+02  0.00000000000E+00 0.  1.
         11    1    4    4    0    0  0.46127643843E+01  0.17959619841E+01  0.18470978258E+02  0.19122764256E+02  0.51100000000E-03 0. -1.
        -11    1    4    4    0    0 -0.12934256848E+01 -0.89745305482E+01  0.12100848694E+02  0.15121034618E+02  0.51100000000E-03 0.  1.
        -12    1    4    4    0    0  0.74124826864E+01  0.19868582595E+01  0.11159432830E+02  0.13543465082E+02  0.00000000000E+00 0.  1.
</event>
<event>
 8    1  0.5331800E-011  0.9118800E+02  0.7816164E-02  0.1184000E+00
        -11   -1    0    0    0    0  0.00000000000E+00  0.00000000000E+00  0.45593999997E+02  0.45594000000E+02  0.51100000000E-03 0.  1.
         11   -1    0    0    0    0 -0.00000000000E+00 -0.00000000000E+00 -0.45593999997E+02  0.45594000000E+02  0.51100000000E-03 0. -1.
         23    2    1    2    0    0  0.00000000000E+00 -0.35527136788E-14  0.00000000000E+00  0.91188000000E+02  0.91188000000E+02 0.  0.
    9900012    2    3    3    0    0  0.36362276233E+02 -0.17440670977E+02  0.16038441072E+02  0.47787265802E+02  0.19999976097E+02 0.  0.
         12    1    3    3    0    0 -0.36362276233E+02  0.17440670977E+02 -0.16038441072E+02  0.43400734198E+02  0.00000000000E+00 0. -1.
         11    1    4    4    0    0  0.21371376520E+01 -0.31720932505E+00  0.56444027091E+01  0.60437787272E+01  0.51100000000E-03 0. -1.
        -11    1    4    4    0    0  0.50817168461E+01  0.16609227232E+01  0.35058831584E+01  0.63932563986E+01  0.51100000000E-03 0.  1.
         12    1    4    4    0    0  0.29143421734E+02 -0.18784384375E+02  0.68881552041E+01  0.35350230676E+02  0.00000000000E+00 0. -1.
</event>
<event>
 8    1  0.5331800E-011  0.9118800E+02  0.7816164E-02  0.1184000E+00
        -11   -1    0    0    0    0  0.00000000000E+00  0.00000000000E+00  0.45593999997E+02  0.45594000000E+02  0.51100000000E-03 0. -1.
         11   -1    0    0    0    0 -0.00000000000E+00 -0.00000000000E+00 -0.45593999997E+02  0.45594000000E+02  0.51100000000E-03 0.  1.
         23    2    1    2    0    0  0.00000000000E+00  0.00000000000E+00  0.00000000000E+00  0.91188000000E+02  0.91188000000E+02 0.  0.
    9900012    2    3    3    0    0  0.38347237881E+02 -0.12601861750E+02  0.15946961958E+02  0.47787272260E+02  0.20000005544E+02 0.  0.
        -12    1    3    3    0    0 -0.38347237881E+02  0.12601861750E+02 -0.15946961958E+02  0.43400727740E+02  0.00000000000E+00 0.  1.
         11    1    4    4    0    0  0.35047874524E+02 -0.75342523457E+01  0.10343705774E+02  0.37310999939E+02  0.51100000000E-03 0. -1.
        -11    1    4    4    0    0  0.64710785301E-01  0.33260878299E+00  0.39546018005E+01  0.39690920561E+01  0.51100000000E-03 0.  1.
         12    1    4    4    0    0  0.32346525713E+01 -0.54002181871E+01  0.16486543838E+01  0.65071802651E+01  0.00000000000E+00 0. -1.
</event>
<event>
 8    1  0.5331800E-011  0.9118800E+02  0.7816164E-02  0.1184000E+00
        -11   -1    0    0    0    0  0.00000000000E+00  0.00000000000E+00  0.45593999997E+02  0.45594000000E+02  0.51100000000E-03 0. -1.
         11   -1    0    0    0    0 -0.00000000000E+00 -0.00000000000E+00 -0.45593999997E+02  0.45594000000E+02  0.51100000000E-03 0.  1.
         23    2    1    2    0    0  0.17763568394E-14  0.00000000000E+00  0.00000000000E+00  0.91188000000E+02  0.91188000000E+02 0.  0.
    9900012    2    3    3    0    0 -0.15596280212E+02  0.13299201158E+02 -0.38255853183E+02  0.47787274076E+02  0.20000013824E+02 0.  0.
         12    1    3    3    0    0  0.15596280212E+02 -0.13299201158E+02  0.38255853183E+02  0.43400725924E+02  0.00000000000E+00 0. -1.
         11    1    4    4    0    0 -0.70507270483E+01  0.15389790837E+02 -0.20668848186E+02  0.26716281544E+02  0.51100000000E-03 0. -1.
        -11    1    4    4    0    0 -0.40322458782E+01  0.20192721016E+01 -0.34678089842E+01  0.56887754442E+01  0.51100000000E-03 0.  1.
         12    1    4    4    0    0 -0.45133072853E+01 -0.41098617800E+01 -0.14119196013E+02  0.15382217088E+02  0.00000000000E+00 0. -1.
</event>
<event>
 8    1  0.5331800E-011  0.9118800E+02  0.7816164E-02  0.1184000E+00
        -11   -1    0    0    0    0  0.00000000000E+00  0.00000000000E+00  0.45593999997E+02  0.45594000000E+02  0.51100000000E-03 0. -1.
         11   -1    0    0    0    0 -0.00000000000E+00 -0.00000000000E+00 -0.45593999997E+02  0.45594000000E+02  0.51100000000E-03 0.  1.
         23    2    1    2    0    0  0.00000000000E+00 -0.17763568394E-14  0.00000000000E+00  0.91188000000E+02  0.91188000000E+02 0.  0.
    9900012    2    3    3    0    0  0.28091279530E+02 -0.11084932538E+02  0.31170941891E+02  0.47787270359E+02  0.19999996874E+02 0.  0.
        -12    1    3    3    0    0 -0.28091279530E+02  0.11084932538E+02 -0.31170941891E+02  0.43400729641E+02  0.00000000000E+00 0.  1.
         11    1    4    4    0    0  0.45822615410E+01  0.98044377432E+00  0.16614800100E+02  0.17262965372E+02  0.51100000000E-03 0. -1.
        -11    1    4    4    0    0  0.10093544171E+02 -0.77889340532E+01  0.69526562134E+01  0.14521933628E+02  0.51100000000E-03 0.  1.
         12    1    4    4    0    0  0.13415473818E+02 -0.42764422590E+01  0.76034855779E+01  0.16002371358E+02  0.00000000000E+00 0. -1.
</event>
<event>
 8    1  0.5331800E-011  0.9118800E+02  0.7816164E-02  0.1184000E+00
        -11   -1    0    0    0    0  0.00000000000E+00  0.00000000000E+00  0.45593999997E+02  0.45594000000E+02  0.51100000000E-03 0. -1.
         11   -1    0    0    0    0 -0.00000000000E+00 -0.00000000000E+00 -0.45593999997E+02  0.45594000000E+02  0.51100000000E-03 0.  1.
         23    2    1    2    0    0  0.00000000000E+00  0.00000000000E+00  0.35527136788E-14  0.91188000000E+02  0.91188000000E+02 0.  0.
    9900012    2    3    3    0    0  0.30944541545E+02  0.22119949288E+02  0.20898951484E+02  0.47787274418E+02  0.20000015380E+02 0.  0.
        -12    1    3    3    0    0 -0.30944541545E+02 -0.22119949288E+02 -0.20898951484E+02  0.43400725582E+02  0.00000000000E+00 0.  1.
         11    1    4    4    0    0  0.29913529656E+02  0.13584283095E+02  0.11837807163E+02  0.34921135182E+02  0.51100000000E-03 0. -1.
        -11    1    4    4    0    0  0.17001322019E+01  0.71701346252E+01  0.62177845214E+01  0.96416868162E+01  0.51100000000E-03 0.  1.
         12    1    4    4    0    0 -0.66912031343E+00  0.13655315674E+01  0.28433597994E+01  0.32244524193E+01  0.00000000000E+00 0. -1.
</event>
<event>
 8    1  0.5331800E-011  0.9118800E+02  0.7816164E-02  0.1184000E+00
        -11   -1    0    0    0    0  0.00000000000E+00  0.00000000000E+00  0.45593999997E+02  0.45594000000E+02  0.51100000000E-03 0. -1.
         11   -1    0    0    0    0 -0.00000000000E+00 -0.00000000000E+00 -0.45593999997E+02  0.45594000000E+02  0.51100000000E-03 0.  1.
         23    2    1    2    0    0  0.88817841970E-15  0.71054273576E-14  0.00000000000E+00  0.91188000000E+02  0.91188000000E+02 0.  0.
    9900012    2    3    3    0    0 -0.68473502291E+01 -0.37042698863E+02 -0.21554015946E+02  0.47787270195E+02  0.19999996128E+02 0.  0.
         12    1    3    3    0    0  0.68473502291E+01  0.37042698863E+02  0.21554015946E+02  0.43400729805E+02  0.00000000000E+00 0. -1.
         11    1    4    4    0    0 -0.88279050343E+01 -0.15478809281E+02 -0.18564991036E+02  0.25732942632E+02  0.51100000000E-03 0.  1.
        -11    1    4    4    0    0  0.19017051520E-01 -0.66381793757E+00 -0.65549277383E+00  0.93310607122E+00  0.51100000000E-03 0. -1.
         12    1    4    4    0    0  0.19615377537E+01 -0.20900071644E+02 -0.23335321354E+01  0.21121221492E+02  0.00000000000E+00 0. -1.
</event>
<event>
 8    1  0.5331800E-011  0.9118800E+02  0.7816164E-02  0.1184000E+00
        -11   -1    0    0    0    0  0.00000000000E+00  0.00000000000E+00  0.45593999997E+02  0.45594000000E+02  0.51100000000E-03 0. -1.
         11   -1    0    0    0    0 -0.00000000000E+00 -0.00000000000E+00 -0.45593999997E+02  0.45594000000E+02  0.51100000000E-03 0.  1.
         23    2    1    2    0    0 -0.17763568394E-14  0.00000000000E+00  0.00000000000E+00  0.91188000000E+02  0.91188000000E+02 0.  0.
    9900012    2    3    3    0    0 -0.15716663339E+02 -0.23163782885E+02  0.33166985580E+02  0.47787271014E+02  0.19999999862E+02 0.  0.
        -12    1    3    3    0    0  0.15716663339E+02  0.23163782885E+02 -0.33166985580E+02  0.43400728986E+02  0.00000000000E+00 0.  1.
         11    1    4    4    0    0 -0.70515519223E+01 -0.16048189869E+02  0.19267869065E+02  0.26048408035E+02  0.51100000000E-03 0. -1.
        -11    1    4    4    0    0 -0.10752243137E+02 -0.39663669028E+01  0.58946504632E+01  0.12887579417E+02  0.51100000000E-03 0.  1.
        -12    1    4    4    0    0  0.20871317203E+01 -0.31492261130E+01  0.80044660516E+01  0.88512835623E+01  0.00000000000E+00 0.  1.
</event>
<event>
 8    1  0.5996488E-011  0.9118800E+02  0.7816164E-02  0.1184000E+00
        -11   -1    0    0    0    0  0.00000000000E+00  0.00000000000E+00  0.45593999997E+02  0.45594000000E+02  0.51100000000E-03 0. -1.
         11   -1    0    0    0    0 -0.00000000000E+00 -0.00000000000E+00 -0.45593999997E+02  0.45594000000E+02  0.51100000000E-03 0.  1.
         23    2    1    2    0    0  0.88817841970E-15  0.00000000000E+00  0.00000000000E+00  0.91188000000E+02  0.91188000000E+02 0.  0.
    9900012    2    3    3    0    0 -0.36974348546E+01  0.13096560427E+02  0.41212039618E+02  0.47787272714E+02  0.20000007611E+02 0.  0.
        -12    1    3    3    0    0  0.36974348546E+01 -0.13096560427E+02 -0.41212039618E+02  0.43400727286E+02  0.00000000000E+00 0.  1.
         11    1    4    4    0    0 -0.67573693702E-01  0.35019273468E+01  0.12100933055E+02  0.12597644319E+02  0.51100000000E-03 0. -1.
        -11    1    4    4    0    0 -0.93327133590E+01  0.10266119957E+02  0.22491302351E+02  0.26426339877E+02  0.51100000000E-03 0.  1.
        -12    1    4    4    0    0  0.57028521981E+01 -0.67148687684E+00  0.66198042124E+01  0.87632885168E+01  0.00000000000E+00 0.  1.
</event>
<event>
 8    1  0.5331800E-011  0.9118800E+02  0.7816164E-02  0.1184000E+00
        -11   -1    0    0    0    0  0.00000000000E+00  0.00000000000E+00  0.45593999997E+02  0.45594000000E+02  0.51100000000E-03 0. -1.
         11   -1    0    0    0    0 -0.00000000000E+00 -0.00000000000E+00 -0.45593999997E+02  0.45594000000E+02  0.51100000000E-03 0.  1.
         23    2    1    2    0    0 -0.16653345369E-15  0.00000000000E+00  0.00000000000E+00  0.91188000000E+02  0.91188000000E+02 0.  0.
    9900012    2    3    3    0    0 -0.14944586314E+00  0.38278977810E+02 -0.20452905060E+02  0.47787264964E+02  0.19999972279E+02 0.  0.
         12    1    3    3    0    0  0.14944586314E+00 -0.38278977810E+02  0.20452905060E+02  0.43400735036E+02  0.00000000000E+00 0. -1.
         11    1    4    4    0    0  0.48267905802E+01  0.51712657720E+01 -0.76869177780E+01  0.10446463621E+02  0.51100000000E-03 0. -1.
        -11    1    4    4    0    0 -0.46361350130E+01  0.13484885437E+02 -0.64589416588E+00  0.14274209703E+02  0.51100000000E-03 0.  1.
        -12    1    4    4    0    0 -0.34010143037E+00  0.19622826601E+02 -0.12120093116E+02  0.23066591641E+02  0.00000000000E+00 0.  1.
</event>
<event>
 8    1  0.5331800E-011  0.9118800E+02  0.7816164E-02  0.1184000E+00
        -11   -1    0    0    0    0  0.00000000000E+00  0.00000000000E+00  0.45593999997E+02  0.45594000000E+02  0.51100000000E-03 0. -1.
         11   -1    0    0    0    0 -0.00000000000E+00 -0.00000000000E+00 -0.45593999997E+02  0.45594000000E+02  0.51100000000E-03 0.  1.
         23    2    1    2    0    0  0.00000000000E+00  0.88817841970E-15  0.14210854715E-13  0.91188000000E+02  0.91188000000E+02 0.  0.
    9900012    2    3    3    0    0  0.13776242053E+02 -0.56002607056E+01 -0.40773461029E+02  0.47787275475E+02  0.20000020199E+02 0.  0.
         12    1    3    3    0    0 -0.13776242053E+02  0.56002607056E+01  0.40773461029E+02  0.43400724525E+02  0.00000000000E+00 0. -1.
         11    1    4    4    0    0  0.34839171755E+01 -0.82963134014E+01 -0.60685556258E+01  0.10853288100E+02  0.51100000000E-03 0. -1.
        -11    1    4    4    0    0  0.97606198383E+01  0.24535415546E+01 -0.21747112626E+02  0.23963023048E+02  0.51100000000E-03 0.  1.
         12    1    4    4    0    0  0.53170503907E+00  0.24251114123E+00 -0.12957792777E+02  0.12970964326E+02  0.00000000000E+00 0. -1.
</event>
<event>
 8    1  0.5665768E-011  0.9118800E+02  0.7816164E-02  0.1184000E+00
        -11   -1    0    0    0    0  0.00000000000E+00  0.00000000000E+00  0.45593999997E+02  0.45594000000E+02  0.51100000000E-03 0. -1.
         11   -1    0    0    0    0 -0.00000000000E+00 -0.00000000000E+00 -0.45593999997E+02  0.45594000000E+02  0.51100000000E-03 0.  1.
         23    2    1    2    0    0  0.00000000000E+00  0.00000000000E+00  0.00000000000E+00  0.91188000000E+02  0.91188000000E+02 0.  0.
    9900012    2    3    3    0    0  0.68009084721E+01  0.13875086406E+02 -0.40556783734E+02  0.47787273213E+02  0.20000009888E+02 0.  0.
         12    1    3    3    0    0 -0.68009084721E+01 -0.13875086406E+02  0.40556783734E+02  0.43400726787E+02  0.00000000000E+00 0. -1.
         11    1    4    4    0    0 -0.59004020498E+00 -0.26830341712E+01 -0.85648647344E+00  0.28775665322E+01  0.51100000000E-03 0. -1.
        -11    1    4    4    0    0  0.96490021767E+01  0.11684838600E+02 -0.33071705122E+02  0.36378240420E+02  0.51100000000E-03 0.  1.
        -12    1    4    4    0    0 -0.22580534995E+01  0.48732819763E+01 -0.66285921383E+01  0.85314662611E+01  0.00000000000E+00 0.  1.
</event>
<event>
 8    1  0.5331800E-011  0.9118800E+02  0.7816164E-02  0.1184000E+00
        -11   -1    0    0    0    0  0.00000000000E+00  0.00000000000E+00  0.45593999997E+02  0.45594000000E+02  0.51100000000E-03 0. -1.
         11   -1    0    0    0    0 -0.00000000000E+00 -0.00000000000E+00 -0.45593999997E+02  0.45594000000E+02  0.51100000000E-03 0.  1.
         23    2    1    2    0    0  0.35527136788E-14  0.00000000000E+00  0.35527136788E-14  0.91188000000E+02  0.91188000000E+02 0.  0.
    9900012    2    3    3    0    0 -0.27677401324E+02 -0.10358267072E+02 -0.31785073995E+02  0.47787272245E+02  0.20000005474E+02 0.  0.
         12    1    3    3    0    0  0.27677401324E+02  0.10358267072E+02  0.31785073995E+02  0.43400727755E+02  0.00000000000E+00 0. -1.
         11    1    4    4    0    0 -0.29698778309E+01 -0.13753044536E+01  0.97178718076E+00  0.34140895209E+01  0.51100000000E-03 0. -1.
        -11    1    4    4    0    0 -0.17605071053E+02  0.10543503721E+01 -0.19255390269E+02  0.26111687732E+02  0.51100000000E-03 0.  1.
        -12    1    4    4    0    0 -0.71024524398E+01 -0.10037312990E+02 -0.13501470906E+02  0.18261494993E+02  0.00000000000E+00 0.  1.
</event>
<event>
 8    1  0.5331800E-011  0.9118800E+02  0.7816164E-02  0.1184000E+00
        -11   -1    0    0    0    0  0.00000000000E+00  0.00000000000E+00  0.45593999997E+02  0.45594000000E+02  0.51100000000E-03 0. -1.
         11   -1    0    0    0    0 -0.00000000000E+00 -0.00000000000E+00 -0.45593999997E+02  0.45594000000E+02  0.51100000000E-03 0.  1.
         23    2    1    2    0    0  0.88817841970E-15  0.71054273576E-14  0.71054273576E-14  0.91188000000E+02  0.91188000000E+02 0.  0.
    9900012    2    3    3    0    0 -0.78890673837E+01 -0.38093494622E+02 -0.19242440614E+02  0.47787271464E+02  0.20000001912E+02 0.  0.
         12    1    3    3    0    0  0.78890673837E+01  0.38093494622E+02  0.19242440614E+02  0.43400728536E+02  0.00000000000E+00 0. -1.
         11    1    4    4    0    0 -0.12049979673E+02 -0.16268579587E+02 -0.58082613185E+01  0.21061922792E+02  0.51100000000E-03 0. -1.
        -11    1    4    4    0    0  0.33200775158E+01 -0.16349832491E+02 -0.13034576214E+02  0.21171681901E+02  0.51100000000E-03 0.  1.
         12    1    4    4    0    0  0.84083477311E+00 -0.54750825438E+01 -0.39960308203E+00  0.55536667707E+01  0.00000000000E+00 0. -1.
</event>
<event>
 8    1  0.5331800E-011  0.9118800E+02  0.7816164E-02  0.1184000E+00
        -11   -1    0    0    0    0  0.00000000000E+00  0.00000000000E+00  0.45593999997E+02  0.45594000000E+02  0.51100000000E-03 0. -1.
         11   -1    0    0    0    0 -0.00000000000E+00 -0.00000000000E+00 -0.45593999997E+02  0.45594000000E+02  0.51100000000E-03 0.  1.
         23    2    1    2    0    0  0.00000000000E+00  0.00000000000E+00  0.00000000000E+00  0.91188000000E+02  0.91188000000E+02 0.  0.
    9900012    2    3    3    0    0  0.30641887524E+01  0.86019682609E+01 -0.42429241736E+02  0.47787266539E+02  0.19999979457E+02 0.  0.
         12    1    3    3    0    0 -0.30641887524E+01 -0.86019682609E+01  0.42429241736E+02  0.43400733461E+02  0.00000000000E+00 0. -1.
         11    1    4    4    0    0  0.71075085356E+01  0.46906816193E+01 -0.32044172996E+02  0.33156420116E+02  0.51100000000E-03 0. -1.
        -11    1    4    4    0    0 -0.26529714772E+00  0.16091981514E+01 -0.10063751485E+02  0.10195047596E+02  0.51100000000E-03 0.  1.
         12    1    4    4    0    0 -0.37780226355E+01  0.23020884903E+01 -0.32131725454E+00  0.44357988265E+01  0.00000000000E+00 0. -1.
</event>
<event>
 8    1  0.5331800E-011  0.9118800E+02  0.7816164E-02  0.1184000E+00
        -11   -1    0    0    0    0  0.00000000000E+00  0.00000000000E+00  0.45593999997E+02  0.45594000000E+02  0.51100000000E-03 0. -1.
         11   -1    0    0    0    0 -0.00000000000E+00 -0.00000000000E+00 -0.45593999997E+02  0.45594000000E+02  0.51100000000E-03 0.  1.
         23    2    1    2    0    0  0.00000000000E+00  0.00000000000E+00  0.00000000000E+00  0.91188000000E+02  0.91188000000E+02 0.  0.
    9900012    2    3    3    0    0 -0.27695315014E+02  0.24639696509E+02  0.22571623152E+02  0.47787270864E+02  0.19999999178E+02 0.  0.
        -12    1    3    3    0    0  0.27695315014E+02 -0.24639696509E+02 -0.22571623152E+02  0.43400729136E+02  0.00000000000E+00 0.  1.
         11    1    4    4    0    0 -0.26249304610E+02  0.20921849462E+02  0.23385116646E+02  0.40909821049E+02  0.51100000000E-03 0. -1.
        -11    1    4    4    0    0  0.38023789261E+00 -0.13645795806E+01 -0.42079082217E-02  0.14165720082E+01  0.51100000000E-03 0.  1.
         12    1    4    4    0    0 -0.18262482970E+01  0.50824266273E+01 -0.80928558608E+00  0.54608778071E+01  0.00000000000E+00 0. -1.
</event>
<event>
 8    1  0.5331800E-011  0.9118800E+02  0.7816164E-02  0.1184000E+00
        -11   -1    0    0    0    0  0.00000000000E+00  0.00000000000E+00  0.45593999997E+02  0.45594000000E+02  0.51100000000E-03 0. -1.
         11   -1    0    0    0    0 -0.00000000000E+00 -0.00000000000E+00 -0.45593999997E+02  0.45594000000E+02  0.51100000000E-03 0.  1.
         23    2    1    2    0    0  0.17763568394E-14 -0.88817841970E-15  0.00000000000E+00  0.91188000000E+02  0.91188000000E+02 0.  0.
    9900012    2    3    3    0    0  0.68153104719E+01  0.41297324709E+01 -0.42662866203E+02  0.47787270746E+02  0.19999998641E+02 0.  0.
         12    1    3    3    0    0 -0.68153104719E+01 -0.41297324709E+01  0.42662866203E+02  0.43400729254E+02  0.00000000000E+00 0. -1.
         11    1    4    4    0    0 -0.41853580454E+01 -0.47178526916E+01 -0.93876579377E+01  0.11309441976E+02  0.51100000000E-03 0. -1.
        -11    1    4    4    0    0  0.20102816040E+00  0.22870407605E+01 -0.57138476665E+01  0.61578424126E+01  0.51100000000E-03 0.  1.
         12    1    4    4    0    0  0.10799640357E+02  0.65605444021E+01 -0.27561360599E+02  0.30319986358E+02  0.00000000000E+00 0. -1.
</event>
<event>
 8    1  0.5331800E-011  0.9118800E+02  0.7816164E-02  0.1184000E+00
        -11   -1    0    0    0    0  0.00000000000E+00  0.00000000000E+00  0.45593999997E+02  0.45594000000E+02  0.51100000000E-03 0. -1.
         11   -1    0    0    0    0 -0.00000000000E+00 -0.00000000000E+00 -0.45593999997E+02  0.45594000000E+02  0.51100000000E-03 0.  1.
         23    2    1    2    0    0 -0.17763568394E-14  0.14210854715E-13  0.00000000000E+00  0.91188000000E+02  0.91188000000E+02 0.  0.
    9900012    2    3    3    0    0  0.13252362495E+02 -0.37688266302E+02  0.16958557060E+02  0.47787272055E+02  0.20000004609E+02 0.  0.
        -12    1    3    3    0    0 -0.13252362495E+02  0.37688266302E+02 -0.16958557060E+02  0.43400727945E+02  0.00000000000E+00 0.  1.
         11    1    4    4    0    0  0.69586275929E+01 -0.28541227733E+02  0.10242046032E+02  0.31111471930E+02  0.51100000000E-03 0. -1.
        -11    1    4    4    0    0 -0.19128299665E+01 -0.19507673962E+00 -0.11175014684E+01  0.22239116907E+01  0.51100000000E-03 0.  1.
        -12    1    4    4    0    0  0.82065648682E+01 -0.89519618303E+01  0.78340124957E+01  0.14451888435E+02  0.00000000000E+00 0.  1.
</event>
<event>
 8    1  0.5331800E-011  0.9118800E+02  0.7816164E-02  0.1184000E+00
        -11   -1    0    0    0    0  0.00000000000E+00  0.00000000000E+00  0.45593999997E+02  0.45594000000E+02  0.51100000000E-03 0. -1.
         11   -1    0    0    0    0 -0.00000000000E+00 -0.00000000000E+00 -0.45593999997E+02  0.45594000000E+02  0.51100000000E-03 0.  1.
         23    2    1    2    0    0 -0.71054273576E-14  0.66613381478E-15  0.00000000000E+00  0.91188000000E+02  0.91188000000E+02 0.  0.
    9900012    2    3    3    0    0 -0.34186756047E+02  0.54045308218E+00 -0.26731935031E+02  0.47787277321E+02  0.20000028617E+02 0.  0.
         12    1    3    3    0    0  0.34186756047E+02 -0.54045308218E+00  0.26731935031E+02  0.43400722679E+02  0.00000000000E+00 0. -1.
         11    1    4    4    0    0 -0.25565613567E+02  0.66552763599E+01 -0.20696384613E+02  0.33559404596E+02  0.51100000000E-03 0.  1.
        -11    1    4    4    0    0 -0.47855556603E+01 -0.70949785756E+01 -0.56398564131E+01  0.10249304590E+02  0.51100000000E-03 0. -1.
        -12    1    4    4    0    0 -0.38355868196E+01  0.98015529784E+00 -0.39569400496E+00  0.39785681349E+01  0.00000000000E+00 0.  1.
</event>
<event>
 8    1  0.5331800E-011  0.9118800E+02  0.7816164E-02  0.1184000E+00
        -11   -1    0    0    0    0  0.00000000000E+00  0.00000000000E+00  0.45593999997E+02  0.45594000000E+02  0.51100000000E-03 0. -1.
         11   -1    0    0    0    0 -0.00000000000E+00 -0.00000000000E+00 -0.45593999997E+02  0.45594000000E+02  0.51100000000E-03 0.  1.
         23    2    1    2    0    0  0.00000000000E+00  0.00000000000E+00  0.00000000000E+00  0.91188000000E+02  0.91188000000E+02 0.  0.
    9900012    2    3    3    0    0 -0.76339192382E+01  0.19211630589E+02  0.38160970321E+02  0.47787272717E+02  0.20000007628E+02 0.  0.
        -12    1    3    3    0    0  0.76339192382E+01 -0.19211630589E+02 -0.38160970321E+02  0.43400727283E+02  0.00000000000E+00 0.  1.
         11    1    4    4    0    0 -0.11211846158E+02  0.11697133798E+02  0.21401789472E+02  0.26843342307E+02  0.51100000000E-03 0. -1.
        -11    1    4    4    0    0 -0.15612575225E+01 -0.40873749231E+00  0.76652623511E+01  0.78333159365E+01  0.51100000000E-03 0.  1.
         12    1    4    4    0    0  0.51391844419E+01  0.79232342830E+01  0.90939184977E+01  0.13110614474E+02  0.00000000000E+00 0. -1.
</event>
<event>
 8    1  0.5331800E-011  0.9118800E+02  0.7816164E-02  0.1184000E+00
        -11   -1    0    0    0    0  0.00000000000E+00  0.00000000000E+00  0.45593999997E+02  0.45594000000E+02  0.51100000000E-03 0. -1.
         11   -1    0    0    0    0 -0.00000000000E+00 -0.00000000000E+00 -0.45593999997E+02  0.45594000000E+02  0.51100000000E-03 0.  1.
         23    2    1    2    0    0  0.00000000000E+00 -0.17763568394E-14  0.00000000000E+00  0.91188000000E+02  0.91188000000E+02 0.  0.
    9900012    2    3    3    0    0  0.11968644418E+02  0.50616704478E+01 -0.41409589507E+02  0.47787273508E+02  0.20000011231E+02 0.  0.
         12    1    3    3    0    0 -0.11968644418E+02 -0.50616704478E+01  0.41409589507E+02  0.43400726492E+02  0.00000000000E+00 0. -1.
         11    1    4    4    0    0  0.28938827656E+01 -0.44992044969E+01 -0.22054912955E+01  0.57863279100E+01  0.51100000000E-03 0. -1.
        -11    1    4    4    0    0  0.76287388775E+01  0.92583861870E+01 -0.38571268570E+02  0.40393788272E+02  0.51100000000E-03 0.  1.
         12    1    4    4    0    0  0.14460227744E+01  0.30248875772E+00 -0.63282964192E+00  0.16071573254E+01  0.00000000000E+00 0. -1.
</event>
<event>
 8    1  0.5331800E-011  0.9118800E+02  0.7816164E-02  0.1184000E+00
        -11   -1    0    0    0    0  0.00000000000E+00  0.00000000000E+00  0.45593999997E+02  0.45594000000E+02  0.51100000000E-03 0.  1.
         11   -1    0    0    0    0 -0.00000000000E+00 -0.00000000000E+00 -0.45593999997E+02  0.45594000000E+02  0.51100000000E-03 0. -1.
         23    2    1    2    0    0  0.00000000000E+00  0.35527136788E-14  0.00000000000E+00  0.91188000000E+02  0.91188000000E+02 0.  0.
    9900012    2    3    3    0    0 -0.38336509276E+02  0.19985190671E+02 -0.38116011325E+01  0.47787261610E+02  0.19999956985E+02 0.  0.
         12    1    3    3    0    0  0.38336509276E+02 -0.19985190671E+02  0.38116011325E+01  0.43400738390E+02  0.00000000000E+00 0. -1.
         11    1    4    4    0    0 -0.32804958647E+01  0.16524832087E+01 -0.22980876469E+01  0.43328467510E+01  0.51100000000E-03 0. -1.
        -11    1    4    4    0    0 -0.24835672353E+02  0.21042869164E+02  0.10719230010E+01  0.32569341151E+02  0.51100000000E-03 0.  1.
        -12    1    4    4    0    0 -0.10220341058E+02 -0.27101617016E+01 -0.25854364866E+01  0.10885073708E+02  0.00000000000E+00 0.  1.
</event>
<event>
 8    1  0.5331800E-011  0.9118800E+02  0.7816164E-02  0.1184000E+00
        -11   -1    0    0    0    0  0.00000000000E+00  0.00000000000E+00  0.45593999997E+02  0.45594000000E+02  0.51100000000E-03 0. -1.
         11   -1    0    0    0    0 -0.00000000000E+00 -0.00000000000E+00 -0.45593999997E+02  0.45594000000E+02  0.51100000000E-03 0.  1.
         23    2    1    2    0    0  0.00000000000E+00  0.00000000000E+00  0.17763568394E-14  0.91188000000E+02  0.91188000000E+02 0.  0.
    9900012    2    3    3    0    0 -0.63684314607E+01  0.40079371553E+02  0.15385383913E+02  0.47787274413E+02  0.20000015357E+02 0.  0.
         12    1    3    3    0    0  0.63684314607E+01 -0.40079371553E+02 -0.15385383913E+02  0.43400725587E+02  0.00000000000E+00 0. -1.
         11    1    4    4    0    0 -0.90501041961E+01  0.20833618622E+02  0.32474120067E+01  0.22945364147E+02  0.51100000000E-03 0. -1.
        -11    1    4    4    0    0  0.33529854419E+01  0.18391082547E+02  0.13529383442E+02  0.23076365511E+02  0.51100000000E-03 0.  1.
         12    1    4    4    0    0 -0.67131270657E+00  0.85467038432E+00 -0.13914115363E+01  0.17655447542E+01  0.00000000000E+00 0. -1.
</event>
<event>
 8    1  0.5331800E-011  0.9118800E+02  0.7816164E-02  0.1184000E+00
        -11   -1    0    0    0    0  0.00000000000E+00  0.00000000000E+00  0.45593999997E+02  0.45594000000E+02  0.51100000000E-03 0. -1.
         11   -1    0    0    0    0 -0.00000000000E+00 -0.00000000000E+00 -0.45593999997E+02  0.45594000000E+02  0.51100000000E-03 0.  1.
         23    2    1    2    0    0  0.00000000000E+00  0.00000000000E+00  0.00000000000E+00  0.91188000000E+02  0.91188000000E+02 0.  0.
    9900012    2    3    3    0    0  0.29612086916E+02  0.25068633499E+02  0.19450134522E+02  0.47787310950E+02  0.20000181947E+02 0.  0.
        -12    1    3    3    0    0 -0.29612086916E+02 -0.25068633499E+02 -0.19450134522E+02  0.43400689050E+02  0.00000000000E+00 0.  1.
         11    1    4    4    0    0  0.64270218490E+01  0.69813491061E+01  0.90468297554E+01  0.13110719815E+02  0.51100000000E-03 0. -1.
        -11    1    4    4    0    0  0.61703573733E+01  0.14404594018E+02  0.49526428911E+01  0.16434546261E+02  0.51100000000E-03 0.  1.
        -12    1    4    4    0    0  0.17014707694E+02  0.36826903747E+01  0.54506618756E+01  0.18242044874E+02  0.00000000000E+00 0.  1.
</event>
<event>
 8    1  0.5331800E-011  0.9118800E+02  0.7816164E-02  0.1184000E+00
        -11   -1    0    0    0    0  0.00000000000E+00  0.00000000000E+00  0.45593999997E+02  0.45594000000E+02  0.51100000000E-03 0. -1.
         11   -1    0    0    0    0 -0.00000000000E+00 -0.00000000000E+00 -0.45593999997E+02  0.45594000000E+02  0.51100000000E-03 0.  1.
         23    2    1    2    0    0 -0.71054273576E-14  0.00000000000E+00  0.00000000000E+00  0.91188000000E+02  0.91188000000E+02 0.  0.
    9900012    2    3    3    0    0  0.36716373115E+02  0.19817914127E+02 -0.11949103928E+02  0.47787275816E+02  0.20000021753E+02 0.  0.
         12    1    3    3    0    0 -0.36716373115E+02 -0.19817914127E+02  0.11949103928E+02  0.43400724184E+02  0.00000000000E+00 0. -1.
         11    1    4    4    0    0  0.11206028529E+02 -0.43627078623E+00 -0.17415431245E+01  0.11348937409E+02  0.51100000000E-03 0. -1.
        -11    1    4    4    0    0  0.53770479766E+01  0.10992855974E+02 -0.50978446230E+00  0.12248077721E+02  0.51100000000E-03 0.  1.
        -12    1    4    4    0    0  0.20133296609E+02  0.92613289396E+01 -0.96977763412E+01  0.24190260686E+02  0.00000000000E+00 0.  1.
</event>
<event>
 8    1  0.5331800E-011  0.9118800E+02  0.7816164E-02  0.1184000E+00
        -11   -1    0    0    0    0  0.00000000000E+00  0.00000000000E+00  0.45593999997E+02  0.45594000000E+02  0.51100000000E-03 0.  1.
         11   -1    0    0    0    0 -0.00000000000E+00 -0.00000000000E+00 -0.45593999997E+02  0.45594000000E+02  0.51100000000E-03 0. -1.
         23    2    1    2    0    0  0.00000000000E+00  0.71054273576E-14 -0.17763568394E-14  0.91188000000E+02  0.91188000000E+02 0.  0.
    9900012    2    3    3    0    0 -0.10553741887E+02 -0.39015154529E+02  0.15813283001E+02  0.47787266481E+02  0.19999979193E+02 0.  0.
        -12    1    3    3    0    0  0.10553741887E+02  0.39015154529E+02 -0.15813283001E+02  0.43400733519E+02  0.00000000000E+00 0.  1.
         11    1    4    4    0    0 -0.13350689686E+02 -0.29053407316E+02  0.13633152975E+02  0.34759232616E+02  0.51100000000E-03 0. -1.
        -11    1    4    4    0    0  0.41683948108E+01 -0.75675008439E+01 -0.11361600354E+01  0.87139798146E+01  0.51100000000E-03 0.  1.
         12    1    4    4    0    0 -0.13714470113E+01 -0.23942463692E+01  0.33162900607E+01  0.43140540502E+01  0.00000000000E+00 0. -1.
</event>
<event>
 8    1  0.5331800E-011  0.9118800E+02  0.7816164E-02  0.1184000E+00
        -11   -1    0    0    0    0  0.00000000000E+00  0.00000000000E+00  0.45593999997E+02  0.45594000000E+02  0.51100000000E-03 0. -1.
         11   -1    0    0    0    0 -0.00000000000E+00 -0.00000000000E+00 -0.45593999997E+02  0.45594000000E+02  0.51100000000E-03 0.  1.
         23    2    1    2    0    0  0.00000000000E+00 -0.17763568394E-14  0.17763568394E-14  0.91188000000E+02  0.91188000000E+02 0.  0.
    9900012    2    3    3    0    0  0.42391710987E+02  0.29198277847E+01  0.88340548397E+01  0.47787273283E+02  0.20000010205E+02 0.  0.
        -12    1    3    3    0    0 -0.42391710987E+02 -0.29198277847E+01 -0.88340548397E+01  0.43400726717E+02  0.00000000000E+00 0.  1.
         11    1    4    4    0    0  0.19175036324E+02  0.97225721349E+01  0.88053385804E+01  0.23232400107E+02  0.51100000000E-03 0. -1.
        -11    1    4    4    0    0  0.58584392583E+01 -0.35377423212E+01 -0.68414049679E+00  0.68778615685E+01  0.51100000000E-03 0.  1.
         12    1    4    4    0    0  0.17358235405E+02 -0.32650020290E+01  0.71285675609E+00  0.17677011607E+02  0.00000000000E+00 0. -1.
</event>
<event>
 8    1  0.5331800E-011  0.9118800E+02  0.7816164E-02  0.1184000E+00
        -11   -1    0    0    0    0  0.00000000000E+00  0.00000000000E+00  0.45593999997E+02  0.45594000000E+02  0.51100000000E-03 0. -1.
         11   -1    0    0    0    0 -0.00000000000E+00 -0.00000000000E+00 -0.45593999997E+02  0.45594000000E+02  0.51100000000E-03 0.  1.
         23    2    1    2    0    0  0.00000000000E+00 -0.88817841970E-15  0.00000000000E+00  0.91188000000E+02  0.91188000000E+02 0.  0.
    9900012    2    3    3    0    0 -0.48126710856E+01  0.78498359958E+01 -0.42412750494E+02  0.47787272672E+02  0.20000007420E+02 0.  0.
         12    1    3    3    0    0  0.48126710856E+01 -0.78498359958E+01  0.42412750494E+02  0.43400727328E+02  0.00000000000E+00 0. -1.
         11    1    4    4    0    0 -0.48578106112E+01  0.19505239342E+01 -0.15080862249E+01  0.54476776589E+01  0.51100000000E-03 0. -1.
        -11    1    4    4    0    0  0.29636126636E+01  0.64999837230E+01 -0.20293239580E+02  0.21513910880E+02  0.51100000000E-03 0.  1.
         12    1    4    4    0    0 -0.29184731380E+01 -0.60067166135E+00 -0.20611424689E+02  0.20825684133E+02  0.00000000000E+00 0. -1.
</event>
<event>
 8    1  0.5331800E-011  0.9118800E+02  0.7816164E-02  0.1184000E+00
        -11   -1    0    0    0    0  0.00000000000E+00  0.00000000000E+00  0.45593999997E+02  0.45594000000E+02  0.51100000000E-03 0. -1.
         11   -1    0    0    0    0 -0.00000000000E+00 -0.00000000000E+00 -0.45593999997E+02  0.45594000000E+02  0.51100000000E-03 0.  1.
         23    2    1    2    0    0  0.88817841970E-15  0.00000000000E+00  0.00000000000E+00  0.91188000000E+02  0.91188000000E+02 0.  0.
    9900012    2    3    3    0    0  0.45797985306E+01  0.16947897686E+02  0.39691521895E+02  0.47787277645E+02  0.20000030095E+02 0.  0.
        -12    1    3    3    0    0 -0.45797985306E+01 -0.16947897686E+02 -0.39691521895E+02  0.43400722355E+02  0.00000000000E+00 0.  1.
         11    1    4    4    0    0  0.38501054062E+01  0.43080615808E+01  0.11902984092E+02  0.13231165359E+02  0.51100000000E-03 0. -1.
        -11    1    4    4    0    0  0.52198973344E+01 -0.27321329180E+00  0.24678720806E+01  0.57803431172E+01  0.51100000000E-03 0.  1.
        -12    1    4    4    0    0 -0.44902042101E+01  0.12913049397E+02  0.25320665723E+02  0.28775769168E+02  0.00000000000E+00 0.  1.
</event>
<event>
 8    1  0.5331800E-011  0.9118800E+02  0.7816164E-02  0.1184000E+00
        -11   -1    0    0    0    0  0.00000000000E+00  0.00000000000E+00  0.45593999997E+02  0.45594000000E+02  0.51100000000E-03 0. -1.
         11   -1    0    0    0    0 -0.00000000000E+00 -0.00000000000E+00 -0.45593999997E+02  0.45594000000E+02  0.51100000000E-03 0.  1.
         23    2    1    2    0    0 -0.88817841970E-15  0.00000000000E+00 -0.35527136788E-14  0.91188000000E+02  0.91188000000E+02 0.  0.
    9900012    2    3    3    0    0 -0.54887555317E+01 -0.32581305372E+02  0.28141703913E+02  0.47787269636E+02  0.19999993578E+02 0.  0.
        -12    1    3    3    0    0  0.54887555317E+01  0.32581305372E+02 -0.28141703913E+02  0.43400730364E+02  0.00000000000E+00 0.  1.
         11    1    4    4    0    0 -0.35392892196E+00 -0.24781262495E+02  0.21072744407E+02  0.32531473892E+02  0.51100000000E-03 0. -1.
        -11    1    4    4    0    0  0.18179004531E+01 -0.58237618055E+01  0.19734443840E+01  0.64121327671E+01  0.51100000000E-03 0.  1.
         12    1    4    4    0    0 -0.69527270628E+01 -0.19762810717E+01  0.50955151219E+01  0.88436629765E+01  0.00000000000E+00 0. -1.
</event>
<event>
 8    1  0.5331800E-011  0.9118800E+02  0.7816164E-02  0.1184000E+00
        -11   -1    0    0    0    0  0.00000000000E+00  0.00000000000E+00  0.45593999997E+02  0.45594000000E+02  0.51100000000E-03 0. -1.
         11   -1    0    0    0    0 -0.00000000000E+00 -0.00000000000E+00 -0.45593999997E+02  0.45594000000E+02  0.51100000000E-03 0.  1.
         23    2    1    2    0    0  0.35527136788E-14  0.44408920985E-15 -0.35527136788E-14  0.91188000000E+02  0.91188000000E+02 0.  0.
    9900012    2    3    3    0    0 -0.29568472278E+02 -0.33813043990E+01  0.31589485441E+02  0.47787270020E+02  0.19999995331E+02 0.  0.
        -12    1    3    3    0    0  0.29568472278E+02  0.33813043990E+01 -0.31589485441E+02  0.43400729980E+02  0.00000000000E+00 0.  1.
         11    1    4    4    0    0 -0.70401072957E+01 -0.22179048832E+01  0.57439271338E+01  0.93528023600E+01  0.51100000000E-03 0. -1.
        -11    1    4    4    0    0  0.13652540116E+01 -0.36162283706E+01  0.12653187173E+01  0.40671928724E+01  0.51100000000E-03 0.  1.
        -12    1    4    4    0    0 -0.23893618994E+02  0.24528288548E+01  0.24580239590E+02  0.34367274788E+02  0.00000000000E+00 0.  1.
</event>
<event>
 8    1  0.5331800E-011  0.9118800E+02  0.7816164E-02  0.1184000E+00
        -11   -1    0    0    0    0  0.00000000000E+00  0.00000000000E+00  0.45593999997E+02  0.45594000000E+02  0.51100000000E-03 0.  1.
         11   -1    0    0    0    0 -0.00000000000E+00 -0.00000000000E+00 -0.45593999997E+02  0.45594000000E+02  0.51100000000E-03 0. -1.
         23    2    1    2    0    0  0.00000000000E+00  0.00000000000E+00  0.00000000000E+00  0.91188000000E+02  0.91188000000E+02 0.  0.
    9900012    2    3    3    0    0 -0.36461645972E+02 -0.22974655777E+02 -0.51319851773E+01  0.47787266056E+02  0.19999977254E+02 0.  0.
         12    1    3    3    0    0  0.36461645972E+02  0.22974655777E+02  0.51319851773E+01  0.43400733944E+02  0.00000000000E+00 0. -1.
         11    1    4    4    0    0 -0.25566551612E+01  0.31462274738E+01 -0.25568647122E+01  0.47929938814E+01  0.51100000000E-03 0. -1.
        -11    1    4    4    0    0 -0.11774002818E+02 -0.78454309896E+01 -0.19830678496E+01  0.14286724191E+02  0.51100000000E-03 0.  1.
         12    1    4    4    0    0 -0.22130987993E+02 -0.18275452261E+02 -0.59205261552E+00  0.28707547983E+02  0.00000000000E+00 0. -1.
</event>
<event>
 8    1  0.5331800E-011  0.9118800E+02  0.7816164E-02  0.1184000E+00
        -11   -1    0    0    0    0  0.00000000000E+00  0.00000000000E+00  0.45593999997E+02  0.45594000000E+02  0.51100000000E-03 0.  1.
         11   -1    0    0    0    0 -0.00000000000E+00 -0.00000000000E+00 -0.45593999997E+02  0.45594000000E+02  0.51100000000E-03 0. -1.
         23    2    1    2    0    0  0.00000000000E+00  0.00000000000E+00  0.00000000000E+00  0.91188000000E+02  0.91188000000E+02 0.  0.
    9900012    2    3    3    0    0 -0.16973115495E+02 -0.20822501490E+02 -0.34087499214E+02  0.47787299308E+02  0.20000128866E+02 0.  0.
         12    1    3    3    0    0  0.16973115495E+02  0.20822501490E+02  0.34087499214E+02  0.43400700692E+02  0.00000000000E+00 0. -1.
         11    1    4    4    0    0 -0.10881807380E+01 -0.17805353879E+01 -0.11395684915E+02  0.11585166314E+02  0.51100000000E-03 0. -1.
        -11    1    4    4    0    0 -0.73606381291E+01 -0.15835220486E+02 -0.87058037478E+01  0.19512155715E+02  0.51100000000E-03 0.  1.
        -12    1    4    4    0    0 -0.85242966276E+01 -0.32067456158E+01 -0.13986010551E+02  0.16689977279E+02  0.00000000000E+00 0.  1.
</event>
<event>
 8    1  0.5331800E-011  0.9118800E+02  0.7816164E-02  0.1184000E+00
        -11   -1    0    0    0    0  0.00000000000E+00  0.00000000000E+00  0.45593999997E+02  0.45594000000E+02  0.51100000000E-03 0.  1.
         11   -1    0    0    0    0 -0.00000000000E+00 -0.00000000000E+00 -0.45593999997E+02  0.45594000000E+02  0.51100000000E-03 0. -1.
         23    2    1    2    0    0 -0.71054273576E-14  0.17763568394E-14  0.22204460493E-15  0.91188000000E+02  0.91188000000E+02 0.  0.
    9900012    2    3    3    0    0  0.41138690905E+02  0.13789333497E+02 -0.10420313831E+01  0.47787269165E+02  0.19999991429E+02 0.  0.
        -12    1    3    3    0    0 -0.41138690905E+02 -0.13789333497E+02  0.10420313831E+01  0.43400730835E+02  0.00000000000E+00 0.  1.
         11    1    4    4    0    0  0.36472337803E+02  0.91294524733E+01 -0.65838476433E+00  0.37603348229E+02  0.51100000000E-03 0. -1.
        -11    1    4    4    0    0 -0.29374217380E+00  0.19370460140E+01 -0.32851947720E+01  0.38250407417E+01  0.51100000000E-03 0.  1.
         12    1    4    4    0    0  0.49600952755E+01  0.27228350102E+01  0.29015481532E+01  0.63588801938E+01  0.00000000000E+00 0. -1.
</event>
<event>
 8    1  0.5331800E-011  0.9118800E+02  0.7816164E-02  0.1184000E+00
        -11   -1    0    0    0    0  0.00000000000E+00  0.00000000000E+00  0.45593999997E+02  0.45594000000E+02  0.51100000000E-03 0. -1.
         11   -1    0    0    0    0 -0.00000000000E+00 -0.00000000000E+00 -0.45593999997E+02  0.45594000000E+02  0.51100000000E-03 0.  1.
         23    2    1    2    0    0  0.00000000000E+00  0.44408920985E-15  0.71054273576E-14  0.91188000000E+02  0.91188000000E+02 0.  0.
    9900012    2    3    3    0    0  0.22471221032E+01 -0.24195708498E+01 -0.43274930415E+02  0.47787268632E+02  0.19999989003E+02 0.  0.
         12    1    3    3    0    0 -0.22471221032E+01  0.24195708498E+01  0.43274930415E+02  0.43400731368E+02  0.00000000000E+00 0. -1.
         11    1    4    4    0    0  0.67932430461E+01  0.49065255239E+01 -0.86881627231E+01  0.12070887108E+02  0.51100000000E-03 0. -1.
        -11    1    4    4    0    0 -0.12024152026E+01 -0.39777822822E+01 -0.14870421152E+02  0.15440141829E+02  0.51100000000E-03 0.  1.
         12    1    4    4    0    0 -0.33437057404E+01 -0.33483140914E+01 -0.19716346539E+02  0.20276239696E+02  0.00000000000E+00 0. -1.
</event>
<event>
 8    1  0.5331800E-011  0.9118800E+02  0.7816164E-02  0.1184000E+00
        -11   -1    0    0    0    0  0.00000000000E+00  0.00000000000E+00  0.45593999997E+02  0.45594000000E+02  0.51100000000E-03 0. -1.
         11   -1    0    0    0    0 -0.00000000000E+00 -0.00000000000E+00 -0.45593999997E+02  0.45594000000E+02  0.51100000000E-03 0.  1.
         23    2    1    2    0    0  0.00000000000E+00 -0.35527136788E-14  0.00000000000E+00  0.91188000000E+02  0.91188000000E+02 0.  0.
    9900012    2    3    3    0    0 -0.37884230348E+01  0.26866744110E+02  0.33874018238E+02  0.47787271898E+02  0.20000003893E+02 0.  0.
        -12    1    3    3    0    0  0.37884230348E+01 -0.26866744110E+02 -0.33874018238E+02  0.43400728102E+02  0.00000000000E+00 0.  1.
         11    1    4    4    0    0  0.67660518512E+00  0.14851121423E+02  0.10281079033E+02  0.18075236885E+02  0.51100000000E-03 0. -1.
        -11    1    4    4    0    0 -0.73909992303E+00 -0.23743495575E+01  0.70309262089E+01  0.74577294221E+01  0.51100000000E-03 0.  1.
        -12    1    4    4    0    0 -0.37259282969E+01  0.14389972245E+02  0.16562012996E+02  0.22254305591E+02  0.00000000000E+00 0.  1.
</event>
<event>
 8    1  0.5331800E-011  0.9118800E+02  0.7816164E-02  0.1184000E+00
        -11   -1    0    0    0    0  0.00000000000E+00  0.00000000000E+00  0.45593999997E+02  0.45594000000E+02  0.51100000000E-03 0. -1.
         11   -1    0    0    0    0 -0.00000000000E+00 -0.00000000000E+00 -0.45593999997E+02  0.45594000000E+02  0.51100000000E-03 0.  1.
         23    2    1    2    0    0  0.88817841970E-15  0.00000000000E+00  0.00000000000E+00  0.91188000000E+02  0.91188000000E+02 0.  0.
    9900012    2    3    3    0    0 -0.61253057782E+01 -0.37866988314E+02  0.20302597268E+02  0.47787266934E+02  0.19999981258E+02 0.  0.
        -12    1    3    3    0    0  0.61253057782E+01  0.37866988314E+02 -0.20302597268E+02  0.43400733066E+02  0.00000000000E+00 0.  1.
         11    1    4    4    0    0  0.43930991076E+01 -0.88428497127E+01  0.11663823687E+02  0.15282018651E+02  0.51100000000E-03 0. -1.
        -11    1    4    4    0    0 -0.93199907842E+01 -0.19518081191E+02  0.46298721215E+01  0.22119074070E+02  0.51100000000E-03 0.  1.
         12    1    4    4    0    0 -0.11984141016E+01 -0.95060574099E+01  0.40089014601E+01  0.10386174212E+02  0.00000000000E+00 0. -1.
</event>
<event>
 8    1  0.5331800E-011  0.9118800E+02  0.7816164E-02  0.1184000E+00
        -11   -1    0    0    0    0  0.00000000000E+00  0.00000000000E+00  0.45593999997E+02  0.45594000000E+02  0.51100000000E-03 0. -1.
         11   -1    0    0    0    0 -0.00000000000E+00 -0.00000000000E+00 -0.45593999997E+02  0.45594000000E+02  0.51100000000E-03 0.  1.
         23    2    1    2    0    0  0.71054273576E-14 -0.35527136788E-14  0.00000000000E+00  0.91188000000E+02  0.91188000000E+02 0.  0.
    9900012    2    3    3    0    0  0.38273421163E+02  0.17798832134E+02 -0.10098023935E+02  0.47787270970E+02  0.19999999662E+02 0.  0.
         12    1    3    3    0    0 -0.38273421163E+02 -0.17798832134E+02  0.10098023935E+02  0.43400729030E+02  0.00000000000E+00 0. -1.
         11    1    4    4    0    0  0.95309355978E+01 -0.32731490708E+01 -0.47967752900E+01  0.11160703009E+02  0.51100000000E-03 0. -1.
        -11    1    4    4    0    0  0.13897789295E+02  0.13863693075E+02 -0.14693518983E+01  0.19685261701E+02  0.51100000000E-03 0.  1.
         12    1    4    4    0    0  0.14844696271E+02  0.72082881303E+01 -0.38318967472E+01  0.16941306261E+02  0.00000000000E+00 0. -1.
</event>
<event>
 8    1  0.5331800E-011  0.9118800E+02  0.7816164E-02  0.1184000E+00
        -11   -1    0    0    0    0  0.00000000000E+00  0.00000000000E+00  0.45593999997E+02  0.45594000000E+02  0.51100000000E-03 0.  1.
         11   -1    0    0    0    0 -0.00000000000E+00 -0.00000000000E+00 -0.45593999997E+02  0.45594000000E+02  0.51100000000E-03 0. -1.
         23    2    1    2    0    0  0.00000000000E+00  0.00000000000E+00  0.00000000000E+00  0.91188000000E+02  0.91188000000E+02 0.  0.
    9900012    2    3    3    0    0 -0.24121885496E+02 -0.31924712529E+02 -0.16809805496E+02  0.47787283523E+02  0.20000056893E+02 0.  0.
        -12    1    3    3    0    0  0.24121885496E+02  0.31924712529E+02  0.16809805496E+02  0.43400716477E+02  0.00000000000E+00 0.  1.
         11    1    4    4    0    0 -0.17946082896E+02 -0.16469089832E+02 -0.50770476918E+01  0.24881101759E+02  0.51100000000E-03 0. -1.
        -11    1    4    4    0    0 -0.97005675438E+00 -0.92185178454E+01 -0.11510766034E+02  0.14779032997E+02  0.51100000000E-03 0.  1.
        -12    1    4    4    0    0 -0.52057458453E+01 -0.62371048515E+01 -0.22199177075E+00  0.81271487670E+01  0.00000000000E+00 0.  1.
</event>
<event>
 8    1  0.5331800E-011  0.9118800E+02  0.7816164E-02  0.1184000E+00
        -11   -1    0    0    0    0  0.00000000000E+00  0.00000000000E+00  0.45593999997E+02  0.45594000000E+02  0.51100000000E-03 0. -1.
         11   -1    0    0    0    0 -0.00000000000E+00 -0.00000000000E+00 -0.45593999997E+02  0.45594000000E+02  0.51100000000E-03 0.  1.
         23    2    1    2    0    0 -0.17763568394E-14  0.17763568394E-14  0.00000000000E+00  0.91188000000E+02  0.91188000000E+02 0.  0.
    9900012    2    3    3    0    0 -0.87490056035E+01 -0.15041012334E+02  0.39759848504E+02  0.47787277608E+02  0.20000029926E+02 0.  0.
        -12    1    3    3    0    0  0.87490056035E+01  0.15041012334E+02 -0.39759848504E+02  0.43400722392E+02  0.00000000000E+00 0.  1.
         11    1    4    4    0    0 -0.83926857183E+00 -0.14037294192E+01  0.13669937505E+02  0.13767426036E+02  0.51100000000E-03 0. -1.
        -11    1    4    4    0    0 -0.75788812423E+01 -0.13962759123E+01  0.38106841016E+01  0.85971123578E+01  0.51100000000E-03 0.  1.
        -12    1    4    4    0    0 -0.33085578931E+00 -0.12241007003E+02  0.22279226897E+02  0.25422739214E+02  0.00000000000E+00 0.  1.
</event>
<event>
 8    1  0.5331800E-011  0.9118800E+02  0.7816164E-02  0.1184000E+00
        -11   -1    0    0    0    0  0.00000000000E+00  0.00000000000E+00  0.45593999997E+02  0.45594000000E+02  0.51100000000E-03 0. -1.
         11   -1    0    0    0    0 -0.00000000000E+00 -0.00000000000E+00 -0.45593999997E+02  0.45594000000E+02  0.51100000000E-03 0.  1.
         23    2    1    2    0    0 -0.35527136788E-14  0.00000000000E+00  0.00000000000E+00  0.91188000000E+02  0.91188000000E+02 0.  0.
    9900012    2    3    3    0    0  0.27705416461E+02 -0.15007730142E+02 -0.29846290994E+02  0.47787272455E+02  0.20000006432E+02 0.  0.
         12    1    3    3    0    0 -0.27705416461E+02  0.15007730142E+02  0.29846290994E+02  0.43400727545E+02  0.00000000000E+00 0. -1.
         11    1    4    4    0    0 -0.87576207770E+00 -0.34534054682E+01  0.10908480054E+01  0.37259788213E+01  0.51100000000E-03 0. -1.
        -11    1    4    4    0    0  0.12747433210E+02 -0.25045817427E+01 -0.14978186084E+02  0.19827154152E+02  0.51100000000E-03 0.  1.
         12    1    4    4    0    0  0.15833745328E+02 -0.90497429314E+01 -0.15958952916E+02  0.24234139482E+02  0.00000000000E+00 0. -1.
</event>
<event>
 8    1  0.5331800E-011  0.9118800E+02  0.7816164E-02  0.1184000E+00
        -11   -1    0    0    0    0  0.00000000000E+00  0.00000000000E+00  0.45593999997E+02  0.45594000000E+02  0.51100000000E-03 0. -1.
         11   -1    0    0    0    0 -0.00000000000E+00 -0.00000000000E+00 -0.45593999997E+02  0.45594000000E+02  0.51100000000E-03 0.  1.
         23    2    1    2    0    0  0.00000000000E+00  0.71054273576E-14  0.00000000000E+00  0.91188000000E+02  0.91188000000E+02 0.  0.
    9900012    2    3    3    0    0  0.19917238221E+02  0.32848573890E+02 -0.20196491218E+02  0.47787269102E+02  0.19999991143E+02 0.  0.
         12    1    3    3    0    0 -0.19917238221E+02 -0.32848573890E+02  0.20196491218E+02  0.43400730898E+02  0.00000000000E+00 0. -1.
         11    1    4    4    0    0  0.89609005116E+01  0.20627113772E+02 -0.68416237406E+01  0.23507092041E+02  0.51100000000E-03 0. -1.
        -11    1    4    4    0    0  0.99370796711E+01  0.92088450856E+01 -0.15390565253E+02  0.20504094207E+02  0.51100000000E-03 0.  1.
        -12    1    4    4    0    0  0.10192580382E+01  0.30126150323E+01  0.20356977758E+01  0.37760828534E+01  0.00000000000E+00 0.  1.
</event>
<event>
 8    1  0.5331800E-011  0.9118800E+02  0.7816164E-02  0.1184000E+00
        -11   -1    0    0    0    0  0.00000000000E+00  0.00000000000E+00  0.45593999997E+02  0.45594000000E+02  0.51100000000E-03 0. -1.
         11   -1    0    0    0    0 -0.00000000000E+00 -0.00000000000E+00 -0.45593999997E+02  0.45594000000E+02  0.51100000000E-03 0.  1.
         23    2    1    2    0    0  0.00000000000E+00  0.35527136788E-14  0.35527136788E-14  0.91188000000E+02  0.91188000000E+02 0.  0.
    9900012    2    3    3    0    0 -0.56767859955E+01  0.29742956722E+02 -0.31092668129E+02  0.47787269762E+02  0.19999994154E+02 0.  0.
         12    1    3    3    0    0  0.56767859955E+01 -0.29742956722E+02  0.31092668129E+02  0.43400730238E+02  0.00000000000E+00 0. -1.
         11    1    4    4    0    0  0.22758543049E+01  0.77362029766E+01 -0.19777603135E+01  0.83030046027E+01  0.51100000000E-03 0. -1.
        -11    1    4    4    0    0 -0.49666464651E+01  0.88361926865E+01 -0.21993284683E+02  0.24216739039E+02  0.51100000000E-03 0.  1.
         12    1    4    4    0    0 -0.29859938353E+01  0.13170561059E+02 -0.71216231324E+01  0.15267526120E+02  0.00000000000E+00 0. -1.
</event>
<event>
 8    1  0.5331800E-011  0.9118800E+02  0.7816164E-02  0.1184000E+00
        -11   -1    0    0    0    0  0.00000000000E+00  0.00000000000E+00  0.45593999997E+02  0.45594000000E+02  0.51100000000E-03 0. -1.
         11   -1    0    0    0    0 -0.00000000000E+00 -0.00000000000E+00 -0.45593999997E+02  0.45594000000E+02  0.51100000000E-03 0.  1.
         23    2    1    2    0    0  0.17763568394E-14  0.88817841970E-15 -0.71054273576E-14  0.91188000000E+02  0.91188000000E+02 0.  0.
    9900012    2    3    3    0    0 -0.99292664003E+01  0.40356951772E+01  0.42056459130E+02  0.47787275106E+02  0.20000018517E+02 0.  0.
        -12    1    3    3    0    0  0.99292664003E+01 -0.40356951772E+01 -0.42056459130E+02  0.43400724894E+02  0.00000000000E+00 0.  1.
         11    1    4    4    0    0 -0.69740819519E+01 -0.18068347803E+01  0.16854809376E+02  0.18329950092E+02  0.51100000000E-03 0. -1.
        -11    1    4    4    0    0  0.25674092516E+01  0.86661802769E+01  0.15479473874E+02  0.17925076919E+02  0.51100000000E-03 0.  1.
        -12    1    4    4    0    0 -0.55225937000E+01 -0.28236503194E+01  0.97221758798E+01  0.11532248096E+02  0.00000000000E+00 0.  1.
</event>
<event>
 8    1  0.5331800E-011  0.9118800E+02  0.7816164E-02  0.1184000E+00
        -11   -1    0    0    0    0  0.00000000000E+00  0.00000000000E+00  0.45593999997E+02  0.45594000000E+02  0.51100000000E-03 0. -1.
         11   -1    0    0    0    0 -0.00000000000E+00 -0.00000000000E+00 -0.45593999997E+02  0.45594000000E+02  0.51100000000E-03 0.  1.
         23    2    1    2    0    0  0.00000000000E+00 -0.35527136788E-14  0.00000000000E+00  0.91188000000E+02  0.91188000000E+02 0.  0.
    9900012    2    3    3    0    0  0.13875660344E+02  0.26447963376E+02 -0.31489595460E+02  0.47787270295E+02  0.19999996581E+02 0.  0.
         12    1    3    3    0    0 -0.13875660344E+02 -0.26447963376E+02  0.31489595460E+02  0.43400729705E+02  0.00000000000E+00 0. -1.
         11    1    4    4    0    0  0.83779930746E-01  0.13397314968E+01 -0.54156878001E+01  0.55795675612E+01  0.51100000000E-03 0. -1.
        -11    1    4    4    0    0  0.10861798239E+01  0.17792123503E+02 -0.18557740250E+02  0.25731870682E+02  0.51100000000E-03 0.  1.
        -12    1    4    4    0    0  0.12705700589E+02  0.73161083766E+01 -0.75161674096E+01  0.16475832051E+02  0.00000000000E+00 0.  1.
</event>
<event>
 8    1  0.5331800E-011  0.9118800E+02  0.7816164E-02  0.1184000E+00
        -11   -1    0    0    0    0  0.00000000000E+00  0.00000000000E+00  0.45593999997E+02  0.45594000000E+02  0.51100000000E-03 0. -1.
         11   -1    0    0    0    0 -0.00000000000E+00 -0.00000000000E+00 -0.45593999997E+02  0.45594000000E+02  0.51100000000E-03 0.  1.
         23    2    1    2    0    0  0.17763568394E-14  0.00000000000E+00  0.00000000000E+00  0.91188000000E+02  0.91188000000E+02 0.  0.
    9900012    2    3    3    0    0 -0.11045365415E+02 -0.22360361934E+02  0.35519534700E+02  0.47787271570E+02  0.20000002395E+02 0.  0.
        -12    1    3    3    0    0  0.11045365415E+02  0.22360361934E+02 -0.35519534700E+02  0.43400728430E+02  0.00000000000E+00 0.  1.
         11    1    4    4    0    0  0.21448488208E+01 -0.83141467651E+01  0.17917663829E+02  0.19868771735E+02  0.51100000000E-03 0.  1.
        -11    1    4    4    0    0 -0.11862505852E+02 -0.13390476887E+02  0.10668687260E+02  0.20828941511E+02  0.51100000000E-03 0. -1.
         12    1    4    4    0    0 -0.13277083831E+01 -0.65573828235E+00  0.69331836112E+01  0.70895583241E+01  0.00000000000E+00 0. -1.
</event>
<event>
 8    1  0.5331800E-011  0.9118800E+02  0.7816164E-02  0.1184000E+00
        -11   -1    0    0    0    0  0.00000000000E+00  0.00000000000E+00  0.45593999997E+02  0.45594000000E+02  0.51100000000E-03 0. -1.
         11   -1    0    0    0    0 -0.00000000000E+00 -0.00000000000E+00 -0.45593999997E+02  0.45594000000E+02  0.51100000000E-03 0.  1.
         23    2    1    2    0    0  0.00000000000E+00  0.00000000000E+00  0.00000000000E+00  0.91188000000E+02  0.91188000000E+02 0.  0.
    9900012    2    3    3    0    0  0.22760996242E+02 -0.20646466855E+02  0.30647734141E+02  0.47787272454E+02  0.20000006426E+02 0.  0.
        -12    1    3    3    0    0 -0.22760996242E+02  0.20646466855E+02 -0.30647734141E+02  0.43400727546E+02  0.00000000000E+00 0.  1.
         11    1    4    4    0    0  0.13612146172E+02 -0.79283562659E+01  0.15819767965E+02  0.22325196868E+02  0.51100000000E-03 0. -1.
        -11    1    4    4    0    0  0.67326112673E+01 -0.88038826770E+01  0.17064054839E+02  0.20347441424E+02  0.51100000000E-03 0.  1.
         12    1    4    4    0    0  0.24162388025E+01 -0.39142279124E+01 -0.22360886628E+01  0.51146341617E+01  0.00000000000E+00 0. -1.
</event>
<event>
 8    1  0.5331800E-011  0.9118800E+02  0.7816164E-02  0.1184000E+00
        -11   -1    0    0    0    0  0.00000000000E+00  0.00000000000E+00  0.45593999997E+02  0.45594000000E+02  0.51100000000E-03 0. -1.
         11   -1    0    0    0    0 -0.00000000000E+00 -0.00000000000E+00 -0.45593999997E+02  0.45594000000E+02  0.51100000000E-03 0.  1.
         23    2    1    2    0    0  0.00000000000E+00  0.88817841970E-15  0.00000000000E+00  0.91188000000E+02  0.91188000000E+02 0.  0.
    9900012    2    3    3    0    0  0.34363323690E+02 -0.29578383927E+01 -0.26344572809E+02  0.47787270289E+02  0.19999996557E+02 0.  0.
         12    1    3    3    0    0 -0.34363323690E+02  0.29578383927E+01  0.26344572809E+02  0.43400729711E+02  0.00000000000E+00 0. -1.
         11    1    4    4    0    0  0.28649020519E+01  0.65454686877E+00  0.19654036019E+01  0.35353793219E+01  0.51100000000E-03 0. -1.
        -11    1    4    4    0    0  0.27330804419E+02 -0.74007485638E+01 -0.24589933215E+02  0.37502116810E+02  0.51100000000E-03 0.  1.
        -12    1    4    4    0    0  0.41676172190E+01  0.37883633023E+01 -0.37200431956E+01  0.67497741571E+01  0.00000000000E+00 0.  1.
</event>
<event>
 8    1  0.5331800E-011  0.9118800E+02  0.7816164E-02  0.1184000E+00
        -11   -1    0    0    0    0  0.00000000000E+00  0.00000000000E+00  0.45593999997E+02  0.45594000000E+02  0.51100000000E-03 0. -1.
         11   -1    0    0    0    0 -0.00000000000E+00 -0.00000000000E+00 -0.45593999997E+02  0.45594000000E+02  0.51100000000E-03 0.  1.
         23    2    1    2    0    0  0.00000000000E+00 -0.71054273576E-14  0.88817841970E-15  0.91188000000E+02  0.91188000000E+02 0.  0.
    9900012    2    3    3    0    0  0.27718481053E+02  0.33294683069E+02 -0.26026687613E+01  0.47787262711E+02  0.19999962007E+02 0.  0.
         12    1    3    3    0    0 -0.27718481053E+02 -0.33294683069E+02  0.26026687613E+01  0.43400737289E+02  0.00000000000E+00 0. -1.
         11    1    4    4    0    0  0.32509667686E+01  0.14669055048E+02  0.46019353285E+01  0.15713935534E+02  0.51100000000E-03 0. -1.
        -11    1    4    4    0    0  0.15480317286E+02  0.86846040908E+01 -0.53864604552E+01  0.18549299932E+02  0.51100000000E-03 0.  1.
        -12    1    4    4    0    0  0.89871969983E+01  0.99410239299E+01 -0.18181436346E+01  0.13524027245E+02  0.00000000000E+00 0.  1.
</event>
<event>
 8    1  0.5331800E-011  0.9118800E+02  0.7816164E-02  0.1184000E+00
        -11   -1    0    0    0    0  0.00000000000E+00  0.00000000000E+00  0.45593999997E+02  0.45594000000E+02  0.51100000000E-03 0. -1.
         11   -1    0    0    0    0 -0.00000000000E+00 -0.00000000000E+00 -0.45593999997E+02  0.45594000000E+02  0.51100000000E-03 0.  1.
         23    2    1    2    0    0  0.00000000000E+00  0.00000000000E+00  0.71054273576E-14  0.91188000000E+02  0.91188000000E+02 0.  0.
    9900012    2    3    3    0    0  0.23062595912E+01 -0.32332596182E+02 -0.28860156237E+02  0.47787260062E+02  0.19999949928E+02 0.  0.
         12    1    3    3    0    0 -0.23062595912E+01  0.32332596182E+02  0.28860156237E+02  0.43400739938E+02  0.00000000000E+00 0. -1.
         11    1    4    4    0    0  0.51909694246E+01 -0.29379869542E+02 -0.26412806997E+02  0.39846697122E+02  0.51100000000E-03 0. -1.
        -11    1    4    4    0    0 -0.29491943769E+00 -0.24782465091E+01 -0.41231072699E+01  0.48196158617E+01  0.51100000000E-03 0.  1.
         12    1    4    4    0    0 -0.25897903957E+01 -0.47448013085E+00  0.16757580304E+01  0.31209470781E+01  0.00000000000E+00 0. -1.
</event>
<event>
 8    1  0.5331800E-011  0.9118800E+02  0.7816164E-02  0.1184000E+00
        -11   -1    0    0    0    0  0.00000000000E+00  0.00000000000E+00  0.45593999997E+02  0.45594000000E+02  0.51100000000E-03 0. -1.
         11   -1    0    0    0    0 -0.00000000000E+00 -0.00000000000E+00 -0.45593999997E+02  0.45594000000E+02  0.51100000000E-03 0.  1.
         23    2    1    2    0    0  0.44408920985E-15  0.00000000000E+00  0.00000000000E+00  0.91188000000E+02  0.91188000000E+02 0.  0.
    9900012    2    3    3    0    0 -0.22055283296E+01 -0.20239986595E+02 -0.38328868402E+02  0.47787267684E+02  0.19999984681E+02 0.  0.
         12    1    3    3    0    0  0.22055283296E+01  0.20239986595E+02  0.38328868402E+02  0.43400732316E+02  0.00000000000E+00 0. -1.
         11    1    4    4    0    0 -0.62078898673E+01 -0.86550930308E+01 -0.11060224561E+02  0.15355034991E+02  0.51100000000E-03 0. -1.
        -11    1    4    4    0    0  0.18940048815E+01 -0.46593154598E+01 -0.23942903263E+02  0.24465467336E+02  0.51100000000E-03 0.  1.
        -12    1    4    4    0    0  0.21083566563E+01 -0.69255781041E+01 -0.33257405772E+01  0.79667653570E+01  0.00000000000E+00 0.  1.
</event>
<event>
 8    1  0.5331800E-011  0.9118800E+02  0.7816164E-02  0.1184000E+00
        -11   -1    0    0    0    0  0.00000000000E+00  0.00000000000E+00  0.45593999997E+02  0.45594000000E+02  0.51100000000E-03 0. -1.
         11   -1    0    0    0    0 -0.00000000000E+00 -0.00000000000E+00 -0.45593999997E+02  0.45594000000E+02  0.51100000000E-03 0.  1.
         23    2    1    2    0    0  0.00000000000E+00  0.00000000000E+00  0.71054273576E-14  0.91188000000E+02  0.91188000000E+02 0.  0.
    9900012    2    3    3    0    0  0.11931328793E+02 -0.19361792182E+02  0.36964750735E+02  0.47787211986E+02  0.19999730729E+02 0.  0.
        -12    1    3    3    0    0 -0.11931328793E+02  0.19361792182E+02 -0.36964750735E+02  0.43400788014E+02  0.00000000000E+00 0.  1.
         11    1    4    4    0    0  0.28638876083E+01 -0.13151113681E+02  0.20153138302E+02  0.24234327450E+02  0.51100000000E-03 0. -1.
        -11    1    4    4    0    0  0.11092295655E+02 -0.15201831935E+01  0.98117238734E+01  0.14886903824E+02  0.51100000000E-03 0.  1.
        -12    1    4    4    0    0 -0.20248544699E+01 -0.46904953078E+01  0.69998885602E+01  0.86659807127E+01  0.00000000000E+00 0.  1.
</event>
<event>
 8    1  0.5331800E-011  0.9118800E+02  0.7816164E-02  0.1184000E+00
        -11   -1    0    0    0    0  0.00000000000E+00  0.00000000000E+00  0.45593999997E+02  0.45594000000E+02  0.51100000000E-03 0. -1.
         11   -1    0    0    0    0 -0.00000000000E+00 -0.00000000000E+00 -0.45593999997E+02  0.45594000000E+02  0.51100000000E-03 0.  1.
         23    2    1    2    0    0  0.00000000000E+00  0.88817841970E-15  0.35527136788E-14  0.91188000000E+02  0.91188000000E+02 0.  0.
    9900012    2    3    3    0    0 -0.31104587378E+02 -0.76362811264E+01  0.29288483858E+02  0.47787269222E+02  0.19999991689E+02 0.  0.
        -12    1    3    3    0    0  0.31104587378E+02  0.76362811264E+01 -0.29288483858E+02  0.43400730778E+02  0.00000000000E+00 0.  1.
         11    1    4    4    0    0 -0.15498623537E+02 -0.84069303360E+01  0.59876307481E+01  0.18620835949E+02  0.51100000000E-03 0. -1.
        -11    1    4    4    0    0 -0.57061803532E+00  0.11441355382E+01 -0.17046644504E+00  0.12898488834E+01  0.51100000000E-03 0.  1.
         12    1    4    4    0    0 -0.15035345806E+02 -0.37348632865E+00  0.23471319555E+02  0.27876584389E+02  0.00000000000E+00 0. -1.
</event>
<event>
 8    1  0.5331800E-011  0.9118800E+02  0.7816164E-02  0.1184000E+00
        -11   -1    0    0    0    0  0.00000000000E+00  0.00000000000E+00  0.45593999997E+02  0.45594000000E+02  0.51100000000E-03 0. -1.
         11   -1    0    0    0    0 -0.00000000000E+00 -0.00000000000E+00 -0.45593999997E+02  0.45594000000E+02  0.51100000000E-03 0.  1.
         23    2    1    2    0    0  0.35527136788E-14  0.35527136788E-14  0.00000000000E+00  0.91188000000E+02  0.91188000000E+02 0.  0.
    9900012    2    3    3    0    0 -0.19193033856E+02  0.28315308819E+02  0.26711309013E+02  0.47787270843E+02  0.19999999083E+02 0.  0.
        -12    1    3    3    0    0  0.19193033856E+02 -0.28315308819E+02 -0.26711309013E+02  0.43400729157E+02  0.00000000000E+00 0.  1.
         11    1    4    4    0    0 -0.19496480670E+01  0.13621696312E+02  0.43614002703E+01  0.14435149829E+02  0.51100000000E-03 0. -1.
        -11    1    4    4    0    0 -0.96906125004E+00 -0.95708073427E+00  0.40994092110E+01  0.43197499208E+01  0.51100000000E-03 0.  1.
         12    1    4    4    0    0 -0.16274324539E+02  0.15650693241E+02  0.18250499532E+02  0.29032371093E+02  0.00000000000E+00 0. -1.
</event>
<event>
 8    1  0.5331800E-011  0.9118800E+02  0.7816164E-02  0.1184000E+00
        -11   -1    0    0    0    0  0.00000000000E+00  0.00000000000E+00  0.45593999997E+02  0.45594000000E+02  0.51100000000E-03 0. -1.
         11   -1    0    0    0    0 -0.00000000000E+00 -0.00000000000E+00 -0.45593999997E+02  0.45594000000E+02  0.51100000000E-03 0.  1.
         23    2    1    2    0    0  0.00000000000E+00 -0.35527136788E-14  0.00000000000E+00  0.91188000000E+02  0.91188000000E+02 0.  0.
    9900012    2    3    3    0    0 -0.22747511972E+01 -0.20940803747E+02  0.37946428432E+02  0.47787272065E+02  0.20000004651E+02 0.  0.
        -12    1    3    3    0    0  0.22747511972E+01  0.20940803747E+02 -0.37946428432E+02  0.43400727935E+02  0.00000000000E+00 0.  1.
         11    1    4    4    0    0  0.29332495178E+01 -0.12099371446E+02  0.83092534814E+01  0.14968047161E+02  0.51100000000E-03 0. -1.
        -11    1    4    4    0    0  0.18720816771E+00 -0.72870973910E+01  0.22990759096E+02  0.24118703102E+02  0.51100000000E-03 0.  1.
        -12    1    4    4    0    0 -0.53952088827E+01 -0.15543349097E+01  0.66464158551E+01  0.87005218015E+01  0.00000000000E+00 0.  1.
</event>
<event>
 8    1  0.5331800E-011  0.9118800E+02  0.7816164E-02  0.1184000E+00
        -11   -1    0    0    0    0  0.00000000000E+00  0.00000000000E+00  0.45593999997E+02  0.45594000000E+02  0.51100000000E-03 0. -1.
         11   -1    0    0    0    0 -0.00000000000E+00 -0.00000000000E+00 -0.45593999997E+02  0.45594000000E+02  0.51100000000E-03 0.  1.
         23    2    1    2    0    0 -0.35527136788E-14 -0.35527136788E-14  0.71054273576E-14  0.91188000000E+02  0.91188000000E+02 0.  0.
    9900012    2    3    3    0    0 -0.28671217483E+02 -0.17973491451E+02  0.27176060373E+02  0.47787270003E+02  0.19999995251E+02 0.  0.
        -12    1    3    3    0    0  0.28671217483E+02  0.17973491451E+02 -0.27176060373E+02  0.43400729997E+02  0.00000000000E+00 0.  1.
         11    1    4    4    0    0 -0.80496427288E+01 -0.93815742671E+01  0.10824351567E+02  0.16430985086E+02  0.51100000000E-03 0. -1.
        -11    1    4    4    0    0 -0.17946718625E+02 -0.23461773339E+00  0.10255860732E+02  0.20671778697E+02  0.51100000000E-03 0.  1.
        -12    1    4    4    0    0 -0.26748561289E+01 -0.83572994506E+01  0.60958480734E+01  0.10684506219E+02  0.00000000000E+00 0.  1.
</event>
<event>
 8    1  0.5331800E-011  0.9118800E+02  0.7816164E-02  0.1184000E+00
        -11   -1    0    0    0    0  0.00000000000E+00  0.00000000000E+00  0.45593999997E+02  0.45594000000E+02  0.51100000000E-03 0. -1.
         11   -1    0    0    0    0 -0.00000000000E+00 -0.00000000000E+00 -0.45593999997E+02  0.45594000000E+02  0.51100000000E-03 0.  1.
         23    2    1    2    0    0  0.00000000000E+00 -0.22204460493E-15  0.00000000000E+00  0.91188000000E+02  0.91188000000E+02 0.  0.
    9900012    2    3    3    0    0 -0.25358535817E+01  0.17649223838E+01  0.43290610690E+02  0.47787280209E+02  0.20000041786E+02 0.  0.
        -12    1    3    3    0    0  0.25358535817E+01 -0.17649223838E+01 -0.43290610690E+02  0.43400719791E+02  0.00000000000E+00 0.  1.
         11    1    4    4    0    0 -0.98818964259E+01 -0.97941729829E+00  0.30879369398E+02  0.32436809181E+02  0.51100000000E-03 0. -1.
        -11    1    4    4    0    0  0.52587657315E+01  0.15232485525E+01  0.45283075985E+01  0.71049611638E+01  0.51100000000E-03 0.  1.
        -12    1    4    4    0    0  0.20872771127E+01  0.12210911296E+01  0.78829336942E+01  0.82455098641E+01  0.00000000000E+00 0.  1.
</event>
<event>
 8    1  0.5331800E-011  0.9118800E+02  0.7816164E-02  0.1184000E+00
        -11   -1    0    0    0    0  0.00000000000E+00  0.00000000000E+00  0.45593999997E+02  0.45594000000E+02  0.51100000000E-03 0. -1.
         11   -1    0    0    0    0 -0.00000000000E+00 -0.00000000000E+00 -0.45593999997E+02  0.45594000000E+02  0.51100000000E-03 0.  1.
         23    2    1    2    0    0  0.00000000000E+00  0.00000000000E+00  0.00000000000E+00  0.91188000000E+02  0.91188000000E+02 0.  0.
    9900012    2    3    3    0    0  0.66938529978E+01 -0.13000431947E+02 -0.40863237937E+02  0.47787272892E+02  0.20000008424E+02 0.  0.
         12    1    3    3    0    0 -0.66938529978E+01  0.13000431947E+02  0.40863237937E+02  0.43400727108E+02  0.00000000000E+00 0. -1.
         11    1    4    4    0    0  0.28673956942E+01 -0.47692217012E+01 -0.57014251636E+00  0.55939696507E+01  0.51100000000E-03 0. -1.
        -11    1    4    4    0    0  0.62679881958E+01 -0.68600334893E+01 -0.34908579236E+02  0.36124183590E+02  0.51100000000E-03 0.  1.
        -12    1    4    4    0    0 -0.24415308923E+01 -0.13711767567E+01 -0.53845161849E+01  0.60691196513E+01  0.00000000000E+00 0.  1.
</event>
<event>
 8    1  0.5331800E-011  0.9118800E+02  0.7816164E-02  0.1184000E+00
        -11   -1    0    0    0    0  0.00000000000E+00  0.00000000000E+00  0.45593999997E+02  0.45594000000E+02  0.51100000000E-03 0. -1.
         11   -1    0    0    0    0 -0.00000000000E+00 -0.00000000000E+00 -0.45593999997E+02  0.45594000000E+02  0.51100000000E-03 0.  1.
         23    2    1    2    0    0 -0.17763568394E-14  0.17763568394E-14  0.00000000000E+00  0.91188000000E+02  0.91188000000E+02 0.  0.
    9900012    2    3    3    0    0 -0.48497246378E+01 -0.11824888791E+02 -0.41476206778E+02  0.47787267832E+02  0.19999985355E+02 0.  0.
         12    1    3    3    0    0  0.48497246378E+01  0.11824888791E+02  0.41476206778E+02  0.43400732168E+02  0.00000000000E+00 0. -1.
         11    1    4    4    0    0  0.43260742175E+01 -0.10545583960E+02 -0.18151978157E+02  0.21434051658E+02  0.51100000000E-03 0. -1.
        -11    1    4    4    0    0 -0.13043294505E+01 -0.30432285055E+01 -0.12008283703E+02  0.12456379603E+02  0.51100000000E-03 0.  1.
         12    1    4    4    0    0 -0.78714694047E+01  0.17639236744E+01 -0.11315944918E+02  0.13896836572E+02  0.00000000000E+00 0. -1.
</event>
<event>
 8    1  0.5331800E-011  0.9118800E+02  0.7816164E-02  0.1184000E+00
        -11   -1    0    0    0    0  0.00000000000E+00  0.00000000000E+00  0.45593999997E+02  0.45594000000E+02  0.51100000000E-03 0. -1.
         11   -1    0    0    0    0 -0.00000000000E+00 -0.00000000000E+00 -0.45593999997E+02  0.45594000000E+02  0.51100000000E-03 0.  1.
         23    2    1    2    0    0  0.00000000000E+00 -0.71054273576E-14 -0.35527136788E-14  0.91188000000E+02  0.91188000000E+02 0.  0.
    9900012    2    3    3    0    0  0.76378290496E+01 -0.38052686423E+02 -0.19423696931E+02  0.47787269833E+02  0.19999994475E+02 0.  0.
         12    1    3    3    0    0 -0.76378290496E+01  0.38052686423E+02  0.19423696931E+02  0.43400730167E+02  0.00000000000E+00 0. -1.
         11    1    4    4    0    0 -0.92338596464E+00 -0.89280401758E+01  0.46791977614E+00  0.89878524798E+01  0.51100000000E-03 0. -1.
        -11    1    4    4    0    0  0.10403604117E+02 -0.23636175388E+02 -0.10736655780E+02  0.27967472950E+02  0.51100000000E-03 0.  1.
        -12    1    4    4    0    0 -0.18423891025E+01 -0.54884708589E+01 -0.91549609270E+01  0.10831944403E+02  0.00000000000E+00 0.  1.
</event>
<event>
 8    1  0.5331800E-011  0.9118800E+02  0.7816164E-02  0.1184000E+00
        -11   -1    0    0    0    0  0.00000000000E+00  0.00000000000E+00  0.45593999997E+02  0.45594000000E+02  0.51100000000E-03 0. -1.
         11   -1    0    0    0    0 -0.00000000000E+00 -0.00000000000E+00 -0.45593999997E+02  0.45594000000E+02  0.51100000000E-03 0.  1.
         23    2    1    2    0    0  0.00000000000E+00  0.17763568394E-14  0.00000000000E+00  0.91188000000E+02  0.91188000000E+02 0.  0.
    9900012    2    3    3    0    0  0.20016290669E+02  0.10780378252E+02  0.36969646850E+02  0.47787271485E+02  0.20000002011E+02 0.  0.
        -12    1    3    3    0    0 -0.20016290669E+02 -0.10780378252E+02 -0.36969646850E+02  0.43400728515E+02  0.00000000000E+00 0.  1.
         11    1    4    4    0    0  0.62975030832E+00  0.31136173958E+01  0.40683472079E+01  0.51616516739E+01  0.51100000000E-03 0. -1.
        -11    1    4    4    0    0  0.25612423121E+01  0.96224559423E+01  0.97190613288E+01  0.13914444794E+02  0.51100000000E-03 0.  1.
        -12    1    4    4    0    0  0.16825298049E+02 -0.19556950862E+01  0.23182238313E+02  0.28711175018E+02  0.00000000000E+00 0.  1.
</event>
<event>
 8    1  0.5331800E-011  0.9118800E+02  0.7816164E-02  0.1184000E+00
        -11   -1    0    0    0    0  0.00000000000E+00  0.00000000000E+00  0.45593999997E+02  0.45594000000E+02  0.51100000000E-03 0.  1.
         11   -1    0    0    0    0 -0.00000000000E+00 -0.00000000000E+00 -0.45593999997E+02  0.45594000000E+02  0.51100000000E-03 0. -1.
         23    2    1    2    0    0  0.00000000000E+00  0.00000000000E+00  0.93154650660E-15  0.91188000000E+02  0.91188000000E+02 0.  0.
    9900012    2    3    3    0    0 -0.39600309197E+02 -0.17760577322E+02  0.10521299656E-01  0.47787277586E+02  0.20000029826E+02 0.  0.
        -12    1    3    3    0    0  0.39600309197E+02  0.17760577322E+02 -0.10521299656E-01  0.43400722414E+02  0.00000000000E+00 0.  1.
         11    1    4    4    0    0 -0.18282416717E+01 -0.14923624432E+01 -0.40570728788E+01  0.46935545034E+01  0.51100000000E-03 0. -1.
        -11    1    4    4    0    0 -0.36177002325E+02 -0.17659176180E+02  0.53626485135E+01  0.40612559632E+02  0.51100000000E-03 0.  1.
        -12    1    4    4    0    0 -0.15950652012E+01  0.13909613009E+01 -0.12950543351E+01  0.24811634504E+01  0.00000000000E+00 0.  1.
</event>
<event>
 8    1  0.5331800E-011  0.9118800E+02  0.7816164E-02  0.1184000E+00
        -11   -1    0    0    0    0  0.00000000000E+00  0.00000000000E+00  0.45593999997E+02  0.45594000000E+02  0.51100000000E-03 0. -1.
         11   -1    0    0    0    0 -0.00000000000E+00 -0.00000000000E+00 -0.45593999997E+02  0.45594000000E+02  0.51100000000E-03 0.  1.
         23    2    1    2    0    0 -0.17763568394E-14  0.00000000000E+00  0.00000000000E+00  0.91188000000E+02  0.91188000000E+02 0.  0.
    9900012    2    3    3    0    0  0.94893705828E+01 -0.23972019293E+02 -0.34912998066E+02  0.47787270778E+02  0.19999998784E+02 0.  0.
         12    1    3    3    0    0 -0.94893705828E+01  0.23972019293E+02  0.34912998066E+02  0.43400729222E+02  0.00000000000E+00 0. -1.
         11    1    4    4    0    0 -0.96761530614E+00  0.10408788156E+00 -0.24356563347E+01  0.26228869037E+01  0.51100000000E-03 0. -1.
        -11    1    4    4    0    0  0.90720297273E+01 -0.72648521194E+01 -0.23114323674E+02  0.25871833311E+02  0.51100000000E-03 0.  1.
        -12    1    4    4    0    0  0.13849561617E+01 -0.16811255055E+02 -0.93630180578E+01  0.19292550563E+02  0.00000000000E+00 0.  1.
</event>
<event>
 8    1  0.5331800E-011  0.9118800E+02  0.7816164E-02  0.1184000E+00
        -11   -1    0    0    0    0  0.00000000000E+00  0.00000000000E+00  0.45593999997E+02  0.45594000000E+02  0.51100000000E-03 0. -1.
         11   -1    0    0    0    0 -0.00000000000E+00 -0.00000000000E+00 -0.45593999997E+02  0.45594000000E+02  0.51100000000E-03 0.  1.
         23    2    1    2    0    0 -0.17763568394E-14  0.00000000000E+00  0.00000000000E+00  0.91188000000E+02  0.91188000000E+02 0.  0.
    9900012    2    3    3    0    0 -0.98660741634E+01 -0.20103132354E+02 -0.37177248737E+02  0.47787272201E+02  0.20000005272E+02 0.  0.
         12    1    3    3    0    0  0.98660741634E+01  0.20103132354E+02  0.37177248737E+02  0.43400727799E+02  0.00000000000E+00 0. -1.
         11    1    4    4    0    0  0.34372016310E+01 -0.82072876848E+01 -0.75470727055E+01  0.11667571850E+02  0.51100000000E-03 0. -1.
        -11    1    4    4    0    0 -0.13669652811E+02 -0.12912876213E+02 -0.24541245785E+02  0.30917220526E+02  0.51100000000E-03 0.  1.
         12    1    4    4    0    0  0.36637701638E+00  0.10170315438E+01 -0.50889302462E+01  0.52024798251E+01  0.00000000000E+00 0. -1.
</event>
<event>
 8    1  0.5331800E-011  0.9118800E+02  0.7816164E-02  0.1184000E+00
        -11   -1    0    0    0    0  0.00000000000E+00  0.00000000000E+00  0.45593999997E+02  0.45594000000E+02  0.51100000000E-03 0.  1.
         11   -1    0    0    0    0 -0.00000000000E+00 -0.00000000000E+00 -0.45593999997E+02  0.45594000000E+02  0.51100000000E-03 0. -1.
         23    2    1    2    0    0  0.00000000000E+00 -0.71054273576E-14 -0.66613381478E-15  0.91188000000E+02  0.91188000000E+02 0.  0.
    9900012    2    3    3    0    0 -0.22908705680E+02 -0.36812787820E+02 -0.19059841415E+01  0.47787275138E+02  0.20000018663E+02 0.  0.
         12    1    3    3    0    0  0.22908705680E+02  0.36812787820E+02  0.19059841415E+01  0.43400724862E+02  0.00000000000E+00 0. -1.
         11    1    4    4    0    0 -0.11147007562E+02 -0.22785541489E+02  0.22784087227E+01  0.25468172787E+02  0.51100000000E-03 0. -1.
        -11    1    4    4    0    0 -0.36178154887E+01 -0.87874732600E+01  0.33215963543E+01  0.10066840508E+02  0.51100000000E-03 0.  1.
         12    1    4    4    0    0 -0.81438826293E+01 -0.52397730707E+01 -0.75059892186E+01  0.12252261843E+02  0.00000000000E+00 0. -1.
</event>
<event>
 8    1  0.5331800E-011  0.9118800E+02  0.7816164E-02  0.1184000E+00
        -11   -1    0    0    0    0  0.00000000000E+00  0.00000000000E+00  0.45593999997E+02  0.45594000000E+02  0.51100000000E-03 0. -1.
         11   -1    0    0    0    0 -0.00000000000E+00 -0.00000000000E+00 -0.45593999997E+02  0.45594000000E+02  0.51100000000E-03 0.  1.
         23    2    1    2    0    0  0.00000000000E+00  0.88817841970E-15  0.35527136788E-14  0.91188000000E+02  0.91188000000E+02 0.  0.
    9900012    2    3    3    0    0 -0.32220791970E+02  0.67650587029E+01  0.28278574395E+02  0.47787271616E+02  0.20000002607E+02 0.  0.
        -12    1    3    3    0    0  0.32220791970E+02 -0.67650587029E+01 -0.28278574395E+02  0.43400728384E+02  0.00000000000E+00 0.  1.
         11    1    4    4    0    0 -0.14160719445E+02 -0.19043478774E+00  0.88637837565E+01  0.16707151264E+02  0.51100000000E-03 0. -1.
        -11    1    4    4    0    0 -0.15054449378E+02  0.11322362321E+02  0.13748991519E+02  0.23320958442E+02  0.51100000000E-03 0.  1.
        -12    1    4    4    0    0 -0.30056231461E+01 -0.43668688304E+01  0.56657991199E+01  0.77591619100E+01  0.00000000000E+00 0.  1.
</event>
<event>
 8    1  0.5331800E-011  0.9118800E+02  0.7816164E-02  0.1184000E+00
        -11   -1    0    0    0    0  0.00000000000E+00  0.00000000000E+00  0.45593999997E+02  0.45594000000E+02  0.51100000000E-03 0. -1.
         11   -1    0    0    0    0 -0.00000000000E+00 -0.00000000000E+00 -0.45593999997E+02  0.45594000000E+02  0.51100000000E-03 0.  1.
         23    2    1    2    0    0 -0.88817841970E-15  0.17763568394E-14  0.00000000000E+00  0.91188000000E+02  0.91188000000E+02 0.  0.
    9900012    2    3    3    0    0  0.42646590722E+01 -0.10299155257E+02 -0.41944764887E+02  0.47787271694E+02  0.20000002962E+02 0.  0.
         12    1    3    3    0    0 -0.42646590722E+01  0.10299155257E+02  0.41944764887E+02  0.43400728306E+02  0.00000000000E+00 0. -1.
         11    1    4    4    0    0 -0.17832647163E+01  0.40492492610E+01 -0.31606815851E+01  0.54374958363E+01  0.51100000000E-03 0. -1.
        -11    1    4    4    0    0  0.33871422984E+01 -0.85333565028E+01 -0.30692731314E+02  0.32036458324E+02  0.51100000000E-03 0.  1.
         12    1    4    4    0    0  0.26607814901E+01 -0.58150480156E+01 -0.80913519881E+01  0.10313317534E+02  0.00000000000E+00 0. -1.
</event>
<event>
 8    1  0.5331800E-011  0.9118800E+02  0.7816164E-02  0.1184000E+00
        -11   -1    0    0    0    0  0.00000000000E+00  0.00000000000E+00  0.45593999997E+02  0.45594000000E+02  0.51100000000E-03 0. -1.
         11   -1    0    0    0    0 -0.00000000000E+00 -0.00000000000E+00 -0.45593999997E+02  0.45594000000E+02  0.51100000000E-03 0.  1.
         23    2    1    2    0    0  0.35527136788E-14  0.17763568394E-14  0.00000000000E+00  0.91188000000E+02  0.91188000000E+02 0.  0.
    9900012    2    3    3    0    0  0.24483757438E+02  0.13218518131E+02 -0.33308255102E+02  0.47787268926E+02  0.19999990340E+02 0.  0.
         12    1    3    3    0    0 -0.24483757438E+02 -0.13218518131E+02  0.33308255102E+02  0.43400731074E+02  0.00000000000E+00 0. -1.
         11    1    4    4    0    0  0.19617160909E+02  0.11946039929E+02 -0.18994970349E+02  0.29805197046E+02  0.51100000000E-03 0. -1.
        -11    1    4    4    0    0  0.44174849480E+01 -0.32035379085E+01 -0.11354728430E+02  0.12597884202E+02  0.51100000000E-03 0.  1.
         12    1    4    4    0    0  0.44911158021E+00  0.44760161104E+01 -0.29585563234E+01  0.53841876778E+01  0.00000000000E+00 0. -1.
</event>
<event>
 8    1  0.5331800E-011  0.9118800E+02  0.7816164E-02  0.1184000E+00
        -11   -1    0    0    0    0  0.00000000000E+00  0.00000000000E+00  0.45593999997E+02  0.45594000000E+02  0.51100000000E-03 0.  1.
         11   -1    0    0    0    0 -0.00000000000E+00 -0.00000000000E+00 -0.45593999997E+02  0.45594000000E+02  0.51100000000E-03 0. -1.
         23    2    1    2    0    0  0.00000000000E+00  0.00000000000E+00  0.35527136788E-14  0.91188000000E+02  0.91188000000E+02 0.  0.
    9900012    2    3    3    0    0 -0.33381848798E+02 -0.11660741630E+02  0.25165510069E+02  0.47787267039E+02  0.19999981737E+02 0.  0.
        -12    1    3    3    0    0  0.33381848798E+02  0.11660741630E+02 -0.25165510069E+02  0.43400732961E+02  0.00000000000E+00 0.  1.
         11    1    4    4    0    0 -0.30928680679E+02 -0.10597245770E+02  0.21518947222E+02  0.39140132809E+02  0.51100000000E-03 0. -1.
        -11    1    4    4    0    0 -0.88731769793E+00 -0.42198008588E+01  0.21628784672E+01  0.48241160340E+01  0.51100000000E-03 0.  1.
         12    1    4    4    0    0 -0.15658504205E+01  0.31563049993E+01  0.14836843803E+01  0.38230181962E+01  0.00000000000E+00 0. -1.
</event>
<event>
 8    1  0.5331800E-011  0.9118800E+02  0.7816164E-02  0.1184000E+00
        -11   -1    0    0    0    0  0.00000000000E+00  0.00000000000E+00  0.45593999997E+02  0.45594000000E+02  0.51100000000E-03 0. -1.
         11   -1    0    0    0    0 -0.00000000000E+00 -0.00000000000E+00 -0.45593999997E+02  0.45594000000E+02  0.51100000000E-03 0.  1.
         23    2    1    2    0    0  0.17763568394E-14  0.00000000000E+00  0.00000000000E+00  0.91188000000E+02  0.91188000000E+02 0.  0.
    9900012    2    3    3    0    0  0.10795064096E+02  0.49739322899E+01  0.41741461706E+02  0.47787273777E+02  0.20000012460E+02 0.  0.
        -12    1    3    3    0    0 -0.10795064096E+02 -0.49739322899E+01 -0.41741461706E+02  0.43400726223E+02  0.00000000000E+00 0.  1.
         11    1    4    4    0    0  0.10599738485E+02  0.23655655855E+01  0.12771141511E+02  0.16764617868E+02  0.51100000000E-03 0.  1.
        -11    1    4    4    0    0 -0.26722302901E+01  0.57179143346E+01  0.21823903704E+02  0.22718233475E+02  0.51100000000E-03 0. -1.
        -12    1    4    4    0    0  0.28675559008E+01 -0.31095476303E+01  0.71464164909E+01  0.83044224345E+01  0.00000000000E+00 0.  1.
</event>
<event>
 8    1  0.5331800E-011  0.9118800E+02  0.7816164E-02  0.1184000E+00
        -11   -1    0    0    0    0  0.00000000000E+00  0.00000000000E+00  0.45593999997E+02  0.45594000000E+02  0.51100000000E-03 0. -1.
         11   -1    0    0    0    0 -0.00000000000E+00 -0.00000000000E+00 -0.45593999997E+02  0.45594000000E+02  0.51100000000E-03 0.  1.
         23    2    1    2    0    0  0.35527136788E-14  0.00000000000E+00  0.00000000000E+00  0.91188000000E+02  0.91188000000E+02 0.  0.
    9900012    2    3    3    0    0 -0.22953534591E+02 -0.35412811885E+02  0.10133660866E+02  0.47787273296E+02  0.20000010268E+02 0.  0.
         12    1    3    3    0    0  0.22953534591E+02  0.35412811885E+02 -0.10133660866E+02  0.43400726704E+02  0.00000000000E+00 0. -1.
         11    1    4    4    0    0 -0.28217350592E+01 -0.20606101938E+02  0.87279824137E+01  0.22555516024E+02  0.51100000000E-03 0. -1.
        -11    1    4    4    0    0 -0.14704651878E+02 -0.98588243689E+01 -0.24070248016E+00  0.17705398689E+02  0.51100000000E-03 0.  1.
         12    1    4    4    0    0 -0.54271476537E+01 -0.49478855783E+01  0.16463809324E+01  0.75263585834E+01  0.00000000000E+00 0. -1.
</event>
<event>
 8    1  0.5331800E-011  0.9118800E+02  0.7816164E-02  0.1184000E+00
        -11   -1    0    0    0    0  0.00000000000E+00  0.00000000000E+00  0.45593999997E+02  0.45594000000E+02  0.51100000000E-03 0. -1.
         11   -1    0    0    0    0 -0.00000000000E+00 -0.00000000000E+00 -0.45593999997E+02  0.45594000000E+02  0.51100000000E-03 0.  1.
         23    2    1    2    0    0  0.00000000000E+00  0.00000000000E+00  0.00000000000E+00  0.91188000000E+02  0.91188000000E+02 0.  0.
    9900012    2    3    3    0    0 -0.84981766313E+01  0.13559965054E+02 -0.40342675144E+02  0.47787273092E+02  0.20000009337E+02 0.  0.
         12    1    3    3    0    0  0.84981766313E+01 -0.13559965054E+02  0.40342675144E+02  0.43400726908E+02  0.00000000000E+00 0. -1.
         11    1    4    4    0    0 -0.87863458728E+00 -0.41937560901E+01 -0.44022361130E+01  0.61432297643E+01  0.51100000000E-03 0. -1.
        -11    1    4    4    0    0  0.12436310747E+01  0.16304190495E+00 -0.31735596530E+01  0.34124305187E+01  0.51100000000E-03 0.  1.
         12    1    4    4    0    0 -0.88631731187E+01  0.17590679239E+02 -0.32766879378E+02  0.38231612809E+02  0.00000000000E+00 0. -1.
</event>
<event>
 8    1  0.5331800E-011  0.9118800E+02  0.7816164E-02  0.1184000E+00
        -11   -1    0    0    0    0  0.00000000000E+00  0.00000000000E+00  0.45593999997E+02  0.45594000000E+02  0.51100000000E-03 0. -1.
         11   -1    0    0    0    0 -0.00000000000E+00 -0.00000000000E+00 -0.45593999997E+02  0.45594000000E+02  0.51100000000E-03 0.  1.
         23    2    1    2    0    0  0.00000000000E+00  0.00000000000E+00  0.00000000000E+00  0.91188000000E+02  0.91188000000E+02 0.  0.
    9900012    2    3    3    0    0  0.23918467677E+02 -0.15058144778E+01 -0.36183738444E+02  0.47787268428E+02  0.19999988068E+02 0.  0.
         12    1    3    3    0    0 -0.23918467677E+02  0.15058144778E+01  0.36183738444E+02  0.43400731572E+02  0.00000000000E+00 0. -1.
         11    1    4    4    0    0  0.11777386187E+02 -0.64023773737E+01 -0.20566635569E+02  0.24549618334E+02  0.51100000000E-03 0. -1.
        -11    1    4    4    0    0  0.12972438699E+02  0.71270058944E+01 -0.12996830204E+02  0.19697613420E+02  0.51100000000E-03 0.  1.
         12    1    4    4    0    0 -0.83135721039E+00 -0.22304429986E+01 -0.26202726710E+01  0.35400366738E+01  0.00000000000E+00 0. -1.
</event>
<event>
 8    1  0.5331800E-011  0.9118800E+02  0.7816164E-02  0.1184000E+00
        -11   -1    0    0    0    0  0.00000000000E+00  0.00000000000E+00  0.45593999997E+02  0.45594000000E+02  0.51100000000E-03 0. -1.
         11   -1    0    0    0    0 -0.00000000000E+00 -0.00000000000E+00 -0.45593999997E+02  0.45594000000E+02  0.51100000000E-03 0.  1.
         23    2    1    2    0    0  0.00000000000E+00  0.00000000000E+00  0.00000000000E+00  0.91188000000E+02  0.91188000000E+02 0.  0.
    9900012    2    3    3    0    0 -0.15328349080E+02  0.58180982947E+01  0.40184728208E+02  0.47787297996E+02  0.20000122883E+02 0.  0.
        -12    1    3    3    0    0  0.15328349080E+02 -0.58180982947E+01 -0.40184728208E+02  0.43400702004E+02  0.00000000000E+00 0.  1.
         11    1    4    4    0    0 -0.12966547045E+02  0.82955530027E+01  0.15560410827E+02  0.21887757475E+02  0.51100000000E-03 0. -1.
        -11    1    4    4    0    0 -0.32236885043E+01 -0.46654766873E+01  0.17017280318E+02  0.17937298291E+02  0.51100000000E-03 0.  1.
         12    1    4    4    0    0  0.86188646923E+00  0.21880219793E+01  0.76070370621E+01  0.79622422302E+01  0.00000000000E+00 0. -1.
</event>
<event>
 8    1  0.5331800E-011  0.9118800E+02  0.7816164E-02  0.1184000E+00
        -11   -1    0    0    0    0  0.00000000000E+00  0.00000000000E+00  0.45593999997E+02  0.45594000000E+02  0.51100000000E-03 0. -1.
         11   -1    0    0    0    0 -0.00000000000E+00 -0.00000000000E+00 -0.45593999997E+02  0.45594000000E+02  0.51100000000E-03 0.  1.
         23    2    1    2    0    0  0.00000000000E+00  0.17763568394E-14  0.00000000000E+00  0.91188000000E+02  0.91188000000E+02 0.  0.
    9900012    2    3    3    0    0  0.21013234923E+02  0.14167787937E+02  0.35232693130E+02  0.47787252055E+02  0.19999913420E+02 0.  0.
        -12    1    3    3    0    0 -0.21013234923E+02 -0.14167787937E+02 -0.35232693130E+02  0.43400747945E+02  0.00000000000E+00 0.  1.
         11    1    4    4    0    0  0.10812932417E+02  0.88528792674E+01  0.45069746345E+01  0.14683521356E+02  0.51100000000E-03 0. -1.
        -11    1    4    4    0    0  0.25135511172E+01  0.48973823146E-01  0.11063381890E+02  0.11345428893E+02  0.51100000000E-03 0.  1.
         12    1    4    4    0    0  0.76867513891E+01  0.52659348466E+01  0.19662336606E+02  0.21758301807E+02  0.00000000000E+00 0. -1.
</event>
<event>
 8    1  0.5331800E-011  0.9118800E+02  0.7816164E-02  0.1184000E+00
        -11   -1    0    0    0    0  0.00000000000E+00  0.00000000000E+00  0.45593999997E+02  0.45594000000E+02  0.51100000000E-03 0. -1.
         11   -1    0    0    0    0 -0.00000000000E+00 -0.00000000000E+00 -0.45593999997E+02  0.45594000000E+02  0.51100000000E-03 0.  1.
         23    2    1    2    0    0  0.00000000000E+00  0.00000000000E+00  0.35527136788E-14  0.91188000000E+02  0.91188000000E+02 0.  0.
    9900012    2    3    3    0    0  0.29907619060E+01 -0.33799457344E+02 -0.27060583442E+02  0.47787272474E+02  0.20000006520E+02 0.  0.
         12    1    3    3    0    0 -0.29907619060E+01  0.33799457344E+02  0.27060583442E+02  0.43400727526E+02  0.00000000000E+00 0. -1.
         11    1    4    4    0    0  0.68564265950E+00  0.55099352523E+00  0.16107425134E+01  0.18352633127E+01  0.51100000000E-03 0. -1.
        -11    1    4    4    0    0  0.63050323154E+01 -0.21323581218E+02 -0.18907263874E+02  0.29187894338E+02  0.51100000000E-03 0.  1.
         12    1    4    4    0    0 -0.39999130689E+01 -0.13026869652E+02 -0.97640620814E+01  0.16764114823E+02  0.00000000000E+00 0. -1.
</event>
<event>
 8    1  0.5331800E-011  0.9118800E+02  0.7816164E-02  0.1184000E+00
        -11   -1    0    0    0    0  0.00000000000E+00  0.00000000000E+00  0.45593999997E+02  0.45594000000E+02  0.51100000000E-03 0. -1.
         11   -1    0    0    0    0 -0.00000000000E+00 -0.00000000000E+00 -0.45593999997E+02  0.45594000000E+02  0.51100000000E-03 0.  1.
         23    2    1    2    0    0  0.00000000000E+00  0.00000000000E+00  0.00000000000E+00  0.91188000000E+02  0.91188000000E+02 0.  0.
    9900012    2    3    3    0    0  0.18975414059E+02  0.13140857570E+02 -0.36754238972E+02  0.47787279283E+02  0.20000037562E+02 0.  0.
         12    1    3    3    0    0 -0.18975414059E+02 -0.13140857570E+02  0.36754238972E+02  0.43400720717E+02  0.00000000000E+00 0. -1.
         11    1    4    4    0    0  0.17632513894E+02  0.12930566647E+02 -0.29211867042E+02  0.36488878804E+02  0.51100000000E-03 0.  1.
        -11    1    4    4    0    0  0.41144744870E+01 -0.56023708284E+00 -0.73166682313E+01  0.84128711010E+01  0.51100000000E-03 0. -1.
         12    1    4    4    0    0 -0.27715743223E+01  0.77052800571E+00 -0.22570369898E+00  0.28855293780E+01  0.00000000000E+00 0. -1.
</event>
<event>
 8    1  0.5331800E-011  0.9118800E+02  0.7816164E-02  0.1184000E+00
        -11   -1    0    0    0    0  0.00000000000E+00  0.00000000000E+00  0.45593999997E+02  0.45594000000E+02  0.51100000000E-03 0. -1.
         11   -1    0    0    0    0 -0.00000000000E+00 -0.00000000000E+00 -0.45593999997E+02  0.45594000000E+02  0.51100000000E-03 0.  1.
         23    2    1    2    0    0  0.44408920985E-15  0.00000000000E+00  0.00000000000E+00  0.91188000000E+02  0.91188000000E+02 0.  0.
    9900012    2    3    3    0    0 -0.23508742361E+01 -0.21570446304E+02  0.37587396316E+02  0.47787272757E+02  0.20000007808E+02 0.  0.
        -12    1    3    3    0    0  0.23508742361E+01  0.21570446304E+02 -0.37587396316E+02  0.43400727243E+02  0.00000000000E+00 0.  1.
         11    1    4    4    0    0 -0.89123528618E+01 -0.89156350895E+01  0.17467969086E+02  0.21541785600E+02  0.51100000000E-03 0. -1.
        -11    1    4    4    0    0  0.84345859787E+01 -0.72352754687E+01  0.13615492719E+02  0.17574785745E+02  0.51100000000E-03 0.  1.
        -12    1    4    4    0    0 -0.18731073530E+01 -0.54195357455E+01  0.65039345109E+01  0.86707014120E+01  0.00000000000E+00 0.  1.
</event>
<event>
 8    1  0.5331800E-011  0.9118800E+02  0.7816164E-02  0.1184000E+00
        -11   -1    0    0    0    0  0.00000000000E+00  0.00000000000E+00  0.45593999997E+02  0.45594000000E+02  0.51100000000E-03 0. -1.
         11   -1    0    0    0    0 -0.00000000000E+00 -0.00000000000E+00 -0.45593999997E+02  0.45594000000E+02  0.51100000000E-03 0.  1.
         23    2    1    2    0    0  0.00000000000E+00 -0.11102230246E-15  0.00000000000E+00  0.91188000000E+02  0.91188000000E+02 0.  0.
    9900012    2    3    3    0    0  0.71766565375E+01 -0.63041473014E+00 -0.42798616272E+02  0.47787269861E+02  0.19999994605E+02 0.  0.
         12    1    3    3    0    0 -0.71766565375E+01  0.63041473014E+00  0.42798616272E+02  0.43400730139E+02  0.00000000000E+00 0. -1.
         11    1    4    4    0    0 -0.27976035343E+01 -0.75871842177E+01 -0.13102231248E+02  0.15396766343E+02  0.51100000000E-03 0. -1.
        -11    1    4    4    0    0  0.64784525074E+01  0.58667547967E+01 -0.24664379783E+02  0.26167170062E+02  0.51100000000E-03 0.  1.
         12    1    4    4    0    0  0.34958075644E+01  0.10900146908E+01 -0.50320052412E+01  0.62233334557E+01  0.00000000000E+00 0. -1.
</event>
<event>
 8    1  0.5331800E-011  0.9118800E+02  0.7816164E-02  0.1184000E+00
        -11   -1    0    0    0    0  0.00000000000E+00  0.00000000000E+00  0.45593999997E+02  0.45594000000E+02  0.51100000000E-03 0. -1.
         11   -1    0    0    0    0 -0.00000000000E+00 -0.00000000000E+00 -0.45593999997E+02  0.45594000000E+02  0.51100000000E-03 0.  1.
         23    2    1    2    0    0  0.00000000000E+00  0.35527136788E-14  0.00000000000E+00  0.91188000000E+02  0.91188000000E+02 0.  0.
    9900012    2    3    3    0    0  0.12600347999E+02 -0.22971587823E+02 -0.34600010849E+02  0.47787269965E+02  0.19999995080E+02 0.  0.
         12    1    3    3    0    0 -0.12600347999E+02  0.22971587823E+02  0.34600010849E+02  0.43400730035E+02  0.00000000000E+00 0. -1.
         11    1    4    4    0    0 -0.20703551538E+01 -0.85556602051E+01 -0.48498295809E+01  0.10050200955E+02  0.51100000000E-03 0. -1.
        -11    1    4    4    0    0  0.76505991397E+01 -0.61341974639E+00 -0.86464106981E+01  0.11561503760E+02  0.51100000000E-03 0.  1.
        -12    1    4    4    0    0  0.70201040129E+01 -0.13802507871E+02 -0.21103770570E+02  0.26175565250E+02  0.00000000000E+00 0.  1.
</event>
<event>
 8    1  0.5331800E-011  0.9118800E+02  0.7816164E-02  0.1184000E+00
        -11   -1    0    0    0    0  0.00000000000E+00  0.00000000000E+00  0.45593999997E+02  0.45594000000E+02  0.51100000000E-03 0. -1.
         11   -1    0    0    0    0 -0.00000000000E+00 -0.00000000000E+00 -0.45593999997E+02  0.45594000000E+02  0.51100000000E-03 0.  1.
         23    2    1    2    0    0  0.00000000000E+00  0.00000000000E+00  0.00000000000E+00  0.91188000000E+02  0.91188000000E+02 0.  0.
    9900012    2    3    3    0    0 -0.21136583334E+01  0.29925450483E+01  0.43245816831E+02  0.47787267854E+02  0.19999985453E+02 0.  0.
        -12    1    3    3    0    0  0.21136583334E+01 -0.29925450483E+01 -0.43245816831E+02  0.43400732146E+02  0.00000000000E+00 0.  1.
         11    1    4    4    0    0  0.30839541997E+01  0.14581453231E+01  0.29711564891E+02  0.29906755922E+02  0.51100000000E-03 0. -1.
        -11    1    4    4    0    0  0.96080609451E+00 -0.33044906394E+00 -0.13356071665E+01  0.16781512743E+01  0.51100000000E-03 0.  1.
         12    1    4    4    0    0 -0.61584186276E+01  0.18648487891E+01  0.14869859107E+02  0.16202360657E+02  0.00000000000E+00 0. -1.
</event>
<event>
 8    1  0.5331800E-011  0.9118800E+02  0.7816164E-02  0.1184000E+00
        -11   -1    0    0    0    0  0.00000000000E+00  0.00000000000E+00  0.45593999997E+02  0.45594000000E+02  0.51100000000E-03 0. -1.
         11   -1    0    0    0    0 -0.00000000000E+00 -0.00000000000E+00 -0.45593999997E+02  0.45594000000E+02  0.51100000000E-03 0.  1.
         23    2    1    2    0    0  0.00000000000E+00  0.00000000000E+00 -0.35527136788E-14  0.91188000000E+02  0.91188000000E+02 0.  0.
    9900012    2    3    3    0    0 -0.29953248215E+01 -0.33244302726E+02  0.27739279922E+02  0.47787270915E+02  0.19999999409E+02 0.  0.
        -12    1    3    3    0    0  0.29953248215E+01  0.33244302726E+02 -0.27739279922E+02  0.43400729085E+02  0.00000000000E+00 0.  1.
         11    1    4    4    0    0 -0.21304314723E+01 -0.31526014495E+02  0.23630394293E+02  0.39456607341E+02  0.51100000000E-03 0. -1.
        -11    1    4    4    0    0  0.74949911525E+00 -0.17126454494E+01 -0.15609545888E+01  0.24354635798E+01  0.51100000000E-03 0.  1.
         12    1    4    4    0    0 -0.16143924645E+01 -0.56427821026E-02  0.56698402177E+01  0.58951999936E+01  0.00000000000E+00 0. -1.
</event>
<event>
 8    1  0.5331800E-011  0.9118800E+02  0.7816164E-02  0.1184000E+00
        -11   -1    0    0    0    0  0.00000000000E+00  0.00000000000E+00  0.45593999997E+02  0.45594000000E+02  0.51100000000E-03 0. -1.
         11   -1    0    0    0    0 -0.00000000000E+00 -0.00000000000E+00 -0.45593999997E+02  0.45594000000E+02  0.51100000000E-03 0.  1.
         23    2    1    2    0    0  0.00000000000E+00  0.00000000000E+00 -0.44408920985E-15  0.91188000000E+02  0.91188000000E+02 0.  0.
    9900012    2    3    3    0    0  0.43316004824E+02  0.16743891170E+01 -0.21316067729E+01  0.47787267285E+02  0.19999982858E+02 0.  0.
        -12    1    3    3    0    0 -0.43316004824E+02 -0.16743891170E+01  0.21316067729E+01  0.43400732715E+02  0.00000000000E+00 0.  1.
         11    1    4    4    0    0  0.33555468516E+02  0.44511140933E+01 -0.40058928124E+01  0.34085613703E+02  0.51100000000E-03 0. -1.
        -11    1    4    4    0    0  0.10926621711E+02 -0.41695385924E+01  0.11704343902E+01  0.11753553974E+02  0.51100000000E-03 0.  1.
         12    1    4    4    0    0 -0.11660854040E+01  0.13928136160E+01  0.70385164927E+00  0.19480996079E+01  0.00000000000E+00 0. -1.
</event>
<event>
 8    1  0.5331800E-011  0.9118800E+02  0.7816164E-02  0.1184000E+00
        -11   -1    0    0    0    0  0.00000000000E+00  0.00000000000E+00  0.45593999997E+02  0.45594000000E+02  0.51100000000E-03 0. -1.
         11   -1    0    0    0    0 -0.00000000000E+00 -0.00000000000E+00 -0.45593999997E+02  0.45594000000E+02  0.51100000000E-03 0.  1.
         23    2    1    2    0    0  0.00000000000E+00  0.00000000000E+00  0.00000000000E+00  0.91188000000E+02  0.91188000000E+02 0.  0.
    9900012    2    3    3    0    0  0.20335835756E+02 -0.18029188018E+02 -0.33838223999E+02  0.47787271436E+02  0.20000001783E+02 0.  0.
         12    1    3    3    0    0 -0.20335835756E+02  0.18029188018E+02  0.33838223999E+02  0.43400728564E+02  0.00000000000E+00 0. -1.
         11    1    4    4    0    0  0.13402599216E+02 -0.10893189609E+02 -0.11595116989E+02  0.20802355248E+02  0.51100000000E-03 0. -1.
        -11    1    4    4    0    0 -0.30660860855E+01 -0.10638420947E+01 -0.74414968157E+01  0.81184061863E+01  0.51100000000E-03 0.  1.
        -12    1    4    4    0    0  0.99993226255E+01 -0.60721563147E+01 -0.14801610195E+02  0.18866510002E+02  0.00000000000E+00 0.  1.
</event>
<event>
 8    1  0.5331800E-011  0.9118800E+02  0.7816164E-02  0.1184000E+00
        -11   -1    0    0    0    0  0.00000000000E+00  0.00000000000E+00  0.45593999997E+02  0.45594000000E+02  0.51100000000E-03 0. -1.
         11   -1    0    0    0    0 -0.00000000000E+00 -0.00000000000E+00 -0.45593999997E+02  0.45594000000E+02  0.51100000000E-03 0.  1.
         23    2    1    2    0    0  0.00000000000E+00 -0.35527136788E-14  0.00000000000E+00  0.91188000000E+02  0.91188000000E+02 0.  0.
    9900012    2    3    3    0    0 -0.58257785926E+01 -0.20061067243E+02 -0.38042570875E+02  0.47787270583E+02  0.19999997897E+02 0.  0.
         12    1    3    3    0    0  0.58257785926E+01  0.20061067243E+02  0.38042570875E+02  0.43400729417E+02  0.00000000000E+00 0. -1.
         11    1    4    4    0    0  0.39588829655E+01 -0.66427743349E+01 -0.72479284783E+01  0.10598663722E+02  0.51100000000E-03 0. -1.
        -11    1    4    4    0    0 -0.40907319677E+01  0.21389723298E+00 -0.15052380413E+02  0.15599807576E+02  0.51100000000E-03 0.  1.
        -12    1    4    4    0    0 -0.56939295904E+01 -0.13632190141E+02 -0.15742261984E+02  0.21588799285E+02  0.00000000000E+00 0.  1.
</event>
<event>
 8    1  0.5331800E-011  0.9118800E+02  0.7816164E-02  0.1184000E+00
        -11   -1    0    0    0    0  0.00000000000E+00  0.00000000000E+00  0.45593999997E+02  0.45594000000E+02  0.51100000000E-03 0. -1.
         11   -1    0    0    0    0 -0.00000000000E+00 -0.00000000000E+00 -0.45593999997E+02  0.45594000000E+02  0.51100000000E-03 0.  1.
         23    2    1    2    0    0  0.35527136788E-14  0.35527136788E-14 -0.35527136788E-14  0.91188000000E+02  0.91188000000E+02 0.  0.
    9900012    2    3    3    0    0  0.24843219491E+02  0.18210373466E+02  0.30574825621E+02  0.47787271686E+02  0.20000002925E+02 0.  0.
        -12    1    3    3    0    0 -0.24843219491E+02 -0.18210373466E+02 -0.30574825621E+02  0.43400728314E+02  0.00000000000E+00 0.  1.
         11    1    4    4    0    0  0.68123711487E+01  0.82991436051E+01  0.21550471331E+02  0.24077105310E+02  0.51100000000E-03 0. -1.
        -11    1    4    4    0    0  0.15764093276E+02  0.11133723523E+02  0.84676739185E+01  0.21075292125E+02  0.51100000000E-03 0.  1.
        -12    1    4    4    0    0  0.22667550654E+01 -0.12224936622E+01  0.55668037165E+00  0.26348742507E+01  0.00000000000E+00 0.  1.
</event>
<event>
 8    1  0.5331800E-011  0.9118800E+02  0.7816164E-02  0.1184000E+00
        -11   -1    0    0    0    0  0.00000000000E+00  0.00000000000E+00  0.45593999997E+02  0.45594000000E+02  0.51100000000E-03 0. -1.
         11   -1    0    0    0    0 -0.00000000000E+00 -0.00000000000E+00 -0.45593999997E+02  0.45594000000E+02  0.51100000000E-03 0.  1.
         23    2    1    2    0    0 -0.35527136788E-14 -0.44408920985E-15  0.00000000000E+00  0.91188000000E+02  0.91188000000E+02 0.  0.
    9900012    2    3    3    0    0  0.19334922774E+02 -0.21683965013E+01  0.38795392835E+02  0.47787266282E+02  0.19999978287E+02 0.  0.
        -12    1    3    3    0    0 -0.19334922774E+02  0.21683965013E+01 -0.38795392835E+02  0.43400733718E+02  0.00000000000E+00 0.  1.
         11    1    4    4    0    0  0.39380329844E+01 -0.81507587031E+01  0.12529081465E+02  0.15457064852E+02  0.51100000000E-03 0. -1.
        -11    1    4    4    0    0  0.10257699536E+02  0.21080362625E+01  0.86750138526E+01  0.13598532357E+02  0.51100000000E-03 0.  1.
         12    1    4    4    0    0  0.51391902534E+01  0.38743259392E+01  0.17591297517E+02  0.18731669073E+02  0.00000000000E+00 0. -1.
</event>
<event>
 8    1  0.5331800E-011  0.9118800E+02  0.7816164E-02  0.1184000E+00
        -11   -1    0    0    0    0  0.00000000000E+00  0.00000000000E+00  0.45593999997E+02  0.45594000000E+02  0.51100000000E-03 0. -1.
         11   -1    0    0    0    0 -0.00000000000E+00 -0.00000000000E+00 -0.45593999997E+02  0.45594000000E+02  0.51100000000E-03 0.  1.
         23    2    1    2    0    0  0.22204460493E-15  0.00000000000E+00  0.00000000000E+00  0.91188000000E+02  0.91188000000E+02 0.  0.
    9900012    2    3    3    0    0 -0.16418665544E+01 -0.11542013592E+02 -0.41805611024E+02  0.47787275160E+02  0.20000018766E+02 0.  0.
         12    1    3    3    0    0  0.16418665544E+01  0.11542013592E+02  0.41805611024E+02  0.43400724840E+02  0.00000000000E+00 0. -1.
         11    1    4    4    0    0 -0.12196615167E+01 -0.10940436077E+01 -0.31296288095E+00  0.16680682411E+01  0.51100000000E-03 0. -1.
        -11    1    4    4    0    0 -0.43636016800E+01 -0.66041174090E+01 -0.39466997823E+02  0.40252941554E+02  0.51100000000E-03 0.  1.
        -12    1    4    4    0    0  0.39413966423E+01 -0.38438525752E+01 -0.20256503200E+01  0.58662653649E+01  0.00000000000E+00 0.  1.
</event>
<event>
 8    1  0.5331800E-011  0.9118800E+02  0.7816164E-02  0.1184000E+00
        -11   -1    0    0    0    0  0.00000000000E+00  0.00000000000E+00  0.45593999997E+02  0.45594000000E+02  0.51100000000E-03 0. -1.
         11   -1    0    0    0    0 -0.00000000000E+00 -0.00000000000E+00 -0.45593999997E+02  0.45594000000E+02  0.51100000000E-03 0.  1.
         23    2    1    2    0    0  0.00000000000E+00  0.00000000000E+00 -0.35527136788E-14  0.91188000000E+02  0.91188000000E+02 0.  0.
    9900012    2    3    3    0    0  0.30594473607E+02 -0.13208443024E+02 -0.27805371807E+02  0.47787268627E+02  0.19999988976E+02 0.  0.
         12    1    3    3    0    0 -0.30594473607E+02  0.13208443024E+02  0.27805371807E+02  0.43400731373E+02  0.00000000000E+00 0. -1.
         11    1    4    4    0    0  0.51886743494E-01  0.58033009876E-01 -0.83676571857E+00  0.84037919612E+00  0.51100000000E-03 0. -1.
        -11    1    4    4    0    0  0.11883871856E+02 -0.38791662440E+00 -0.19930678226E+02  0.23207947441E+02  0.51100000000E-03 0.  1.
        -12    1    4    4    0    0  0.18658715007E+02 -0.12878559410E+02 -0.70379278626E+01  0.23738941990E+02  0.00000000000E+00 0.  1.
</event>
<event>
 8    1  0.5331800E-011  0.9118800E+02  0.7816164E-02  0.1184000E+00
        -11   -1    0    0    0    0  0.00000000000E+00  0.00000000000E+00  0.45593999997E+02  0.45594000000E+02  0.51100000000E-03 0. -1.
         11   -1    0    0    0    0 -0.00000000000E+00 -0.00000000000E+00 -0.45593999997E+02  0.45594000000E+02  0.51100000000E-03 0.  1.
         23    2    1    2    0    0  0.00000000000E+00 -0.17763568394E-14  0.00000000000E+00  0.91188000000E+02  0.91188000000E+02 0.  0.
    9900012    2    3    3    0    0 -0.23270838138E+02 -0.11027215738E+02  0.34935537562E+02  0.47787272133E+02  0.20000004965E+02 0.  0.
        -12    1    3    3    0    0  0.23270838138E+02  0.11027215738E+02 -0.34935537562E+02  0.43400727867E+02  0.00000000000E+00 0.  1.
         11    1    4    4    0    0 -0.16711311673E+02  0.17470273748E+01  0.13208517363E+02  0.21372528481E+02  0.51100000000E-03 0. -1.
        -11    1    4    4    0    0 -0.14803448336E+01 -0.54814070303E+01  0.54535132235E+01  0.78726139622E+01  0.51100000000E-03 0.  1.
         12    1    4    4    0    0 -0.50791816321E+01 -0.72928360824E+01  0.16273506976E+02  0.18542129691E+02  0.00000000000E+00 0. -1.
</event>
<event>
 8    1  0.5331800E-011  0.9118800E+02  0.7816164E-02  0.1184000E+00
        -11   -1    0    0    0    0  0.00000000000E+00  0.00000000000E+00  0.45593999997E+02  0.45594000000E+02  0.51100000000E-03 0. -1.
         11   -1    0    0    0    0 -0.00000000000E+00 -0.00000000000E+00 -0.45593999997E+02  0.45594000000E+02  0.51100000000E-03 0.  1.
         23    2    1    2    0    0 -0.17763568394E-14  0.00000000000E+00  0.00000000000E+00  0.91188000000E+02  0.91188000000E+02 0.  0.
    9900012    2    3    3    0    0  0.10187337292E+02 -0.17478285257E+02  0.38397279170E+02  0.47787270234E+02  0.19999996303E+02 0.  0.
        -12    1    3    3    0    0 -0.10187337292E+02  0.17478285257E+02 -0.38397279170E+02  0.43400729766E+02  0.00000000000E+00 0.  1.
         11    1    4    4    0    0  0.16758992913E+01  0.25656749851E+01  0.65207067832E+01  0.72049249668E+01  0.51100000000E-03 0. -1.
        -11    1    4    4    0    0  0.36536921212E+00 -0.13345584274E+02  0.23837015404E+02  0.27321080101E+02  0.51100000000E-03 0.  1.
         12    1    4    4    0    0  0.81460687886E+01 -0.66983759674E+01  0.80395569826E+01  0.13261265165E+02  0.00000000000E+00 0. -1.
</event>
<event>
 8    1  0.5331800E-011  0.9118800E+02  0.7816164E-02  0.1184000E+00
        -11   -1    0    0    0    0  0.00000000000E+00  0.00000000000E+00  0.45593999997E+02  0.45594000000E+02  0.51100000000E-03 0. -1.
         11   -1    0    0    0    0 -0.00000000000E+00 -0.00000000000E+00 -0.45593999997E+02  0.45594000000E+02  0.51100000000E-03 0.  1.
         23    2    1    2    0    0  0.00000000000E+00 -0.35527136788E-14  0.00000000000E+00  0.91188000000E+02  0.91188000000E+02 0.  0.
    9900012    2    3    3    0    0 -0.18984612543E+02  0.27957916855E+02 -0.27231625092E+02  0.47787285335E+02  0.20000065156E+02 0.  0.
         12    1    3    3    0    0  0.18984612543E+02 -0.27957916855E+02  0.27231625092E+02  0.43400714665E+02  0.00000000000E+00 0. -1.
         11    1    4    4    0    0 -0.82663380304E+01  0.20716670658E+02 -0.84648205244E+01  0.23857199633E+02  0.51100000000E-03 0. -1.
        -11    1    4    4    0    0 -0.35046584363E+01 -0.75388376285E+00 -0.76748478267E+01  0.84707886827E+01  0.51100000000E-03 0.  1.
        -12    1    4    4    0    0 -0.72136160764E+01  0.79951299606E+01 -0.11091956741E+02  0.15459297019E+02  0.00000000000E+00 0.  1.
</event>
<event>
 8    1  0.5331800E-011  0.9118800E+02  0.7816164E-02  0.1184000E+00
        -11   -1    0    0    0    0  0.00000000000E+00  0.00000000000E+00  0.45593999997E+02  0.45594000000E+02  0.51100000000E-03 0. -1.
         11   -1    0    0    0    0 -0.00000000000E+00 -0.00000000000E+00 -0.45593999997E+02  0.45594000000E+02  0.51100000000E-03 0.  1.
         23    2    1    2    0    0  0.35527136788E-14  0.00000000000E+00  0.00000000000E+00  0.91188000000E+02  0.91188000000E+02 0.  0.
    9900012    2    3    3    0    0 -0.19770044492E+02  0.16513018344E+02  0.34929770409E+02  0.47787270803E+02  0.19999998898E+02 0.  0.
        -12    1    3    3    0    0  0.19770044492E+02 -0.16513018344E+02 -0.34929770409E+02  0.43400729197E+02  0.00000000000E+00 0.  1.
         11    1    4    4    0    0 -0.76568740257E+01  0.59756595830E+01  0.26227245932E+02  0.27967921923E+02  0.51100000000E-03 0. -1.
        -11    1    4    4    0    0 -0.65429760490E+01  0.99763072665E+01  0.42453061041E+01  0.12663327621E+02  0.51100000000E-03 0.  1.
        -12    1    4    4    0    0 -0.55701944175E+01  0.56105149434E+00  0.44572183730E+01  0.71560212586E+01  0.00000000000E+00 0.  1.
</event>
<event>
 8    1  0.5331800E-011  0.9118800E+02  0.7816164E-02  0.1184000E+00
        -11   -1    0    0    0    0  0.00000000000E+00  0.00000000000E+00  0.45593999997E+02  0.45594000000E+02  0.51100000000E-03 0. -1.
         11   -1    0    0    0    0 -0.00000000000E+00 -0.00000000000E+00 -0.45593999997E+02  0.45594000000E+02  0.51100000000E-03 0.  1.
         23    2    1    2    0    0  0.00000000000E+00 -0.88817841970E-15  0.00000000000E+00  0.91188000000E+02  0.91188000000E+02 0.  0.
    9900012    2    3    3    0    0 -0.62577250093E+01  0.45983284716E+01  0.42700341734E+02  0.47787274992E+02  0.20000017997E+02 0.  0.
        -12    1    3    3    0    0  0.62577250093E+01 -0.45983284716E+01 -0.42700341734E+02  0.43400725008E+02  0.00000000000E+00 0.  1.
         11    1    4    4    0    0 -0.23302105859E+01 -0.16675749627E+01  0.60107740611E+01  0.66588356869E+01  0.51100000000E-03 0. -1.
        -11    1    4    4    0    0 -0.45645838459E+01  0.61579086490E+01  0.38474249368E+02  0.39230385281E+02  0.51100000000E-03 0.  1.
        -12    1    4    4    0    0  0.63706942251E+00  0.10799478531E+00 -0.17846816950E+01  0.18980540233E+01  0.00000000000E+00 0.  1.
</event>
<event>
 8    1  0.5331800E-011  0.9118800E+02  0.7816164E-02  0.1184000E+00
        -11   -1    0    0    0    0  0.00000000000E+00  0.00000000000E+00  0.45593999997E+02  0.45594000000E+02  0.51100000000E-03 0. -1.
         11   -1    0    0    0    0 -0.00000000000E+00 -0.00000000000E+00 -0.45593999997E+02  0.45594000000E+02  0.51100000000E-03 0.  1.
         23    2    1    2    0    0  0.00000000000E+00 -0.17763568394E-14 -0.35527136788E-14  0.91188000000E+02  0.91188000000E+02 0.  0.
    9900012    2    3    3    0    0  0.37264615339E+02  0.12505148217E+02  0.18400903580E+02  0.47787267968E+02  0.19999985975E+02 0.  0.
        -12    1    3    3    0    0 -0.37264615339E+02 -0.12505148217E+02 -0.18400903580E+02  0.43400732032E+02  0.00000000000E+00 0.  1.
         11    1    4    4    0    0  0.21101371768E+02  0.13197638938E+02  0.16812630624E+02  0.30035147957E+02  0.51100000000E-03 0. -1.
        -11    1    4    4    0    0  0.16673114312E+02 -0.14535226136E+01  0.17286240410E+01  0.16825385885E+02  0.51100000000E-03 0.  1.
        -12    1    4    4    0    0 -0.50987074046E+00  0.76103189303E+00 -0.14035108544E+00  0.92673412658E+00  0.00000000000E+00 0.  1.
</event>
<event>
 8    1  0.5331800E-011  0.9118800E+02  0.7816164E-02  0.1184000E+00
        -11   -1    0    0    0    0  0.00000000000E+00  0.00000000000E+00  0.45593999997E+02  0.45594000000E+02  0.51100000000E-03 0. -1.
         11   -1    0    0    0    0 -0.00000000000E+00 -0.00000000000E+00 -0.45593999997E+02  0.45594000000E+02  0.51100000000E-03 0.  1.
         23    2    1    2    0    0  0.00000000000E+00  0.35527136788E-14  0.00000000000E+00  0.91188000000E+02  0.91188000000E+02 0.  0.
    9900012    2    3    3    0    0 -0.20462782258E+02  0.26719890358E+02 -0.27403375788E+02  0.47787274164E+02  0.20000014224E+02 0.  0.
         12    1    3    3    0    0  0.20462782258E+02 -0.26719890358E+02  0.27403375788E+02  0.43400725836E+02  0.00000000000E+00 0. -1.
         11    1    4    4    0    0 -0.54328462931E+01 -0.69499688435E+00  0.21469020333E+00  0.54813257208E+01  0.51100000000E-03 0.  1.
        -11    1    4    4    0    0 -0.34485304083E+01  0.12890189838E+02 -0.13420015811E+02  0.18924750478E+02  0.51100000000E-03 0. -1.
        -12    1    4    4    0    0 -0.11581405557E+02  0.14524697405E+02 -0.14198050181E+02  0.23381197965E+02  0.00000000000E+00 0.  1.
</event>
<event>
 8    1  0.5331800E-011  0.9118800E+02  0.7816164E-02  0.1184000E+00
        -11   -1    0    0    0    0  0.00000000000E+00  0.00000000000E+00  0.45593999997E+02  0.45594000000E+02  0.51100000000E-03 0.  1.
         11   -1    0    0    0    0 -0.00000000000E+00 -0.00000000000E+00 -0.45593999997E+02  0.45594000000E+02  0.51100000000E-03 0. -1.
         23    2    1    2    0    0 -0.35527136788E-14  0.35527136788E-14  0.00000000000E+00  0.91188000000E+02  0.91188000000E+02 0.  0.
    9900012    2    3    3    0    0 -0.28126064321E+02  0.23146887514E+02 -0.23595944767E+02  0.47787279899E+02  0.20000040373E+02 0.  0.
         12    1    3    3    0    0  0.28126064321E+02 -0.23146887514E+02  0.23595944767E+02  0.43400720101E+02  0.00000000000E+00 0. -1.
         11    1    4    4    0    0 -0.38404639847E+01  0.10599811647E+02  0.31704542379E+00  0.11278549935E+02  0.51100000000E-03 0. -1.
        -11    1    4    4    0    0 -0.19024002861E+02  0.88009198033E+01 -0.19910649153E+02  0.28910254655E+02  0.51100000000E-03 0.  1.
        -12    1    4    4    0    0 -0.52615974757E+01  0.37461560641E+01 -0.40023410378E+01  0.75984753100E+01  0.00000000000E+00 0.  1.
</event>
<event>
 8    1  0.5331800E-011  0.9118800E+02  0.7816164E-02  0.1184000E+00
        -11   -1    0    0    0    0  0.00000000000E+00  0.00000000000E+00  0.45593999997E+02  0.45594000000E+02  0.51100000000E-03 0. -1.
         11   -1    0    0    0    0 -0.00000000000E+00 -0.00000000000E+00 -0.45593999997E+02  0.45594000000E+02  0.51100000000E-03 0.  1.
         23    2    1    2    0    0  0.00000000000E+00  0.00000000000E+00  0.00000000000E+00  0.91188000000E+02  0.91188000000E+02 0.  0.
    9900012    2    3    3    0    0  0.24068926825E+02 -0.19080810865E+02 -0.30663218154E+02  0.47787268101E+02  0.19999986581E+02 0.  0.
         12    1    3    3    0    0 -0.24068926825E+02  0.19080810865E+02  0.30663218154E+02  0.43400731899E+02  0.00000000000E+00 0. -1.
         11    1    4    4    0    0  0.33913071711E+01 -0.12654620204E+01 -0.58537928031E-01  0.36201913491E+01  0.51100000000E-03 0. -1.
        -11    1    4    4    0    0  0.59919635885E+01 -0.14051880396E+01  0.36573894902E+00  0.61653829007E+01  0.51100000000E-03 0.  1.
        -12    1    4    4    0    0  0.14685656066E+02 -0.16410160805E+02 -0.30970419175E+02  0.38001693852E+02  0.00000000000E+00 0.  1.
</event>
<event>
 8    1  0.5331800E-011  0.9118800E+02  0.7816164E-02  0.1184000E+00
        -11   -1    0    0    0    0  0.00000000000E+00  0.00000000000E+00  0.45593999997E+02  0.45594000000E+02  0.51100000000E-03 0. -1.
         11   -1    0    0    0    0 -0.00000000000E+00 -0.00000000000E+00 -0.45593999997E+02  0.45594000000E+02  0.51100000000E-03 0.  1.
         23    2    1    2    0    0  0.00000000000E+00  0.00000000000E+00 -0.71054273576E-14  0.91188000000E+02  0.91188000000E+02 0.  0.
    9900012    2    3    3    0    0  0.88453728565E+00  0.23825058765E+02 -0.36265846625E+02  0.47787222786E+02  0.19999779969E+02 0.  0.
         12    1    3    3    0    0 -0.88453728565E+00 -0.23825058765E+02  0.36265846625E+02  0.43400777214E+02  0.00000000000E+00 0. -1.
         11    1    4    4    0    0  0.34119621039E+01  0.35402448441E+01 -0.11428517718E+02  0.12441295610E+02  0.51100000000E-03 0. -1.
        -11    1    4    4    0    0 -0.46359271938E+01  0.36753610518E+01 -0.14521375395E+02  0.15680256485E+02  0.51100000000E-03 0.  1.
         12    1    4    4    0    0  0.21085023756E+01  0.16609452869E+02 -0.10315953512E+02  0.19665670691E+02  0.00000000000E+00 0. -1.
</event>
<event>
 8    1  0.5331800E-011  0.9118800E+02  0.7816164E-02  0.1184000E+00
        -11   -1    0    0    0    0  0.00000000000E+00  0.00000000000E+00  0.45593999997E+02  0.45594000000E+02  0.51100000000E-03 0. -1.
         11   -1    0    0    0    0 -0.00000000000E+00 -0.00000000000E+00 -0.45593999997E+02  0.45594000000E+02  0.51100000000E-03 0.  1.
         23    2    1    2    0    0 -0.35527136788E-14  0.00000000000E+00  0.00000000000E+00  0.91188000000E+02  0.91188000000E+02 0.  0.
    9900012    2    3    3    0    0  0.21568925472E+02  0.87542325170E+01 -0.36630154725E+02  0.47787269959E+02  0.19999995049E+02 0.  0.
         12    1    3    3    0    0 -0.21568925472E+02 -0.87542325170E+01  0.36630154725E+02  0.43400730041E+02  0.00000000000E+00 0. -1.
         11    1    4    4    0    0  0.53558771901E+01 -0.48552527584E+01 -0.46116953141E+01  0.85747672712E+01  0.51100000000E-03 0. -1.
        -11    1    4    4    0    0  0.98900195922E+01  0.71058758526E+01 -0.24768555228E+02  0.27600494334E+02  0.51100000000E-03 0.  1.
         12    1    4    4    0    0  0.63230286893E+01  0.65036094228E+01 -0.72499041828E+01  0.11612008353E+02  0.00000000000E+00 0. -1.
</event>
<event>
 8    1  0.5331800E-011  0.9118800E+02  0.7816164E-02  0.1184000E+00
        -11   -1    0    0    0    0  0.00000000000E+00  0.00000000000E+00  0.45593999997E+02  0.45594000000E+02  0.51100000000E-03 0. -1.
         11   -1    0    0    0    0 -0.00000000000E+00 -0.00000000000E+00 -0.45593999997E+02  0.45594000000E+02  0.51100000000E-03 0.  1.
         23    2    1    2    0    0  0.00000000000E+00  0.35527136788E-14  0.00000000000E+00  0.91188000000E+02  0.91188000000E+02 0.  0.
    9900012    2    3    3    0    0  0.32162348966E+02  0.27904232690E+02 -0.84000237707E+01  0.47787270831E+02  0.19999999028E+02 0.  0.
         12    1    3    3    0    0 -0.32162348966E+02 -0.27904232690E+02  0.84000237707E+01  0.43400729169E+02  0.00000000000E+00 0. -1.
         11    1    4    4    0    0  0.36082000007E+01  0.90178171237E+01 -0.31449735810E+01  0.10209358061E+02  0.51100000000E-03 0. -1.
        -11    1    4    4    0    0  0.20688142652E+02  0.20265038178E+02 -0.59398796812E+01  0.29562699296E+02  0.51100000000E-03 0.  1.
        -12    1    4    4    0    0  0.78660063126E+01 -0.13786226115E+01  0.68482949141E+00  0.80152134748E+01  0.00000000000E+00 0.  1.
</event>
<event>
 8    1  0.5331800E-011  0.9118800E+02  0.7816164E-02  0.1184000E+00
        -11   -1    0    0    0    0  0.00000000000E+00  0.00000000000E+00  0.45593999997E+02  0.45594000000E+02  0.51100000000E-03 0. -1.
         11   -1    0    0    0    0 -0.00000000000E+00 -0.00000000000E+00 -0.45593999997E+02  0.45594000000E+02  0.51100000000E-03 0.  1.
         23    2    1    2    0    0  0.35527136788E-14  0.00000000000E+00  0.35527136788E-14  0.91188000000E+02  0.91188000000E+02 0.  0.
    9900012    2    3    3    0    0 -0.28913233917E+02  0.16481324349E+02 -0.27857031898E+02  0.47787269891E+02  0.19999994742E+02 0.  0.
         12    1    3    3    0    0  0.28913233917E+02 -0.16481324349E+02  0.27857031898E+02  0.43400730109E+02  0.00000000000E+00 0. -1.
         11    1    4    4    0    0 -0.36034764712E+01 -0.28738023938E+01  0.30760204168E-01  0.46092005086E+01  0.51100000000E-03 0. -1.
        -11    1    4    4    0    0 -0.23758329958E+02  0.14484498600E+02 -0.24172782572E+02  0.36858952232E+02  0.51100000000E-03 0.  1.
         12    1    4    4    0    0 -0.15514274871E+01  0.48706281427E+01 -0.37150095294E+01  0.63191171501E+01  0.00000000000E+00 0. -1.
</event>
<event>
 8    1  0.5331800E-011  0.9118800E+02  0.7816164E-02  0.1184000E+00
        -11   -1    0    0    0    0  0.00000000000E+00  0.00000000000E+00  0.45593999997E+02  0.45594000000E+02  0.51100000000E-03 0. -1.
         11   -1    0    0    0    0 -0.00000000000E+00 -0.00000000000E+00 -0.45593999997E+02  0.45594000000E+02  0.51100000000E-03 0.  1.
         23    2    1    2    0    0 -0.71054273576E-14 -0.17763568394E-14  0.00000000000E+00  0.91188000000E+02  0.91188000000E+02 0.  0.
    9900012    2    3    3    0    0  0.38031304164E+02 -0.79661257591E+01  0.19333491855E+02  0.47787272318E+02  0.20000005806E+02 0.  0.
        -12    1    3    3    0    0 -0.38031304164E+02  0.79661257591E+01 -0.19333491855E+02  0.43400727682E+02  0.00000000000E+00 0.  1.
         11    1    4    4    0    0  0.13567145165E+02 -0.66186968106E+01  0.13063756335E+02  0.19963374095E+02  0.51100000000E-03 0. -1.
        -11    1    4    4    0    0  0.21515184657E+02  0.26855809531E+01  0.69789578030E+01  0.22777650629E+02  0.51100000000E-03 0.  1.
        -12    1    4    4    0    0  0.29489743412E+01 -0.40330099017E+01 -0.70922228322E+00  0.50462475939E+01  0.00000000000E+00 0.  1.
</event>
<event>
 8    1  0.5870046E-011  0.9118800E+02  0.7816164E-02  0.1184000E+00
        -11   -1    0    0    0    0  0.00000000000E+00  0.00000000000E+00  0.45593999997E+02  0.45594000000E+02  0.51100000000E-03 0. -1.
         11   -1    0    0    0    0 -0.00000000000E+00 -0.00000000000E+00 -0.45593999997E+02  0.45594000000E+02  0.51100000000E-03 0.  1.
         23    2    1    2    0    0  0.00000000000E+00 -0.17763568394E-14  0.71054273576E-14  0.91188000000E+02  0.91188000000E+02 0.  0.
    9900012    2    3    3    0    0 -0.13557535883E+02  0.14506956903E+02 -0.38592286855E+02  0.47787272097E+02  0.20000004800E+02 0.  0.
         12    1    3    3    0    0  0.13557535883E+02 -0.14506956903E+02  0.38592286855E+02  0.43400727903E+02  0.00000000000E+00 0. -1.
         11    1    4    4    0    0 -0.50317625961E+01 -0.24076378682E+01 -0.86756394890E+01  0.10314168688E+02  0.51100000000E-03 0. -1.
        -11    1    4    4    0    0 -0.10532151705E+02  0.14035941530E+02 -0.18367713208E+02  0.25402888869E+02  0.51100000000E-03 0.  1.
        -12    1    4    4    0    0  0.20063784185E+01  0.28786532417E+01 -0.11548934158E+02  0.12070214540E+02  0.00000000000E+00 0.  1.
</event>
<event>
 8    1  0.5331800E-011  0.9118800E+02  0.7816164E-02  0.1184000E+00
        -11   -1    0    0    0    0  0.00000000000E+00  0.00000000000E+00  0.45593999997E+02  0.45594000000E+02  0.51100000000E-03 0. -1.
         11   -1    0    0    0    0 -0.00000000000E+00 -0.00000000000E+00 -0.45593999997E+02  0.45594000000E+02  0.51100000000E-03 0.  1.
         23    2    1    2    0    0  0.00000000000E+00  0.35527136788E-14  0.00000000000E+00  0.91188000000E+02  0.91188000000E+02 0.  0.
    9900012    2    3    3    0    0 -0.33614552814E+01 -0.29031494031E+02 -0.32085762723E+02  0.47787271933E+02  0.20000004049E+02 0.  0.
         12    1    3    3    0    0  0.33614552814E+01  0.29031494031E+02  0.32085762723E+02  0.43400728067E+02  0.00000000000E+00 0. -1.
         11    1    4    4    0    0 -0.10408744478E+01 -0.22658989719E+01  0.48339980064E-02  0.24935399326E+01  0.51100000000E-03 0. -1.
        -11    1    4    4    0    0 -0.48341860329E+01 -0.13667317156E+02 -0.54253509497E+01  0.15478996932E+02  0.51100000000E-03 0.  1.
        -12    1    4    4    0    0  0.25136051993E+01 -0.13098277903E+02 -0.26665245771E+02  0.29814735068E+02  0.00000000000E+00 0.  1.
</event>
<event>
 8    1  0.5331800E-011  0.9118800E+02  0.7816164E-02  0.1184000E+00
        -11   -1    0    0    0    0  0.00000000000E+00  0.00000000000E+00  0.45593999997E+02  0.45594000000E+02  0.51100000000E-03 0. -1.
         11   -1    0    0    0    0 -0.00000000000E+00 -0.00000000000E+00 -0.45593999997E+02  0.45594000000E+02  0.51100000000E-03 0.  1.
         23    2    1    2    0    0  0.00000000000E+00  0.00000000000E+00  0.00000000000E+00  0.91188000000E+02  0.91188000000E+02 0.  0.
    9900012    2    3    3    0    0  0.31890831125E+02 -0.14961693567E+02 -0.25352432510E+02  0.47787271683E+02  0.20000002913E+02 0.  0.
         12    1    3    3    0    0 -0.31890831125E+02  0.14961693567E+02  0.25352432510E+02  0.43400728317E+02  0.00000000000E+00 0. -1.
         11    1    4    4    0    0  0.10919880963E+02  0.10069806378E+00 -0.17240072969E+02  0.20407696014E+02  0.51100000000E-03 0. -1.
        -11    1    4    4    0    0  0.13266809354E+02 -0.11793345285E+02 -0.61250026168E+01  0.18777829501E+02  0.51100000000E-03 0.  1.
         12    1    4    4    0    0  0.77041408086E+01 -0.32690463465E+01 -0.19873569238E+01  0.86017461691E+01  0.00000000000E+00 0. -1.
</event>
<event>
 8    1  0.5331800E-011  0.9118800E+02  0.7816164E-02  0.1184000E+00
        -11   -1    0    0    0    0  0.00000000000E+00  0.00000000000E+00  0.45593999997E+02  0.45594000000E+02  0.51100000000E-03 0. -1.
         11   -1    0    0    0    0 -0.00000000000E+00 -0.00000000000E+00 -0.45593999997E+02  0.45594000000E+02  0.51100000000E-03 0.  1.
         23    2    1    2    0    0  0.00000000000E+00  0.00000000000E+00  0.17763568394E-14  0.91188000000E+02  0.91188000000E+02 0.  0.
    9900012    2    3    3    0    0  0.34084370403E+02  0.23438844974E+02  0.13133903725E+02  0.47787272051E+02  0.20000004588E+02 0.  0.
        -12    1    3    3    0    0 -0.34084370403E+02 -0.23438844974E+02 -0.13133903725E+02  0.43400727949E+02  0.00000000000E+00 0.  1.
         11    1    4    4    0    0  0.19330181727E+02  0.23536453575E+01  0.14667088158E+01  0.19528103008E+02  0.51100000000E-03 0. -1.
        -11    1    4    4    0    0  0.11191323802E+02  0.15672689706E+02  0.86933173784E+01  0.21129427308E+02  0.51100000000E-03 0.  1.
         12    1    4    4    0    0  0.35628648742E+01  0.54125099107E+01  0.29738775311E+01  0.71297417355E+01  0.00000000000E+00 0. -1.
</event>
<event>
 8    1  0.5331800E-011  0.9118800E+02  0.7816164E-02  0.1184000E+00
        -11   -1    0    0    0    0  0.00000000000E+00  0.00000000000E+00  0.45593999997E+02  0.45594000000E+02  0.51100000000E-03 0. -1.
         11   -1    0    0    0    0 -0.00000000000E+00 -0.00000000000E+00 -0.45593999997E+02  0.45594000000E+02  0.51100000000E-03 0.  1.
         23    2    1    2    0    0  0.00000000000E+00  0.00000000000E+00  0.00000000000E+00  0.91188000000E+02  0.91188000000E+02 0.  0.
    9900012    2    3    3    0    0  0.92635886102E+00 -0.31047669003E+02 -0.30311840836E+02  0.47787267448E+02  0.19999983601E+02 0.  0.
         12    1    3    3    0    0 -0.92635886102E+00  0.31047669003E+02  0.30311840836E+02  0.43400732552E+02  0.00000000000E+00 0. -1.
         11    1    4    4    0    0 -0.27179509208E+01  0.98163554531E+00 -0.34536433931E+01  0.45031676073E+01  0.51100000000E-03 0. -1.
        -11    1    4    4    0    0  0.48089565757E+01 -0.24911120604E+02 -0.25448332551E+02  0.35934768998E+02  0.51100000000E-03 0.  1.
        -12    1    4    4    0    0 -0.11646467939E+01 -0.71181839438E+01 -0.14098648919E+01  0.73493308421E+01  0.00000000000E+00 0.  1.
</event>
<event>
 8    1  0.5331800E-011  0.9118800E+02  0.7816164E-02  0.1184000E+00
        -11   -1    0    0    0    0  0.00000000000E+00  0.00000000000E+00  0.45593999997E+02  0.45594000000E+02  0.51100000000E-03 0. -1.
         11   -1    0    0    0    0 -0.00000000000E+00 -0.00000000000E+00 -0.45593999997E+02  0.45594000000E+02  0.51100000000E-03 0.  1.
         23    2    1    2    0    0  0.00000000000E+00  0.00000000000E+00  0.00000000000E+00  0.91188000000E+02  0.91188000000E+02 0.  0.
    9900012    2    3    3    0    0 -0.15654128263E+02  0.11047888998E+02  0.38942464665E+02  0.47787272620E+02  0.20000007182E+02 0.  0.
        -12    1    3    3    0    0  0.15654128263E+02 -0.11047888998E+02 -0.38942464665E+02  0.43400727380E+02  0.00000000000E+00 0.  1.
         11    1    4    4    0    0 -0.53884185168E+01  0.24572124610E+01  0.17043015207E+02  0.18042652655E+02  0.51100000000E-03 0. -1.
        -11    1    4    4    0    0 -0.12910118969E+02  0.10636358284E+02  0.17367854210E+02  0.24113184142E+02  0.51100000000E-03 0.  1.
        -12    1    4    4    0    0  0.26444092226E+01 -0.20456817470E+01  0.45315952470E+01  0.56314358231E+01  0.00000000000E+00 0.  1.
</event>
<event>
 8    1  0.5331800E-011  0.9118800E+02  0.7816164E-02  0.1184000E+00
        -11   -1    0    0    0    0  0.00000000000E+00  0.00000000000E+00  0.45593999997E+02  0.45594000000E+02  0.51100000000E-03 0. -1.
         11   -1    0    0    0    0 -0.00000000000E+00 -0.00000000000E+00 -0.45593999997E+02  0.45594000000E+02  0.51100000000E-03 0.  1.
         23    2    1    2    0    0  0.66613381478E-15  0.00000000000E+00  0.00000000000E+00  0.91188000000E+02  0.91188000000E+02 0.  0.
    9900012    2    3    3    0    0  0.86698348446E+00 -0.12840697472E+02 -0.41448619135E+02  0.47787271894E+02  0.20000003872E+02 0.  0.
         12    1    3    3    0    0 -0.86698348446E+00  0.12840697472E+02  0.41448619135E+02  0.43400728106E+02  0.00000000000E+00 0. -1.
         11    1    4    4    0    0  0.21277990746E+01  0.38640646813E+01 -0.91753918273E+01  0.10180684663E+02  0.51100000000E-03 0. -1.
        -11    1    4    4    0    0 -0.43863408672E+01 -0.96950032056E+01 -0.24360036675E+02  0.26582785039E+02  0.51100000000E-03 0.  1.
        -12    1    4    4    0    0  0.31255252770E+01 -0.70097589480E+01 -0.79131906332E+01  0.11023802192E+02  0.00000000000E+00 0.  1.
</event>
<event>
 8    1  0.5331800E-011  0.9118800E+02  0.7816164E-02  0.1184000E+00
        -11   -1    0    0    0    0  0.00000000000E+00  0.00000000000E+00  0.45593999997E+02  0.45594000000E+02  0.51100000000E-03 0. -1.
         11   -1    0    0    0    0 -0.00000000000E+00 -0.00000000000E+00 -0.45593999997E+02  0.45594000000E+02  0.51100000000E-03 0.  1.
         23    2    1    2    0    0  0.00000000000E+00 -0.35527136788E-14  0.00000000000E+00  0.91188000000E+02  0.91188000000E+02 0.  0.
    9900012    2    3    3    0    0 -0.13436254948E+02 -0.28850778889E+02  0.29508038471E+02  0.47787254338E+02  0.19999923830E+02 0.  0.
        -12    1    3    3    0    0  0.13436254948E+02  0.28850778889E+02 -0.29508038471E+02  0.43400745662E+02  0.00000000000E+00 0.  1.
         11    1    4    4    0    0 -0.15260924342E+02 -0.20978642028E+02  0.28301591141E+02  0.38392437986E+02  0.51100000000E-03 0. -1.
        -11    1    4    4    0    0  0.24631729567E+01 -0.18421925834E+01  0.12778645802E+01  0.33307405596E+01  0.51100000000E-03 0.  1.
         12    1    4    4    0    0 -0.63850356286E+00 -0.60299442784E+01 -0.71417249998E-01  0.60640757931E+01  0.00000000000E+00 0. -1.
</event>
<event>
 8    1  0.5331800E-011  0.9118800E+02  0.7816164E-02  0.1184000E+00
        -11   -1    0    0    0    0  0.00000000000E+00  0.00000000000E+00  0.45593999997E+02  0.45594000000E+02  0.51100000000E-03 0.  1.
         11   -1    0    0    0    0 -0.00000000000E+00 -0.00000000000E+00 -0.45593999997E+02  0.45594000000E+02  0.51100000000E-03 0. -1.
         23    2    1    2    0    0  0.00000000000E+00  0.35527136788E-14  0.00000000000E+00  0.91188000000E+02  0.91188000000E+02 0.  0.
    9900012    2    3    3    0    0  0.19160982617E+02  0.31846511222E+02 -0.22411600192E+02  0.47787270109E+02  0.19999995736E+02 0.  0.
         12    1    3    3    0    0 -0.19160982617E+02 -0.31846511222E+02  0.22411600192E+02  0.43400729891E+02  0.00000000000E+00 0. -1.
         11    1    4    4    0    0  0.30177184031E+01  0.13556669198E+02  0.97840759097E+00  0.13922901486E+02  0.51100000000E-03 0. -1.
        -11    1    4    4    0    0  0.69327212037E+01  0.90953721053E+01 -0.99986158406E+01  0.15190810907E+02  0.51100000000E-03 0.  1.
         12    1    4    4    0    0  0.92105430105E+01  0.91944699183E+01 -0.13391391943E+02  0.18673557716E+02  0.00000000000E+00 0. -1.
</event>
<event>
 8    1  0.5331800E-011  0.9118800E+02  0.7816164E-02  0.1184000E+00
        -11   -1    0    0    0    0  0.00000000000E+00  0.00000000000E+00  0.45593999997E+02  0.45594000000E+02  0.51100000000E-03 0. -1.
         11   -1    0    0    0    0 -0.00000000000E+00 -0.00000000000E+00 -0.45593999997E+02  0.45594000000E+02  0.51100000000E-03 0.  1.
         23    2    1    2    0    0  0.17763568394E-14 -0.71054273576E-14  0.00000000000E+00  0.91188000000E+02  0.91188000000E+02 0.  0.
    9900012    2    3    3    0    0  0.73682662328E+01 -0.39997449582E+02 -0.15150462425E+02  0.47787264614E+02  0.19999970682E+02 0.  0.
         12    1    3    3    0    0 -0.73682662328E+01  0.39997449582E+02  0.15150462425E+02  0.43400735386E+02  0.00000000000E+00 0. -1.
         11    1    4    4    0    0  0.97583848539E+01 -0.26913749934E+02 -0.60517715037E+01  0.29260894537E+02  0.51100000000E-03 0. -1.
        -11    1    4    4    0    0  0.19563001353E+01 -0.11201965987E+02 -0.58984071804E+01  0.12810244327E+02  0.51100000000E-03 0.  1.
         12    1    4    4    0    0 -0.43464187564E+01 -0.18817336607E+01 -0.32002837409E+01  0.57161257507E+01  0.00000000000E+00 0. -1.
</event>
<event>
 8    1  0.5331800E-011  0.9118800E+02  0.7816164E-02  0.1184000E+00
        -11   -1    0    0    0    0  0.00000000000E+00  0.00000000000E+00  0.45593999997E+02  0.45594000000E+02  0.51100000000E-03 0. -1.
         11   -1    0    0    0    0 -0.00000000000E+00 -0.00000000000E+00 -0.45593999997E+02  0.45594000000E+02  0.51100000000E-03 0.  1.
         23    2    1    2    0    0  0.00000000000E+00  0.35527136788E-14  0.00000000000E+00  0.91188000000E+02  0.91188000000E+02 0.  0.
    9900012    2    3    3    0    0 -0.22575219694E+02 -0.26843048177E+02 -0.25562346447E+02  0.47787270334E+02  0.19999996760E+02 0.  0.
         12    1    3    3    0    0  0.22575219694E+02  0.26843048177E+02  0.25562346447E+02  0.43400729666E+02  0.00000000000E+00 0. -1.
         11    1    4    4    0    0 -0.21344568701E+01  0.29985924038E+01 -0.23227188148E+01  0.43522965763E+01  0.51100000000E-03 0. -1.
        -11    1    4    4    0    0 -0.18238235860E+01 -0.28746819822E+01 -0.26551782250E+00  0.34147663092E+01  0.51100000000E-03 0.  1.
         12    1    4    4    0    0 -0.18616939238E+02 -0.26966958598E+02 -0.22974109810E+02  0.40020207448E+02  0.00000000000E+00 0. -1.
</event>
<event>
 8    1  0.5331800E-011  0.9118800E+02  0.7816164E-02  0.1184000E+00
        -11   -1    0    0    0    0  0.00000000000E+00  0.00000000000E+00  0.45593999997E+02  0.45594000000E+02  0.51100000000E-03 0. -1.
         11   -1    0    0    0    0 -0.00000000000E+00 -0.00000000000E+00 -0.45593999997E+02  0.45594000000E+02  0.51100000000E-03 0.  1.
         23    2    1    2    0    0  0.00000000000E+00 -0.33306690739E-15  0.71054273576E-14  0.91188000000E+02  0.91188000000E+02 0.  0.
    9900012    2    3    3    0    0  0.19800184261E+02  0.61853074805E+00 -0.38615972684E+02  0.47787271626E+02  0.20000002653E+02 0.  0.
         12    1    3    3    0    0 -0.19800184261E+02 -0.61853074805E+00  0.38615972684E+02  0.43400728374E+02  0.00000000000E+00 0. -1.
         11    1    4    4    0    0  0.13952116962E+02  0.43667389340E+00 -0.11634857395E+02  0.18172015812E+02  0.51100000000E-03 0. -1.
        -11    1    4    4    0    0  0.80216691905E+01 -0.25979111581E+01 -0.21524241590E+02  0.23116861709E+02  0.51100000000E-03 0.  1.
         12    1    4    4    0    0 -0.21736018913E+01  0.27797680128E+01 -0.54568736990E+01  0.64983941057E+01  0.00000000000E+00 0. -1.
</event>
<event>
 8    1  0.5331800E-011  0.9118800E+02  0.7816164E-02  0.1184000E+00
        -11   -1    0    0    0    0  0.00000000000E+00  0.00000000000E+00  0.45593999997E+02  0.45594000000E+02  0.51100000000E-03 0.  1.
         11   -1    0    0    0    0 -0.00000000000E+00 -0.00000000000E+00 -0.45593999997E+02  0.45594000000E+02  0.51100000000E-03 0. -1.
         23    2    1    2    0    0  0.00000000000E+00  0.35527136788E-14  0.00000000000E+00  0.91188000000E+02  0.91188000000E+02 0.  0.
    9900012    2    3    3    0    0  0.36439509118E+02  0.18552479929E+02 -0.14546159528E+02  0.47787273125E+02  0.20000009487E+02 0.  0.
         12    1    3    3    0    0 -0.36439509118E+02 -0.18552479929E+02  0.14546159528E+02  0.43400726875E+02  0.00000000000E+00 0. -1.
         11    1    4    4    0    0  0.33952775739E+01  0.62043387680E+01 -0.29992373014E+01  0.76822622972E+01  0.51100000000E-03 0.  1.
        -11    1    4    4    0    0  0.12835440894E+02  0.10582942839E+02 -0.10743672563E+02  0.19803376543E+02  0.51100000000E-03 0. -1.
        -12    1    4    4    0    0  0.20208790649E+02  0.17651983217E+01 -0.80324966341E+00  0.20301634285E+02  0.00000000000E+00 0.  1.
</event>
<event>
 8    1  0.5331800E-011  0.9118800E+02  0.7816164E-02  0.1184000E+00
        -11   -1    0    0    0    0  0.00000000000E+00  0.00000000000E+00  0.45593999997E+02  0.45594000000E+02  0.51100000000E-03 0. -1.
         11   -1    0    0    0    0 -0.00000000000E+00 -0.00000000000E+00 -0.45593999997E+02  0.45594000000E+02  0.51100000000E-03 0.  1.
         23    2    1    2    0    0  0.00000000000E+00  0.00000000000E+00  0.00000000000E+00  0.91188000000E+02  0.91188000000E+02 0.  0.
    9900012    2    3    3    0    0  0.26956534263E+02  0.20619583810E+02 -0.27051822893E+02  0.47787273073E+02  0.20000009248E+02 0.  0.
         12    1    3    3    0    0 -0.26956534263E+02 -0.20619583810E+02  0.27051822893E+02  0.43400726927E+02  0.00000000000E+00 0. -1.
         11    1    4    4    0    0  0.16315171291E+01 -0.49070056185E+00 -0.17557680616E+01  0.24464989130E+01  0.51100000000E-03 0. -1.
        -11    1    4    4    0    0  0.17105803313E+02  0.15245661628E+02 -0.26657990553E+02  0.35152342255E+02  0.51100000000E-03 0.  1.
        -12    1    4    4    0    0  0.82192138212E+01  0.58646227438E+01  0.13619357211E+01  0.10188431905E+02  0.00000000000E+00 0.  1.
</event>
<event>
 8    1  0.5331800E-011  0.9118800E+02  0.7816164E-02  0.1184000E+00
        -11   -1    0    0    0    0  0.00000000000E+00  0.00000000000E+00  0.45593999997E+02  0.45594000000E+02  0.51100000000E-03 0. -1.
         11   -1    0    0    0    0 -0.00000000000E+00 -0.00000000000E+00 -0.45593999997E+02  0.45594000000E+02  0.51100000000E-03 0.  1.
         23    2    1    2    0    0  0.00000000000E+00  0.88817841970E-15 -0.71054273576E-14  0.91188000000E+02  0.91188000000E+02 0.  0.
    9900012    2    3    3    0    0 -0.17906914514E+02 -0.59408703887E+01  0.39085392933E+02  0.47787314877E+02  0.20000199849E+02 0.  0.
        -12    1    3    3    0    0  0.17906914514E+02  0.59408703887E+01 -0.39085392933E+02  0.43400685123E+02  0.00000000000E+00 0.  1.
         11    1    4    4    0    0 -0.84598722843E+00 -0.17543710787E+01  0.18408067675E+02  0.18510820296E+02  0.51100000000E-03 0. -1.
        -11    1    4    4    0    0 -0.14980951188E+02 -0.75455036869E+01  0.16615352773E+02  0.23610029065E+02  0.51100000000E-03 0.  1.
        -12    1    4    4    0    0 -0.20799760980E+01  0.33590043769E+01  0.40619724853E+01  0.56664655160E+01  0.00000000000E+00 0.  1.
</event>
<event>
 8    1  0.5331800E-011  0.9118800E+02  0.7816164E-02  0.1184000E+00
        -11   -1    0    0    0    0  0.00000000000E+00  0.00000000000E+00  0.45593999997E+02  0.45594000000E+02  0.51100000000E-03 0. -1.
         11   -1    0    0    0    0 -0.00000000000E+00 -0.00000000000E+00 -0.45593999997E+02  0.45594000000E+02  0.51100000000E-03 0.  1.
         23    2    1    2    0    0  0.00000000000E+00  0.71054273576E-14  0.00000000000E+00  0.91188000000E+02  0.91188000000E+02 0.  0.
    9900012    2    3    3    0    0  0.21608165543E+02 -0.28903162302E+02 -0.24110538798E+02  0.47787266247E+02  0.19999978125E+02 0.  0.
         12    1    3    3    0    0 -0.21608165543E+02  0.28903162302E+02  0.24110538798E+02  0.43400733753E+02  0.00000000000E+00 0. -1.
         11    1    4    4    0    0  0.87015684294E+01 -0.10320232767E+01 -0.82480934946E+01  0.12033844429E+02  0.51100000000E-03 0. -1.
        -11    1    4    4    0    0  0.13008473719E+02 -0.20426848560E+02 -0.14371700100E+02  0.28160651530E+02  0.51100000000E-03 0.  1.
         12    1    4    4    0    0 -0.10187660525E+00 -0.74442904661E+01 -0.14907452031E+01  0.75927702880E+01  0.00000000000E+00 0. -1.
</event>
<event>
 8    1  0.5331800E-011  0.9118800E+02  0.7816164E-02  0.1184000E+00
        -11   -1    0    0    0    0  0.00000000000E+00  0.00000000000E+00  0.45593999997E+02  0.45594000000E+02  0.51100000000E-03 0.  1.
         11   -1    0    0    0    0 -0.00000000000E+00 -0.00000000000E+00 -0.45593999997E+02  0.45594000000E+02  0.51100000000E-03 0. -1.
         23    2    1    2    0    0  0.00000000000E+00  0.00000000000E+00  0.00000000000E+00  0.91188000000E+02  0.91188000000E+02 0.  0.
    9900012    2    3    3    0    0 -0.34753927763E+02  0.22775584757E+02  0.12532376288E+02  0.47787271764E+02  0.20000003282E+02 0.  0.
         12    1    3    3    0    0  0.34753927763E+02 -0.22775584757E+02 -0.12532376288E+02  0.43400728236E+02  0.00000000000E+00 0. -1.
         11    1    4    4    0    0 -0.64531613916E+00  0.26473545457E+01  0.22806754002E+01  0.35533645397E+01  0.51100000000E-03 0. -1.
        -11    1    4    4    0    0 -0.70057750188E+01  0.98416091650E+01 -0.28645213025E+01  0.12415459602E+02  0.51100000000E-03 0.  1.
        -12    1    4    4    0    0 -0.27102836605E+02  0.10286621046E+02  0.13116222191E+02  0.31818447623E+02  0.00000000000E+00 0.  1.
</event>
<event>
 8    1  0.5331800E-011  0.9118800E+02  0.7816164E-02  0.1184000E+00
        -11   -1    0    0    0    0  0.00000000000E+00  0.00000000000E+00  0.45593999997E+02  0.45594000000E+02  0.51100000000E-03 0.  1.
         11   -1    0    0    0    0 -0.00000000000E+00 -0.00000000000E+00 -0.45593999997E+02  0.45594000000E+02  0.51100000000E-03 0. -1.
         23    2    1    2    0    0  0.35527136788E-14 -0.17763568394E-14  0.00000000000E+00  0.91188000000E+02  0.91188000000E+02 0.  0.
    9900012    2    3    3    0    0  0.24686456762E+02  0.94409044841E+01  0.34424839522E+02  0.47787292620E+02  0.20000098372E+02 0.  0.
        -12    1    3    3    0    0 -0.24686456762E+02 -0.94409044841E+01 -0.34424839522E+02  0.43400707380E+02  0.00000000000E+00 0.  1.
         11    1    4    4    0    0  0.39320004701E+01 -0.29868764254E+01  0.12422363752E+02  0.13367766452E+02  0.51100000000E-03 0.  1.
        -11    1    4    4    0    0 -0.32618329707E+00 -0.57963903089E+00  0.33395957668E+01  0.34051838564E+01  0.51100000000E-03 0. -1.
         12    1    4    4    0    0  0.21080639589E+02  0.13007419940E+02  0.18662880004E+02  0.31014342312E+02  0.00000000000E+00 0. -1.
</event>
<event>
 8    1  0.5331800E-011  0.9118800E+02  0.7816164E-02  0.1184000E+00
        -11   -1    0    0    0    0  0.00000000000E+00  0.00000000000E+00  0.45593999997E+02  0.45594000000E+02  0.51100000000E-03 0. -1.
         11   -1    0    0    0    0 -0.00000000000E+00 -0.00000000000E+00 -0.45593999997E+02  0.45594000000E+02  0.51100000000E-03 0.  1.
         23    2    1    2    0    0  0.17763568394E-14  0.00000000000E+00  0.00000000000E+00  0.91188000000E+02  0.91188000000E+02 0.  0.
    9900012    2    3    3    0    0  0.13724321426E+02  0.19263059048E+02 -0.36389509873E+02  0.47787321765E+02  0.20000231253E+02 0.  0.
         12    1    3    3    0    0 -0.13724321426E+02 -0.19263059048E+02  0.36389509873E+02  0.43400678235E+02  0.00000000000E+00 0. -1.
         11    1    4    4    0    0  0.47793462658E+01 -0.26013356478E+01 -0.12834422347E+02  0.13940283180E+02  0.51100000000E-03 0. -1.
        -11    1    4    4    0    0  0.28595603233E+01  0.25133811061E+01 -0.55085228763E+01  0.66961178579E+01  0.51100000000E-03 0.  1.
         12    1    4    4    0    0  0.60854148373E+01  0.19351013589E+02 -0.18046564649E+02  0.27150920727E+02  0.00000000000E+00 0. -1.
</event>
<event>
 8    1  0.5331800E-011  0.9118800E+02  0.7816164E-02  0.1184000E+00
        -11   -1    0    0    0    0  0.00000000000E+00  0.00000000000E+00  0.45593999997E+02  0.45594000000E+02  0.51100000000E-03 0. -1.
         11   -1    0    0    0    0 -0.00000000000E+00 -0.00000000000E+00 -0.45593999997E+02  0.45594000000E+02  0.51100000000E-03 0.  1.
         23    2    1    2    0    0  0.35527136788E-14  0.88817841970E-15 -0.35527136788E-14  0.91188000000E+02  0.91188000000E+02 0.  0.
    9900012    2    3    3    0    0  0.29650941292E+02  0.47861023053E+01 -0.31329514098E+02  0.47787267882E+02  0.19999985583E+02 0.  0.
         12    1    3    3    0    0 -0.29650941292E+02 -0.47861023053E+01  0.31329514098E+02  0.43400732118E+02  0.00000000000E+00 0. -1.
         11    1    4    4    0    0  0.10499747733E+02  0.14827932274E+01 -0.25257075174E+01  0.10900576909E+02  0.51100000000E-03 0. -1.
        -11    1    4    4    0    0  0.55476641881E+01  0.54512232252E+01 -0.17204099322E+02  0.18880504398E+02  0.51100000000E-03 0.  1.
        -12    1    4    4    0    0  0.13603529370E+02 -0.21479141474E+01 -0.11599707259E+02  0.18006186576E+02  0.00000000000E+00 0.  1.
</event>
<event>
 8    1  0.5331800E-011  0.9118800E+02  0.7816164E-02  0.1184000E+00
        -11   -1    0    0    0    0  0.00000000000E+00  0.00000000000E+00  0.45593999997E+02  0.45594000000E+02  0.51100000000E-03 0.  1.
         11   -1    0    0    0    0 -0.00000000000E+00 -0.00000000000E+00 -0.45593999997E+02  0.45594000000E+02  0.51100000000E-03 0. -1.
         23    2    1    2    0    0  0.00000000000E+00  0.00000000000E+00  0.00000000000E+00  0.91188000000E+02  0.91188000000E+02 0.  0.
    9900012    2    3    3    0    0 -0.25816176644E+02 -0.14793724233E+02 -0.31595798634E+02  0.47787265622E+02  0.19999975278E+02 0.  0.
         12    1    3    3    0    0  0.25816176644E+02  0.14793724233E+02  0.31595798634E+02  0.43400734378E+02  0.00000000000E+00 0. -1.
         11    1    4    4    0    0 -0.11886672977E+01 -0.34130675247E+01 -0.80435937675E+01  0.88182402344E+01  0.51100000000E-03 0. -1.
        -11    1    4    4    0    0 -0.26180137510E+02 -0.94911959167E+01 -0.18724550259E+02  0.33557282110E+02  0.51100000000E-03 0.  1.
        -12    1    4    4    0    0  0.15526281631E+01 -0.18894607915E+01 -0.48276546076E+01  0.54117432778E+01  0.00000000000E+00 0.  1.
</event>
<event>
 8    1  0.5331800E-011  0.9118800E+02  0.7816164E-02  0.1184000E+00
        -11   -1    0    0    0    0  0.00000000000E+00  0.00000000000E+00  0.45593999997E+02  0.45594000000E+02  0.51100000000E-03 0. -1.
         11   -1    0    0    0    0 -0.00000000000E+00 -0.00000000000E+00 -0.45593999997E+02  0.45594000000E+02  0.51100000000E-03 0.  1.
         23    2    1    2    0    0  0.00000000000E+00  0.00000000000E+00  0.00000000000E+00  0.91188000000E+02  0.91188000000E+02 0.  0.
    9900012    2    3    3    0    0 -0.15624143225E+02  0.27468951294E+02  0.29748355735E+02  0.47787287959E+02  0.20000077122E+02 0.  0.
        -12    1    3    3    0    0  0.15624143225E+02 -0.27468951294E+02 -0.29748355735E+02  0.43400712041E+02  0.00000000000E+00 0.  1.
         11    1    4    4    0    0 -0.56181556163E+01  0.51220389739E+01  0.18969447951E+02  0.20436215687E+02  0.51100000000E-03 0. -1.
        -11    1    4    4    0    0 -0.67993264861E+01  0.16471775139E+02  0.49996673877E+01  0.18508022345E+02  0.51100000000E-03 0.  1.
        -12    1    4    4    0    0 -0.32066611225E+01  0.58751371814E+01  0.57792403962E+01  0.88430499270E+01  0.00000000000E+00 0.  1.
</event>
<event>
 8    1  0.5331800E-011  0.9118800E+02  0.7816164E-02  0.1184000E+00
        -11   -1    0    0    0    0  0.00000000000E+00  0.00000000000E+00  0.45593999997E+02  0.45594000000E+02  0.51100000000E-03 0. -1.
         11   -1    0    0    0    0 -0.00000000000E+00 -0.00000000000E+00 -0.45593999997E+02  0.45594000000E+02  0.51100000000E-03 0.  1.
         23    2    1    2    0    0 -0.88817841970E-15  0.00000000000E+00 -0.88817841970E-15  0.91188000000E+02  0.91188000000E+02 0.  0.
    9900012    2    3    3    0    0  0.51621441174E+01  0.42485546346E+02 -0.72079307293E+01  0.47787266762E+02  0.19999980476E+02 0.  0.
         12    1    3    3    0    0 -0.51621441174E+01 -0.42485546346E+02  0.72079307293E+01  0.43400733238E+02  0.00000000000E+00 0. -1.
         11    1    4    4    0    0 -0.97980959873E+00  0.18983711276E+02  0.54473238847E+01  0.19774090584E+02  0.51100000000E-03 0. -1.
        -11    1    4    4    0    0  0.20890903826E+01  0.17127769668E+02 -0.10327255097E+02  0.20109127045E+02  0.51100000000E-03 0.  1.
        -12    1    4    4    0    0  0.40528633335E+01  0.63740654013E+01 -0.23279995170E+01  0.79040491327E+01  0.00000000000E+00 0.  1.
</event>
<event>
 8    1  0.5331800E-011  0.9118800E+02  0.7816164E-02  0.1184000E+00
        -11   -1    0    0    0    0  0.00000000000E+00  0.00000000000E+00  0.45593999997E+02  0.45594000000E+02  0.51100000000E-03 0. -1.
         11   -1    0    0    0    0 -0.00000000000E+00 -0.00000000000E+00 -0.45593999997E+02  0.45594000000E+02  0.51100000000E-03 0.  1.
         23    2    1    2    0    0 -0.35527136788E-14 -0.88817841970E-15  0.71054273576E-14  0.91188000000E+02  0.91188000000E+02 0.  0.
    9900012    2    3    3    0    0 -0.24441813463E+02 -0.70943816860E+01  0.35155241285E+02  0.47787268593E+02  0.19999988822E+02 0.  0.
        -12    1    3    3    0    0  0.24441813463E+02  0.70943816860E+01 -0.35155241285E+02  0.43400731407E+02  0.00000000000E+00 0.  1.
         11    1    4    4    0    0 -0.15884973298E+01 -0.62160290126E+01  0.11280793064E+02  0.12977620462E+02  0.51100000000E-03 0. -1.
        -11    1    4    4    0    0 -0.22904066672E+02 -0.18825162332E+01  0.18958773684E+02  0.29792200948E+02  0.51100000000E-03 0.  1.
        -12    1    4    4    0    0  0.50750538565E-01  0.10041635599E+01  0.49156745376E+01  0.50174471828E+01  0.00000000000E+00 0.  1.
</event>
<event>
 8    1  0.5331800E-011  0.9118800E+02  0.7816164E-02  0.1184000E+00
        -11   -1    0    0    0    0  0.00000000000E+00  0.00000000000E+00  0.45593999997E+02  0.45594000000E+02  0.51100000000E-03 0. -1.
         11   -1    0    0    0    0 -0.00000000000E+00 -0.00000000000E+00 -0.45593999997E+02  0.45594000000E+02  0.51100000000E-03 0.  1.
         23    2    1    2    0    0 -0.71054273576E-14  0.00000000000E+00  0.35527136788E-14  0.91188000000E+02  0.91188000000E+02 0.  0.
    9900012    2    3    3    0    0  0.39511263697E+02 -0.18202237941E+01 -0.17865314637E+02  0.47787278339E+02  0.20000033259E+02 0.  0.
         12    1    3    3    0    0 -0.39511263697E+02  0.18202237941E+01  0.17865314637E+02  0.43400721661E+02  0.00000000000E+00 0. -1.
         11    1    4    4    0    0  0.11691048751E+02 -0.78697198428E+01 -0.59117483933E+01  0.15282731452E+02  0.51100000000E-03 0.  1.
        -11    1    4    4    0    0 -0.85827815617E+00  0.54559905651E+00 -0.27101267726E+00  0.10525055136E+01  0.51100000000E-03 0. -1.
         12    1    4    4    0    0  0.28678493103E+02  0.55038969922E+01 -0.11682553567E+02  0.31452041374E+02  0.00000000000E+00 0. -1.
</event>
<event>
 8    1  0.6230975E-011  0.9118800E+02  0.7816164E-02  0.1184000E+00
        -11   -1    0    0    0    0  0.00000000000E+00  0.00000000000E+00  0.45593999997E+02  0.45594000000E+02  0.51100000000E-03 0. -1.
         11   -1    0    0    0    0 -0.00000000000E+00 -0.00000000000E+00 -0.45593999997E+02  0.45594000000E+02  0.51100000000E-03 0.  1.
         23    2    1    2    0    0 -0.44408920985E-15  0.35527136788E-14  0.00000000000E+00  0.91188000000E+02  0.91188000000E+02 0.  0.
    9900012    2    3    3    0    0  0.39196933744E+01 -0.15952586672E+02  0.40171808872E+02  0.47787271369E+02  0.20000001479E+02 0.  0.
        -12    1    3    3    0    0 -0.39196933744E+01  0.15952586672E+02 -0.40171808872E+02  0.43400728631E+02  0.00000000000E+00 0.  1.
         11    1    4    4    0    0  0.44525207249E+00 -0.67845260793E+01  0.14506294789E+02  0.16020631458E+02  0.51100000000E-03 0. -1.
        -11    1    4    4    0    0 -0.21935544653E+01 -0.83515088563E+01  0.42984677895E+01  0.96455278222E+01  0.51100000000E-03 0.  1.
        -12    1    4    4    0    0  0.56679957672E+01 -0.81655173658E+00  0.21367046293E+02  0.22121112089E+02  0.00000000000E+00 0.  1.
</event>
<event>
 8    1  0.5331800E-011  0.9118800E+02  0.7816164E-02  0.1184000E+00
        -11   -1    0    0    0    0  0.00000000000E+00  0.00000000000E+00  0.45593999997E+02  0.45594000000E+02  0.51100000000E-03 0. -1.
         11   -1    0    0    0    0 -0.00000000000E+00 -0.00000000000E+00 -0.45593999997E+02  0.45594000000E+02  0.51100000000E-03 0.  1.
         23    2    1    2    0    0  0.00000000000E+00 -0.35527136788E-14 -0.35527136788E-14  0.91188000000E+02  0.91188000000E+02 0.  0.
    9900012    2    3    3    0    0 -0.20196596709E+02 -0.28688473708E+02  0.25547851475E+02  0.47787265475E+02  0.19999974608E+02 0.  0.
        -12    1    3    3    0    0  0.20196596709E+02  0.28688473708E+02 -0.25547851475E+02  0.43400734525E+02  0.00000000000E+00 0.  1.
         11    1    4    4    0    0 -0.98568896783E+01 -0.16260655586E+02  0.19515139917E+02  0.27247162797E+02  0.51100000000E-03 0. -1.
        -11    1    4    4    0    0  0.18414356225E+01 -0.12925151084E+00 -0.68971936772E+00  0.19706101015E+01  0.51100000000E-03 0.  1.
        -12    1    4    4    0    0 -0.12181142653E+02 -0.12298566611E+02  0.67224309251E+01  0.18569492577E+02  0.00000000000E+00 0.  1.
</event>
<event>
 8    1  0.5331800E-011  0.9118800E+02  0.7816164E-02  0.1184000E+00
        -11   -1    0    0    0    0  0.00000000000E+00  0.00000000000E+00  0.45593999997E+02  0.45594000000E+02  0.51100000000E-03 0. -1.
         11   -1    0    0    0    0 -0.00000000000E+00 -0.00000000000E+00 -0.45593999997E+02  0.45594000000E+02  0.51100000000E-03 0.  1.
         23    2    1    2    0    0  0.00000000000E+00  0.00000000000E+00  0.00000000000E+00  0.91188000000E+02  0.91188000000E+02 0.  0.
    9900012    2    3    3    0    0  0.21407174069E+02  0.18165371725E+02 -0.33096462993E+02  0.47787266202E+02  0.19999977923E+02 0.  0.
         12    1    3    3    0    0 -0.21407174069E+02 -0.18165371725E+02  0.33096462993E+02  0.43400733798E+02  0.00000000000E+00 0. -1.
         11    1    4    4    0    0  0.49755191523E+01  0.83332100641E+01 -0.60410740530E+01  0.11432093281E+02  0.51100000000E-03 0. -1.
        -11    1    4    4    0    0  0.16612193393E+02  0.26982697772E+01 -0.21544407633E+02  0.27338747770E+02  0.51100000000E-03 0.  1.
        -12    1    4    4    0    0 -0.18053847601E+00  0.71338918837E+01 -0.55109813068E+01  0.90164251515E+01  0.00000000000E+00 0.  1.
</event>
<event>
 8    1  0.5331800E-011  0.9118800E+02  0.7816164E-02  0.1184000E+00
        -11   -1    0    0    0    0  0.00000000000E+00  0.00000000000E+00  0.45593999997E+02  0.45594000000E+02  0.51100000000E-03 0. -1.
         11   -1    0    0    0    0 -0.00000000000E+00 -0.00000000000E+00 -0.45593999997E+02  0.45594000000E+02  0.51100000000E-03 0.  1.
         23    2    1    2    0    0 -0.22204460493E-15  0.00000000000E+00  0.00000000000E+00  0.91188000000E+02  0.91188000000E+02 0.  0.
    9900012    2    3    3    0    0  0.17215349793E+01  0.14326664939E+02 -0.40931731505E+02  0.47787266655E+02  0.19999979985E+02 0.  0.
         12    1    3    3    0    0 -0.17215349793E+01 -0.14326664939E+02  0.40931731505E+02  0.43400733345E+02  0.00000000000E+00 0. -1.
         11    1    4    4    0    0 -0.31078211656E+00  0.14890208818E+02 -0.20194974487E+02  0.25092865499E+02  0.51100000000E-03 0. -1.
        -11    1    4    4    0    0  0.53703775713E+01 -0.16240396372E+01 -0.11027384820E+02  0.12372618002E+02  0.51100000000E-03 0.  1.
         12    1    4    4    0    0 -0.33380604754E+01  0.10604957578E+01 -0.97093721977E+01  0.10321783153E+02  0.00000000000E+00 0. -1.
</event>
<event>
 8    1  0.5331800E-011  0.9118800E+02  0.7816164E-02  0.1184000E+00
        -11   -1    0    0    0    0  0.00000000000E+00  0.00000000000E+00  0.45593999997E+02  0.45594000000E+02  0.51100000000E-03 0. -1.
         11   -1    0    0    0    0 -0.00000000000E+00 -0.00000000000E+00 -0.45593999997E+02  0.45594000000E+02  0.51100000000E-03 0.  1.
         23    2    1    2    0    0  0.00000000000E+00  0.35527136788E-14  0.17763568394E-14  0.91188000000E+02  0.91188000000E+02 0.  0.
    9900012    2    3    3    0    0 -0.37383421315E+02  0.18182506499E+02  0.12469942296E+02  0.47787271979E+02  0.20000004263E+02 0.  0.
        -12    1    3    3    0    0  0.37383421315E+02 -0.18182506499E+02 -0.12469942296E+02  0.43400728021E+02  0.00000000000E+00 0.  1.
         11    1    4    4    0    0 -0.27876884609E+02  0.78000469691E+01  0.98352339437E+01  0.30572753478E+02  0.51100000000E-03 0. -1.
        -11    1    4    4    0    0 -0.27042877929E+01 -0.10311588662E+01  0.26551330387E+01  0.39276192265E+01  0.51100000000E-03 0.  1.
         12    1    4    4    0    0 -0.68022489138E+01  0.11413618397E+02 -0.20424686385E-01  0.13286899275E+02  0.00000000000E+00 0. -1.
</event>
<event>
 8    1  0.5331800E-011  0.9118800E+02  0.7816164E-02  0.1184000E+00
        -11   -1    0    0    0    0  0.00000000000E+00  0.00000000000E+00  0.45593999997E+02  0.45594000000E+02  0.51100000000E-03 0. -1.
         11   -1    0    0    0    0 -0.00000000000E+00 -0.00000000000E+00 -0.45593999997E+02  0.45594000000E+02  0.51100000000E-03 0.  1.
         23    2    1    2    0    0  0.00000000000E+00  0.35527136788E-14  0.71054273576E-14  0.91188000000E+02  0.91188000000E+02 0.  0.
    9900012    2    3    3    0    0  0.95814742365E+01  0.18756534629E+02  0.37947471419E+02  0.47787276194E+02  0.20000023477E+02 0.  0.
        -12    1    3    3    0    0 -0.95814742365E+01 -0.18756534629E+02 -0.37947471419E+02  0.43400723806E+02  0.00000000000E+00 0.  1.
         11    1    4    4    0    0 -0.57188455417E+00  0.27081710308E+01  0.21673529496E+00  0.27763675414E+01  0.51100000000E-03 0. -1.
        -11    1    4    4    0    0  0.27526156839E+01  0.15504790703E+02  0.17919419599E+02  0.23855419235E+02  0.51100000000E-03 0.  1.
        -12    1    4    4    0    0  0.74007431068E+01  0.54357289473E+00  0.19811316525E+02  0.21155489417E+02  0.00000000000E+00 0.  1.
</event>
<event>
 8    1  0.5331800E-011  0.9118800E+02  0.7816164E-02  0.1184000E+00
        -11   -1    0    0    0    0  0.00000000000E+00  0.00000000000E+00  0.45593999997E+02  0.45594000000E+02  0.51100000000E-03 0. -1.
         11   -1    0    0    0    0 -0.00000000000E+00 -0.00000000000E+00 -0.45593999997E+02  0.45594000000E+02  0.51100000000E-03 0.  1.
         23    2    1    2    0    0  0.00000000000E+00  0.00000000000E+00  0.35527136788E-14  0.91188000000E+02  0.91188000000E+02 0.  0.
    9900012    2    3    3    0    0  0.14416507349E+02  0.31210312739E+02  0.26489699710E+02  0.47787268484E+02  0.19999988326E+02 0.  0.
        -12    1    3    3    0    0 -0.14416507349E+02 -0.31210312739E+02 -0.26489699710E+02  0.43400731516E+02  0.00000000000E+00 0.  1.
         11    1    4    4    0    0  0.10858051212E+02  0.47733062798E+01  0.10113340643E+02  0.15587218744E+02  0.51100000000E-03 0. -1.
        -11    1    4    4    0    0  0.35179298791E+01  0.25359382935E+02  0.17199763190E+02  0.30843248653E+02  0.51100000000E-03 0.  1.
         12    1    4    4    0    0  0.40526257801E-01  0.10776235247E+01 -0.82340412264E+00  0.13568010863E+01  0.00000000000E+00 0. -1.
</event>
<event>
 8    1  0.5331800E-011  0.9118800E+02  0.7816164E-02  0.1184000E+00
        -11   -1    0    0    0    0  0.00000000000E+00  0.00000000000E+00  0.45593999997E+02  0.45594000000E+02  0.51100000000E-03 0. -1.
         11   -1    0    0    0    0 -0.00000000000E+00 -0.00000000000E+00 -0.45593999997E+02  0.45594000000E+02  0.51100000000E-03 0.  1.
         23    2    1    2    0    0  0.00000000000E+00  0.17763568394E-14  0.00000000000E+00  0.91188000000E+02  0.91188000000E+02 0.  0.
    9900012    2    3    3    0    0 -0.34664041060E+02  0.15266665855E+02 -0.21188596493E+02  0.47787269012E+02  0.19999990733E+02 0.  0.
         12    1    3    3    0    0  0.34664041060E+02 -0.15266665855E+02  0.21188596493E+02  0.43400730988E+02  0.00000000000E+00 0. -1.
         11    1    4    4    0    0 -0.30262697860E+02  0.10720926882E+02 -0.13874841795E+02  0.34975425516E+02  0.51100000000E-03 0.  1.
        -11    1    4    4    0    0 -0.41958085121E+01 -0.14455458582E+01 -0.39308218708E+01  0.59283870268E+01  0.51100000000E-03 0. -1.
         12    1    4    4    0    0 -0.20553468815E+00  0.59912848314E+01 -0.33829328280E+01  0.68834564688E+01  0.00000000000E+00 0. -1.
</event>
<event>
 8    1  0.5331800E-011  0.9118800E+02  0.7816164E-02  0.1184000E+00
        -11   -1    0    0    0    0  0.00000000000E+00  0.00000000000E+00  0.45593999997E+02  0.45594000000E+02  0.51100000000E-03 0. -1.
         11   -1    0    0    0    0 -0.00000000000E+00 -0.00000000000E+00 -0.45593999997E+02  0.45594000000E+02  0.51100000000E-03 0.  1.
         23    2    1    2    0    0  0.00000000000E+00  0.00000000000E+00  0.00000000000E+00  0.91188000000E+02  0.91188000000E+02 0.  0.
    9900012    2    3    3    0    0 -0.48818356868E+01  0.36205922161E+02  0.23429105411E+02  0.47787261532E+02  0.19999956629E+02 0.  0.
        -12    1    3    3    0    0  0.48818356868E+01 -0.36205922161E+02 -0.23429105411E+02  0.43400738468E+02  0.00000000000E+00 0.  1.
         11    1    4    4    0    0 -0.23553901510E+01  0.15986295706E+02  0.54513599430E+01  0.17053645905E+02  0.51100000000E-03 0. -1.
        -11    1    4    4    0    0  0.35923734991E+01 -0.19585321866E+00  0.22106274966E+01  0.42226034659E+01  0.51100000000E-03 0.  1.
        -12    1    4    4    0    0 -0.61188190349E+01  0.20415479674E+02  0.15767117972E+02  0.26511012162E+02  0.00000000000E+00 0.  1.
</event>
<event>
 8    1  0.5331800E-011  0.9118800E+02  0.7816164E-02  0.1184000E+00
        -11   -1    0    0    0    0  0.00000000000E+00  0.00000000000E+00  0.45593999997E+02  0.45594000000E+02  0.51100000000E-03 0. -1.
         11   -1    0    0    0    0 -0.00000000000E+00 -0.00000000000E+00 -0.45593999997E+02  0.45594000000E+02  0.51100000000E-03 0.  1.
         23    2    1    2    0    0  0.66613381478E-15  0.00000000000E+00  0.00000000000E+00  0.91188000000E+02  0.91188000000E+02 0.  0.
    9900012    2    3    3    0    0 -0.11730766955E+01 -0.17535636611E+02  0.39683101588E+02  0.47787271758E+02  0.20000003256E+02 0.  0.
        -12    1    3    3    0    0  0.11730766955E+01  0.17535636611E+02 -0.39683101588E+02  0.43400728242E+02  0.00000000000E+00 0.  1.
         11    1    4    4    0    0 -0.47136066201E+01 -0.16092051978E+02  0.21016147872E+02  0.26885882837E+02  0.51100000000E-03 0. -1.
        -11    1    4    4    0    0  0.50516374498E+01 -0.34105948798E+01  0.16562681668E+02  0.17648615318E+02  0.51100000000E-03 0.  1.
         12    1    4    4    0    0 -0.15111075253E+01  0.19670102477E+01  0.21042720478E+01  0.32527736039E+01  0.00000000000E+00 0. -1.
</event>
<event>
 8    1  0.5331800E-011  0.9118800E+02  0.7816164E-02  0.1184000E+00
        -11   -1    0    0    0    0  0.00000000000E+00  0.00000000000E+00  0.45593999997E+02  0.45594000000E+02  0.51100000000E-03 0.  1.
         11   -1    0    0    0    0 -0.00000000000E+00 -0.00000000000E+00 -0.45593999997E+02  0.45594000000E+02  0.51100000000E-03 0. -1.
         23    2    1    2    0    0  0.00000000000E+00  0.00000000000E+00 -0.88817841970E-15  0.91188000000E+02  0.91188000000E+02 0.  0.
    9900012    2    3    3    0    0  0.25216860778E+02 -0.34956837348E+02 -0.50747057195E+01  0.47787272091E+02  0.20000004772E+02 0.  0.
         12    1    3    3    0    0 -0.25216860778E+02  0.34956837348E+02  0.50747057195E+01  0.43400727909E+02  0.00000000000E+00 0. -1.
         11    1    4    4    0    0  0.39702896904E+01 -0.15002758119E+02 -0.81275740913E+01  0.17518658975E+02  0.51100000000E-03 0. -1.
        -11    1    4    4    0    0  0.13975791311E+02 -0.17457185636E+02  0.31319504165E+01  0.22580637430E+02  0.51100000000E-03 0.  1.
         12    1    4    4    0    0  0.72707797765E+01 -0.24968935931E+01 -0.79082044639E-01  0.76879756856E+01  0.00000000000E+00 0. -1.
</event>
<event>
 8    1  0.5331800E-011  0.9118800E+02  0.7816164E-02  0.1184000E+00
        -11   -1    0    0    0    0  0.00000000000E+00  0.00000000000E+00  0.45593999997E+02  0.45594000000E+02  0.51100000000E-03 0. -1.
         11   -1    0    0    0    0 -0.00000000000E+00 -0.00000000000E+00 -0.45593999997E+02  0.45594000000E+02  0.51100000000E-03 0.  1.
         23    2    1    2    0    0  0.00000000000E+00  0.00000000000E+00  0.00000000000E+00  0.91188000000E+02  0.91188000000E+02 0.  0.
    9900012    2    3    3    0    0  0.19504870734E+02  0.93912845802E+01 -0.37616311007E+02  0.47787273483E+02  0.20000011119E+02 0.  0.
         12    1    3    3    0    0 -0.19504870734E+02 -0.93912845802E+01  0.37616311007E+02  0.43400726517E+02  0.00000000000E+00 0. -1.
         11    1    4    4    0    0  0.82093453848E+01  0.20170619287E+01 -0.27684331087E+02  0.28946227362E+02  0.51100000000E-03 0. -1.
        -11    1    4    4    0    0 -0.54588335950E+00  0.16704667795E+01 -0.41019379741E+01  0.44625489699E+01  0.51100000000E-03 0.  1.
         12    1    4    4    0    0  0.11841408709E+02  0.57037558720E+01 -0.58300419458E+01  0.14378497152E+02  0.00000000000E+00 0. -1.
</event>
<event>
 8    1  0.5331800E-011  0.9118800E+02  0.7816164E-02  0.1184000E+00
        -11   -1    0    0    0    0  0.00000000000E+00  0.00000000000E+00  0.45593999997E+02  0.45594000000E+02  0.51100000000E-03 0.  1.
         11   -1    0    0    0    0 -0.00000000000E+00 -0.00000000000E+00 -0.45593999997E+02  0.45594000000E+02  0.51100000000E-03 0. -1.
         23    2    1    2    0    0 -0.35527136788E-14 -0.17763568394E-14  0.00000000000E+00  0.91188000000E+02  0.91188000000E+02 0.  0.
    9900012    2    3    3    0    0  0.26447748349E+02 -0.11374188165E+02  0.32477160262E+02  0.47787291621E+02  0.20000093817E+02 0.  0.
        -12    1    3    3    0    0 -0.26447748349E+02  0.11374188165E+02 -0.32477160262E+02  0.43400708379E+02  0.00000000000E+00 0.  1.
         11    1    4    4    0    0  0.10597799461E+02 -0.43768263002E+01  0.16422487084E+02  0.20029179817E+02  0.51100000000E-03 0. -1.
        -11    1    4    4    0    0  0.33042709574E+01  0.14387034246E+01 -0.20698501695E+01  0.41560021763E+01  0.51100000000E-03 0.  1.
        -12    1    4    4    0    0  0.12545677930E+02 -0.84360652895E+01  0.18124523347E+02  0.23602109628E+02  0.00000000000E+00 0.  1.
</event>
<event>
 8    1  0.5331800E-011  0.9118800E+02  0.7816164E-02  0.1184000E+00
        -11   -1    0    0    0    0  0.00000000000E+00  0.00000000000E+00  0.45593999997E+02  0.45594000000E+02  0.51100000000E-03 0.  1.
         11   -1    0    0    0    0 -0.00000000000E+00 -0.00000000000E+00 -0.45593999997E+02  0.45594000000E+02  0.51100000000E-03 0. -1.
         23    2    1    2    0    0  0.35527136788E-14  0.00000000000E+00  0.00000000000E+00  0.91188000000E+02  0.91188000000E+02 0.  0.
    9900012    2    3    3    0    0 -0.19753733611E+02 -0.38073046942E+02 -0.66224071664E+01  0.47787272221E+02  0.20000005365E+02 0.  0.
        -12    1    3    3    0    0  0.19753733611E+02  0.38073046942E+02  0.66224071664E+01  0.43400727779E+02  0.00000000000E+00 0.  1.
         11    1    4    4    0    0 -0.56989971556E+01 -0.84026504982E+01  0.54493165582E+00  0.10167598278E+02  0.51100000000E-03 0. -1.
        -11    1    4    4    0    0 -0.61331887833E+01 -0.52647586307E+00 -0.37928855860E+01  0.72304331002E+01  0.51100000000E-03 0.  1.
        -12    1    4    4    0    0 -0.79215476724E+01 -0.29143920581E+02 -0.33744532362E+01  0.30389240843E+02  0.00000000000E+00 0.  1.
</event>
<event>
 8    1  0.5331800E-011  0.9118800E+02  0.7816164E-02  0.1184000E+00
        -11   -1    0    0    0    0  0.00000000000E+00  0.00000000000E+00  0.45593999997E+02  0.45594000000E+02  0.51100000000E-03 0. -1.
         11   -1    0    0    0    0 -0.00000000000E+00 -0.00000000000E+00 -0.45593999997E+02  0.45594000000E+02  0.51100000000E-03 0.  1.
         23    2    1    2    0    0  0.35527136788E-14  0.00000000000E+00  0.00000000000E+00  0.91188000000E+02  0.91188000000E+02 0.  0.
    9900012    2    3    3    0    0 -0.29947384840E+02 -0.17662250028E+02  0.25977342913E+02  0.47787270978E+02  0.19999999697E+02 0.  0.
        -12    1    3    3    0    0  0.29947384840E+02  0.17662250028E+02 -0.25977342913E+02  0.43400729022E+02  0.00000000000E+00 0.  1.
         11    1    4    4    0    0 -0.28046119463E+01 -0.68730373980E+01  0.58323780363E+01  0.94403985649E+01  0.51100000000E-03 0. -1.
        -11    1    4    4    0    0 -0.10641111989E+02  0.30055207046E+01  0.79864960321E+01  0.13640034391E+02  0.51100000000E-03 0.  1.
        -12    1    4    4    0    0 -0.16501660905E+02 -0.13794733335E+02  0.12158468845E+02  0.24706838022E+02  0.00000000000E+00 0.  1.
</event>
<event>
 8    1  0.5331800E-011  0.9118800E+02  0.7816164E-02  0.1184000E+00
        -11   -1    0    0    0    0  0.00000000000E+00  0.00000000000E+00  0.45593999997E+02  0.45594000000E+02  0.51100000000E-03 0. -1.
         11   -1    0    0    0    0 -0.00000000000E+00 -0.00000000000E+00 -0.45593999997E+02  0.45594000000E+02  0.51100000000E-03 0.  1.
         23    2    1    2    0    0 -0.44408920985E-15  0.00000000000E+00  0.00000000000E+00  0.91188000000E+02  0.91188000000E+02 0.  0.
    9900012    2    3    3    0    0 -0.12407195756E+01  0.94370777862E+01 -0.42344136865E+02  0.47787265571E+02  0.19999975043E+02 0.  0.
         12    1    3    3    0    0  0.12407195756E+01 -0.94370777862E+01  0.42344136865E+02  0.43400734429E+02  0.00000000000E+00 0. -1.
         11    1    4    4    0    0  0.29558456065E+01 -0.19093115093E+01 -0.20302435250E+02  0.20605129726E+02  0.51100000000E-03 0. -1.
        -11    1    4    4    0    0  0.13071341018E+01  0.78593852775E+01 -0.63390628141E+01  0.10181466207E+02  0.51100000000E-03 0.  1.
        -12    1    4    4    0    0 -0.55036992840E+01  0.34870040181E+01 -0.15702638801E+02  0.17000669638E+02  0.00000000000E+00 0.  1.
</event>
<event>
 8    1  0.5331800E-011  0.9118800E+02  0.7816164E-02  0.1184000E+00
        -11   -1    0    0    0    0  0.00000000000E+00  0.00000000000E+00  0.45593999997E+02  0.45594000000E+02  0.51100000000E-03 0. -1.
         11   -1    0    0    0    0 -0.00000000000E+00 -0.00000000000E+00 -0.45593999997E+02  0.45594000000E+02  0.51100000000E-03 0.  1.
         23    2    1    2    0    0  0.00000000000E+00  0.00000000000E+00 -0.88817841970E-15  0.91188000000E+02  0.91188000000E+02 0.  0.
    9900012    2    3    3    0    0  0.19677439327E+02 -0.38151250767E+02 -0.63956120093E+01  0.47787269516E+02  0.19999993032E+02 0.  0.
        -12    1    3    3    0    0 -0.19677439327E+02  0.38151250767E+02  0.63956120093E+01  0.43400730484E+02  0.00000000000E+00 0.  1.
         11    1    4    4    0    0  0.84885975995E+01 -0.10011449862E+02 -0.92794692234E+01  0.16074637379E+02  0.51100000000E-03 0. -1.
        -11    1    4    4    0    0 -0.66672761279E+00 -0.89724490391E+01  0.47694612067E-01  0.89973130714E+01  0.51100000000E-03 0.  1.
         12    1    4    4    0    0  0.11855569341E+02 -0.19167351866E+02  0.28361626021E+01  0.22715319065E+02  0.00000000000E+00 0. -1.
</event>
<event>
 8    1  0.5331800E-011  0.9118800E+02  0.7816164E-02  0.1184000E+00
        -11   -1    0    0    0    0  0.00000000000E+00  0.00000000000E+00  0.45593999997E+02  0.45594000000E+02  0.51100000000E-03 0. -1.
         11   -1    0    0    0    0 -0.00000000000E+00 -0.00000000000E+00 -0.45593999997E+02  0.45594000000E+02  0.51100000000E-03 0.  1.
         23    2    1    2    0    0  0.00000000000E+00  0.35527136788E-14  0.00000000000E+00  0.91188000000E+02  0.91188000000E+02 0.  0.
    9900012    2    3    3    0    0  0.22891522386E+02  0.30149425032E+02 -0.21227663466E+02  0.47787270476E+02  0.19999997410E+02 0.  0.
         12    1    3    3    0    0 -0.22891522386E+02 -0.30149425032E+02  0.21227663466E+02  0.43400729524E+02  0.00000000000E+00 0. -1.
         11    1    4    4    0    0 -0.74429460325E+00  0.55256035436E+01  0.15017970600E+01  0.57742240733E+01  0.51100000000E-03 0. -1.
        -11    1    4    4    0    0  0.29861406908E+01  0.25568547098E+01  0.40642919413E+00  0.39521800545E+01  0.51100000000E-03 0.  1.
         12    1    4    4    0    0  0.20649676299E+02  0.22066966779E+02 -0.23135889720E+02  0.38060866349E+02  0.00000000000E+00 0. -1.
</event>
<event>
 8    1  0.5331800E-011  0.9118800E+02  0.7816164E-02  0.1184000E+00
        -11   -1    0    0    0    0  0.00000000000E+00  0.00000000000E+00  0.45593999997E+02  0.45594000000E+02  0.51100000000E-03 0. -1.
         11   -1    0    0    0    0 -0.00000000000E+00 -0.00000000000E+00 -0.45593999997E+02  0.45594000000E+02  0.51100000000E-03 0.  1.
         23    2    1    2    0    0 -0.44408920985E-15 -0.44408920985E-15 -0.14210854715E-13  0.91188000000E+02  0.91188000000E+02 0.  0.
    9900012    2    3    3    0    0  0.10213913781E+01  0.18613399112E+01  0.43348785405E+02  0.47787250897E+02  0.19999908138E+02 0.  0.
        -12    1    3    3    0    0 -0.10213913781E+01 -0.18613399112E+01 -0.43348785405E+02  0.43400749103E+02  0.00000000000E+00 0.  1.
         11    1    4    4    0    0 -0.68950088458E+01 -0.15497723981E+01  0.61824814134E+01  0.93896761477E+01  0.51100000000E-03 0. -1.
        -11    1    4    4    0    0  0.77420541394E+01  0.17979818464E+01  0.32479937985E+02  0.33438279154E+02  0.51100000000E-03 0.  1.
         12    1    4    4    0    0  0.17434608447E+00  0.16131304629E+01  0.46863660072E+01  0.49592955952E+01  0.00000000000E+00 0. -1.
</event>
<event>
 8    1  0.5331800E-011  0.9118800E+02  0.7816164E-02  0.1184000E+00
        -11   -1    0    0    0    0  0.00000000000E+00  0.00000000000E+00  0.45593999997E+02  0.45594000000E+02  0.51100000000E-03 0. -1.
         11   -1    0    0    0    0 -0.00000000000E+00 -0.00000000000E+00 -0.45593999997E+02  0.45594000000E+02  0.51100000000E-03 0.  1.
         23    2    1    2    0    0  0.00000000000E+00  0.00000000000E+00  0.00000000000E+00  0.91188000000E+02  0.91188000000E+02 0.  0.
    9900012    2    3    3    0    0  0.11782323891E+02 -0.23664330438E+02 -0.34420916817E+02  0.47787271828E+02  0.20000003571E+02 0.  0.
         12    1    3    3    0    0 -0.11782323891E+02  0.23664330438E+02  0.34420916817E+02  0.43400728172E+02  0.00000000000E+00 0. -1.
         11    1    4    4    0    0  0.10557650646E+01 -0.13118205001E+02 -0.88531297340E+01  0.15861268823E+02  0.51100000000E-03 0. -1.
        -11    1    4    4    0    0  0.11495736751E+02 -0.12291810587E+02 -0.24547301210E+02  0.29762569914E+02  0.51100000000E-03 0.  1.
        -12    1    4    4    0    0 -0.76917792483E+00  0.17456851495E+01 -0.10204858732E+01  0.21634330909E+01  0.00000000000E+00 0.  1.
</event>
<event>
 8    1  0.5331800E-011  0.9118800E+02  0.7816164E-02  0.1184000E+00
        -11   -1    0    0    0    0  0.00000000000E+00  0.00000000000E+00  0.45593999997E+02  0.45594000000E+02  0.51100000000E-03 0. -1.
         11   -1    0    0    0    0 -0.00000000000E+00 -0.00000000000E+00 -0.45593999997E+02  0.45594000000E+02  0.51100000000E-03 0.  1.
         23    2    1    2    0    0  0.00000000000E+00  0.00000000000E+00  0.35527136788E-14  0.91188000000E+02  0.91188000000E+02 0.  0.
    9900012    2    3    3    0    0  0.17309505503E+02 -0.31280864579E+02  0.24607246317E+02  0.47787216126E+02  0.19999749602E+02 0.  0.
        -12    1    3    3    0    0 -0.17309505503E+02  0.31280864579E+02 -0.24607246317E+02  0.43400783874E+02  0.00000000000E+00 0.  1.
         11    1    4    4    0    0  0.17129971419E+02 -0.15279646623E+02  0.14538694905E+02  0.27171256348E+02  0.51100000000E-03 0. -1.
        -11    1    4    4    0    0 -0.29879135259E+01 -0.35779100490E+01  0.49829416127E+01  0.68233990748E+01  0.51100000000E-03 0.  1.
        -12    1    4    4    0    0  0.31674476105E+01 -0.12423307907E+02  0.50856097995E+01  0.13792560703E+02  0.00000000000E+00 0.  1.
</event>
<event>
 8    1  0.5331800E-011  0.9118800E+02  0.7816164E-02  0.1184000E+00
        -11   -1    0    0    0    0  0.00000000000E+00  0.00000000000E+00  0.45593999997E+02  0.45594000000E+02  0.51100000000E-03 0. -1.
         11   -1    0    0    0    0 -0.00000000000E+00 -0.00000000000E+00 -0.45593999997E+02  0.45594000000E+02  0.51100000000E-03 0.  1.
         23    2    1    2    0    0  0.00000000000E+00  0.00000000000E+00  0.00000000000E+00  0.91188000000E+02  0.91188000000E+02 0.  0.
    9900012    2    3    3    0    0 -0.15695912597E+02  0.28484971259E+02  0.28737944997E+02  0.47787254125E+02  0.19999922856E+02 0.  0.
        -12    1    3    3    0    0  0.15695912597E+02 -0.28484971259E+02 -0.28737944997E+02  0.43400745875E+02  0.00000000000E+00 0.  1.
         11    1    4    4    0    0 -0.13323387338E+01  0.13437082891E+02  0.13773642315E+02  0.19288430367E+02  0.51100000000E-03 0. -1.
        -11    1    4    4    0    0 -0.65159293331E+01 -0.78245838611E+00  0.35147760359E+01  0.74446777663E+01  0.51100000000E-03 0.  1.
        -12    1    4    4    0    0 -0.78476445298E+01  0.15830346754E+02  0.11449526646E+02  0.21054145991E+02  0.00000000000E+00 0.  1.
</event>
<event>
 8    1  0.5331800E-011  0.9118800E+02  0.7816164E-02  0.1184000E+00
        -11   -1    0    0    0    0  0.00000000000E+00  0.00000000000E+00  0.45593999997E+02  0.45594000000E+02  0.51100000000E-03 0. -1.
         11   -1    0    0    0    0 -0.00000000000E+00 -0.00000000000E+00 -0.45593999997E+02  0.45594000000E+02  0.51100000000E-03 0.  1.
         23    2    1    2    0    0  0.00000000000E+00 -0.35527136788E-14  0.35527136788E-14  0.91188000000E+02  0.91188000000E+02 0.  0.
    9900012    2    3    3    0    0  0.46317439240E+01 -0.31978863029E+02  0.28974528944E+02  0.47787261989E+02  0.19999958713E+02 0.  0.
        -12    1    3    3    0    0 -0.46317439240E+01  0.31978863029E+02 -0.28974528944E+02  0.43400738011E+02  0.00000000000E+00 0.  1.
         11    1    4    4    0    0  0.82104488349E+01 -0.25365764472E+02  0.19217860558E+02  0.32865782237E+02  0.51100000000E-03 0. -1.
        -11    1    4    4    0    0 -0.12478809329E+01 -0.24739679894E+01 -0.11693404836E+01  0.30075042582E+01  0.51100000000E-03 0.  1.
         12    1    4    4    0    0 -0.23308239780E+01 -0.41391305670E+01  0.10926008869E+02  0.11913975494E+02  0.00000000000E+00 0. -1.
</event>
<event>
 8    1  0.5331800E-011  0.9118800E+02  0.7816164E-02  0.1184000E+00
        -11   -1    0    0    0    0  0.00000000000E+00  0.00000000000E+00  0.45593999997E+02  0.45594000000E+02  0.51100000000E-03 0. -1.
         11   -1    0    0    0    0 -0.00000000000E+00 -0.00000000000E+00 -0.45593999997E+02  0.45594000000E+02  0.51100000000E-03 0.  1.
         23    2    1    2    0    0  0.00000000000E+00 -0.71054273576E-14  0.17763568394E-14  0.91188000000E+02  0.91188000000E+02 0.  0.
    9900012    2    3    3    0    0  0.18648722180E+02 -0.36669666466E+02  0.13826930953E+02  0.47787270775E+02  0.19999998772E+02 0.  0.
        -12    1    3    3    0    0 -0.18648722180E+02  0.36669666466E+02 -0.13826930953E+02  0.43400729225E+02  0.00000000000E+00 0.  1.
         11    1    4    4    0    0  0.54729005345E+01 -0.20669292931E+02  0.10528125995E+02  0.23833038996E+02  0.51100000000E-03 0. -1.
        -11    1    4    4    0    0  0.40012619673E+01  0.11336484443E+01 -0.37031080601E+00  0.41752109504E+01  0.51100000000E-03 0.  1.
        -12    1    4    4    0    0  0.91745596782E+01 -0.17134021979E+02  0.36691157635E+01  0.19779020829E+02  0.00000000000E+00 0.  1.
</event>
<event>
 8    1  0.5331800E-011  0.9118800E+02  0.7816164E-02  0.1184000E+00
        -11   -1    0    0    0    0  0.00000000000E+00  0.00000000000E+00  0.45593999997E+02  0.45594000000E+02  0.51100000000E-03 0. -1.
         11   -1    0    0    0    0 -0.00000000000E+00 -0.00000000000E+00 -0.45593999997E+02  0.45594000000E+02  0.51100000000E-03 0.  1.
         23    2    1    2    0    0  0.00000000000E+00  0.00000000000E+00  0.71054273576E-14  0.91188000000E+02  0.91188000000E+02 0.  0.
    9900012    2    3    3    0    0 -0.22238701159E+02  0.90584144434E+01  0.36152581562E+02  0.47787264349E+02  0.19999969472E+02 0.  0.
        -12    1    3    3    0    0  0.22238701159E+02 -0.90584144434E+01 -0.36152581562E+02  0.43400735651E+02  0.00000000000E+00 0.  1.
         11    1    4    4    0    0 -0.16771791145E+02  0.36491167390E+01  0.20965129389E+02  0.27095122841E+02  0.51100000000E-03 0. -1.
        -11    1    4    4    0    0 -0.85440024882E-03 -0.31702432925E+01  0.68176193464E+01  0.75186685708E+01  0.51100000000E-03 0.  1.
        -12    1    4    4    0    0 -0.54660556136E+01  0.85795409969E+01  0.83698328264E+01  0.13173472937E+02  0.00000000000E+00 0.  1.
</event>
<event>
 8    1  0.5331800E-011  0.9118800E+02  0.7816164E-02  0.1184000E+00
        -11   -1    0    0    0    0  0.00000000000E+00  0.00000000000E+00  0.45593999997E+02  0.45594000000E+02  0.51100000000E-03 0. -1.
         11   -1    0    0    0    0 -0.00000000000E+00 -0.00000000000E+00 -0.45593999997E+02  0.45594000000E+02  0.51100000000E-03 0.  1.
         23    2    1    2    0    0  0.88817841970E-15  0.00000000000E+00  0.00000000000E+00  0.91188000000E+02  0.91188000000E+02 0.  0.
    9900012    2    3    3    0    0 -0.72678642047E+01  0.12027645059E+02  0.41062606307E+02  0.47787265761E+02  0.19999975912E+02 0.  0.
        -12    1    3    3    0    0  0.72678642047E+01 -0.12027645059E+02 -0.41062606307E+02  0.43400734239E+02  0.00000000000E+00 0.  1.
         11    1    4    4    0    0 -0.43866847162E+01 -0.31691744622E+01  0.16784810628E+02  0.17635660964E+02  0.51100000000E-03 0. -1.
        -11    1    4    4    0    0 -0.51665059753E+00 -0.10841477025E+01  0.66522472845E+00  0.13728904840E+01  0.51100000000E-03 0.  1.
         12    1    4    4    0    0 -0.23645288909E+01  0.16280967224E+02  0.23612570950E+02  0.28778714313E+02  0.00000000000E+00 0. -1.
</event>
<event>
 8    1  0.5331800E-011  0.9118800E+02  0.7816164E-02  0.1184000E+00
        -11   -1    0    0    0    0  0.00000000000E+00  0.00000000000E+00  0.45593999997E+02  0.45594000000E+02  0.51100000000E-03 0. -1.
         11   -1    0    0    0    0 -0.00000000000E+00 -0.00000000000E+00 -0.45593999997E+02  0.45594000000E+02  0.51100000000E-03 0.  1.
         23    2    1    2    0    0 -0.17763568394E-14 -0.17763568394E-14  0.00000000000E+00  0.91188000000E+02  0.91188000000E+02 0.  0.
    9900012    2    3    3    0    0 -0.10861556653E+02  0.11315122860E+02 -0.40467499793E+02  0.47787263166E+02  0.19999964078E+02 0.  0.
         12    1    3    3    0    0  0.10861556653E+02 -0.11315122860E+02  0.40467499793E+02  0.43400736834E+02  0.00000000000E+00 0. -1.
         11    1    4    4    0    0 -0.16896389073E+01  0.83489595326E+01 -0.86878383417E+01  0.12167108951E+02  0.51100000000E-03 0. -1.
        -11    1    4    4    0    0  0.11943972101E+01 -0.33654424461E+01 -0.10831055637E+02  0.11404584781E+02  0.51100000000E-03 0.  1.
        -12    1    4    4    0    0 -0.10366314956E+02  0.63316057730E+01 -0.20948605815E+02  0.24215569434E+02  0.00000000000E+00 0.  1.
</event>
<event>
 8    1  0.5331800E-011  0.9118800E+02  0.7816164E-02  0.1184000E+00
        -11   -1    0    0    0    0  0.00000000000E+00  0.00000000000E+00  0.45593999997E+02  0.45594000000E+02  0.51100000000E-03 0. -1.
         11   -1    0    0    0    0 -0.00000000000E+00 -0.00000000000E+00 -0.45593999997E+02  0.45594000000E+02  0.51100000000E-03 0.  1.
         23    2    1    2    0    0 -0.35527136788E-14 -0.44408920985E-15  0.71054273576E-14  0.91188000000E+02  0.91188000000E+02 0.  0.
    9900012    2    3    3    0    0  0.23316693736E+02 -0.10739240480E+01 -0.36589638057E+02  0.47787272670E+02  0.20000007414E+02 0.  0.
         12    1    3    3    0    0 -0.23316693736E+02  0.10739240480E+01  0.36589638057E+02  0.43400727330E+02  0.00000000000E+00 0. -1.
         11    1    4    4    0    0  0.40138662918E+01  0.16280642523E+01 -0.20681853869E+01  0.47999069651E+01  0.51100000000E-03 0. -1.
        -11    1    4    4    0    0  0.17496970600E+02 -0.46001026399E+01 -0.35770205791E+02  0.40085066385E+02  0.51100000000E-03 0.  1.
        -12    1    4    4    0    0  0.18058568435E+01  0.18981143395E+01  0.12487531217E+01  0.29022993202E+01  0.00000000000E+00 0.  1.
</event>
<event>
 8    1  0.5331800E-011  0.9118800E+02  0.7816164E-02  0.1184000E+00
        -11   -1    0    0    0    0  0.00000000000E+00  0.00000000000E+00  0.45593999997E+02  0.45594000000E+02  0.51100000000E-03 0. -1.
         11   -1    0    0    0    0 -0.00000000000E+00 -0.00000000000E+00 -0.45593999997E+02  0.45594000000E+02  0.51100000000E-03 0.  1.
         23    2    1    2    0    0 -0.17763568394E-14 -0.17763568394E-14 -0.71054273576E-14  0.91188000000E+02  0.91188000000E+02 0.  0.
    9900012    2    3    3    0    0 -0.14816139814E+02  0.55540587550E+01 -0.40413582803E+02  0.47787271404E+02  0.20000001641E+02 0.  0.
         12    1    3    3    0    0  0.14816139814E+02 -0.55540587550E+01  0.40413582803E+02  0.43400728596E+02  0.00000000000E+00 0. -1.
         11    1    4    4    0    0 -0.52932176955E+01  0.86463332955E+01 -0.12980397243E+02  0.16470213899E+02  0.51100000000E-03 0. -1.
        -11    1    4    4    0    0 -0.92875461518E+00 -0.36627459408E+01 -0.18599084640E+02  0.18979047465E+02  0.51100000000E-03 0.  1.
        -12    1    4    4    0    0 -0.85941675037E+01  0.57047140033E+00 -0.88341009203E+01  0.12338010041E+02  0.00000000000E+00 0.  1.
</event>
<event>
 8    1  0.5331800E-011  0.9118800E+02  0.7816164E-02  0.1184000E+00
        -11   -1    0    0    0    0  0.00000000000E+00  0.00000000000E+00  0.45593999997E+02  0.45594000000E+02  0.51100000000E-03 0. -1.
         11   -1    0    0    0    0 -0.00000000000E+00 -0.00000000000E+00 -0.45593999997E+02  0.45594000000E+02  0.51100000000E-03 0.  1.
         23    2    1    2    0    0 -0.71054273576E-14  0.17763568394E-14  0.00000000000E+00  0.91188000000E+02  0.91188000000E+02 0.  0.
    9900012    2    3    3    0    0 -0.36362131228E+02  0.14117700070E+02 -0.19029174404E+02  0.47787268195E+02  0.19999987009E+02 0.  0.
         12    1    3    3    0    0  0.36362131228E+02 -0.14117700070E+02  0.19029174404E+02  0.43400731805E+02  0.00000000000E+00 0. -1.
         11    1    4    4    0    0 -0.21504728785E+02  0.74820057209E+01 -0.17757627110E+02  0.28875025377E+02  0.51100000000E-03 0. -1.
        -11    1    4    4    0    0 -0.23057059092E+01  0.21404001823E+01  0.35420643813E+01  0.47374901607E+01  0.51100000000E-03 0.  1.
        -12    1    4    4    0    0 -0.12551696534E+02  0.44952941664E+01 -0.48136116754E+01  0.14174752657E+02  0.00000000000E+00 0.  1.
</event>
<event>
 8    1  0.5331800E-011  0.9118800E+02  0.7816164E-02  0.1184000E+00
        -11   -1    0    0    0    0  0.00000000000E+00  0.00000000000E+00  0.45593999997E+02  0.45594000000E+02  0.51100000000E-03 0. -1.
         11   -1    0    0    0    0 -0.00000000000E+00 -0.00000000000E+00 -0.45593999997E+02  0.45594000000E+02  0.51100000000E-03 0.  1.
         23    2    1    2    0    0  0.35527136788E-14  0.00000000000E+00 -0.35527136788E-14  0.91188000000E+02  0.91188000000E+02 0.  0.
    9900012    2    3    3    0    0 -0.24367757233E+02 -0.20818693921E+02  0.29264617273E+02  0.47787269208E+02  0.19999991627E+02 0.  0.
        -12    1    3    3    0    0  0.24367757233E+02  0.20818693921E+02 -0.29264617273E+02  0.43400730792E+02  0.00000000000E+00 0.  1.
         11    1    4    4    0    0 -0.44572467259E+00 -0.99978202836E+01  0.13169414917E+02  0.16540513004E+02  0.51100000000E-03 0.  1.
        -11    1    4    4    0    0 -0.18886414725E+02 -0.79947823961E+01  0.14899740582E+02  0.25349861467E+02  0.51100000000E-03 0. -1.
        -12    1    4    4    0    0 -0.50356178355E+01 -0.28260912409E+01  0.11954617733E+01  0.58968947369E+01  0.00000000000E+00 0.  1.
</event>
<event>
 8    1  0.6608389E-011  0.9118800E+02  0.7816164E-02  0.1184000E+00
        -11   -1    0    0    0    0  0.00000000000E+00  0.00000000000E+00  0.45593999997E+02  0.45594000000E+02  0.51100000000E-03 0. -1.
         11   -1    0    0    0    0 -0.00000000000E+00 -0.00000000000E+00 -0.45593999997E+02  0.45594000000E+02  0.51100000000E-03 0.  1.
         23    2    1    2    0    0 -0.35527136788E-14  0.17763568394E-14  0.00000000000E+00  0.91188000000E+02  0.91188000000E+02 0.  0.
    9900012    2    3    3    0    0 -0.24409810320E+02  0.12619616757E+02 -0.33593598427E+02  0.47787269335E+02  0.19999992207E+02 0.  0.
         12    1    3    3    0    0  0.24409810320E+02 -0.12619616757E+02  0.33593598427E+02  0.43400730665E+02  0.00000000000E+00 0. -1.
         11    1    4    4    0    0 -0.12651287034E+01 -0.21122149645E+01  0.32359918093E+00  0.24832880186E+01  0.51100000000E-03 0. -1.
        -11    1    4    4    0    0 -0.14443111051E+02  0.61550734680E+01 -0.27082869575E+02  0.31304475893E+02  0.51100000000E-03 0.  1.
        -12    1    4    4    0    0 -0.87015705659E+01  0.85767582534E+01 -0.68343280328E+01  0.13999505424E+02  0.00000000000E+00 0.  1.
</event>
<event>
 8    1  0.5331800E-011  0.9118800E+02  0.7816164E-02  0.1184000E+00
        -11   -1    0    0    0    0  0.00000000000E+00  0.00000000000E+00  0.45593999997E+02  0.45594000000E+02  0.51100000000E-03 0. -1.
         11   -1    0    0    0    0 -0.00000000000E+00 -0.00000000000E+00 -0.45593999997E+02  0.45594000000E+02  0.51100000000E-03 0.  1.
         23    2    1    2    0    0  0.00000000000E+00  0.35527136788E-14  0.00000000000E+00  0.91188000000E+02  0.91188000000E+02 0.  0.
    9900012    2    3    3    0    0  0.33145246076E+02  0.18239099070E+02 -0.21268554019E+02  0.47787268873E+02  0.19999990100E+02 0.  0.
         12    1    3    3    0    0 -0.33145246076E+02 -0.18239099070E+02  0.21268554019E+02  0.43400731127E+02  0.00000000000E+00 0. -1.
         11    1    4    4    0    0  0.27227552927E+02  0.17128032543E+02 -0.17639200980E+02  0.36685835804E+02  0.51100000000E-03 0. -1.
        -11    1    4    4    0    0  0.77180684423E+01  0.23616040122E+01 -0.37627928565E+01  0.89052997890E+01  0.51100000000E-03 0.  1.
         12    1    4    4    0    0 -0.18003752937E+01 -0.12505374843E+01  0.13343981782E+00  0.21961332799E+01  0.00000000000E+00 0. -1.
</event>
<event>
 8    1  0.5331800E-011  0.9118800E+02  0.7816164E-02  0.1184000E+00
        -11   -1    0    0    0    0  0.00000000000E+00  0.00000000000E+00  0.45593999997E+02  0.45594000000E+02  0.51100000000E-03 0. -1.
         11   -1    0    0    0    0 -0.00000000000E+00 -0.00000000000E+00 -0.45593999997E+02  0.45594000000E+02  0.51100000000E-03 0.  1.
         23    2    1    2    0    0 -0.44408920985E-15  0.35527136788E-14  0.00000000000E+00  0.91188000000E+02  0.91188000000E+02 0.  0.
    9900012    2    3    3    0    0 -0.33728453223E+01 -0.27746672168E+02 -0.33201949935E+02  0.47787269805E+02  0.19999994349E+02 0.  0.
         12    1    3    3    0    0  0.33728453223E+01  0.27746672168E+02  0.33201949935E+02  0.43400730195E+02  0.00000000000E+00 0. -1.
         11    1    4    4    0    0  0.12340020625E+01 -0.11173194787E+02 -0.16486936186E+02  0.19954500944E+02  0.51100000000E-03 0. -1.
        -11    1    4    4    0    0 -0.19799444766E+01 -0.12297167111E+02 -0.24280994021E+01  0.12690002602E+02  0.51100000000E-03 0.  1.
        -12    1    4    4    0    0 -0.26269029082E+01 -0.42763102700E+01 -0.14286914347E+02  0.15142766259E+02  0.00000000000E+00 0.  1.
</event>
<event>
 8    1  0.5331800E-011  0.9118800E+02  0.7816164E-02  0.1184000E+00
        -11   -1    0    0    0    0  0.00000000000E+00  0.00000000000E+00  0.45593999997E+02  0.45594000000E+02  0.51100000000E-03 0. -1.
         11   -1    0    0    0    0 -0.00000000000E+00 -0.00000000000E+00 -0.45593999997E+02  0.45594000000E+02  0.51100000000E-03 0.  1.
         23    2    1    2    0    0 -0.35527136788E-14  0.00000000000E+00  0.00000000000E+00  0.91188000000E+02  0.91188000000E+02 0.  0.
    9900012    2    3    3    0    0 -0.22295097329E+02 -0.10757135952E+02  0.35648784411E+02  0.47787272255E+02  0.20000005521E+02 0.  0.
        -12    1    3    3    0    0  0.22295097329E+02  0.10757135952E+02 -0.35648784411E+02  0.43400727745E+02  0.00000000000E+00 0.  1.
         11    1    4    4    0    0 -0.20537474037E+02 -0.14822353285E+02  0.29002299017E+02  0.38504848334E+02  0.51100000000E-03 0. -1.
        -11    1    4    4    0    0  0.11779262767E+01  0.27645598068E+01  0.45325349513E+01  0.54382142827E+01  0.51100000000E-03 0.  1.
         12    1    4    4    0    0 -0.29355495684E+01  0.13006575262E+01  0.21139504428E+01  0.38442096383E+01  0.00000000000E+00 0. -1.
</event>
<event>
 8    1  0.5331800E-011  0.9118800E+02  0.7816164E-02  0.1184000E+00
        -11   -1    0    0    0    0  0.00000000000E+00  0.00000000000E+00  0.45593999997E+02  0.45594000000E+02  0.51100000000E-03 0. -1.
         11   -1    0    0    0    0 -0.00000000000E+00 -0.00000000000E+00 -0.45593999997E+02  0.45594000000E+02  0.51100000000E-03 0.  1.
         23    2    1    2    0    0  0.00000000000E+00 -0.17763568394E-14  0.00000000000E+00  0.91188000000E+02  0.91188000000E+02 0.  0.
    9900012    2    3    3    0    0 -0.44895219456E+01 -0.15851068087E+02  0.40152343435E+02  0.47787275926E+02  0.20000022257E+02 0.  0.
        -12    1    3    3    0    0  0.44895219456E+01  0.15851068087E+02 -0.40152343435E+02  0.43400724074E+02  0.00000000000E+00 0.  1.
         11    1    4    4    0    0  0.62004625760E+00 -0.92738688048E+01  0.52715654683E+01  0.10685434138E+02  0.51100000000E-03 0. -1.
        -11    1    4    4    0    0 -0.22570117354E+01  0.72744161924E+00  0.14855115261E+01  0.27982169391E+01  0.51100000000E-03 0.  1.
         12    1    4    4    0    0 -0.28525564678E+01 -0.73046409018E+01  0.33395266441E+02  0.34303624849E+02  0.00000000000E+00 0. -1.
</event>
<event>
 8    1  0.5331800E-011  0.9118800E+02  0.7816164E-02  0.1184000E+00
        -11   -1    0    0    0    0  0.00000000000E+00  0.00000000000E+00  0.45593999997E+02  0.45594000000E+02  0.51100000000E-03 0. -1.
         11   -1    0    0    0    0 -0.00000000000E+00 -0.00000000000E+00 -0.45593999997E+02  0.45594000000E+02  0.51100000000E-03 0.  1.
         23    2    1    2    0    0 -0.11102230246E-15  0.00000000000E+00  0.00000000000E+00  0.91188000000E+02  0.91188000000E+02 0.  0.
    9900012    2    3    3    0    0 -0.20854917254E+00  0.37984584133E+02  0.20994065058E+02  0.47787275442E+02  0.20000020049E+02 0.  0.
        -12    1    3    3    0    0  0.20854917254E+00 -0.37984584133E+02 -0.20994065058E+02  0.43400724558E+02  0.00000000000E+00 0.  1.
         11    1    4    4    0    0  0.48653400711E+01  0.14816615926E+02  0.17893038514E+02  0.23735300062E+02  0.51100000000E-03 0. -1.
        -11    1    4    4    0    0 -0.36040786308E+01  0.16900943907E+02  0.11210712055E+01  0.17317277171E+02  0.51100000000E-03 0.  1.
         12    1    4    4    0    0 -0.14698106128E+01  0.62670243002E+01  0.19799553389E+01  0.67346982086E+01  0.00000000000E+00 0. -1.
</event>
<event>
 8    1  0.5331800E-011  0.9118800E+02  0.7816164E-02  0.1184000E+00
        -11   -1    0    0    0    0  0.00000000000E+00  0.00000000000E+00  0.45593999997E+02  0.45594000000E+02  0.51100000000E-03 0. -1.
         11   -1    0    0    0    0 -0.00000000000E+00 -0.00000000000E+00 -0.45593999997E+02  0.45594000000E+02  0.51100000000E-03 0.  1.
         23    2    1    2    0    0  0.00000000000E+00  0.00000000000E+00  0.00000000000E+00  0.91188000000E+02  0.91188000000E+02 0.  0.
    9900012    2    3    3    0    0  0.25011746970E+02 -0.12198689619E+02 -0.33305070793E+02  0.47787271257E+02  0.20000000969E+02 0.  0.
         12    1    3    3    0    0 -0.25011746970E+02  0.12198689619E+02  0.33305070793E+02  0.43400728743E+02  0.00000000000E+00 0. -1.
         11    1    4    4    0    0  0.21945655607E+01 -0.38440710350E+00  0.10440491385E+01  0.24604726550E+01  0.51100000000E-03 0. -1.
        -11    1    4    4    0    0  0.13054510029E+02 -0.52588632386E+01 -0.29347985654E+02  0.32548120327E+02  0.51100000000E-03 0.  1.
        -12    1    4    4    0    0  0.97626713810E+01 -0.65554192769E+01 -0.50011342775E+01  0.12778678275E+02  0.00000000000E+00 0.  1.
</event>
<event>
 8    1  0.5331800E-011  0.9118800E+02  0.7816164E-02  0.1184000E+00
        -11   -1    0    0    0    0  0.00000000000E+00  0.00000000000E+00  0.45593999997E+02  0.45594000000E+02  0.51100000000E-03 0. -1.
         11   -1    0    0    0    0 -0.00000000000E+00 -0.00000000000E+00 -0.45593999997E+02  0.45594000000E+02  0.51100000000E-03 0.  1.
         23    2    1    2    0    0  0.00000000000E+00  0.00000000000E+00 -0.71054273576E-14  0.91188000000E+02  0.91188000000E+02 0.  0.
    9900012    2    3    3    0    0  0.75709984022E+01  0.58986762019E+00 -0.42731197832E+02  0.47787271564E+02  0.20000002371E+02 0.  0.
         12    1    3    3    0    0 -0.75709984022E+01 -0.58986762019E+00  0.42731197832E+02  0.43400728436E+02  0.00000000000E+00 0. -1.
         11    1    4    4    0    0  0.10658726100E+02  0.25819882344E+01 -0.17576647416E+02  0.20717471852E+02  0.51100000000E-03 0. -1.
        -11    1    4    4    0    0  0.31224285665E+01 -0.18010980298E+01 -0.68663265068E+01  0.77549954368E+01  0.51100000000E-03 0.  1.
         12    1    4    4    0    0 -0.62101562638E+01 -0.19102258440E+00 -0.18288223909E+02  0.19314804275E+02  0.00000000000E+00 0. -1.
</event>
<event>
 8    1  0.5331800E-011  0.9118800E+02  0.7816164E-02  0.1184000E+00
        -11   -1    0    0    0    0  0.00000000000E+00  0.00000000000E+00  0.45593999997E+02  0.45594000000E+02  0.51100000000E-03 0. -1.
         11   -1    0    0    0    0 -0.00000000000E+00 -0.00000000000E+00 -0.45593999997E+02  0.45594000000E+02  0.51100000000E-03 0.  1.
         23    2    1    2    0    0  0.00000000000E+00  0.00000000000E+00 -0.88817841970E-15  0.91188000000E+02  0.91188000000E+02 0.  0.
    9900012    2    3    3    0    0 -0.72762069048E+01 -0.42069861476E+02 -0.77978809246E+01  0.47787269840E+02  0.19999994507E+02 0.  0.
         12    1    3    3    0    0  0.72762069048E+01  0.42069861476E+02  0.77978809246E+01  0.43400730160E+02  0.00000000000E+00 0. -1.
         11    1    4    4    0    0  0.97692239329E+00 -0.10546014838E+02  0.19509109191E+01  0.10769348169E+02  0.51100000000E-03 0. -1.
        -11    1    4    4    0    0 -0.99461857892E+01 -0.15774028604E+02 -0.10031327366E+02  0.21174846378E+02  0.51100000000E-03 0.  1.
        -12    1    4    4    0    0  0.16930564911E+01 -0.15749818035E+02  0.28253552198E+00  0.15843075293E+02  0.00000000000E+00 0.  1.
</event>
<event>
 8    1  0.5331800E-011  0.9118800E+02  0.7816164E-02  0.1184000E+00
        -11   -1    0    0    0    0  0.00000000000E+00  0.00000000000E+00  0.45593999997E+02  0.45594000000E+02  0.51100000000E-03 0. -1.
         11   -1    0    0    0    0 -0.00000000000E+00 -0.00000000000E+00 -0.45593999997E+02  0.45594000000E+02  0.51100000000E-03 0.  1.
         23    2    1    2    0    0 -0.17763568394E-14  0.00000000000E+00 -0.35527136788E-14  0.91188000000E+02  0.91188000000E+02 0.  0.
    9900012    2    3    3    0    0 -0.12288639099E+02  0.36555836650E+02 -0.19906880482E+02  0.47787265736E+02  0.19999975797E+02 0.  0.
         12    1    3    3    0    0  0.12288639099E+02 -0.36555836650E+02  0.19906880482E+02  0.43400734264E+02  0.00000000000E+00 0. -1.
         11    1    4    4    0    0 -0.79834524817E+01  0.24006722775E+01 -0.20221527528E+01  0.85783356735E+01  0.51100000000E-03 0. -1.
        -11    1    4    4    0    0  0.10759235296E+01  0.13546130642E+02 -0.72409364055E+01  0.15397611084E+02  0.51100000000E-03 0.  1.
         12    1    4    4    0    0 -0.53811101469E+01  0.20609033731E+02 -0.10643791324E+02  0.23811318979E+02  0.00000000000E+00 0. -1.
</event>
<event>
 8    1  0.5331800E-011  0.9118800E+02  0.7816164E-02  0.1184000E+00
        -11   -1    0    0    0    0  0.00000000000E+00  0.00000000000E+00  0.45593999997E+02  0.45594000000E+02  0.51100000000E-03 0. -1.
         11   -1    0    0    0    0 -0.00000000000E+00 -0.00000000000E+00 -0.45593999997E+02  0.45594000000E+02  0.51100000000E-03 0.  1.
         23    2    1    2    0    0 -0.35527136788E-14  0.00000000000E+00  0.35527136788E-14  0.91188000000E+02  0.91188000000E+02 0.  0.
    9900012    2    3    3    0    0  0.23172131972E+02 -0.18136175234E+02  0.31902270164E+02  0.47787269662E+02  0.19999993698E+02 0.  0.
        -12    1    3    3    0    0 -0.23172131972E+02  0.18136175234E+02 -0.31902270164E+02  0.43400730338E+02  0.00000000000E+00 0.  1.
         11    1    4    4    0    0  0.56627970425E+01 -0.22887896229E+01  0.11835681919E+02  0.13318753509E+02  0.51100000000E-03 0. -1.
        -11    1    4    4    0    0 -0.16289504002E+01 -0.65396373247E+01  0.50791550653E+01  0.84390847954E+01  0.51100000000E-03 0.  1.
        -12    1    4    4    0    0  0.19138285329E+02 -0.93077482867E+01  0.14987433180E+02  0.26029431358E+02  0.00000000000E+00 0.  1.
</event>
<event>
 8    1  0.5331800E-011  0.9118800E+02  0.7816164E-02  0.1184000E+00
        -11   -1    0    0    0    0  0.00000000000E+00  0.00000000000E+00  0.45593999997E+02  0.45594000000E+02  0.51100000000E-03 0. -1.
         11   -1    0    0    0    0 -0.00000000000E+00 -0.00000000000E+00 -0.45593999997E+02  0.45594000000E+02  0.51100000000E-03 0.  1.
         23    2    1    2    0    0  0.00000000000E+00  0.35527136788E-14  0.35527136788E-14  0.91188000000E+02  0.91188000000E+02 0.  0.
    9900012    2    3    3    0    0  0.22418780755E+02 -0.21338640489E+02 -0.30425049542E+02  0.47787274798E+02  0.20000017113E+02 0.  0.
         12    1    3    3    0    0 -0.22418780755E+02  0.21338640489E+02  0.30425049542E+02  0.43400725202E+02  0.00000000000E+00 0. -1.
         11    1    4    4    0    0  0.17288613869E+02 -0.19143565103E+02 -0.25163848107E+02  0.36035975166E+02  0.51100000000E-03 0. -1.
        -11    1    4    4    0    0  0.22999684454E+01 -0.27250498894E+01 -0.73665983521E+01  0.81842851424E+01  0.51100000000E-03 0.  1.
         12    1    4    4    0    0  0.28301984406E+01  0.52997450356E+00  0.21053969171E+01  0.35670144892E+01  0.00000000000E+00 0. -1.
</event>
<event>
 8    1  0.5331800E-011  0.9118800E+02  0.7816164E-02  0.1184000E+00
        -11   -1    0    0    0    0  0.00000000000E+00  0.00000000000E+00  0.45593999997E+02  0.45594000000E+02  0.51100000000E-03 0. -1.
         11   -1    0    0    0    0 -0.00000000000E+00 -0.00000000000E+00 -0.45593999997E+02  0.45594000000E+02  0.51100000000E-03 0.  1.
         23    2    1    2    0    0  0.17763568394E-14  0.35527136788E-14  0.00000000000E+00  0.91188000000E+02  0.91188000000E+02 0.  0.
    9900012    2    3    3    0    0 -0.80965312589E+01 -0.23837234599E+02 -0.35353304944E+02  0.47787265649E+02  0.19999975398E+02 0.  0.
         12    1    3    3    0    0  0.80965312589E+01  0.23837234599E+02  0.35353304944E+02  0.43400734351E+02  0.00000000000E+00 0. -1.
         11    1    4    4    0    0  0.28036632683E+01 -0.13922665325E+02 -0.94487566533E+01  0.17058139993E+02  0.51100000000E-03 0. -1.
        -11    1    4    4    0    0 -0.14819061091E+01 -0.62431001018E+01 -0.97065405617E+01  0.11635689689E+02  0.51100000000E-03 0.  1.
         12    1    4    4    0    0 -0.94182884181E+01 -0.36714691722E+01 -0.16198007729E+02  0.19093435967E+02  0.00000000000E+00 0. -1.
</event>
<event>
 8    1  0.5331800E-011  0.9118800E+02  0.7816164E-02  0.1184000E+00
        -11   -1    0    0    0    0  0.00000000000E+00  0.00000000000E+00  0.45593999997E+02  0.45594000000E+02  0.51100000000E-03 0.  1.
         11   -1    0    0    0    0 -0.00000000000E+00 -0.00000000000E+00 -0.45593999997E+02  0.45594000000E+02  0.51100000000E-03 0. -1.
         23    2    1    2    0    0  0.00000000000E+00  0.17763568394E-14  0.35527136788E-14  0.91188000000E+02  0.91188000000E+02 0.  0.
    9900012    2    3    3    0    0 -0.36723507124E+02 -0.10958524553E+02 -0.20369542245E+02  0.47787268588E+02  0.19999988799E+02 0.  0.
         12    1    3    3    0    0  0.36723507124E+02  0.10958524553E+02  0.20369542245E+02  0.43400731412E+02  0.00000000000E+00 0. -1.
         11    1    4    4    0    0 -0.78316233029E+01 -0.88724719648E+01 -0.65038542412E-01  0.11834665715E+02  0.51100000000E-03 0. -1.
        -11    1    4    4    0    0 -0.15455655865E+02  0.18921081606E+01 -0.93156215826E+01  0.18144921527E+02  0.51100000000E-03 0.  1.
        -12    1    4    4    0    0 -0.13436227956E+02 -0.39781607487E+01 -0.10988882120E+02  0.17807681345E+02  0.00000000000E+00 0.  1.
</event>
<event>
 8    1  0.5331800E-011  0.9118800E+02  0.7816164E-02  0.1184000E+00
        -11   -1    0    0    0    0  0.00000000000E+00  0.00000000000E+00  0.45593999997E+02  0.45594000000E+02  0.51100000000E-03 0. -1.
         11   -1    0    0    0    0 -0.00000000000E+00 -0.00000000000E+00 -0.45593999997E+02  0.45594000000E+02  0.51100000000E-03 0.  1.
         23    2    1    2    0    0  0.35527136788E-14  0.00000000000E+00  0.00000000000E+00  0.91188000000E+02  0.91188000000E+02 0.  0.
    9900012    2    3    3    0    0 -0.20904681111E+02  0.88567973696E+01 -0.36988845556E+02  0.47787271347E+02  0.20000001381E+02 0.  0.
         12    1    3    3    0    0  0.20904681111E+02 -0.88567973696E+01  0.36988845556E+02  0.43400728653E+02  0.00000000000E+00 0. -1.
         11    1    4    4    0    0 -0.61393317981E+01 -0.48179948253E+01 -0.79116795303E+01  0.11113016796E+02  0.51100000000E-03 0. -1.
        -11    1    4    4    0    0 -0.12409833966E+02  0.15045807136E+02 -0.26652963616E+02  0.33026667425E+02  0.51100000000E-03 0.  1.
        -12    1    4    4    0    0 -0.23555153464E+01 -0.13710149408E+01 -0.24242024107E+01  0.36475871261E+01  0.00000000000E+00 0.  1.
</event>
<event>
 8    1  0.5331800E-011  0.9118800E+02  0.7816164E-02  0.1184000E+00
        -11   -1    0    0    0    0  0.00000000000E+00  0.00000000000E+00  0.45593999997E+02  0.45594000000E+02  0.51100000000E-03 0.  1.
         11   -1    0    0    0    0 -0.00000000000E+00 -0.00000000000E+00 -0.45593999997E+02  0.45594000000E+02  0.51100000000E-03 0. -1.
         23    2    1    2    0    0  0.00000000000E+00 -0.71054273576E-14  0.00000000000E+00  0.91188000000E+02  0.91188000000E+02 0.  0.
    9900012    2    3    3    0    0  0.46904834246E+01 -0.42715654385E+02 -0.60823774148E+01  0.47787273285E+02  0.20000010218E+02 0.  0.
         12    1    3    3    0    0 -0.46904834246E+01  0.42715654385E+02  0.60823774148E+01  0.43400726715E+02  0.00000000000E+00 0. -1.
         11    1    4    4    0    0 -0.48578022963E+01 -0.51871639653E+01  0.12366335867E+01  0.72134718438E+01  0.51100000000E-03 0. -1.
        -11    1    4    4    0    0  0.90983027147E+01 -0.16339856181E+02 -0.29211430447E+01  0.18928895617E+02  0.51100000000E-03 0.  1.
         12    1    4    4    0    0  0.44998300624E+00 -0.21188634239E+02 -0.43978679568E+01  0.21644905825E+02  0.00000000000E+00 0. -1.
</event>
<event>
 8    1  0.5331800E-011  0.9118800E+02  0.7816164E-02  0.1184000E+00
        -11   -1    0    0    0    0  0.00000000000E+00  0.00000000000E+00  0.45593999997E+02  0.45594000000E+02  0.51100000000E-03 0. -1.
         11   -1    0    0    0    0 -0.00000000000E+00 -0.00000000000E+00 -0.45593999997E+02  0.45594000000E+02  0.51100000000E-03 0.  1.
         23    2    1    2    0    0  0.35527136788E-14  0.00000000000E+00  0.33306690739E-15  0.91188000000E+02  0.91188000000E+02 0.  0.
    9900012    2    3    3    0    0 -0.22127427678E+02 -0.37329379248E+02  0.71943363952E+00  0.47787271947E+02  0.20000004117E+02 0.  0.
         12    1    3    3    0    0  0.22127427678E+02  0.37329379248E+02 -0.71943363952E+00  0.43400728053E+02  0.00000000000E+00 0. -1.
         11    1    4    4    0    0 -0.27907460311E+00 -0.12678349320E+02  0.38001820336E+00  0.12687113076E+02  0.51100000000E-03 0. -1.
        -11    1    4    4    0    0 -0.20699713753E+02 -0.23408879991E+02 -0.29641929691E+01  0.31388536954E+02  0.51100000000E-03 0.  1.
         12    1    4    4    0    0 -0.11486393222E+01 -0.12421499374E+01  0.33036084053E+01  0.37116219171E+01  0.00000000000E+00 0. -1.
</event>
<event>
 8    1  0.5331800E-011  0.9118800E+02  0.7816164E-02  0.1184000E+00
        -11   -1    0    0    0    0  0.00000000000E+00  0.00000000000E+00  0.45593999997E+02  0.45594000000E+02  0.51100000000E-03 0. -1.
         11   -1    0    0    0    0 -0.00000000000E+00 -0.00000000000E+00 -0.45593999997E+02  0.45594000000E+02  0.51100000000E-03 0.  1.
         23    2    1    2    0    0  0.00000000000E+00 -0.71054273576E-14  0.00000000000E+00  0.91188000000E+02  0.91188000000E+02 0.  0.
    9900012    2    3    3    0    0  0.58725352234E+01  0.35076801485E+02  0.24874779207E+02  0.47787270594E+02  0.19999997947E+02 0.  0.
        -12    1    3    3    0    0 -0.58725352234E+01 -0.35076801485E+02 -0.24874779207E+02  0.43400729406E+02  0.00000000000E+00 0.  1.
         11    1    4    4    0    0 -0.88388025445E+00  0.15593070425E+02  0.21035911659E+02  0.26199898266E+02  0.51100000000E-03 0. -1.
        -11    1    4    4    0    0  0.45769087107E+01  0.12844341956E+02  0.49609889580E+01  0.14509880266E+02  0.51100000000E-03 0.  1.
         12    1    4    4    0    0  0.21795067672E+01  0.66393891045E+01 -0.11221214105E+01  0.70774920621E+01  0.00000000000E+00 0. -1.
</event>
<event>
 8    1  0.5331800E-011  0.9118800E+02  0.7816164E-02  0.1184000E+00
        -11   -1    0    0    0    0  0.00000000000E+00  0.00000000000E+00  0.45593999997E+02  0.45594000000E+02  0.51100000000E-03 0. -1.
         11   -1    0    0    0    0 -0.00000000000E+00 -0.00000000000E+00 -0.45593999997E+02  0.45594000000E+02  0.51100000000E-03 0.  1.
         23    2    1    2    0    0  0.00000000000E+00  0.00000000000E+00 -0.35527136788E-14  0.91188000000E+02  0.91188000000E+02 0.  0.
    9900012    2    3    3    0    0  0.10484539462E+02 -0.31172601631E+02 -0.28319022702E+02  0.47787266055E+02  0.19999977250E+02 0.  0.
         12    1    3    3    0    0 -0.10484539462E+02  0.31172601631E+02  0.28319022702E+02  0.43400733945E+02  0.00000000000E+00 0. -1.
         11    1    4    4    0    0  0.99867295483E+01 -0.12833406921E+02 -0.17448819245E+02  0.23851465229E+02  0.51100000000E-03 0. -1.
        -11    1    4    4    0    0  0.25133209521E+01 -0.17744123773E+02 -0.64591267755E+01  0.19049698938E+02  0.51100000000E-03 0.  1.
        -12    1    4    4    0    0 -0.20155110384E+01 -0.59507093774E+00 -0.44110766812E+01  0.48861018874E+01  0.00000000000E+00 0.  1.
</event>
<event>
 8    1  0.5331800E-011  0.9118800E+02  0.7816164E-02  0.1184000E+00
        -11   -1    0    0    0    0  0.00000000000E+00  0.00000000000E+00  0.45593999997E+02  0.45594000000E+02  0.51100000000E-03 0. -1.
         11   -1    0    0    0    0 -0.00000000000E+00 -0.00000000000E+00 -0.45593999997E+02  0.45594000000E+02  0.51100000000E-03 0.  1.
         23    2    1    2    0    0 -0.17763568394E-14  0.35527136788E-14  0.00000000000E+00  0.91188000000E+02  0.91188000000E+02 0.  0.
    9900012    2    3    3    0    0 -0.15317869337E+02  0.20654739434E+02  0.34962379588E+02  0.47787269954E+02  0.19999995027E+02 0.  0.
        -12    1    3    3    0    0  0.15317869337E+02 -0.20654739434E+02 -0.34962379588E+02  0.43400730046E+02  0.00000000000E+00 0.  1.
         11    1    4    4    0    0 -0.85385859273E+01  0.18909037132E+02  0.21653414289E+02  0.29988822676E+02  0.51100000000E-03 0. -1.
        -11    1    4    4    0    0 -0.31403363864E+01 -0.25077749116E+01  0.80489000284E+00  0.40985968093E+01  0.51100000000E-03 0.  1.
        -12    1    4    4    0    0 -0.36389470236E+01  0.42534772140E+01  0.12504075296E+02  0.13699850468E+02  0.00000000000E+00 0.  1.
</event>
<event>
 8    1  0.5331800E-011  0.9118800E+02  0.7816164E-02  0.1184000E+00
        -11   -1    0    0    0    0  0.00000000000E+00  0.00000000000E+00  0.45593999997E+02  0.45594000000E+02  0.51100000000E-03 0. -1.
         11   -1    0    0    0    0 -0.00000000000E+00 -0.00000000000E+00 -0.45593999997E+02  0.45594000000E+02  0.51100000000E-03 0.  1.
         23    2    1    2    0    0 -0.35527136788E-14  0.00000000000E+00  0.00000000000E+00  0.91188000000E+02  0.91188000000E+02 0.  0.
    9900012    2    3    3    0    0 -0.24363597321E+02  0.26691185259E+02  0.24033708696E+02  0.47787269607E+02  0.19999993446E+02 0.  0.
        -12    1    3    3    0    0  0.24363597321E+02 -0.26691185259E+02 -0.24033708696E+02  0.43400730393E+02  0.00000000000E+00 0.  1.
         11    1    4    4    0    0 -0.17466010995E+02  0.17290508335E+02  0.24064657567E+02  0.34396670807E+02  0.51100000000E-03 0. -1.
        -11    1    4    4    0    0 -0.46752330573E+00  0.32685019513E+01  0.25117890638E+01  0.41485862181E+01  0.51100000000E-03 0.  1.
         12    1    4    4    0    0 -0.64300630206E+01  0.61321749732E+01 -0.25427379351E+01  0.92420125815E+01  0.00000000000E+00 0. -1.
</event>
<event>
 8    1  0.5331800E-011  0.9118800E+02  0.7816164E-02  0.1184000E+00
        -11   -1    0    0    0    0  0.00000000000E+00  0.00000000000E+00  0.45593999997E+02  0.45594000000E+02  0.51100000000E-03 0.  1.
         11   -1    0    0    0    0 -0.00000000000E+00 -0.00000000000E+00 -0.45593999997E+02  0.45594000000E+02  0.51100000000E-03 0. -1.
         23    2    1    2    0    0  0.35527136788E-14 -0.35527136788E-14  0.00000000000E+00  0.91188000000E+02  0.91188000000E+02 0.  0.
    9900012    2    3    3    0    0  0.28643823111E+02 -0.31048482678E+02 -0.99571194181E+01  0.47787296018E+02  0.20000113863E+02 0.  0.
         12    1    3    3    0    0 -0.28643823111E+02  0.31048482678E+02  0.99571194181E+01  0.43400703982E+02  0.00000000000E+00 0. -1.
         11    1    4    4    0    0  0.78640111698E+01 -0.47071979719E+01  0.27393209685E+01  0.95657861179E+01  0.51100000000E-03 0. -1.
        -11    1    4    4    0    0  0.19096791959E+02 -0.26784951048E+02 -0.89513912278E+01  0.34091765442E+02  0.51100000000E-03 0.  1.
        -12    1    4    4    0    0  0.16830199827E+01  0.44366634230E+00 -0.37450491587E+01  0.41297444578E+01  0.00000000000E+00 0.  1.
</event>
<event>
 8    1  0.5331800E-011  0.9118800E+02  0.7816164E-02  0.1184000E+00
        -11   -1    0    0    0    0  0.00000000000E+00  0.00000000000E+00  0.45593999997E+02  0.45594000000E+02  0.51100000000E-03 0. -1.
         11   -1    0    0    0    0 -0.00000000000E+00 -0.00000000000E+00 -0.45593999997E+02  0.45594000000E+02  0.51100000000E-03 0.  1.
         23    2    1    2    0    0  0.00000000000E+00  0.00000000000E+00  0.00000000000E+00  0.91188000000E+02  0.91188000000E+02 0.  0.
    9900012    2    3    3    0    0 -0.14965440779E+02  0.81674098973E+01 -0.39911807505E+02  0.47787269817E+02  0.19999994402E+02 0.  0.
         12    1    3    3    0    0  0.14965440779E+02 -0.81674098973E+01  0.39911807505E+02  0.43400730183E+02  0.00000000000E+00 0. -1.
         11    1    4    4    0    0 -0.89064423411E+01  0.96945269749E+01 -0.24240475241E+02  0.27584582806E+02  0.51100000000E-03 0. -1.
        -11    1    4    4    0    0 -0.97102295928E+00  0.30706219081E+01 -0.11999047475E+02  0.12423717038E+02  0.51100000000E-03 0.  1.
         12    1    4    4    0    0 -0.50879754787E+01 -0.45977389857E+01 -0.36722847895E+01  0.77789699721E+01  0.00000000000E+00 0. -1.
</event>
<event>
 8    1  0.5331800E-011  0.9118800E+02  0.7816164E-02  0.1184000E+00
        -11   -1    0    0    0    0  0.00000000000E+00  0.00000000000E+00  0.45593999997E+02  0.45594000000E+02  0.51100000000E-03 0. -1.
         11   -1    0    0    0    0 -0.00000000000E+00 -0.00000000000E+00 -0.45593999997E+02  0.45594000000E+02  0.51100000000E-03 0.  1.
         23    2    1    2    0    0 -0.35527136788E-14  0.88817841970E-15  0.35527136788E-14  0.91188000000E+02  0.91188000000E+02 0.  0.
    9900012    2    3    3    0    0  0.30737489565E+02  0.66338469806E+01  0.29913592098E+02  0.47787260574E+02  0.19999952262E+02 0.  0.
        -12    1    3    3    0    0 -0.30737489565E+02 -0.66338469806E+01 -0.29913592098E+02  0.43400739426E+02  0.00000000000E+00 0.  1.
         11    1    4    4    0    0  0.25467875673E+02  0.10967947254E+02  0.21355533882E+02  0.34999534081E+02  0.51100000000E-03 0. -1.
        -11    1    4    4    0    0  0.37699237616E+01 -0.58276855653E+01  0.80150602056E+01  0.10602614516E+02  0.51100000000E-03 0.  1.
         12    1    4    4    0    0  0.14996901308E+01  0.14935852920E+01  0.54299800954E+00  0.21851119768E+01  0.00000000000E+00 0. -1.
</event>
<event>
 8    1  0.5331800E-011  0.9118800E+02  0.7816164E-02  0.1184000E+00
        -11   -1    0    0    0    0  0.00000000000E+00  0.00000000000E+00  0.45593999997E+02  0.45594000000E+02  0.51100000000E-03 0. -1.
         11   -1    0    0    0    0 -0.00000000000E+00 -0.00000000000E+00 -0.45593999997E+02  0.45594000000E+02  0.51100000000E-03 0.  1.
         23    2    1    2    0    0 -0.53290705182E-14 -0.17763568394E-14  0.71054273576E-14  0.91188000000E+02  0.91188000000E+02 0.  0.
    9900012    2    3    3    0    0 -0.13941661275E+02 -0.10115993498E+02  0.39836194730E+02  0.47787243623E+02  0.19999874973E+02 0.  0.
        -12    1    3    3    0    0  0.13941661275E+02  0.10115993498E+02 -0.39836194730E+02  0.43400756377E+02  0.00000000000E+00 0.  1.
         11    1    4    4    0    0  0.21454647634E+01 -0.12107668327E+01  0.10088491867E+01  0.26620954747E+01  0.51100000000E-03 0. -1.
        -11    1    4    4    0    0  0.16127694840E+01 -0.31368459741E+01  0.11732955647E+02  0.12251656074E+02  0.51100000000E-03 0.  1.
         12    1    4    4    0    0 -0.17699895522E+02 -0.57683806914E+01  0.27094389896E+02  0.32873492074E+02  0.00000000000E+00 0. -1.
</event>
<event>
 8    1  0.5331800E-011  0.9118800E+02  0.7816164E-02  0.1184000E+00
        -11   -1    0    0    0    0  0.00000000000E+00  0.00000000000E+00  0.45593999997E+02  0.45594000000E+02  0.51100000000E-03 0. -1.
         11   -1    0    0    0    0 -0.00000000000E+00 -0.00000000000E+00 -0.45593999997E+02  0.45594000000E+02  0.51100000000E-03 0.  1.
         23    2    1    2    0    0  0.00000000000E+00  0.00000000000E+00  0.00000000000E+00  0.91188000000E+02  0.91188000000E+02 0.  0.
    9900012    2    3    3    0    0 -0.26596269520E+02 -0.18930619788E+02 -0.28598838010E+02  0.47787268975E+02  0.19999990567E+02 0.  0.
         12    1    3    3    0    0  0.26596269520E+02  0.18930619788E+02  0.28598838010E+02  0.43400731025E+02  0.00000000000E+00 0. -1.
         11    1    4    4    0    0  0.15913080176E-01 -0.16073891771E+01 -0.49661032189E+00  0.16824313555E+01  0.51100000000E-03 0. -1.
        -11    1    4    4    0    0 -0.57171655450E+01 -0.35905632094E+00 -0.15227929418E+02  0.16269749166E+02  0.51100000000E-03 0.  1.
        -12    1    4    4    0    0 -0.20895017055E+02 -0.16964174290E+02 -0.12874298269E+02  0.29835088454E+02  0.00000000000E+00 0.  1.
</event>
<event>
 8    1  0.5331800E-011  0.9118800E+02  0.7816164E-02  0.1184000E+00
        -11   -1    0    0    0    0  0.00000000000E+00  0.00000000000E+00  0.45593999997E+02  0.45594000000E+02  0.51100000000E-03 0.  1.
         11   -1    0    0    0    0 -0.00000000000E+00 -0.00000000000E+00 -0.45593999997E+02  0.45594000000E+02  0.51100000000E-03 0. -1.
         23    2    1    2    0    0  0.00000000000E+00 -0.35527136788E-14  0.00000000000E+00  0.91188000000E+02  0.91188000000E+02 0.  0.
    9900012    2    3    3    0    0  0.38648233215E+02 -0.19612244203E+02 -0.23015545828E+01  0.47787271818E+02  0.20000003525E+02 0.  0.
         12    1    3    3    0    0 -0.38648233215E+02  0.19612244203E+02  0.23015545828E+01  0.43400728182E+02  0.00000000000E+00 0. -1.
         11    1    4    4    0    0  0.34757384259E+01 -0.34956290731E+01 -0.32249948295E+01  0.58907361283E+01  0.51100000000E-03 0. -1.
        -11    1    4    4    0    0  0.69962988486E+01 -0.94424587718E+01  0.47762723192E+01  0.12685464231E+02  0.51100000000E-03 0.  1.
        -12    1    4    4    0    0  0.28176195940E+02 -0.66741563577E+01 -0.38528320725E+01  0.29211071458E+02  0.00000000000E+00 0.  1.
</event>
<event>
 8    1  0.5331800E-011  0.9118800E+02  0.7816164E-02  0.1184000E+00
        -11   -1    0    0    0    0  0.00000000000E+00  0.00000000000E+00  0.45593999997E+02  0.45594000000E+02  0.51100000000E-03 0. -1.
         11   -1    0    0    0    0 -0.00000000000E+00 -0.00000000000E+00 -0.45593999997E+02  0.45594000000E+02  0.51100000000E-03 0.  1.
         23    2    1    2    0    0 -0.17763568394E-14 -0.88817841970E-15  0.00000000000E+00  0.91188000000E+02  0.91188000000E+02 0.  0.
    9900012    2    3    3    0    0  0.12076743886E+02  0.72732421457E+01 -0.41047222922E+02  0.47787282220E+02  0.20000050954E+02 0.  0.
         12    1    3    3    0    0 -0.12076743886E+02 -0.72732421457E+01  0.41047222922E+02  0.43400717780E+02  0.00000000000E+00 0. -1.
         11    1    4    4    0    0  0.17819003917E+01  0.61812605616E+00  0.20834410074E+01  0.28103337026E+01  0.51100000000E-03 0. -1.
        -11    1    4    4    0    0  0.80182657271E+01  0.55004305930E+01 -0.38279651135E+02  0.39495303686E+02  0.51100000000E-03 0.  1.
        -12    1    4    4    0    0  0.22765777669E+01  0.11546854966E+01 -0.48510127947E+01  0.54816448315E+01  0.00000000000E+00 0.  1.
</event>
<event>
 8    1  0.5331800E-011  0.9118800E+02  0.7816164E-02  0.1184000E+00
        -11   -1    0    0    0    0  0.00000000000E+00  0.00000000000E+00  0.45593999997E+02  0.45594000000E+02  0.51100000000E-03 0. -1.
         11   -1    0    0    0    0 -0.00000000000E+00 -0.00000000000E+00 -0.45593999997E+02  0.45594000000E+02  0.51100000000E-03 0.  1.
         23    2    1    2    0    0  0.00000000000E+00 -0.44408920985E-15  0.00000000000E+00  0.91188000000E+02  0.91188000000E+02 0.  0.
    9900012    2    3    3    0    0  0.15611107185E+02 -0.20904700307E+01  0.40441888262E+02  0.47787273524E+02  0.20000011304E+02 0.  0.
        -12    1    3    3    0    0 -0.15611107185E+02  0.20904700307E+01 -0.40441888262E+02  0.43400726476E+02  0.00000000000E+00 0.  1.
         11    1    4    4    0    0  0.29829934071E+01  0.30453145752E+00  0.95725199028E+01  0.10031157791E+02  0.51100000000E-03 0. -1.
        -11    1    4    4    0    0  0.11412551038E+02  0.58657492300E+01  0.14376471196E+02  0.19270087170E+02  0.51100000000E-03 0.  1.
        -12    1    4    4    0    0  0.12155627397E+01 -0.82607507182E+01  0.16492897163E+02  0.18486028563E+02  0.00000000000E+00 0.  1.
</event>
<event>
 8    1  0.5331800E-011  0.9118800E+02  0.7816164E-02  0.1184000E+00
        -11   -1    0    0    0    0  0.00000000000E+00  0.00000000000E+00  0.45593999997E+02  0.45594000000E+02  0.51100000000E-03 0. -1.
         11   -1    0    0    0    0 -0.00000000000E+00 -0.00000000000E+00 -0.45593999997E+02  0.45594000000E+02  0.51100000000E-03 0.  1.
         23    2    1    2    0    0  0.00000000000E+00  0.00000000000E+00  0.00000000000E+00  0.91188000000E+02  0.91188000000E+02 0.  0.
    9900012    2    3    3    0    0 -0.32374245807E+02 -0.95339926124E+01 -0.27287992250E+02  0.47787270424E+02  0.19999997171E+02 0.  0.
         12    1    3    3    0    0  0.32374245807E+02  0.95339926124E+01  0.27287992250E+02  0.43400729576E+02  0.00000000000E+00 0. -1.
         11    1    4    4    0    0 -0.59708387640E+01 -0.46750804609E+01 -0.61016992699E+01  0.97333461411E+01  0.51100000000E-03 0. -1.
        -11    1    4    4    0    0 -0.61415269095E+01 -0.80277800315E+01 -0.11690056726E+02  0.15453835496E+02  0.51100000000E-03 0.  1.
        -12    1    4    4    0    0 -0.20261880133E+02  0.31688678800E+01 -0.94962362540E+01  0.22600088787E+02  0.00000000000E+00 0.  1.
</event>
<event>
 8    1  0.5331800E-011  0.9118800E+02  0.7816164E-02  0.1184000E+00
        -11   -1    0    0    0    0  0.00000000000E+00  0.00000000000E+00  0.45593999997E+02  0.45594000000E+02  0.51100000000E-03 0. -1.
         11   -1    0    0    0    0 -0.00000000000E+00 -0.00000000000E+00 -0.45593999997E+02  0.45594000000E+02  0.51100000000E-03 0.  1.
         23    2    1    2    0    0 -0.71054273576E-14 -0.44408920985E-15  0.00000000000E+00  0.91188000000E+02  0.91188000000E+02 0.  0.
    9900012    2    3    3    0    0  0.34383097296E+02 -0.20572845337E+01  0.26404421819E+02  0.47787270848E+02  0.19999999106E+02 0.  0.
        -12    1    3    3    0    0 -0.34383097296E+02  0.20572845337E+01 -0.26404421819E+02  0.43400729152E+02  0.00000000000E+00 0.  1.
         11    1    4    4    0    0  0.91212747270E+01  0.36478406470E+01  0.15913333076E+02  0.18701298454E+02  0.51100000000E-03 0. -1.
        -11    1    4    4    0    0  0.20216958077E+02 -0.61249230015E+01  0.51830073762E+01  0.21750945759E+02  0.51100000000E-03 0.  1.
         12    1    4    4    0    0  0.50448644916E+01  0.41979782084E+00  0.53080813669E+01  0.73350266357E+01  0.00000000000E+00 0. -1.
</event>
<event>
 8    1  0.5331800E-011  0.9118800E+02  0.7816164E-02  0.1184000E+00
        -11   -1    0    0    0    0  0.00000000000E+00  0.00000000000E+00  0.45593999997E+02  0.45594000000E+02  0.51100000000E-03 0. -1.
         11   -1    0    0    0    0 -0.00000000000E+00 -0.00000000000E+00 -0.45593999997E+02  0.45594000000E+02  0.51100000000E-03 0.  1.
         23    2    1    2    0    0  0.00000000000E+00  0.00000000000E+00  0.00000000000E+00  0.91188000000E+02  0.91188000000E+02 0.  0.
    9900012    2    3    3    0    0  0.30107048646E+02  0.23054898608E+02 -0.21110681852E+02  0.47787267101E+02  0.19999982018E+02 0.  0.
         12    1    3    3    0    0 -0.30107048646E+02 -0.23054898608E+02  0.21110681852E+02  0.43400732899E+02  0.00000000000E+00 0. -1.
         11    1    4    4    0    0  0.31748699389E+01  0.12208503546E+02 -0.70204716121E+01  0.14436563992E+02  0.51100000000E-03 0. -1.
        -11    1    4    4    0    0  0.23841285693E+02  0.92887583331E+01 -0.88570227360E+01  0.27076461860E+02  0.51100000000E-03 0.  1.
        -12    1    4    4    0    0  0.30908930141E+01  0.15576367284E+01 -0.52331875035E+01  0.62742412489E+01  0.00000000000E+00 0.  1.
</event>
<event>
 8    1  0.5331800E-011  0.9118800E+02  0.7816164E-02  0.1184000E+00
        -11   -1    0    0    0    0  0.00000000000E+00  0.00000000000E+00  0.45593999997E+02  0.45594000000E+02  0.51100000000E-03 0.  1.
         11   -1    0    0    0    0 -0.00000000000E+00 -0.00000000000E+00 -0.45593999997E+02  0.45594000000E+02  0.51100000000E-03 0. -1.
         23    2    1    2    0    0  0.00000000000E+00  0.00000000000E+00  0.00000000000E+00  0.91188000000E+02  0.91188000000E+02 0.  0.
    9900012    2    3    3    0    0  0.36884311402E+02  0.71273139070E+01 -0.21734126416E+02  0.47787270948E+02  0.19999999562E+02 0.  0.
         12    1    3    3    0    0 -0.36884311402E+02 -0.71273139070E+01  0.21734126416E+02  0.43400729052E+02  0.00000000000E+00 0. -1.
         11    1    4    4    0    0  0.13729292997E+02  0.77713969382E+00 -0.13603169655E+02  0.19342793419E+02  0.51100000000E-03 0. -1.
        -11    1    4    4    0    0  0.83791497156E+01  0.35594177059E+01  0.31638280267E+01  0.96379153558E+01  0.51100000000E-03 0.  1.
        -12    1    4    4    0    0  0.14775868689E+02  0.27907565073E+01 -0.11294784788E+02  0.18806562174E+02  0.00000000000E+00 0.  1.
</event>
<event>
 8    1  0.5331800E-011  0.9118800E+02  0.7816164E-02  0.1184000E+00
        -11   -1    0    0    0    0  0.00000000000E+00  0.00000000000E+00  0.45593999997E+02  0.45594000000E+02  0.51100000000E-03 0. -1.
         11   -1    0    0    0    0 -0.00000000000E+00 -0.00000000000E+00 -0.45593999997E+02  0.45594000000E+02  0.51100000000E-03 0.  1.
         23    2    1    2    0    0  0.00000000000E+00 -0.17763568394E-14  0.00000000000E+00  0.91188000000E+02  0.91188000000E+02 0.  0.
    9900012    2    3    3    0    0  0.23739994111E+02  0.10480969933E+02  0.34787717906E+02  0.47787269958E+02  0.19999995046E+02 0.  0.
        -12    1    3    3    0    0 -0.23739994111E+02 -0.10480969933E+02 -0.34787717906E+02  0.43400730042E+02  0.00000000000E+00 0.  1.
         11    1    4    4    0    0  0.13814038487E+02 -0.29135372073E+01  0.21647165250E+02  0.25844073247E+02  0.51100000000E-03 0. -1.
        -11    1    4    4    0    0  0.39100297246E+01  0.80161103757E+01  0.96814111716E+01  0.13163437262E+02  0.51100000000E-03 0.  1.
         12    1    4    4    0    0  0.60159258991E+01  0.53783967642E+01  0.34591414840E+01  0.87797594490E+01  0.00000000000E+00 0. -1.
</event>
<event>
 8    1  0.5331800E-011  0.9118800E+02  0.7816164E-02  0.1184000E+00
        -11   -1    0    0    0    0  0.00000000000E+00  0.00000000000E+00  0.45593999997E+02  0.45594000000E+02  0.51100000000E-03 0. -1.
         11   -1    0    0    0    0 -0.00000000000E+00 -0.00000000000E+00 -0.45593999997E+02  0.45594000000E+02  0.51100000000E-03 0.  1.
         23    2    1    2    0    0  0.00000000000E+00  0.17763568394E-14  0.35527136788E-14  0.91188000000E+02  0.91188000000E+02 0.  0.
    9900012    2    3    3    0    0  0.33360200263E+02  0.85291257514E+01  0.26419200134E+02  0.47787273239E+02  0.20000010005E+02 0.  0.
        -12    1    3    3    0    0 -0.33360200263E+02 -0.85291257514E+01 -0.26419200134E+02  0.43400726761E+02  0.00000000000E+00 0.  1.
         11    1    4    4    0    0  0.69713355645E+01  0.10247454145E+02  0.54076693151E+01  0.13522304674E+02  0.51100000000E-03 0. -1.
        -11    1    4    4    0    0  0.19394700058E+02 -0.55963087437E+00  0.18310125937E+02  0.26678236246E+02  0.51100000000E-03 0.  1.
        -12    1    4    4    0    0  0.69941646401E+01 -0.11586975192E+01  0.27014048815E+01  0.75867323195E+01  0.00000000000E+00 0.  1.
</event>
<event>
 8    1  0.5331800E-011  0.9118800E+02  0.7816164E-02  0.1184000E+00
        -11   -1    0    0    0    0  0.00000000000E+00  0.00000000000E+00  0.45593999997E+02  0.45594000000E+02  0.51100000000E-03 0.  1.
         11   -1    0    0    0    0 -0.00000000000E+00 -0.00000000000E+00 -0.45593999997E+02  0.45594000000E+02  0.51100000000E-03 0. -1.
         23    2    1    2    0    0 -0.35527136788E-14  0.71054273576E-14  0.88817841970E-15  0.91188000000E+02  0.91188000000E+02 0.  0.
    9900012    2    3    3    0    0 -0.21950168999E+02  0.36882940648E+02  0.64390640606E+01  0.47787276781E+02  0.20000026155E+02 0.  0.
        -12    1    3    3    0    0  0.21950168999E+02 -0.36882940648E+02 -0.64390640606E+01  0.43400723219E+02  0.00000000000E+00 0.  1.
         11    1    4    4    0    0 -0.47755265180E+01  0.26391945435E+01 -0.38792797282E+01  0.66947601027E+01  0.51100000000E-03 0. -1.
        -11    1    4    4    0    0 -0.78075302010E+01  0.24398814787E+02  0.33956276863E+01  0.25841632659E+02  0.51100000000E-03 0.  1.
        -12    1    4    4    0    0 -0.93671122805E+01  0.98449313175E+01  0.69227161024E+01  0.15250884019E+02  0.00000000000E+00 0.  1.
</event>
<event>
 8    1  0.5331800E-011  0.9118800E+02  0.7816164E-02  0.1184000E+00
        -11   -1    0    0    0    0  0.00000000000E+00  0.00000000000E+00  0.45593999997E+02  0.45594000000E+02  0.51100000000E-03 0. -1.
         11   -1    0    0    0    0 -0.00000000000E+00 -0.00000000000E+00 -0.45593999997E+02  0.45594000000E+02  0.51100000000E-03 0.  1.
         23    2    1    2    0    0  0.00000000000E+00  0.00000000000E+00  0.00000000000E+00  0.91188000000E+02  0.91188000000E+02 0.  0.
    9900012    2    3    3    0    0  0.66316500870E+01 -0.28251161969E+02  0.32272536737E+02  0.47787267714E+02  0.19999984816E+02 0.  0.
        -12    1    3    3    0    0 -0.66316500870E+01  0.28251161969E+02 -0.32272536737E+02  0.43400732286E+02  0.00000000000E+00 0.  1.
         11    1    4    4    0    0  0.50615255801E+01 -0.19113562043E+02  0.97797938174E+01  0.22058822783E+02  0.51100000000E-03 0. -1.
        -11    1    4    4    0    0 -0.13577317641E+01 -0.94378631630E+01  0.17672293475E+02  0.20080504315E+02  0.51100000000E-03 0.  1.
        -12    1    4    4    0    0  0.29278562709E+01  0.30026323737E+00  0.48204494449E+01  0.56479406163E+01  0.00000000000E+00 0.  1.
</event>
<event>
 8    1  0.5331800E-011  0.9118800E+02  0.7816164E-02  0.1184000E+00
        -11   -1    0    0    0    0  0.00000000000E+00  0.00000000000E+00  0.45593999997E+02  0.45594000000E+02  0.51100000000E-03 0. -1.
         11   -1    0    0    0    0 -0.00000000000E+00 -0.00000000000E+00 -0.45593999997E+02  0.45594000000E+02  0.51100000000E-03 0.  1.
         23    2    1    2    0    0  0.00000000000E+00  0.00000000000E+00  0.00000000000E+00  0.91188000000E+02  0.91188000000E+02 0.  0.
    9900012    2    3    3    0    0 -0.18279066131E+02 -0.37155638583E+02 -0.12998471233E+02  0.47787239736E+02  0.19999857251E+02 0.  0.
         12    1    3    3    0    0  0.18279066131E+02  0.37155638583E+02  0.12998471233E+02  0.43400760264E+02  0.00000000000E+00 0. -1.
         11    1    4    4    0    0  0.27535487764E+00 -0.58409174962E+01  0.28162470208E+01  0.64902530805E+01  0.51100000000E-03 0. -1.
        -11    1    4    4    0    0 -0.15522010661E+02 -0.17734924153E+02 -0.61559002087E+01  0.24358888672E+02  0.51100000000E-03 0.  1.
        -12    1    4    4    0    0 -0.30324103469E+01 -0.13579796934E+02 -0.96588180449E+01  0.16938097983E+02  0.00000000000E+00 0.  1.
</event>
<event>
 8    1  0.5331800E-011  0.9118800E+02  0.7816164E-02  0.1184000E+00
        -11   -1    0    0    0    0  0.00000000000E+00  0.00000000000E+00  0.45593999997E+02  0.45594000000E+02  0.51100000000E-03 0. -1.
         11   -1    0    0    0    0 -0.00000000000E+00 -0.00000000000E+00 -0.45593999997E+02  0.45594000000E+02  0.51100000000E-03 0.  1.
         23    2    1    2    0    0  0.00000000000E+00  0.71054273576E-14  0.00000000000E+00  0.91188000000E+02  0.91188000000E+02 0.  0.
    9900012    2    3    3    0    0  0.97508567304E+01 -0.32087207095E+02 -0.27549134891E+02  0.47787275359E+02  0.20000019673E+02 0.  0.
         12    1    3    3    0    0 -0.97508567304E+01  0.32087207095E+02  0.27549134891E+02  0.43400724641E+02  0.00000000000E+00 0. -1.
         11    1    4    4    0    0  0.15802348337E+01 -0.91870749117E+01 -0.18308320419E+02  0.20544928435E+02  0.51100000000E-03 0. -1.
        -11    1    4    4    0    0  0.70376927464E+01 -0.78855100144E+01 -0.39008207205E+01  0.11266179030E+02  0.51100000000E-03 0.  1.
         12    1    4    4    0    0  0.11329291502E+01 -0.15014622169E+02 -0.53399937511E+01  0.15976167894E+02  0.00000000000E+00 0. -1.
</event>
<event>
 8    1  0.5331800E-011  0.9118800E+02  0.7816164E-02  0.1184000E+00
        -11   -1    0    0    0    0  0.00000000000E+00  0.00000000000E+00  0.45593999997E+02  0.45594000000E+02  0.51100000000E-03 0. -1.
         11   -1    0    0    0    0 -0.00000000000E+00 -0.00000000000E+00 -0.45593999997E+02  0.45594000000E+02  0.51100000000E-03 0.  1.
         23    2    1    2    0    0 -0.33306690739E-15  0.44408920985E-15  0.00000000000E+00  0.91188000000E+02  0.91188000000E+02 0.  0.
    9900012    2    3    3    0    0  0.40334729661E+00 -0.42337991706E+00 -0.43396788256E+02  0.47787272235E+02  0.20000005429E+02 0.  0.
         12    1    3    3    0    0 -0.40334729661E+00  0.42337991706E+00  0.43396788256E+02  0.43400727765E+02  0.00000000000E+00 0. -1.
         11    1    4    4    0    0  0.36448787392E+01 -0.49765530021E+01 -0.19158071061E+02  0.20126671554E+02  0.51100000000E-03 0. -1.
        -11    1    4    4    0    0 -0.33828680928E+01  0.57693835787E+01 -0.25219863627E+02  0.26091590695E+02  0.51100000000E-03 0.  1.
        -12    1    4    4    0    0  0.14133665018E+00 -0.12162104936E+01  0.98114643197E+00  0.15690099855E+01  0.00000000000E+00 0.  1.
</event>
<event>
 8    1  0.5331800E-011  0.9118800E+02  0.7816164E-02  0.1184000E+00
        -11   -1    0    0    0    0  0.00000000000E+00  0.00000000000E+00  0.45593999997E+02  0.45594000000E+02  0.51100000000E-03 0. -1.
         11   -1    0    0    0    0 -0.00000000000E+00 -0.00000000000E+00 -0.45593999997E+02  0.45594000000E+02  0.51100000000E-03 0.  1.
         23    2    1    2    0    0  0.00000000000E+00  0.00000000000E+00  0.35527136788E-14  0.91188000000E+02  0.91188000000E+02 0.  0.
    9900012    2    3    3    0    0  0.16258196528E+02 -0.30316853393E+02  0.26460966713E+02  0.47787270589E+02  0.19999997924E+02 0.  0.
        -12    1    3    3    0    0 -0.16258196528E+02  0.30316853393E+02 -0.26460966713E+02  0.43400729411E+02  0.00000000000E+00 0.  1.
         11    1    4    4    0    0 -0.11073441453E+01 -0.16714778708E+02  0.91534823970E+01  0.19089166524E+02  0.51100000000E-03 0. -1.
        -11    1    4    4    0    0  0.88384043366E+01 -0.87072149830E+01  0.12979519553E+02  0.17955525948E+02  0.51100000000E-03 0.  1.
         12    1    4    4    0    0  0.85271363371E+01 -0.48948597017E+01  0.43279647625E+01  0.10742578117E+02  0.00000000000E+00 0. -1.
</event>
<event>
 8    1  0.5331800E-011  0.9118800E+02  0.7816164E-02  0.1184000E+00
        -11   -1    0    0    0    0  0.00000000000E+00  0.00000000000E+00  0.45593999997E+02  0.45594000000E+02  0.51100000000E-03 0.  1.
         11   -1    0    0    0    0 -0.00000000000E+00 -0.00000000000E+00 -0.45593999997E+02  0.45594000000E+02  0.51100000000E-03 0. -1.
         23    2    1    2    0    0 -0.71054273576E-14 -0.44408920985E-15  0.00000000000E+00  0.91188000000E+02  0.91188000000E+02 0.  0.
    9900012    2    3    3    0    0 -0.37093930510E+02 -0.23204752068E+01 -0.22411584388E+02  0.47787269584E+02  0.19999993340E+02 0.  0.
         12    1    3    3    0    0  0.37093930510E+02  0.23204752068E+01  0.22411584388E+02  0.43400730416E+02  0.00000000000E+00 0. -1.
         11    1    4    4    0    0 -0.26646205711E+01  0.28299881503E+01 -0.39303640859E+01  0.55278203505E+01  0.51100000000E-03 0. -1.
        -11    1    4    4    0    0 -0.29978748572E+02 -0.38943665707E+01 -0.21173776756E+02  0.36908268441E+02  0.51100000000E-03 0.  1.
        -12    1    4    4    0    0 -0.44505613667E+01 -0.12560967865E+01  0.26925564536E+01  0.53511807922E+01  0.00000000000E+00 0.  1.
</event>
<event>
 8    1  0.5331800E-011  0.9118800E+02  0.7816164E-02  0.1184000E+00
        -11   -1    0    0    0    0  0.00000000000E+00  0.00000000000E+00  0.45593999997E+02  0.45594000000E+02  0.51100000000E-03 0. -1.
         11   -1    0    0    0    0 -0.00000000000E+00 -0.00000000000E+00 -0.45593999997E+02  0.45594000000E+02  0.51100000000E-03 0.  1.
         23    2    1    2    0    0 -0.88817841970E-15  0.00000000000E+00  0.00000000000E+00  0.91188000000E+02  0.91188000000E+02 0.  0.
    9900012    2    3    3    0    0  0.34751508741E+01 -0.13927786213E+02 -0.40958075884E+02  0.47787264032E+02  0.19999968030E+02 0.  0.
         12    1    3    3    0    0 -0.34751508741E+01  0.13927786213E+02  0.40958075884E+02  0.43400735968E+02  0.00000000000E+00 0. -1.
         11    1    4    4    0    0  0.10121849818E+01 -0.24322748805E+01 -0.21274933861E+01  0.33862527816E+01  0.51100000000E-03 0. -1.
        -11    1    4    4    0    0  0.77047389019E+01 -0.12041820372E+02 -0.18395420936E+02  0.23297209083E+02  0.51100000000E-03 0.  1.
        -12    1    4    4    0    0 -0.52417730096E+01  0.54630903909E+00 -0.20435161562E+02  0.21103802168E+02  0.00000000000E+00 0.  1.
</event>
<event>
 8    1  0.5331800E-011  0.9118800E+02  0.7816164E-02  0.1184000E+00
        -11   -1    0    0    0    0  0.00000000000E+00  0.00000000000E+00  0.45593999997E+02  0.45594000000E+02  0.51100000000E-03 0. -1.
         11   -1    0    0    0    0 -0.00000000000E+00 -0.00000000000E+00 -0.45593999997E+02  0.45594000000E+02  0.51100000000E-03 0.  1.
         23    2    1    2    0    0  0.00000000000E+00  0.00000000000E+00  0.00000000000E+00  0.91188000000E+02  0.91188000000E+02 0.  0.
    9900012    2    3    3    0    0  0.17611663398E+02 -0.40120586469E+01  0.39463349865E+02  0.47787270919E+02  0.19999999428E+02 0.  0.
        -12    1    3    3    0    0 -0.17611663398E+02  0.40120586469E+01 -0.39463349865E+02  0.43400729081E+02  0.00000000000E+00 0.  1.
         11    1    4    4    0    0  0.11235243805E+02 -0.42871065634E+01  0.11457901347E+02  0.16610041829E+02  0.51100000000E-03 0. -1.
        -11    1    4    4    0    0  0.41073534962E+01  0.63983242039E+00  0.28520646687E+02  0.28821988584E+02  0.51100000000E-03 0.  1.
        -12    1    4    4    0    0  0.22690660967E+01 -0.36478450387E+00 -0.51519816856E+00  0.23552405054E+01  0.00000000000E+00 0.  1.
</event>
<event>
 8    1  0.5331800E-011  0.9118800E+02  0.7816164E-02  0.1184000E+00
        -11   -1    0    0    0    0  0.00000000000E+00  0.00000000000E+00  0.45593999997E+02  0.45594000000E+02  0.51100000000E-03 0. -1.
         11   -1    0    0    0    0 -0.00000000000E+00 -0.00000000000E+00 -0.45593999997E+02  0.45594000000E+02  0.51100000000E-03 0.  1.
         23    2    1    2    0    0  0.00000000000E+00  0.35527136788E-14  0.00000000000E+00  0.91188000000E+02  0.91188000000E+02 0.  0.
    9900012    2    3    3    0    0  0.27476328492E+02 -0.18604959517E+02 -0.27973738816E+02  0.47787271788E+02  0.20000003388E+02 0.  0.
         12    1    3    3    0    0 -0.27476328492E+02  0.18604959517E+02  0.27973738816E+02  0.43400728212E+02  0.00000000000E+00 0. -1.
         11    1    4    4    0    0  0.13390004075E+02 -0.10911155834E+02 -0.22575442159E+02  0.28425272552E+02  0.51100000000E-03 0. -1.
        -11    1    4    4    0    0  0.85897264737E+01 -0.64474835933E+01  0.10573704489E+01  0.10792195240E+02  0.51100000000E-03 0.  1.
         12    1    4    4    0    0  0.54965979436E+01 -0.12463200890E+01 -0.64556671066E+01  0.85698039948E+01  0.00000000000E+00 0. -1.
</event>
<event>
 8    1  0.5331800E-011  0.9118800E+02  0.7816164E-02  0.1184000E+00
        -11   -1    0    0    0    0  0.00000000000E+00  0.00000000000E+00  0.45593999997E+02  0.45594000000E+02  0.51100000000E-03 0. -1.
         11   -1    0    0    0    0 -0.00000000000E+00 -0.00000000000E+00 -0.45593999997E+02  0.45594000000E+02  0.51100000000E-03 0.  1.
         23    2    1    2    0    0  0.00000000000E+00  0.00000000000E+00 -0.71054273576E-14  0.91188000000E+02  0.91188000000E+02 0.  0.
    9900012    2    3    3    0    0  0.14552209605E+02  0.46667953020E+01 -0.40621081086E+02  0.47787331672E+02  0.20000276422E+02 0.  0.
         12    1    3    3    0    0 -0.14552209605E+02 -0.46667953020E+01  0.40621081086E+02  0.43400668328E+02  0.00000000000E+00 0. -1.
         11    1    4    4    0    0  0.97331423377E+01  0.42786879055E+00 -0.74538562083E+01  0.12266910944E+02  0.51100000000E-03 0. -1.
        -11    1    4    4    0    0  0.52190975179E+01  0.53629143615E+01 -0.33464410894E+02  0.34290911713E+02  0.51100000000E-03 0.  1.
        -12    1    4    4    0    0 -0.40003025019E+00 -0.11239878500E+01  0.29718601720E+00  0.12295090146E+01  0.00000000000E+00 0.  1.
</event>
<event>
 8    1  0.5331800E-011  0.9118800E+02  0.7816164E-02  0.1184000E+00
        -11   -1    0    0    0    0  0.00000000000E+00  0.00000000000E+00  0.45593999997E+02  0.45594000000E+02  0.51100000000E-03 0. -1.
         11   -1    0    0    0    0 -0.00000000000E+00 -0.00000000000E+00 -0.45593999997E+02  0.45594000000E+02  0.51100000000E-03 0.  1.
         23    2    1    2    0    0  0.00000000000E+00  0.00000000000E+00  0.17763568394E-14  0.91188000000E+02  0.91188000000E+02 0.  0.
    9900012    2    3    3    0    0 -0.11138396466E+02 -0.39518979752E+02  0.14064492019E+02  0.47787267607E+02  0.19999984326E+02 0.  0.
        -12    1    3    3    0    0  0.11138396466E+02  0.39518979752E+02 -0.14064492019E+02  0.43400732393E+02  0.00000000000E+00 0.  1.
         11    1    4    4    0    0 -0.44906817395E+01 -0.10438131164E+02 -0.43995315455E+01  0.12185100852E+02  0.51100000000E-03 0.  1.
        -11    1    4    4    0    0 -0.36324703540E+01 -0.10337881882E+02  0.99326026409E+01  0.14789294715E+02  0.51100000000E-03 0. -1.
        -12    1    4    4    0    0 -0.30152443725E+01 -0.18742966706E+02  0.85314209240E+01  0.20812872040E+02  0.00000000000E+00 0.  1.
</event>
<event>
 8    1  0.5331800E-011  0.9118800E+02  0.7816164E-02  0.1184000E+00
        -11   -1    0    0    0    0  0.00000000000E+00  0.00000000000E+00  0.45593999997E+02  0.45594000000E+02  0.51100000000E-03 0. -1.
         11   -1    0    0    0    0 -0.00000000000E+00 -0.00000000000E+00 -0.45593999997E+02  0.45594000000E+02  0.51100000000E-03 0.  1.
         23    2    1    2    0    0 -0.35527136788E-14 -0.35527136788E-14 -0.71054273576E-14  0.91188000000E+02  0.91188000000E+02 0.  0.
    9900012    2    3    3    0    0  0.30082102214E+02  0.20058504262E+02  0.24007222281E+02  0.47787272028E+02  0.20000004485E+02 0.  0.
        -12    1    3    3    0    0 -0.30082102214E+02 -0.20058504262E+02 -0.24007222281E+02  0.43400727972E+02  0.00000000000E+00 0.  1.
         11    1    4    4    0    0  0.14048733085E+02  0.16096766361E+02  0.68360431426E+01  0.22432215108E+02  0.51100000000E-03 0. -1.
        -11    1    4    4    0    0  0.39116842361E+01  0.25394887179E+01  0.10399797749E+02  0.11397634403E+02  0.51100000000E-03 0.  1.
         12    1    4    4    0    0  0.12121684893E+02  0.14222491837E+01  0.67713813891E+01  0.13957422516E+02  0.00000000000E+00 0. -1.
</event>
<event>
 8    1  0.5331800E-011  0.9118800E+02  0.7816164E-02  0.1184000E+00
        -11   -1    0    0    0    0  0.00000000000E+00  0.00000000000E+00  0.45593999997E+02  0.45594000000E+02  0.51100000000E-03 0. -1.
         11   -1    0    0    0    0 -0.00000000000E+00 -0.00000000000E+00 -0.45593999997E+02  0.45594000000E+02  0.51100000000E-03 0.  1.
         23    2    1    2    0    0  0.00000000000E+00  0.11102230246E-15  0.00000000000E+00  0.91188000000E+02  0.91188000000E+02 0.  0.
    9900012    2    3    3    0    0  0.27374928288E+02 -0.85591170292E+00  0.33667551310E+02  0.47787270803E+02  0.19999998901E+02 0.  0.
        -12    1    3    3    0    0 -0.27374928288E+02  0.85591170292E+00 -0.33667551310E+02  0.43400729197E+02  0.00000000000E+00 0.  1.
         11    1    4    4    0    0  0.11370050256E+02  0.34061433738E+01  0.34629878825E+01  0.12364147396E+02  0.51100000000E-03 0. -1.
        -11    1    4    4    0    0  0.98322244522E+01 -0.63912144373E+01  0.22070053243E+02  0.24992148969E+02  0.51100000000E-03 0.  1.
        -12    1    4    4    0    0  0.61726535798E+01  0.21291593606E+01  0.81345101841E+01  0.10430974438E+02  0.00000000000E+00 0.  1.
</event>
<event>
 8    1  0.5331800E-011  0.9118800E+02  0.7816164E-02  0.1184000E+00
        -11   -1    0    0    0    0  0.00000000000E+00  0.00000000000E+00  0.45593999997E+02  0.45594000000E+02  0.51100000000E-03 0. -1.
         11   -1    0    0    0    0 -0.00000000000E+00 -0.00000000000E+00 -0.45593999997E+02  0.45594000000E+02  0.51100000000E-03 0.  1.
         23    2    1    2    0    0  0.00000000000E+00  0.44408920985E-15 -0.71054273576E-14  0.91188000000E+02  0.91188000000E+02 0.  0.
    9900012    2    3    3    0    0  0.23219995026E+02  0.38775649785E+01  0.36461202479E+02  0.47787274599E+02  0.20000016206E+02 0.  0.
        -12    1    3    3    0    0 -0.23219995026E+02 -0.38775649785E+01 -0.36461202479E+02  0.43400725401E+02  0.00000000000E+00 0.  1.
         11    1    4    4    0    0  0.46124663470E+01  0.33925909067E+01  0.41323863323E+01  0.70612418117E+01  0.51100000000E-03 0. -1.
        -11    1    4    4    0    0  0.76084001007E+00  0.48985617481E+01  0.21830918352E+01  0.54167033279E+01  0.51100000000E-03 0.  1.
         12    1    4    4    0    0  0.17846688669E+02 -0.44135876762E+01  0.30145724311E+02  0.35309329459E+02  0.00000000000E+00 0. -1.
</event>
<event>
 8    1  0.5331800E-011  0.9118800E+02  0.7816164E-02  0.1184000E+00
        -11   -1    0    0    0    0  0.00000000000E+00  0.00000000000E+00  0.45593999997E+02  0.45594000000E+02  0.51100000000E-03 0. -1.
         11   -1    0    0    0    0 -0.00000000000E+00 -0.00000000000E+00 -0.45593999997E+02  0.45594000000E+02  0.51100000000E-03 0.  1.
         23    2    1    2    0    0  0.00000000000E+00  0.00000000000E+00  0.00000000000E+00  0.91188000000E+02  0.91188000000E+02 0.  0.
    9900012    2    3    3    0    0  0.21585208832E+02  0.16921836792E+02 -0.33635602800E+02  0.47787267559E+02  0.19999984108E+02 0.  0.
         12    1    3    3    0    0 -0.21585208832E+02 -0.16921836792E+02  0.33635602800E+02  0.43400732441E+02  0.00000000000E+00 0. -1.
         11    1    4    4    0    0  0.33264014257E+00  0.71942757423E+01 -0.74983778184E+01  0.10396822740E+02  0.51100000000E-03 0. -1.
        -11    1    4    4    0    0  0.57841482438E+01  0.95695517039E+01 -0.94973858689E+01  0.14670822381E+02  0.51100000000E-03 0.  1.
         12    1    4    4    0    0  0.15468420446E+02  0.15800934533E+00 -0.16639839112E+02  0.22719622438E+02  0.00000000000E+00 0. -1.
</event>
<event>
 8    1  0.5331800E-011  0.9118800E+02  0.7816164E-02  0.1184000E+00
        -11   -1    0    0    0    0  0.00000000000E+00  0.00000000000E+00  0.45593999997E+02  0.45594000000E+02  0.51100000000E-03 0.  1.
         11   -1    0    0    0    0 -0.00000000000E+00 -0.00000000000E+00 -0.45593999997E+02  0.45594000000E+02  0.51100000000E-03 0. -1.
         23    2    1    2    0    0 -0.71054273576E-14  0.00000000000E+00 -0.17763568394E-14  0.91188000000E+02  0.91188000000E+02 0.  0.
    9900012    2    3    3    0    0  0.39431425411E+02 -0.15273925362E+02 -0.97720629324E+01  0.47787270514E+02  0.19999997584E+02 0.  0.
        -12    1    3    3    0    0 -0.39431425411E+02  0.15273925362E+02  0.97720629324E+01  0.43400729486E+02  0.00000000000E+00 0.  1.
         11    1    4    4    0    0  0.31877614464E+02 -0.61222598201E+01 -0.77935093715E+01  0.33382677511E+02  0.51100000000E-03 0. -1.
        -11    1    4    4    0    0  0.53927226030E+01 -0.64762293081E+01  0.24696200883E+01  0.87819147551E+01  0.51100000000E-03 0.  1.
        -12    1    4    4    0    0  0.21610883444E+01 -0.26754362342E+01 -0.44481736492E+01  0.56226782488E+01  0.00000000000E+00 0.  1.
</event>
<event>
 8    1  0.5331800E-011  0.9118800E+02  0.7816164E-02  0.1184000E+00
        -11   -1    0    0    0    0  0.00000000000E+00  0.00000000000E+00  0.45593999997E+02  0.45594000000E+02  0.51100000000E-03 0. -1.
         11   -1    0    0    0    0 -0.00000000000E+00 -0.00000000000E+00 -0.45593999997E+02  0.45594000000E+02  0.51100000000E-03 0.  1.
         23    2    1    2    0    0  0.00000000000E+00  0.71054273576E-14  0.00000000000E+00  0.91188000000E+02  0.91188000000E+02 0.  0.
    9900012    2    3    3    0    0 -0.19917478973E+02  0.26532058688E+02  0.27981547930E+02  0.47787272685E+02  0.20000007480E+02 0.  0.
        -12    1    3    3    0    0  0.19917478973E+02 -0.26532058688E+02 -0.27981547930E+02  0.43400727315E+02  0.00000000000E+00 0.  1.
         11    1    4    4    0    0 -0.64675514340E+01  0.12219098677E+02  0.11649766357E+01  0.13874176186E+02  0.51100000000E-03 0. -1.
        -11    1    4    4    0    0  0.63595202274E+00  0.18336187885E+01  0.25576990094E+01  0.32106724094E+01  0.51100000000E-03 0.  1.
         12    1    4    4    0    0 -0.14085879562E+02  0.12479341223E+02  0.24258872285E+02  0.30702424089E+02  0.00000000000E+00 0. -1.
</event>
<event>
 8    1  0.5331800E-011  0.9118800E+02  0.7816164E-02  0.1184000E+00
        -11   -1    0    0    0    0  0.00000000000E+00  0.00000000000E+00  0.45593999997E+02  0.45594000000E+02  0.51100000000E-03 0. -1.
         11   -1    0    0    0    0 -0.00000000000E+00 -0.00000000000E+00 -0.45593999997E+02  0.45594000000E+02  0.51100000000E-03 0.  1.
         23    2    1    2    0    0  0.00000000000E+00  0.00000000000E+00  0.88817841970E-15  0.91188000000E+02  0.91188000000E+02 0.  0.
    9900012    2    3    3    0    0 -0.15793162290E+02 -0.39698853436E+02 -0.76289052579E+01  0.47787272648E+02  0.20000007311E+02 0.  0.
         12    1    3    3    0    0  0.15793162290E+02  0.39698853436E+02  0.76289052579E+01  0.43400727352E+02  0.00000000000E+00 0. -1.
         11    1    4    4    0    0 -0.10755097855E+02 -0.27638704255E+02  0.37396246799E+01  0.29892388593E+02  0.51100000000E-03 0. -1.
        -11    1    4    4    0    0  0.14411922560E+00 -0.52871897682E+01 -0.41885282766E+01  0.67467707373E+01  0.51100000000E-03 0.  1.
         12    1    4    4    0    0 -0.51821836603E+01 -0.67729594126E+01 -0.71800016612E+01  0.11148113318E+02  0.00000000000E+00 0. -1.
</event>
<event>
 8    1  0.5331800E-011  0.9118800E+02  0.7816164E-02  0.1184000E+00
        -11   -1    0    0    0    0  0.00000000000E+00  0.00000000000E+00  0.45593999997E+02  0.45594000000E+02  0.51100000000E-03 0. -1.
         11   -1    0    0    0    0 -0.00000000000E+00 -0.00000000000E+00 -0.45593999997E+02  0.45594000000E+02  0.51100000000E-03 0.  1.
         23    2    1    2    0    0  0.00000000000E+00  0.00000000000E+00  0.00000000000E+00  0.91188000000E+02  0.91188000000E+02 0.  0.
    9900012    2    3    3    0    0 -0.11442790699E+02 -0.29823626588E+02 -0.29380915957E+02  0.47787258252E+02  0.19999941673E+02 0.  0.
         12    1    3    3    0    0  0.11442790699E+02  0.29823626588E+02  0.29380915957E+02  0.43400741748E+02  0.00000000000E+00 0. -1.
         11    1    4    4    0    0 -0.74076790124E+01 -0.13047992634E+02 -0.21020472639E+02  0.25826035127E+02  0.51100000000E-03 0. -1.
        -11    1    4    4    0    0 -0.79564441532E+00 -0.35496129199E+01 -0.74778175304E+01  0.83156814029E+01  0.51100000000E-03 0.  1.
         12    1    4    4    0    0 -0.32394672715E+01 -0.13226021035E+02 -0.88262578672E+00  0.13645541722E+02  0.00000000000E+00 0. -1.
</event>
<event>
 8    1  0.5331800E-011  0.9118800E+02  0.7816164E-02  0.1184000E+00
        -11   -1    0    0    0    0  0.00000000000E+00  0.00000000000E+00  0.45593999997E+02  0.45594000000E+02  0.51100000000E-03 0. -1.
         11   -1    0    0    0    0 -0.00000000000E+00 -0.00000000000E+00 -0.45593999997E+02  0.45594000000E+02  0.51100000000E-03 0.  1.
         23    2    1    2    0    0  0.00000000000E+00 -0.44408920985E-15  0.00000000000E+00  0.91188000000E+02  0.91188000000E+02 0.  0.
    9900012    2    3    3    0    0  0.28145078397E+02 -0.29866592464E+01 -0.32902245075E+02  0.47787270716E+02  0.19999998502E+02 0.  0.
         12    1    3    3    0    0 -0.28145078397E+02  0.29866592464E+01  0.32902245075E+02  0.43400729284E+02  0.00000000000E+00 0. -1.
         11    1    4    4    0    0  0.67521185236E+01 -0.66560773709E+01 -0.73468244864E+01  0.11994594650E+02  0.51100000000E-03 0. -1.
        -11    1    4    4    0    0  0.88688182563E+01  0.30445565176E+01 -0.19976830582E+02  0.22068054332E+02  0.51100000000E-03 0.  1.
        -12    1    4    4    0    0  0.12524141617E+02  0.62486160683E+00 -0.55785900072E+01  0.13724621734E+02  0.00000000000E+00 0.  1.
</event>
<event>
 8    1  0.5331800E-011  0.9118800E+02  0.7816164E-02  0.1184000E+00
        -11   -1    0    0    0    0  0.00000000000E+00  0.00000000000E+00  0.45593999997E+02  0.45594000000E+02  0.51100000000E-03 0. -1.
         11   -1    0    0    0    0 -0.00000000000E+00 -0.00000000000E+00 -0.45593999997E+02  0.45594000000E+02  0.51100000000E-03 0.  1.
         23    2    1    2    0    0  0.00000000000E+00 -0.35527136788E-14 -0.71054273576E-14  0.91188000000E+02  0.91188000000E+02 0.  0.
    9900012    2    3    3    0    0 -0.56173786946E+01 -0.18795674587E+02 -0.38714222009E+02  0.47787270601E+02  0.19999997980E+02 0.  0.
         12    1    3    3    0    0  0.56173786946E+01  0.18795674587E+02  0.38714222009E+02  0.43400729399E+02  0.00000000000E+00 0. -1.
         11    1    4    4    0    0 -0.12021015778E+01  0.45689833444E+00  0.45566732804E+00  0.13643449954E+01  0.51100000000E-03 0. -1.
        -11    1    4    4    0    0  0.34348184870E+01  0.53016133993E-01 -0.99960608379E+01  0.10569863825E+02  0.51100000000E-03 0.  1.
        -12    1    4    4    0    0 -0.78500956038E+01 -0.19305589056E+02 -0.29173828499E+02  0.35853061781E+02  0.00000000000E+00 0.  1.
</event>
<event>
 8    1  0.5331800E-011  0.9118800E+02  0.7816164E-02  0.1184000E+00
        -11   -1    0    0    0    0  0.00000000000E+00  0.00000000000E+00  0.45593999997E+02  0.45594000000E+02  0.51100000000E-03 0.  1.
         11   -1    0    0    0    0 -0.00000000000E+00 -0.00000000000E+00 -0.45593999997E+02  0.45594000000E+02  0.51100000000E-03 0. -1.
         23    2    1    2    0    0 -0.35527136788E-14  0.00000000000E+00 -0.35527136788E-14  0.91188000000E+02  0.91188000000E+02 0.  0.
    9900012    2    3    3    0    0  0.29628516795E+02 -0.24213085669E+02  0.20481728321E+02  0.47787265904E+02  0.19999976561E+02 0.  0.
        -12    1    3    3    0    0 -0.29628516795E+02  0.24213085669E+02 -0.20481728321E+02  0.43400734096E+02  0.00000000000E+00 0.  1.
         11    1    4    4    0    0  0.73627562410E+01 -0.10453349873E+02  0.74835481603E+01  0.14815066532E+02  0.51100000000E-03 0. -1.
        -11    1    4    4    0    0 -0.22048753442E+01 -0.23342226670E+01  0.21716484446E+01  0.38763549851E+01  0.51100000000E-03 0.  1.
        -12    1    4    4    0    0  0.24470635898E+02 -0.11425513129E+02  0.10826531716E+02  0.29095844386E+02  0.00000000000E+00 0.  1.
</event>
<event>
 8    1  0.5331800E-011  0.9118800E+02  0.7816164E-02  0.1184000E+00
        -11   -1    0    0    0    0  0.00000000000E+00  0.00000000000E+00  0.45593999997E+02  0.45594000000E+02  0.51100000000E-03 0. -1.
         11   -1    0    0    0    0 -0.00000000000E+00 -0.00000000000E+00 -0.45593999997E+02  0.45594000000E+02  0.51100000000E-03 0.  1.
         23    2    1    2    0    0  0.00000000000E+00  0.00000000000E+00  0.35527136788E-14  0.91188000000E+02  0.91188000000E+02 0.  0.
    9900012    2    3    3    0    0  0.32793164919E+02  0.22274250520E+02 -0.17666072476E+02  0.47787262468E+02  0.19999960896E+02 0.  0.
         12    1    3    3    0    0 -0.32793164919E+02 -0.22274250520E+02  0.17666072476E+02  0.43400737532E+02  0.00000000000E+00 0. -1.
         11    1    4    4    0    0  0.10804250103E+02  0.18977111384E+02 -0.10326506034E+02  0.24155730249E+02  0.51100000000E-03 0. -1.
        -11    1    4    4    0    0  0.18973386833E+02  0.39003289591E+01 -0.66504765374E+01  0.20480010067E+02  0.51100000000E-03 0.  1.
         12    1    4    4    0    0  0.30155279826E+01 -0.60318982258E+00 -0.68908990424E+00  0.31515221516E+01  0.00000000000E+00 0. -1.
</event>
<event>
 8    1  0.5331800E-011  0.9118800E+02  0.7816164E-02  0.1184000E+00
        -11   -1    0    0    0    0  0.00000000000E+00  0.00000000000E+00  0.45593999997E+02  0.45594000000E+02  0.51100000000E-03 0. -1.
         11   -1    0    0    0    0 -0.00000000000E+00 -0.00000000000E+00 -0.45593999997E+02  0.45594000000E+02  0.51100000000E-03 0.  1.
         23    2    1    2    0    0 -0.35527136788E-14 -0.88817841970E-15 -0.14210854715E-13  0.91188000000E+02  0.91188000000E+02 0.  0.
    9900012    2    3    3    0    0 -0.24791309196E+02  0.21753801760E+01 -0.35556738224E+02  0.47787275079E+02  0.20000018395E+02 0.  0.
         12    1    3    3    0    0  0.24791309196E+02 -0.21753801760E+01  0.35556738224E+02  0.43400724921E+02  0.00000000000E+00 0. -1.
         11    1    4    4    0    0 -0.88225929440E+01 -0.38531350698E+01 -0.15866477035E+01  0.97571638973E+01  0.51100000000E-03 0. -1.
        -11    1    4    4    0    0 -0.50587348556E+01  0.24061136739E+01 -0.11143591042E+02  0.12472361562E+02  0.51100000000E-03 0.  1.
         12    1    4    4    0    0 -0.10909981396E+02  0.36224015719E+01 -0.22826499478E+02  0.25557749620E+02  0.00000000000E+00 0. -1.
</event>
<event>
 8    1  0.5331800E-011  0.9118800E+02  0.7816164E-02  0.1184000E+00
        -11   -1    0    0    0    0  0.00000000000E+00  0.00000000000E+00  0.45593999997E+02  0.45594000000E+02  0.51100000000E-03 0. -1.
         11   -1    0    0    0    0 -0.00000000000E+00 -0.00000000000E+00 -0.45593999997E+02  0.45594000000E+02  0.51100000000E-03 0.  1.
         23    2    1    2    0    0 -0.88817841970E-15  0.00000000000E+00  0.00000000000E+00  0.91188000000E+02  0.91188000000E+02 0.  0.
    9900012    2    3    3    0    0  0.36584217648E+01 -0.82155299841E+01  0.42458741081E+02  0.47787266402E+02  0.19999978831E+02 0.  0.
        -12    1    3    3    0    0 -0.36584217648E+01  0.82155299841E+01 -0.42458741081E+02  0.43400733598E+02  0.00000000000E+00 0.  1.
         11    1    4    4    0    0 -0.42216376882E+01  0.72693076911E-01  0.22050699054E+02  0.22451299252E+02  0.51100000000E-03 0. -1.
        -11    1    4    4    0    0  0.38122414883E+01  0.17398275863E+01  0.58795502894E+01  0.72200621231E+01  0.51100000000E-03 0.  1.
         12    1    4    4    0    0  0.40678179648E+01 -0.10028050647E+02  0.14528491737E+02  0.18115905026E+02  0.00000000000E+00 0. -1.
</event>
<event>
 8    1  0.5331800E-011  0.9118800E+02  0.7816164E-02  0.1184000E+00
        -11   -1    0    0    0    0  0.00000000000E+00  0.00000000000E+00  0.45593999997E+02  0.45594000000E+02  0.51100000000E-03 0. -1.
         11   -1    0    0    0    0 -0.00000000000E+00 -0.00000000000E+00 -0.45593999997E+02  0.45594000000E+02  0.51100000000E-03 0.  1.
         23    2    1    2    0    0  0.00000000000E+00 -0.35527136788E-14  0.00000000000E+00  0.91188000000E+02  0.91188000000E+02 0.  0.
    9900012    2    3    3    0    0 -0.21720261844E+02  0.18695445615E+02 -0.32593462949E+02  0.47787270878E+02  0.19999999242E+02 0.  0.
         12    1    3    3    0    0  0.21720261844E+02 -0.18695445615E+02  0.32593462949E+02  0.43400729122E+02  0.00000000000E+00 0. -1.
         11    1    4    4    0    0 -0.86058199676E+01 -0.32008863826E+00 -0.47168245146E+01  0.98189117429E+01  0.51100000000E-03 0. -1.
        -11    1    4    4    0    0 -0.10170251052E+02  0.19726246071E+02 -0.21456837123E+02  0.30869963558E+02  0.51100000000E-03 0.  1.
         12    1    4    4    0    0 -0.29441908245E+01 -0.71071181693E+00 -0.64198013108E+01  0.70983955770E+01  0.00000000000E+00 0. -1.
</event>
<event>
 8    1  0.5331800E-011  0.9118800E+02  0.7816164E-02  0.1184000E+00
        -11   -1    0    0    0    0  0.00000000000E+00  0.00000000000E+00  0.45593999997E+02  0.45594000000E+02  0.51100000000E-03 0. -1.
         11   -1    0    0    0    0 -0.00000000000E+00 -0.00000000000E+00 -0.45593999997E+02  0.45594000000E+02  0.51100000000E-03 0.  1.
         23    2    1    2    0    0  0.22204460493E-15  0.35527136788E-14  0.00000000000E+00  0.91188000000E+02  0.91188000000E+02 0.  0.
    9900012    2    3    3    0    0  0.11348980097E+01  0.22056961320E+02 -0.37360740657E+02  0.47787280206E+02  0.20000041773E+02 0.  0.
         12    1    3    3    0    0 -0.11348980097E+01 -0.22056961320E+02  0.37360740657E+02  0.43400719794E+02  0.00000000000E+00 0. -1.
         11    1    4    4    0    0 -0.28492754517E+01  0.44849649708E+01 -0.12340824075E+00  0.53149328541E+01  0.51100000000E-03 0. -1.
        -11    1    4    4    0    0  0.71690027873E+01  0.12768409795E+02 -0.27564252155E+02  0.31212415587E+02  0.51100000000E-03 0.  1.
         12    1    4    4    0    0 -0.31848293258E+01  0.48035865538E+01 -0.96730802610E+01  0.11259931765E+02  0.00000000000E+00 0. -1.
</event>
<event>
 8    1  0.5331800E-011  0.9118800E+02  0.7816164E-02  0.1184000E+00
        -11   -1    0    0    0    0  0.00000000000E+00  0.00000000000E+00  0.45593999997E+02  0.45594000000E+02  0.51100000000E-03 0.  1.
         11   -1    0    0    0    0 -0.00000000000E+00 -0.00000000000E+00 -0.45593999997E+02  0.45594000000E+02  0.51100000000E-03 0. -1.
         23    2    1    2    0    0  0.00000000000E+00  0.00000000000E+00  0.88817841970E-15  0.91188000000E+02  0.91188000000E+02 0.  0.
    9900012    2    3    3    0    0 -0.25660803980E+02 -0.34093479074E+02  0.79234360308E+01  0.47787274029E+02  0.20000013609E+02 0.  0.
        -12    1    3    3    0    0  0.25660803980E+02  0.34093479074E+02 -0.79234360308E+01  0.43400725971E+02  0.00000000000E+00 0.  1.
         11    1    4    4    0    0 -0.13906437024E+02 -0.73797438942E+01 -0.31255974666E+01  0.16050513090E+02  0.51100000000E-03 0. -1.
        -11    1    4    4    0    0 -0.10951370978E+02 -0.21358424681E+02  0.70865639302E+01  0.25026670169E+02  0.51100000000E-03 0.  1.
         12    1    4    4    0    0 -0.80299597710E+00 -0.53553104983E+01  0.39624695672E+01  0.67100907701E+01  0.00000000000E+00 0. -1.
</event>
<event>
 8    1  0.5331800E-011  0.9118800E+02  0.7816164E-02  0.1184000E+00
        -11   -1    0    0    0    0  0.00000000000E+00  0.00000000000E+00  0.45593999997E+02  0.45594000000E+02  0.51100000000E-03 0. -1.
         11   -1    0    0    0    0 -0.00000000000E+00 -0.00000000000E+00 -0.45593999997E+02  0.45594000000E+02  0.51100000000E-03 0.  1.
         23    2    1    2    0    0  0.44408920985E-15  0.00000000000E+00  0.71054273576E-14  0.91188000000E+02  0.91188000000E+02 0.  0.
    9900012    2    3    3    0    0  0.20960881484E+01 -0.11889423850E+02 -0.41687780375E+02  0.47787273997E+02  0.20000013460E+02 0.  0.
         12    1    3    3    0    0 -0.20960881484E+01  0.11889423850E+02  0.41687780375E+02  0.43400726003E+02  0.00000000000E+00 0. -1.
         11    1    4    4    0    0 -0.35223961059E+00 -0.20551928968E+01 -0.20662070529E+01  0.29354901521E+01  0.51100000000E-03 0.  1.
        -11    1    4    4    0    0 -0.72290338652E+01 -0.37154465848E+01 -0.88345904557E+01  0.12004726683E+02  0.51100000000E-03 0. -1.
        -12    1    4    4    0    0  0.96773616242E+01 -0.61187843688E+01 -0.30786982866E+02  0.32847057162E+02  0.00000000000E+00 0.  1.
</event>
<event>
 8    1  0.5331800E-011  0.9118800E+02  0.7816164E-02  0.1184000E+00
        -11   -1    0    0    0    0  0.00000000000E+00  0.00000000000E+00  0.45593999997E+02  0.45594000000E+02  0.51100000000E-03 0. -1.
         11   -1    0    0    0    0 -0.00000000000E+00 -0.00000000000E+00 -0.45593999997E+02  0.45594000000E+02  0.51100000000E-03 0.  1.
         23    2    1    2    0    0  0.00000000000E+00  0.44408920985E-15 -0.71054273576E-14  0.91188000000E+02  0.91188000000E+02 0.  0.
    9900012    2    3    3    0    0  0.24455918419E+02 -0.31114511208E+01 -0.35719046385E+02  0.47787270185E+02  0.19999996083E+02 0.  0.
         12    1    3    3    0    0 -0.24455918419E+02  0.31114511208E+01  0.35719046385E+02  0.43400729815E+02  0.00000000000E+00 0. -1.
         11    1    4    4    0    0  0.10418841632E+02  0.44434313708E+01 -0.17250265626E+02  0.20636569670E+02  0.51100000000E-03 0. -1.
        -11    1    4    4    0    0  0.91435868911E+00 -0.59974073016E+01 -0.91582822996E+01  0.10985403092E+02  0.51100000000E-03 0.  1.
        -12    1    4    4    0    0  0.13122718097E+02 -0.15574751900E+01 -0.93104984595E+01  0.16165297423E+02  0.00000000000E+00 0.  1.
</event>
<event>
 8    1  0.5331800E-011  0.9118800E+02  0.7816164E-02  0.1184000E+00
        -11   -1    0    0    0    0  0.00000000000E+00  0.00000000000E+00  0.45593999997E+02  0.45594000000E+02  0.51100000000E-03 0. -1.
         11   -1    0    0    0    0 -0.00000000000E+00 -0.00000000000E+00 -0.45593999997E+02  0.45594000000E+02  0.51100000000E-03 0.  1.
         23    2    1    2    0    0  0.00000000000E+00  0.35527136788E-14  0.00000000000E+00  0.91188000000E+02  0.91188000000E+02 0.  0.
    9900012    2    3    3    0    0 -0.10029990793E+02  0.23877162837E+02  0.34826769351E+02  0.47787268625E+02  0.19999988970E+02 0.  0.
        -12    1    3    3    0    0  0.10029990793E+02 -0.23877162837E+02 -0.34826769351E+02  0.43400731375E+02  0.00000000000E+00 0.  1.
         11    1    4    4    0    0 -0.11084935866E+02  0.21129411162E+02  0.16397145947E+02  0.28951583975E+02  0.51100000000E-03 0. -1.
        -11    1    4    4    0    0  0.18918750182E+01  0.20711990177E+01  0.13862721798E+02  0.14143695146E+02  0.51100000000E-03 0.  1.
         12    1    4    4    0    0 -0.83692994541E+00  0.67655265662E+00  0.45669016061E+01  0.46919895045E+01  0.00000000000E+00 0. -1.
</event>
<event>
 8    1  0.5331800E-011  0.9118800E+02  0.7816164E-02  0.1184000E+00
        -11   -1    0    0    0    0  0.00000000000E+00  0.00000000000E+00  0.45593999997E+02  0.45594000000E+02  0.51100000000E-03 0. -1.
         11   -1    0    0    0    0 -0.00000000000E+00 -0.00000000000E+00 -0.45593999997E+02  0.45594000000E+02  0.51100000000E-03 0.  1.
         23    2    1    2    0    0  0.00000000000E+00  0.00000000000E+00  0.00000000000E+00  0.91188000000E+02  0.91188000000E+02 0.  0.
    9900012    2    3    3    0    0  0.22362094799E+02 -0.20970486899E+02  0.30721327351E+02  0.47787256241E+02  0.19999932506E+02 0.  0.
        -12    1    3    3    0    0 -0.22362094799E+02  0.20970486899E+02 -0.30721327351E+02  0.43400743759E+02  0.00000000000E+00 0.  1.
         11    1    4    4    0    0  0.13577748204E+02 -0.23104952075E+01  0.16113298031E+02  0.21197452868E+02  0.51100000000E-03 0. -1.
        -11    1    4    4    0    0 -0.44075976595E+00 -0.82536571292E+01  0.62765750911E+01  0.10378464256E+02  0.51100000000E-03 0.  1.
         12    1    4    4    0    0  0.92251063616E+01 -0.10406334562E+02  0.83314542290E+01  0.16211339117E+02  0.00000000000E+00 0. -1.
</event>
<event>
 8    1  0.5331800E-011  0.9118800E+02  0.7816164E-02  0.1184000E+00
        -11   -1    0    0    0    0  0.00000000000E+00  0.00000000000E+00  0.45593999997E+02  0.45594000000E+02  0.51100000000E-03 0. -1.
         11   -1    0    0    0    0 -0.00000000000E+00 -0.00000000000E+00 -0.45593999997E+02  0.45594000000E+02  0.51100000000E-03 0.  1.
         23    2    1    2    0    0  0.88817841970E-15 -0.35527136788E-14 -0.35527136788E-14  0.91188000000E+02  0.91188000000E+02 0.  0.
    9900012    2    3    3    0    0  0.46913620599E+01 -0.29218877723E+02 -0.31746993592E+02  0.47787270796E+02  0.19999998865E+02 0.  0.
         12    1    3    3    0    0 -0.46913620599E+01  0.29218877723E+02  0.31746993592E+02  0.43400729204E+02  0.00000000000E+00 0. -1.
         11    1    4    4    0    0  0.19179434707E+01  0.18478297665E+01 -0.43125223155E+01  0.50686123333E+01  0.51100000000E-03 0. -1.
        -11    1    4    4    0    0  0.33082360025E+01 -0.27348701804E+01 -0.48985274507E+01  0.65130263164E+01  0.51100000000E-03 0.  1.
         12    1    4    4    0    0 -0.53481741329E+00 -0.28331837309E+02 -0.22535943826E+02  0.36205632146E+02  0.00000000000E+00 0. -1.
</event>
<event>
 8    1  0.5331800E-011  0.9118800E+02  0.7816164E-02  0.1184000E+00
        -11   -1    0    0    0    0  0.00000000000E+00  0.00000000000E+00  0.45593999997E+02  0.45594000000E+02  0.51100000000E-03 0. -1.
         11   -1    0    0    0    0 -0.00000000000E+00 -0.00000000000E+00 -0.45593999997E+02  0.45594000000E+02  0.51100000000E-03 0.  1.
         23    2    1    2    0    0  0.00000000000E+00  0.00000000000E+00  0.00000000000E+00  0.91188000000E+02  0.91188000000E+02 0.  0.
    9900012    2    3    3    0    0  0.20168037578E+02 -0.53457128164E+01 -0.38056496311E+02  0.47787270781E+02  0.19999998799E+02 0.  0.
         12    1    3    3    0    0 -0.20168037578E+02  0.53457128164E+01  0.38056496311E+02  0.43400729219E+02  0.00000000000E+00 0. -1.
         11    1    4    4    0    0  0.25808687695E+01  0.51990317740E+01 -0.25004321888E+01  0.63200455999E+01  0.51100000000E-03 0. -1.
        -11    1    4    4    0    0  0.12766011835E+02 -0.59588611986E+01 -0.28358906291E+02  0.31665543596E+02  0.51100000000E-03 0.  1.
         12    1    4    4    0    0  0.48211569738E+01 -0.45858833918E+01 -0.71971578307E+01  0.98016815848E+01  0.00000000000E+00 0. -1.
</event>
<event>
 8    1  0.5331800E-011  0.9118800E+02  0.7816164E-02  0.1184000E+00
        -11   -1    0    0    0    0  0.00000000000E+00  0.00000000000E+00  0.45593999997E+02  0.45594000000E+02  0.51100000000E-03 0. -1.
         11   -1    0    0    0    0 -0.00000000000E+00 -0.00000000000E+00 -0.45593999997E+02  0.45594000000E+02  0.51100000000E-03 0.  1.
         23    2    1    2    0    0  0.00000000000E+00  0.00000000000E+00  0.00000000000E+00  0.91188000000E+02  0.91188000000E+02 0.  0.
    9900012    2    3    3    0    0 -0.69113212712E+00  0.16678100855E+02 -0.40062280765E+02  0.47787273602E+02  0.20000011661E+02 0.  0.
         12    1    3    3    0    0  0.69113212712E+00 -0.16678100855E+02  0.40062280765E+02  0.43400726398E+02  0.00000000000E+00 0. -1.
         11    1    4    4    0    0  0.29385450941E+01  0.49907536643E+01 -0.43163512027E+00  0.58076654989E+01  0.51100000000E-03 0. -1.
        -11    1    4    4    0    0 -0.53199805852E+01  0.65953835765E+01 -0.23620458275E+02  0.25094368439E+02  0.51100000000E-03 0.  1.
         12    1    4    4    0    0  0.16903033639E+01  0.50919636146E+01 -0.16010187370E+02  0.16885239664E+02  0.00000000000E+00 0. -1.
</event>
<event>
 8    1  0.5331800E-011  0.9118800E+02  0.7816164E-02  0.1184000E+00
        -11   -1    0    0    0    0  0.00000000000E+00  0.00000000000E+00  0.45593999997E+02  0.45594000000E+02  0.51100000000E-03 0.  1.
         11   -1    0    0    0    0 -0.00000000000E+00 -0.00000000000E+00 -0.45593999997E+02  0.45594000000E+02  0.51100000000E-03 0. -1.
         23    2    1    2    0    0 -0.17763568394E-14  0.00000000000E+00  0.35527136788E-14  0.91188000000E+02  0.91188000000E+02 0.  0.
    9900012    2    3    3    0    0  0.14704107849E+02 -0.26896836934E+02  0.30724202873E+02  0.47787225043E+02  0.19999790260E+02 0.  0.
        -12    1    3    3    0    0 -0.14704107849E+02  0.26896836934E+02 -0.30724202873E+02  0.43400774957E+02  0.00000000000E+00 0.  1.
         11    1    4    4    0    0  0.11006455815E+02 -0.13493925657E+02  0.24835608603E+02  0.30332087864E+02  0.51100000000E-03 0. -1.
        -11    1    4    4    0    0 -0.23334970269E+01 -0.80016278283E+01  0.30684976068E+01  0.88818316862E+01  0.51100000000E-03 0.  1.
         12    1    4    4    0    0  0.60311490610E+01 -0.54012834484E+01  0.28200966637E+01  0.85733054931E+01  0.00000000000E+00 0. -1.
</event>
<event>
 8    1  0.5331800E-011  0.9118800E+02  0.7816164E-02  0.1184000E+00
        -11   -1    0    0    0    0  0.00000000000E+00  0.00000000000E+00  0.45593999997E+02  0.45594000000E+02  0.51100000000E-03 0.  1.
         11   -1    0    0    0    0 -0.00000000000E+00 -0.00000000000E+00 -0.45593999997E+02  0.45594000000E+02  0.51100000000E-03 0. -1.
         23    2    1    2    0    0 -0.71054273576E-14  0.00000000000E+00  0.17763568394E-14  0.91188000000E+02  0.91188000000E+02 0.  0.
    9900012    2    3    3    0    0 -0.35747070421E+02  0.21700303601E+02  0.11613219656E+02  0.47787273153E+02  0.20000009615E+02 0.  0.
        -12    1    3    3    0    0  0.35747070421E+02 -0.21700303601E+02 -0.11613219656E+02  0.43400726847E+02  0.00000000000E+00 0.  1.
         11    1    4    4    0    0 -0.33512394652E+02  0.16072781836E+02  0.14829809085E+02  0.40016723367E+02  0.51100000000E-03 0. -1.
        -11    1    4    4    0    0  0.89152537360E+00  0.19500830706E+01 -0.16175332580E+01  0.26858993980E+01  0.51100000000E-03 0.  1.
        -12    1    4    4    0    0 -0.31262011429E+01  0.36774386944E+01 -0.15990561713E+01  0.50846503888E+01  0.00000000000E+00 0.  1.
</event>
<event>
 8    1  0.5331800E-011  0.9118800E+02  0.7816164E-02  0.1184000E+00
        -11   -1    0    0    0    0  0.00000000000E+00  0.00000000000E+00  0.45593999997E+02  0.45594000000E+02  0.51100000000E-03 0. -1.
         11   -1    0    0    0    0 -0.00000000000E+00 -0.00000000000E+00 -0.45593999997E+02  0.45594000000E+02  0.51100000000E-03 0.  1.
         23    2    1    2    0    0  0.00000000000E+00 -0.11102230246E-15 -0.71054273576E-14  0.91188000000E+02  0.91188000000E+02 0.  0.
    9900012    2    3    3    0    0 -0.91014310215E+01 -0.25999088816E+00  0.42434889016E+02  0.47787269042E+02  0.19999990869E+02 0.  0.
        -12    1    3    3    0    0  0.91014310215E+01  0.25999088816E+00 -0.42434889016E+02  0.43400730958E+02  0.00000000000E+00 0.  1.
         11    1    4    4    0    0 -0.65620327706E+01 -0.78899252707E+01  0.15116363323E+02  0.18270622190E+02  0.51100000000E-03 0. -1.
        -11    1    4    4    0    0 -0.37786732984E+01  0.68672793075E+01  0.13414051959E+02  0.15536237872E+02  0.51100000000E-03 0.  1.
         12    1    4    4    0    0  0.12392750475E+01  0.76265507505E+00  0.13904473734E+02  0.13980408979E+02  0.00000000000E+00 0. -1.
</event>
<event>
 8    1  0.5331800E-011  0.9118800E+02  0.7816164E-02  0.1184000E+00
        -11   -1    0    0    0    0  0.00000000000E+00  0.00000000000E+00  0.45593999997E+02  0.45594000000E+02  0.51100000000E-03 0. -1.
         11   -1    0    0    0    0 -0.00000000000E+00 -0.00000000000E+00 -0.45593999997E+02  0.45594000000E+02  0.51100000000E-03 0.  1.
         23    2    1    2    0    0  0.00000000000E+00  0.00000000000E+00  0.00000000000E+00  0.91188000000E+02  0.91188000000E+02 0.  0.
    9900012    2    3    3    0    0  0.22259589437E+02 -0.36407177865E+02 -0.79152550916E+01  0.47787272066E+02  0.20000004659E+02 0.  0.
         12    1    3    3    0    0 -0.22259589437E+02  0.36407177865E+02  0.79152550916E+01  0.43400727934E+02  0.00000000000E+00 0. -1.
         11    1    4    4    0    0  0.19155029726E+02 -0.22561619708E+02 -0.92714894416E+01  0.31014550850E+02  0.51100000000E-03 0. -1.
        -11    1    4    4    0    0  0.33799042800E+01 -0.14052863468E+02 -0.90829136627E+00  0.14482117182E+02  0.51100000000E-03 0.  1.
         12    1    4    4    0    0 -0.27534456945E+00  0.20730531165E+00  0.22645257162E+01  0.22906040347E+01  0.00000000000E+00 0. -1.
</event>
<event>
 8    1  0.5331800E-011  0.9118800E+02  0.7816164E-02  0.1184000E+00
        -11   -1    0    0    0    0  0.00000000000E+00  0.00000000000E+00  0.45593999997E+02  0.45594000000E+02  0.51100000000E-03 0. -1.
         11   -1    0    0    0    0 -0.00000000000E+00 -0.00000000000E+00 -0.45593999997E+02  0.45594000000E+02  0.51100000000E-03 0.  1.
         23    2    1    2    0    0  0.00000000000E+00  0.00000000000E+00  0.00000000000E+00  0.91188000000E+02  0.91188000000E+02 0.  0.
    9900012    2    3    3    0    0 -0.68757019418E+01 -0.20444422023E+02  0.37661308059E+02  0.47787265055E+02  0.19999972691E+02 0.  0.
        -12    1    3    3    0    0  0.68757019418E+01  0.20444422023E+02 -0.37661308059E+02  0.43400734945E+02  0.00000000000E+00 0.  1.
         11    1    4    4    0    0  0.25481593064E-01 -0.13215258389E+02  0.14967413619E+02  0.19966651554E+02  0.51100000000E-03 0. -1.
        -11    1    4    4    0    0 -0.45865336781E+01  0.30448309264E+01  0.89161853003E+01  0.10478818976E+02  0.51100000000E-03 0.  1.
        -12    1    4    4    0    0 -0.23146498568E+01 -0.10273994561E+02  0.13777709140E+02  0.17341794525E+02  0.00000000000E+00 0.  1.
</event>
<event>
 8    1  0.5331800E-011  0.9118800E+02  0.7816164E-02  0.1184000E+00
        -11   -1    0    0    0    0  0.00000000000E+00  0.00000000000E+00  0.45593999997E+02  0.45594000000E+02  0.51100000000E-03 0.  1.
         11   -1    0    0    0    0 -0.00000000000E+00 -0.00000000000E+00 -0.45593999997E+02  0.45594000000E+02  0.51100000000E-03 0. -1.
         23    2    1    2    0    0  0.00000000000E+00  0.00000000000E+00  0.44408920985E-15  0.91188000000E+02  0.91188000000E+02 0.  0.
    9900012    2    3    3    0    0 -0.20141882975E+02 -0.38404513918E+02 -0.17381933773E+01  0.47787268954E+02  0.19999990471E+02 0.  0.
        -12    1    3    3    0    0  0.20141882975E+02  0.38404513918E+02  0.17381933773E+01  0.43400731046E+02  0.00000000000E+00 0.  1.
         11    1    4    4    0    0 -0.12252156525E+02 -0.14364536036E+02 -0.94849281125E+01  0.21128632151E+02  0.51100000000E-03 0. -1.
        -11    1    4    4    0    0 -0.64454662771E+01 -0.14651145379E+02  0.50500827521E+01  0.16784023132E+02  0.51100000000E-03 0.  1.
         12    1    4    4    0    0 -0.14442601735E+01 -0.93888325034E+01  0.26966519831E+01  0.98746136706E+01  0.00000000000E+00 0. -1.
</event>
<event>
 8    1  0.5331800E-011  0.9118800E+02  0.7816164E-02  0.1184000E+00
        -11   -1    0    0    0    0  0.00000000000E+00  0.00000000000E+00  0.45593999997E+02  0.45594000000E+02  0.51100000000E-03 0. -1.
         11   -1    0    0    0    0 -0.00000000000E+00 -0.00000000000E+00 -0.45593999997E+02  0.45594000000E+02  0.51100000000E-03 0.  1.
         23    2    1    2    0    0  0.00000000000E+00  0.17763568394E-14  0.00000000000E+00  0.91188000000E+02  0.91188000000E+02 0.  0.
    9900012    2    3    3    0    0 -0.15251157750E+02 -0.14577769429E+02 -0.37927750998E+02  0.47787268785E+02  0.19999989700E+02 0.  0.
         12    1    3    3    0    0  0.15251157750E+02  0.14577769429E+02  0.37927750998E+02  0.43400731215E+02  0.00000000000E+00 0. -1.
         11    1    4    4    0    0 -0.26132011163E+01 -0.85969843137E+01 -0.29632701301E+02  0.30965043937E+02  0.51100000000E-03 0. -1.
        -11    1    4    4    0    0 -0.76824591115E+01 -0.52758160379E+01 -0.69895451899E+01  0.11649384322E+02  0.51100000000E-03 0.  1.
         12    1    4    4    0    0 -0.49554975222E+01 -0.70496907688E+00 -0.13055045066E+01  0.51728405261E+01  0.00000000000E+00 0. -1.
</event>
<event>
 8    1  0.5331800E-011  0.9118800E+02  0.7816164E-02  0.1184000E+00
        -11   -1    0    0    0    0  0.00000000000E+00  0.00000000000E+00  0.45593999997E+02  0.45594000000E+02  0.51100000000E-03 0.  1.
         11   -1    0    0    0    0 -0.00000000000E+00 -0.00000000000E+00 -0.45593999997E+02  0.45594000000E+02  0.51100000000E-03 0. -1.
         23    2    1    2    0    0  0.00000000000E+00  0.00000000000E+00  0.00000000000E+00  0.91188000000E+02  0.91188000000E+02 0.  0.
    9900012    2    3    3    0    0  0.34512216993E+02 -0.12229961187E+02  0.23301451343E+02  0.47787277574E+02  0.20000029771E+02 0.  0.
        -12    1    3    3    0    0 -0.34512216993E+02  0.12229961187E+02 -0.23301451343E+02  0.43400722426E+02  0.00000000000E+00 0.  1.
         11    1    4    4    0    0  0.21825940822E+02 -0.13773841475E+02  0.16848887893E+02  0.30821671357E+02  0.51100000000E-03 0. -1.
        -11    1    4    4    0    0  0.11682927014E+02  0.30889431653E+01  0.80558376877E+01  0.14523390603E+02  0.51100000000E-03 0.  1.
        -12    1    4    4    0    0  0.10033491569E+01 -0.15450628780E+01 -0.16032742375E+01  0.24422156146E+01  0.00000000000E+00 0.  1.
</event>
<event>
 8    1  0.5331800E-011  0.9118800E+02  0.7816164E-02  0.1184000E+00
        -11   -1    0    0    0    0  0.00000000000E+00  0.00000000000E+00  0.45593999997E+02  0.45594000000E+02  0.51100000000E-03 0. -1.
         11   -1    0    0    0    0 -0.00000000000E+00 -0.00000000000E+00 -0.45593999997E+02  0.45594000000E+02  0.51100000000E-03 0.  1.
         23    2    1    2    0    0  0.00000000000E+00  0.00000000000E+00  0.00000000000E+00  0.91188000000E+02  0.91188000000E+02 0.  0.
    9900012    2    3    3    0    0  0.18871749263E+02 -0.32061990221E+02 -0.22349689601E+02  0.47787276936E+02  0.20000026862E+02 0.  0.
         12    1    3    3    0    0 -0.18871749263E+02  0.32061990221E+02  0.22349689601E+02  0.43400723064E+02  0.00000000000E+00 0. -1.
         11    1    4    4    0    0  0.49598381965E+01 -0.41465910575E+01  0.43921086659E-01  0.64649935543E+01  0.51100000000E-03 0. -1.
        -11    1    4    4    0    0  0.16946284662E+02 -0.20810331137E+02 -0.15649465913E+02  0.31066899258E+02  0.51100000000E-03 0.  1.
        -12    1    4    4    0    0 -0.30343735956E+01 -0.71050680274E+01 -0.67441447744E+01  0.10255384124E+02  0.00000000000E+00 0.  1.
</event>
<event>
 8    1  0.5331800E-011  0.9118800E+02  0.7816164E-02  0.1184000E+00
        -11   -1    0    0    0    0  0.00000000000E+00  0.00000000000E+00  0.45593999997E+02  0.45594000000E+02  0.51100000000E-03 0. -1.
         11   -1    0    0    0    0 -0.00000000000E+00 -0.00000000000E+00 -0.45593999997E+02  0.45594000000E+02  0.51100000000E-03 0.  1.
         23    2    1    2    0    0  0.00000000000E+00 -0.22204460493E-15  0.00000000000E+00  0.91188000000E+02  0.91188000000E+02 0.  0.
    9900012    2    3    3    0    0 -0.22735541892E+02  0.72623290960E+00 -0.36962010937E+02  0.47787279593E+02  0.20000038975E+02 0.  0.
         12    1    3    3    0    0  0.22735541892E+02 -0.72623290960E+00  0.36962010937E+02  0.43400720407E+02  0.00000000000E+00 0. -1.
         11    1    4    4    0    0 -0.70866082935E+00  0.15244790870E+01 -0.73989284883E+00  0.18367575634E+01  0.51100000000E-03 0. -1.
        -11    1    4    4    0    0 -0.14655822400E+02  0.90131142650E+00 -0.79778375382E+01  0.16710816394E+02  0.51100000000E-03 0.  1.
        -12    1    4    4    0    0 -0.73710586625E+01 -0.16995576039E+01 -0.28244280550E+02  0.29239705635E+02  0.00000000000E+00 0.  1.
</event>
<event>
 8    1  0.5331800E-011  0.9118800E+02  0.7816164E-02  0.1184000E+00
        -11   -1    0    0    0    0  0.00000000000E+00  0.00000000000E+00  0.45593999997E+02  0.45594000000E+02  0.51100000000E-03 0.  1.
         11   -1    0    0    0    0 -0.00000000000E+00 -0.00000000000E+00 -0.45593999997E+02  0.45594000000E+02  0.51100000000E-03 0. -1.
         23    2    1    2    0    0  0.00000000000E+00  0.00000000000E+00 -0.13045120539E-14  0.91188000000E+02  0.91188000000E+02 0.  0.
    9900012    2    3    3    0    0 -0.37574633664E+02 -0.21719599782E+02  0.17308734401E+00  0.47787261885E+02  0.19999958240E+02 0.  0.
        -12    1    3    3    0    0  0.37574633664E+02  0.21719599782E+02 -0.17308734401E+00  0.43400738115E+02  0.00000000000E+00 0.  1.
         11    1    4    4    0    0 -0.14498025360E+02 -0.10839000931E+02 -0.74781824062E+01  0.19585706341E+02  0.51100000000E-03 0. -1.
        -11    1    4    4    0    0 -0.20614884755E+02 -0.63992266876E+01  0.81313964783E+01  0.23066061316E+02  0.51100000000E-03 0.  1.
         12    1    4    4    0    0 -0.24617235491E+01 -0.44813721629E+01 -0.48012672810E+00  0.51354942283E+01  0.00000000000E+00 0. -1.
</event>
<event>
 8    1  0.5331800E-011  0.9118800E+02  0.7816164E-02  0.1184000E+00
        -11   -1    0    0    0    0  0.00000000000E+00  0.00000000000E+00  0.45593999997E+02  0.45594000000E+02  0.51100000000E-03 0.  1.
         11   -1    0    0    0    0 -0.00000000000E+00 -0.00000000000E+00 -0.45593999997E+02  0.45594000000E+02  0.51100000000E-03 0. -1.
         23    2    1    2    0    0  0.00000000000E+00  0.00000000000E+00  0.00000000000E+00  0.91188000000E+02  0.91188000000E+02 0.  0.
    9900012    2    3    3    0    0 -0.18801776138E+02 -0.36211006507E+02 -0.14794574806E+02  0.47787271644E+02  0.20000002732E+02 0.  0.
         12    1    3    3    0    0  0.18801776138E+02  0.36211006507E+02  0.14794574806E+02  0.43400728356E+02  0.00000000000E+00 0. -1.
         11    1    4    4    0    0 -0.13963080359E+01 -0.35430729865E+01  0.45014922029E+00  0.38347981564E+01  0.51100000000E-03 0. -1.
        -11    1    4    4    0    0 -0.73247450956E+01 -0.50316581762E+01  0.29495888216E+01  0.93632018666E+01  0.51100000000E-03 0.  1.
        -12    1    4    4    0    0 -0.10080723006E+02 -0.27636275345E+02 -0.18194312848E+02  0.34589271621E+02  0.00000000000E+00 0.  1.
</event>
<event>
 8    1  0.5331800E-011  0.9118800E+02  0.7816164E-02  0.1184000E+00
        -11   -1    0    0    0    0  0.00000000000E+00  0.00000000000E+00  0.45593999997E+02  0.45594000000E+02  0.51100000000E-03 0.  1.
         11   -1    0    0    0    0 -0.00000000000E+00 -0.00000000000E+00 -0.45593999997E+02  0.45594000000E+02  0.51100000000E-03 0. -1.
         23    2    1    2    0    0  0.00000000000E+00  0.00000000000E+00  0.00000000000E+00  0.91188000000E+02  0.91188000000E+02 0.  0.
    9900012    2    3    3    0    0 -0.39659920229E+02  0.14527731259E+02  0.99828936926E+01  0.47787280944E+02  0.20000045138E+02 0.  0.
        -12    1    3    3    0    0  0.39659920229E+02 -0.14527731259E+02 -0.99828936926E+01  0.43400719056E+02  0.00000000000E+00 0.  1.
         11    1    4    4    0    0 -0.24099817418E+02  0.52137228631E+01  0.11863782597E+02  0.27362994051E+02  0.51100000000E-03 0.  1.
        -11    1    4    4    0    0 -0.64650663588E+01  0.44263449072E+00 -0.38946827786E+01  0.75605266036E+01  0.51100000000E-03 0. -1.
         12    1    4    4    0    0 -0.90950364524E+01  0.88713739048E+01  0.20137938738E+01  0.12863760290E+02  0.00000000000E+00 0. -1.
</event>
<event>
 8    1  0.5331800E-011  0.9118800E+02  0.7816164E-02  0.1184000E+00
        -11   -1    0    0    0    0  0.00000000000E+00  0.00000000000E+00  0.45593999997E+02  0.45594000000E+02  0.51100000000E-03 0. -1.
         11   -1    0    0    0    0 -0.00000000000E+00 -0.00000000000E+00 -0.45593999997E+02  0.45594000000E+02  0.51100000000E-03 0.  1.
         23    2    1    2    0    0  0.35527136788E-14  0.00000000000E+00  0.00000000000E+00  0.91188000000E+02  0.91188000000E+02 0.  0.
    9900012    2    3    3    0    0  0.31233140754E+02  0.19549786118E+02 -0.22932936123E+02  0.47787276759E+02  0.20000026053E+02 0.  0.
         12    1    3    3    0    0 -0.31233140754E+02 -0.19549786118E+02  0.22932936123E+02  0.43400723241E+02  0.00000000000E+00 0. -1.
         11    1    4    4    0    0  0.17086538106E+02  0.38830394385E+01 -0.36657574771E+01  0.17901551829E+02  0.51100000000E-03 0. -1.
        -11    1    4    4    0    0  0.10718624658E+02  0.98010880501E+01 -0.17731102042E+02  0.22920345141E+02  0.51100000000E-03 0.  1.
         12    1    4    4    0    0  0.34279779905E+01  0.58656586299E+01 -0.15360766043E+01  0.69653797886E+01  0.00000000000E+00 0. -1.
</event>
<event>
 8    1  0.5331800E-011  0.9118800E+02  0.7816164E-02  0.1184000E+00
        -11   -1    0    0    0    0  0.00000000000E+00  0.00000000000E+00  0.45593999997E+02  0.45594000000E+02  0.51100000000E-03 0. -1.
         11   -1    0    0    0    0 -0.00000000000E+00 -0.00000000000E+00 -0.45593999997E+02  0.45594000000E+02  0.51100000000E-03 0.  1.
         23    2    1    2    0    0  0.00000000000E+00  0.00000000000E+00  0.71054273576E-14  0.91188000000E+02  0.91188000000E+02 0.  0.
    9900012    2    3    3    0    0  0.17948093473E+02 -0.32714565791E+02 -0.22164078421E+02  0.47787271360E+02  0.20000001440E+02 0.  0.
         12    1    3    3    0    0 -0.17948093473E+02  0.32714565791E+02  0.22164078421E+02  0.43400728640E+02  0.00000000000E+00 0. -1.
         11    1    4    4    0    0  0.92453697003E+01 -0.72501598678E+01 -0.41460224786E+00  0.11756426935E+02  0.51100000000E-03 0. -1.
        -11    1    4    4    0    0  0.83168090331E+01 -0.13616370608E+02 -0.16845301374E+02  0.23202134377E+02  0.51100000000E-03 0.  1.
         12    1    4    4    0    0  0.38591473936E+00 -0.11848035315E+02 -0.49041747997E+01  0.12828710048E+02  0.00000000000E+00 0. -1.
</event>
<event>
 8    1  0.5331800E-011  0.9118800E+02  0.7816164E-02  0.1184000E+00
        -11   -1    0    0    0    0  0.00000000000E+00  0.00000000000E+00  0.45593999997E+02  0.45594000000E+02  0.51100000000E-03 0. -1.
         11   -1    0    0    0    0 -0.00000000000E+00 -0.00000000000E+00 -0.45593999997E+02  0.45594000000E+02  0.51100000000E-03 0.  1.
         23    2    1    2    0    0  0.00000000000E+00  0.00000000000E+00  0.00000000000E+00  0.91188000000E+02  0.91188000000E+02 0.  0.
    9900012    2    3    3    0    0  0.40862840562E+01 -0.37820693715E+02 -0.20893069906E+02  0.47787274654E+02  0.20000016457E+02 0.  0.
         12    1    3    3    0    0 -0.40862840562E+01  0.37820693715E+02  0.20893069906E+02  0.43400725346E+02  0.00000000000E+00 0. -1.
         11    1    4    4    0    0  0.85612881702E+01 -0.22396478488E+02 -0.62885510028E+01  0.24787976476E+02  0.51100000000E-03 0. -1.
        -11    1    4    4    0    0 -0.41431111869E+01 -0.15642426311E+02 -0.11457675356E+02  0.19827485873E+02  0.51100000000E-03 0.  1.
         12    1    4    4    0    0 -0.33189292704E+00  0.21821108398E+00 -0.31468435468E+01  0.31718123054E+01  0.00000000000E+00 0. -1.
</event>
<event>
 8    1  0.5331800E-011  0.9118800E+02  0.7816164E-02  0.1184000E+00
        -11   -1    0    0    0    0  0.00000000000E+00  0.00000000000E+00  0.45593999997E+02  0.45594000000E+02  0.51100000000E-03 0. -1.
         11   -1    0    0    0    0 -0.00000000000E+00 -0.00000000000E+00 -0.45593999997E+02  0.45594000000E+02  0.51100000000E-03 0.  1.
         23    2    1    2    0    0  0.00000000000E+00  0.00000000000E+00 -0.35527136788E-14  0.91188000000E+02  0.91188000000E+02 0.  0.
    9900012    2    3    3    0    0  0.18538181361E+02  0.26317631000E+02 -0.29109129474E+02  0.47787270878E+02  0.19999999240E+02 0.  0.
         12    1    3    3    0    0 -0.18538181361E+02 -0.26317631000E+02  0.29109129474E+02  0.43400729122E+02  0.00000000000E+00 0. -1.
         11    1    4    4    0    0  0.11679764285E+02  0.26468835409E+02 -0.17072668650E+02  0.33593037326E+02  0.51100000000E-03 0. -1.
        -11    1    4    4    0    0  0.44775876726E+01  0.10763203063E+01 -0.92275272358E+01  0.10312832584E+02  0.51100000000E-03 0.  1.
         12    1    4    4    0    0  0.23808294033E+01 -0.12275247148E+01 -0.28089335874E+01  0.38814009677E+01  0.00000000000E+00 0. -1.
</event>
<event>
 8    1  0.5331800E-011  0.9118800E+02  0.7816164E-02  0.1184000E+00
        -11   -1    0    0    0    0  0.00000000000E+00  0.00000000000E+00  0.45593999997E+02  0.45594000000E+02  0.51100000000E-03 0. -1.
         11   -1    0    0    0    0 -0.00000000000E+00 -0.00000000000E+00 -0.45593999997E+02  0.45594000000E+02  0.51100000000E-03 0.  1.
         23    2    1    2    0    0  0.00000000000E+00  0.35527136788E-14  0.35527136788E-14  0.91188000000E+02  0.91188000000E+02 0.  0.
    9900012    2    3    3    0    0 -0.19212245133E+02 -0.31939195696E+02  0.22235137219E+02  0.47787263694E+02  0.19999966487E+02 0.  0.
        -12    1    3    3    0    0  0.19212245133E+02  0.31939195696E+02 -0.22235137219E+02  0.43400736306E+02  0.00000000000E+00 0.  1.
         11    1    4    4    0    0 -0.23549432322E+01 -0.12152674007E+02  0.11194515155E+02  0.16689829627E+02  0.51100000000E-03 0. -1.
        -11    1    4    4    0    0 -0.13154646108E+02 -0.76079366656E+01  0.16627473613E+01  0.15286927212E+02  0.51100000000E-03 0.  1.
         12    1    4    4    0    0 -0.37026557927E+01 -0.12178585023E+02  0.93778747032E+01  0.15810506855E+02  0.00000000000E+00 0. -1.
</event>
<event>
 8    1  0.5331800E-011  0.9118800E+02  0.7816164E-02  0.1184000E+00
        -11   -1    0    0    0    0  0.00000000000E+00  0.00000000000E+00  0.45593999997E+02  0.45594000000E+02  0.51100000000E-03 0. -1.
         11   -1    0    0    0    0 -0.00000000000E+00 -0.00000000000E+00 -0.45593999997E+02  0.45594000000E+02  0.51100000000E-03 0.  1.
         23    2    1    2    0    0  0.00000000000E+00 -0.88817841970E-15  0.00000000000E+00  0.91188000000E+02  0.91188000000E+02 0.  0.
    9900012    2    3    3    0    0  0.91975958036E+01  0.53589737395E+01 -0.42075043504E+02  0.47787266666E+02  0.19999980036E+02 0.  0.
         12    1    3    3    0    0 -0.91975958036E+01 -0.53589737395E+01  0.42075043504E+02  0.43400733334E+02  0.00000000000E+00 0. -1.
         11    1    4    4    0    0 -0.54585334375E+01 -0.20729722188E+01 -0.14479479733E+02  0.15612435259E+02  0.51100000000E-03 0. -1.
        -11    1    4    4    0    0  0.76404670846E+01  0.41258960752E+01 -0.12758875194E+02  0.15433361662E+02  0.51100000000E-03 0.  1.
         12    1    4    4    0    0  0.70156621565E+01  0.33060498831E+01 -0.14836688576E+02  0.16741469745E+02  0.00000000000E+00 0. -1.
</event>
<event>
 8    1  0.5331800E-011  0.9118800E+02  0.7816164E-02  0.1184000E+00
        -11   -1    0    0    0    0  0.00000000000E+00  0.00000000000E+00  0.45593999997E+02  0.45594000000E+02  0.51100000000E-03 0. -1.
         11   -1    0    0    0    0 -0.00000000000E+00 -0.00000000000E+00 -0.45593999997E+02  0.45594000000E+02  0.51100000000E-03 0.  1.
         23    2    1    2    0    0  0.44408920985E-15  0.88817841970E-15  0.71054273576E-14  0.91188000000E+02  0.91188000000E+02 0.  0.
    9900012    2    3    3    0    0 -0.18924443040E+01  0.57338918521E+01  0.42978650841E+02  0.47787270867E+02  0.19999999189E+02 0.  0.
        -12    1    3    3    0    0  0.18924443040E+01 -0.57338918521E+01 -0.42978650841E+02  0.43400729133E+02  0.00000000000E+00 0.  1.
         11    1    4    4    0    0  0.61122864256E+01  0.55807162802E+01  0.14931918354E+02  0.17072393667E+02  0.51100000000E-03 0. -1.
        -11    1    4    4    0    0 -0.73270186579E+01 -0.80402096677E-01  0.87847401724E+01  0.11439550999E+02  0.51100000000E-03 0.  1.
         12    1    4    4    0    0 -0.67771207167E+00  0.23357766860E+00  0.19261992315E+02  0.19275326200E+02  0.00000000000E+00 0. -1.
</event>
<event>
 8    1  0.5331800E-011  0.9118800E+02  0.7816164E-02  0.1184000E+00
        -11   -1    0    0    0    0  0.00000000000E+00  0.00000000000E+00  0.45593999997E+02  0.45594000000E+02  0.51100000000E-03 0.  1.
         11   -1    0    0    0    0 -0.00000000000E+00 -0.00000000000E+00 -0.45593999997E+02  0.45594000000E+02  0.51100000000E-03 0. -1.
         23    2    1    2    0    0  0.00000000000E+00  0.00000000000E+00  0.17763568394E-14  0.91188000000E+02  0.91188000000E+02 0.  0.
    9900012    2    3    3    0    0  0.41446329668E+02 -0.30999223836E+01  0.12498619468E+02  0.47787271316E+02  0.20000001237E+02 0.  0.
        -12    1    3    3    0    0 -0.41446329668E+02  0.30999223836E+01 -0.12498619468E+02  0.43400728684E+02  0.00000000000E+00 0.  1.
         11    1    4    4    0    0  0.15248214790E+02  0.63216413128E+01  0.23803267317E+01  0.16677444612E+02  0.51100000000E-03 0. -1.
        -11    1    4    4    0    0  0.22034866106E+02 -0.10460223983E+02  0.10953916175E+02  0.26738359896E+02  0.51100000000E-03 0.  1.
        -12    1    4    4    0    0  0.41632487712E+01  0.10386602864E+01 -0.83562343826E+00  0.43714668078E+01  0.00000000000E+00 0.  1.
</event>
<event>
 8    1  0.5331800E-011  0.9118800E+02  0.7816164E-02  0.1184000E+00
        -11   -1    0    0    0    0  0.00000000000E+00  0.00000000000E+00  0.45593999997E+02  0.45594000000E+02  0.51100000000E-03 0. -1.
         11   -1    0    0    0    0 -0.00000000000E+00 -0.00000000000E+00 -0.45593999997E+02  0.45594000000E+02  0.51100000000E-03 0.  1.
         23    2    1    2    0    0  0.00000000000E+00 -0.17763568394E-14 -0.35527136788E-14  0.91188000000E+02  0.91188000000E+02 0.  0.
    9900012    2    3    3    0    0  0.33640055964E+02 -0.81917319513E+01 -0.26169933798E+02  0.47787271059E+02  0.20000000066E+02 0.  0.
         12    1    3    3    0    0 -0.33640055964E+02  0.81917319513E+01  0.26169933798E+02  0.43400728941E+02  0.00000000000E+00 0. -1.
         11    1    4    4    0    0  0.48481559903E+01 -0.85232013738E+01 -0.27038000560E+01  0.10171534455E+02  0.51100000000E-03 0. -1.
        -11    1    4    4    0    0  0.21586573070E+02 -0.17739093281E+01 -0.15266444731E+02  0.26498891037E+02  0.51100000000E-03 0.  1.
         12    1    4    4    0    0  0.72053269035E+01  0.21053787506E+01 -0.81996890117E+01  0.11116845567E+02  0.00000000000E+00 0. -1.
</event>
<event>
 8    1  0.5331800E-011  0.9118800E+02  0.7816164E-02  0.1184000E+00
        -11   -1    0    0    0    0  0.00000000000E+00  0.00000000000E+00  0.45593999997E+02  0.45594000000E+02  0.51100000000E-03 0. -1.
         11   -1    0    0    0    0 -0.00000000000E+00 -0.00000000000E+00 -0.45593999997E+02  0.45594000000E+02  0.51100000000E-03 0.  1.
         23    2    1    2    0    0  0.66613381478E-15  0.17763568394E-14  0.00000000000E+00  0.91188000000E+02  0.91188000000E+02 0.  0.
    9900012    2    3    3    0    0 -0.18135250645E+01 -0.11624820538E+02 -0.41775564943E+02  0.47787272448E+02  0.20000006401E+02 0.  0.
         12    1    3    3    0    0  0.18135250645E+01  0.11624820538E+02  0.41775564943E+02  0.43400727552E+02  0.00000000000E+00 0. -1.
         11    1    4    4    0    0 -0.40100050774E+01  0.19899076399E+01 -0.44220267039E+01  0.62923917208E+01  0.51100000000E-03 0. -1.
        -11    1    4    4    0    0  0.12551871036E+01 -0.13443905836E+02 -0.38008430578E+02  0.40335528930E+02  0.51100000000E-03 0.  1.
        -12    1    4    4    0    0  0.94129290930E+00 -0.17082234230E+00  0.65489233947E+00  0.11593517974E+01  0.00000000000E+00 0.  1.
</event>
<event>
 8    1  0.5331800E-011  0.9118800E+02  0.7816164E-02  0.1184000E+00
        -11   -1    0    0    0    0  0.00000000000E+00  0.00000000000E+00  0.45593999997E+02  0.45594000000E+02  0.51100000000E-03 0.  1.
         11   -1    0    0    0    0 -0.00000000000E+00 -0.00000000000E+00 -0.45593999997E+02  0.45594000000E+02  0.51100000000E-03 0. -1.
         23    2    1    2    0    0 -0.35527136788E-14 -0.71054273576E-14  0.17763568394E-14  0.91188000000E+02  0.91188000000E+02 0.  0.
    9900012    2    3    3    0    0  0.26357280208E+02  0.32714834169E+02 -0.10892949188E+02  0.47787274929E+02  0.20000017712E+02 0.  0.
         12    1    3    3    0    0 -0.26357280208E+02 -0.32714834169E+02  0.10892949188E+02  0.43400725071E+02  0.00000000000E+00 0. -1.
         11    1    4    4    0    0 -0.38411343101E+00  0.17860921037E+01  0.15293945709E+01  0.23825860205E+01  0.51100000000E-03 0. -1.
        -11    1    4    4    0    0  0.56030887188E+01  0.15552460202E+02 -0.15905133342E+00  0.16531754871E+02  0.51100000000E-03 0.  1.
        -12    1    4    4    0    0  0.21138304920E+02  0.15376281864E+02 -0.12263292426E+02  0.28872934038E+02  0.00000000000E+00 0.  1.
</event>
<event>
 8    1  0.5331800E-011  0.9118800E+02  0.7816164E-02  0.1184000E+00
        -11   -1    0    0    0    0  0.00000000000E+00  0.00000000000E+00  0.45593999997E+02  0.45594000000E+02  0.51100000000E-03 0. -1.
         11   -1    0    0    0    0 -0.00000000000E+00 -0.00000000000E+00 -0.45593999997E+02  0.45594000000E+02  0.51100000000E-03 0.  1.
         23    2    1    2    0    0  0.00000000000E+00  0.35527136788E-14  0.00000000000E+00  0.91188000000E+02  0.91188000000E+02 0.  0.
    9900012    2    3    3    0    0 -0.80602136131E+01  0.22935596281E+02  0.35952945879E+02  0.47787274918E+02  0.20000017662E+02 0.  0.
        -12    1    3    3    0    0  0.80602136131E+01 -0.22935596281E+02 -0.35952945879E+02  0.43400725082E+02  0.00000000000E+00 0.  1.
         11    1    4    4    0    0  0.11723261361E+01 -0.10273958494E+01  0.13382722930E+02  0.13473201701E+02  0.51100000000E-03 0. -1.
        -11    1    4    4    0    0 -0.43134767733E+01  0.15080279567E+02  0.14106477590E+02  0.21095346026E+02  0.51100000000E-03 0.  1.
         12    1    4    4    0    0 -0.49190629758E+01  0.88827125640E+01  0.84637453582E+01  0.13218727191E+02  0.00000000000E+00 0. -1.
</event>
<event>
 8    1  0.5331800E-011  0.9118800E+02  0.7816164E-02  0.1184000E+00
        -11   -1    0    0    0    0  0.00000000000E+00  0.00000000000E+00  0.45593999997E+02  0.45594000000E+02  0.51100000000E-03 0. -1.
         11   -1    0    0    0    0 -0.00000000000E+00 -0.00000000000E+00 -0.45593999997E+02  0.45594000000E+02  0.51100000000E-03 0.  1.
         23    2    1    2    0    0 -0.17763568394E-14  0.00000000000E+00  0.00000000000E+00  0.91188000000E+02  0.91188000000E+02 0.  0.
    9900012    2    3    3    0    0 -0.11224326760E+02  0.90458484154E+01 -0.40936661252E+02  0.47787272826E+02  0.20000008125E+02 0.  0.
         12    1    3    3    0    0  0.11224326760E+02 -0.90458484154E+01  0.40936661252E+02  0.43400727174E+02  0.00000000000E+00 0. -1.
         11    1    4    4    0    0 -0.10164023326E+02 -0.42702503583E+01 -0.15581272373E+02  0.19087128053E+02  0.51100000000E-03 0. -1.
        -11    1    4    4    0    0  0.14682471538E+00  0.73104947750E+01 -0.14306457152E+02  0.16066723619E+02  0.51100000000E-03 0.  1.
         12    1    4    4    0    0 -0.12071281493E+01  0.60056039986E+01 -0.11048931727E+02  0.12633421154E+02  0.00000000000E+00 0. -1.
</event>
<event>
 8    1  0.5331800E-011  0.9118800E+02  0.7816164E-02  0.1184000E+00
        -11   -1    0    0    0    0  0.00000000000E+00  0.00000000000E+00  0.45593999997E+02  0.45594000000E+02  0.51100000000E-03 0. -1.
         11   -1    0    0    0    0 -0.00000000000E+00 -0.00000000000E+00 -0.45593999997E+02  0.45594000000E+02  0.51100000000E-03 0.  1.
         23    2    1    2    0    0 -0.35527136788E-14 -0.13322676296E-14  0.00000000000E+00  0.91188000000E+02  0.91188000000E+02 0.  0.
    9900012    2    3    3    0    0 -0.30873640824E+02  0.14111308921E+01  0.30470481244E+02  0.47787271718E+02  0.20000003073E+02 0.  0.
        -12    1    3    3    0    0  0.30873640824E+02 -0.14111308921E+01 -0.30470481244E+02  0.43400728282E+02  0.00000000000E+00 0.  1.
         11    1    4    4    0    0 -0.27563105073E+02  0.73127801468E+01  0.28841523239E+02  0.40559030779E+02  0.51100000000E-03 0. -1.
        -11    1    4    4    0    0 -0.45890491134E+00 -0.26928819331E+01  0.38389950240E+00  0.27585477905E+01  0.51100000000E-03 0.  1.
         12    1    4    4    0    0 -0.28516308392E+01 -0.32087673216E+01  0.12450585030E+01  0.44696931487E+01  0.00000000000E+00 0. -1.
</event>
<event>
 8    1  0.5331800E-011  0.9118800E+02  0.7816164E-02  0.1184000E+00
        -11   -1    0    0    0    0  0.00000000000E+00  0.00000000000E+00  0.45593999997E+02  0.45594000000E+02  0.51100000000E-03 0. -1.
         11   -1    0    0    0    0 -0.00000000000E+00 -0.00000000000E+00 -0.45593999997E+02  0.45594000000E+02  0.51100000000E-03 0.  1.
         23    2    1    2    0    0  0.00000000000E+00  0.00000000000E+00  0.00000000000E+00  0.91188000000E+02  0.91188000000E+02 0.  0.
    9900012    2    3    3    0    0  0.28908777195E+02  0.15095989662E+02  0.28635934146E+02  0.47787273886E+02  0.20000012958E+02 0.  0.
        -12    1    3    3    0    0 -0.28908777195E+02 -0.15095989662E+02 -0.28635934146E+02  0.43400726114E+02  0.00000000000E+00 0.  1.
         11    1    4    4    0    0  0.16788309751E+02  0.55485197991E+01  0.56174406190E+01  0.18552332889E+02  0.51100000000E-03 0. -1.
        -11    1    4    4    0    0 -0.10201783440E+01 -0.75696697524E+00  0.11033548741E+01  0.16826036653E+01  0.51100000000E-03 0.  1.
         12    1    4    4    0    0  0.13140645787E+02  0.10304436838E+02  0.21915138653E+02  0.27552337332E+02  0.00000000000E+00 0. -1.
</event>
<event>
 8    1  0.5331800E-011  0.9118800E+02  0.7816164E-02  0.1184000E+00
        -11   -1    0    0    0    0  0.00000000000E+00  0.00000000000E+00  0.45593999997E+02  0.45594000000E+02  0.51100000000E-03 0. -1.
         11   -1    0    0    0    0 -0.00000000000E+00 -0.00000000000E+00 -0.45593999997E+02  0.45594000000E+02  0.51100000000E-03 0.  1.
         23    2    1    2    0    0  0.00000000000E+00  0.00000000000E+00 -0.17763568394E-14  0.91188000000E+02  0.91188000000E+02 0.  0.
    9900012    2    3    3    0    0  0.83764732166E+01 -0.41248665814E+02 -0.10583267023E+02  0.47787271022E+02  0.19999999896E+02 0.  0.
         12    1    3    3    0    0 -0.83764732166E+01  0.41248665814E+02  0.10583267023E+02  0.43400728978E+02  0.00000000000E+00 0. -1.
         11    1    4    4    0    0 -0.45173320578E+01 -0.15981616450E+02 -0.29397944701E+01  0.16865964102E+02  0.51100000000E-03 0. -1.
        -11    1    4    4    0    0  0.10672247479E+02 -0.11938845703E+02 -0.67552770956E+01  0.17380065359E+02  0.51100000000E-03 0.  1.
        -12    1    4    4    0    0  0.22215577958E+01 -0.13328203660E+02 -0.88819545705E+00  0.13541241561E+02  0.00000000000E+00 0.  1.
</event>
<event>
 8    1  0.5331800E-011  0.9118800E+02  0.7816164E-02  0.1184000E+00
        -11   -1    0    0    0    0  0.00000000000E+00  0.00000000000E+00  0.45593999997E+02  0.45594000000E+02  0.51100000000E-03 0.  1.
         11   -1    0    0    0    0 -0.00000000000E+00 -0.00000000000E+00 -0.45593999997E+02  0.45594000000E+02  0.51100000000E-03 0. -1.
         23    2    1    2    0    0  0.00000000000E+00  0.00000000000E+00  0.00000000000E+00  0.91188000000E+02  0.91188000000E+02 0.  0.
    9900012    2    3    3    0    0 -0.47819925072E+01  0.41848765424E+02 -0.10461201594E+02  0.47787270067E+02  0.19999995546E+02 0.  0.
        -12    1    3    3    0    0  0.47819925072E+01 -0.41848765424E+02  0.10461201594E+02  0.43400729933E+02  0.00000000000E+00 0.  1.
         11    1    4    4    0    0 -0.84794666752E+01  0.29624706276E+02 -0.57749500217E+01  0.31350831330E+02  0.51100000000E-03 0. -1.
        -11    1    4    4    0    0 -0.51443526944E+00  0.90041283909E+01 -0.61743470816E+01  0.10929846013E+02  0.51100000000E-03 0.  1.
         12    1    4    4    0    0  0.42119094374E+01  0.32199307574E+01  0.14880955094E+01  0.55065927248E+01  0.00000000000E+00 0. -1.
</event>
<event>
 8    1  0.5331800E-011  0.9118800E+02  0.7816164E-02  0.1184000E+00
        -11   -1    0    0    0    0  0.00000000000E+00  0.00000000000E+00  0.45593999997E+02  0.45594000000E+02  0.51100000000E-03 0. -1.
         11   -1    0    0    0    0 -0.00000000000E+00 -0.00000000000E+00 -0.45593999997E+02  0.45594000000E+02  0.51100000000E-03 0.  1.
         23    2    1    2    0    0 -0.35527136788E-14 -0.88817841970E-15  0.00000000000E+00  0.91188000000E+02  0.91188000000E+02 0.  0.
    9900012    2    3    3    0    0  0.18072137764E+02  0.57891803881E+01 -0.39032132207E+02  0.47787261325E+02  0.19999955683E+02 0.  0.
         12    1    3    3    0    0 -0.18072137764E+02 -0.57891803881E+01  0.39032132207E+02  0.43400738675E+02  0.00000000000E+00 0. -1.
         11    1    4    4    0    0  0.15225214060E+01  0.11767684545E+01 -0.22699758865E+02  0.22781174426E+02  0.51100000000E-03 0. -1.
        -11    1    4    4    0    0  0.14937170880E+02  0.26370831526E+01 -0.16546992197E+02  0.22447187630E+02  0.51100000000E-03 0.  1.
        -12    1    4    4    0    0  0.16124454778E+01  0.19753287811E+01  0.21461885545E+00  0.25588992683E+01  0.00000000000E+00 0.  1.
</event>
<event>
 8    1  0.5331800E-011  0.9118800E+02  0.7816164E-02  0.1184000E+00
        -11   -1    0    0    0    0  0.00000000000E+00  0.00000000000E+00  0.45593999997E+02  0.45594000000E+02  0.51100000000E-03 0. -1.
         11   -1    0    0    0    0 -0.00000000000E+00 -0.00000000000E+00 -0.45593999997E+02  0.45594000000E+02  0.51100000000E-03 0.  1.
         23    2    1    2    0    0  0.00000000000E+00 -0.35527136788E-14  0.00000000000E+00  0.91188000000E+02  0.91188000000E+02 0.  0.
    9900012    2    3    3    0    0  0.13408436524E+01 -0.25234195094E+02  0.35285424214E+02  0.47787266991E+02  0.19999981519E+02 0.  0.
        -12    1    3    3    0    0 -0.13408436524E+01  0.25234195094E+02 -0.35285424214E+02  0.43400733009E+02  0.00000000000E+00 0.  1.
         11    1    4    4    0    0  0.19638133134E+01 -0.54392054819E+01 -0.75415949408E+00  0.58318329716E+01  0.51100000000E-03 0. -1.
        -11    1    4    4    0    0 -0.12717771585E+01 -0.51439242925E+00  0.39896686555E+00  0.14287027449E+01  0.51100000000E-03 0.  1.
         12    1    4    4    0    0  0.64880749759E+00 -0.19280597183E+02  0.35640616842E+02  0.40526731275E+02  0.00000000000E+00 0. -1.
</event>
<event>
 8    1  0.5331800E-011  0.9118800E+02  0.7816164E-02  0.1184000E+00
        -11   -1    0    0    0    0  0.00000000000E+00  0.00000000000E+00  0.45593999997E+02  0.45594000000E+02  0.51100000000E-03 0. -1.
         11   -1    0    0    0    0 -0.00000000000E+00 -0.00000000000E+00 -0.45593999997E+02  0.45594000000E+02  0.51100000000E-03 0.  1.
         23    2    1    2    0    0  0.00000000000E+00  0.00000000000E+00  0.88817841970E-15  0.91188000000E+02  0.91188000000E+02 0.  0.
    9900012    2    3    3    0    0  0.41686665895E+02  0.10742893717E+02  0.55168009552E+01  0.47787274527E+02  0.20000015876E+02 0.  0.
        -12    1    3    3    0    0 -0.41686665895E+02 -0.10742893717E+02 -0.55168009552E+01  0.43400725473E+02  0.00000000000E+00 0.  1.
         11    1    4    4    0    0  0.38776721132E+02  0.11100351756E+02  0.91527068050E+01  0.41359689952E+02  0.51100000000E-03 0. -1.
        -11    1    4    4    0    0  0.34311812626E+01 -0.14864230728E+01 -0.35893480331E+01  0.51832304572E+01  0.51100000000E-03 0.  1.
         12    1    4    4    0    0 -0.52123649978E+00  0.11289650347E+01 -0.46557816679E-01  0.12443541170E+01  0.00000000000E+00 0. -1.
</event>
<event>
 8    1  0.5331800E-011  0.9118800E+02  0.7816164E-02  0.1184000E+00
        -11   -1    0    0    0    0  0.00000000000E+00  0.00000000000E+00  0.45593999997E+02  0.45594000000E+02  0.51100000000E-03 0. -1.
         11   -1    0    0    0    0 -0.00000000000E+00 -0.00000000000E+00 -0.45593999997E+02  0.45594000000E+02  0.51100000000E-03 0.  1.
         23    2    1    2    0    0 -0.71054273576E-14  0.44408920985E-15  0.35527136788E-14  0.91188000000E+02  0.91188000000E+02 0.  0.
    9900012    2    3    3    0    0 -0.34812511924E+02 -0.21269613067E+01  0.25829978056E+02  0.47787277457E+02  0.20000029238E+02 0.  0.
        -12    1    3    3    0    0  0.34812511924E+02  0.21269613067E+01 -0.25829978056E+02  0.43400722543E+02  0.00000000000E+00 0.  1.
         11    1    4    4    0    0 -0.23691554111E+02 -0.68827236076E+01  0.13887310441E+02  0.28311111105E+02  0.51100000000E-03 0. -1.
        -11    1    4    4    0    0 -0.83139785797E+01  0.42289329946E+01  0.25660266886E+01  0.96742238616E+01  0.51100000000E-03 0.  1.
         12    1    4    4    0    0 -0.28069792337E+01  0.52682930637E+00  0.93766409258E+01  0.98019424905E+01  0.00000000000E+00 0. -1.
</event>
<event>
 8    1  0.5331800E-011  0.9118800E+02  0.7816164E-02  0.1184000E+00
        -11   -1    0    0    0    0  0.00000000000E+00  0.00000000000E+00  0.45593999997E+02  0.45594000000E+02  0.51100000000E-03 0.  1.
         11   -1    0    0    0    0 -0.00000000000E+00 -0.00000000000E+00 -0.45593999997E+02  0.45594000000E+02  0.51100000000E-03 0. -1.
         23    2    1    2    0    0  0.00000000000E+00  0.00000000000E+00  0.88817841970E-15  0.91188000000E+02  0.91188000000E+02 0.  0.
    9900012    2    3    3    0    0  0.37655762769E+02 -0.20515473715E+02 -0.66919417749E+01  0.47787271710E+02  0.20000003032E+02 0.  0.
        -12    1    3    3    0    0 -0.37655762769E+02  0.20515473715E+02  0.66919417749E+01  0.43400728290E+02  0.00000000000E+00 0.  1.
         11    1    4    4    0    0  0.61648071485E+01 -0.31211482720E+01 -0.14974335906E+01  0.70702702447E+01  0.51100000000E-03 0. -1.
        -11    1    4    4    0    0  0.12657097285E+02 -0.69416690098E+01 -0.11295444110E+02  0.18329646430E+02  0.51100000000E-03 0.  1.
        -12    1    4    4    0    0  0.18833858335E+02 -0.10452656433E+02  0.61009359262E+01  0.22387355035E+02  0.00000000000E+00 0.  1.
</event>
<event>
 8    1  0.5331800E-011  0.9118800E+02  0.7816164E-02  0.1184000E+00
        -11   -1    0    0    0    0  0.00000000000E+00  0.00000000000E+00  0.45593999997E+02  0.45594000000E+02  0.51100000000E-03 0. -1.
         11   -1    0    0    0    0 -0.00000000000E+00 -0.00000000000E+00 -0.45593999997E+02  0.45594000000E+02  0.51100000000E-03 0.  1.
         23    2    1    2    0    0  0.00000000000E+00  0.00000000000E+00  0.00000000000E+00  0.91188000000E+02  0.91188000000E+02 0.  0.
    9900012    2    3    3    0    0  0.76870622394E+01 -0.71014449780E+01  0.42120089651E+02  0.47787269605E+02  0.19999993437E+02 0.  0.
        -12    1    3    3    0    0 -0.76870622394E+01  0.71014449780E+01 -0.42120089651E+02  0.43400730395E+02  0.00000000000E+00 0.  1.
         11    1    4    4    0    0  0.33537921061E+01 -0.89844455801E+00  0.24976433564E+02  0.25216608772E+02  0.51100000000E-03 0. -1.
        -11    1    4    4    0    0  0.34632279684E+01 -0.99522224750E+01  0.10396778332E+02  0.14803164530E+02  0.51100000000E-03 0.  1.
         12    1    4    4    0    0  0.87004216499E+00  0.37492220550E+01  0.67468777550E+01  0.77674963037E+01  0.00000000000E+00 0. -1.
</event>
<event>
 8    1  0.5331800E-011  0.9118800E+02  0.7816164E-02  0.1184000E+00
        -11   -1    0    0    0    0  0.00000000000E+00  0.00000000000E+00  0.45593999997E+02  0.45594000000E+02  0.51100000000E-03 0. -1.
         11   -1    0    0    0    0 -0.00000000000E+00 -0.00000000000E+00 -0.45593999997E+02  0.45594000000E+02  0.51100000000E-03 0.  1.
         23    2    1    2    0    0 -0.35527136788E-14  0.00000000000E+00  0.00000000000E+00  0.91188000000E+02  0.91188000000E+02 0.  0.
    9900012    2    3    3    0    0  0.30263062590E+02 -0.23184617877E+02  0.20742302273E+02  0.47787279188E+02  0.20000037128E+02 0.  0.
        -12    1    3    3    0    0 -0.30263062590E+02  0.23184617877E+02 -0.20742302273E+02  0.43400720812E+02  0.00000000000E+00 0.  1.
         11    1    4    4    0    0  0.18420430372E+02 -0.17610762370E+02  0.18989127898E+02  0.31781097919E+02  0.51100000000E-03 0. -1.
        -11    1    4    4    0    0  0.58235880319E+00 -0.36711415227E+01 -0.16833044380E+01  0.40804333039E+01  0.51100000000E-03 0.  1.
         12    1    4    4    0    0  0.11260273415E+02 -0.19027139850E+01  0.34364788130E+01  0.11925747965E+02  0.00000000000E+00 0. -1.
</event>
<event>
 8    1  0.5331800E-011  0.9118800E+02  0.7816164E-02  0.1184000E+00
        -11   -1    0    0    0    0  0.00000000000E+00  0.00000000000E+00  0.45593999997E+02  0.45594000000E+02  0.51100000000E-03 0. -1.
         11   -1    0    0    0    0 -0.00000000000E+00 -0.00000000000E+00 -0.45593999997E+02  0.45594000000E+02  0.51100000000E-03 0.  1.
         23    2    1    2    0    0  0.00000000000E+00  0.00000000000E+00 -0.35527136788E-14  0.91188000000E+02  0.91188000000E+02 0.  0.
    9900012    2    3    3    0    0  0.15702515970E+02 -0.28847868152E+02  0.28369962978E+02  0.47787270697E+02  0.19999998415E+02 0.  0.
        -12    1    3    3    0    0 -0.15702515970E+02  0.28847868152E+02 -0.28369962978E+02  0.43400729303E+02  0.00000000000E+00 0.  1.
         11    1    4    4    0    0 -0.18633748704E+01 -0.11273454524E+02  0.63929281324E+01  0.13093222414E+02  0.51100000000E-03 0. -1.
        -11    1    4    4    0    0  0.14614188454E+02 -0.11624060017E+02  0.20792960997E+02  0.27947101866E+02  0.51100000000E-03 0.  1.
        -12    1    4    4    0    0  0.29517023857E+01 -0.59503536105E+01  0.11840738488E+01  0.67469464162E+01  0.00000000000E+00 0.  1.
</event>
<event>
 8    1  0.5331800E-011  0.9118800E+02  0.7816164E-02  0.1184000E+00
        -11   -1    0    0    0    0  0.00000000000E+00  0.00000000000E+00  0.45593999997E+02  0.45594000000E+02  0.51100000000E-03 0. -1.
         11   -1    0    0    0    0 -0.00000000000E+00 -0.00000000000E+00 -0.45593999997E+02  0.45594000000E+02  0.51100000000E-03 0.  1.
         23    2    1    2    0    0  0.00000000000E+00  0.00000000000E+00 -0.71054273576E-14  0.91188000000E+02  0.91188000000E+02 0.  0.
    9900012    2    3    3    0    0  0.61580018231E+01 -0.22130126067E+02 -0.36823357321E+02  0.47787272926E+02  0.20000008578E+02 0.  0.
         12    1    3    3    0    0 -0.61580018231E+01  0.22130126067E+02  0.36823357321E+02  0.43400727074E+02  0.00000000000E+00 0. -1.
         11    1    4    4    0    0  0.40213496671E+01 -0.86746671056E-01 -0.10792778920E+00  0.40237329433E+01  0.51100000000E-03 0. -1.
        -11    1    4    4    0    0 -0.10055520240E+01 -0.19877901297E+02 -0.32162305575E+02  0.37822691536E+02  0.51100000000E-03 0.  1.
        -12    1    4    4    0    0  0.31422041799E+01 -0.21654780994E+01 -0.45531239564E+01  0.59408484470E+01  0.00000000000E+00 0.  1.
</event>
<event>
 8    1  0.5331800E-011  0.9118800E+02  0.7816164E-02  0.1184000E+00
        -11   -1    0    0    0    0  0.00000000000E+00  0.00000000000E+00  0.45593999997E+02  0.45594000000E+02  0.51100000000E-03 0. -1.
         11   -1    0    0    0    0 -0.00000000000E+00 -0.00000000000E+00 -0.45593999997E+02  0.45594000000E+02  0.51100000000E-03 0.  1.
         23    2    1    2    0    0  0.00000000000E+00  0.00000000000E+00 -0.35527136788E-14  0.91188000000E+02  0.91188000000E+02 0.  0.
    9900012    2    3    3    0    0  0.30575226771E+02  0.11654925253E+02 -0.28512128179E+02  0.47787271573E+02  0.20000002409E+02 0.  0.
         12    1    3    3    0    0 -0.30575226771E+02 -0.11654925253E+02  0.28512128179E+02  0.43400728427E+02  0.00000000000E+00 0. -1.
         11    1    4    4    0    0 -0.16962006781E+01  0.71767345765E+00  0.84305219042E+00  0.20255589819E+01  0.51100000000E-03 0. -1.
        -11    1    4    4    0    0  0.11535491904E+02  0.75865113222E+01 -0.88003401021E+01  0.16372804087E+02  0.51100000000E-03 0.  1.
         12    1    4    4    0    0  0.20735935545E+02  0.33507404735E+01 -0.20554840267E+02  0.29388908504E+02  0.00000000000E+00 0. -1.
</event>
<event>
 8    1  0.5596075E-011  0.9118800E+02  0.7816164E-02  0.1184000E+00
        -11   -1    0    0    0    0  0.00000000000E+00  0.00000000000E+00  0.45593999997E+02  0.45594000000E+02  0.51100000000E-03 0. -1.
         11   -1    0    0    0    0 -0.00000000000E+00 -0.00000000000E+00 -0.45593999997E+02  0.45594000000E+02  0.51100000000E-03 0.  1.
         23    2    1    2    0    0 -0.35527136788E-14  0.88817841970E-15  0.71054273576E-14  0.91188000000E+02  0.91188000000E+02 0.  0.
    9900012    2    3    3    0    0  0.20301333135E+02 -0.56099098370E+01 -0.37947441951E+02  0.47787267679E+02  0.19999984654E+02 0.  0.
         12    1    3    3    0    0 -0.20301333135E+02  0.56099098370E+01  0.37947441951E+02  0.43400732321E+02  0.00000000000E+00 0. -1.
         11    1    4    4    0    0  0.96165807078E+01 -0.53354169886E+01 -0.77330569059E+01  0.13444161124E+02  0.51100000000E-03 0.  1.
        -11    1    4    4    0    0  0.36737357488E+01  0.58686756059E+01 -0.14586101139E+02  0.16145960313E+02  0.51100000000E-03 0. -1.
        -12    1    4    4    0    0  0.70110166785E+01 -0.61431684544E+01 -0.15628283905E+02  0.18197146242E+02  0.00000000000E+00 0.  1.
</event>
<event>
 8    1  0.5331800E-011  0.9118800E+02  0.7816164E-02  0.1184000E+00
        -11   -1    0    0    0    0  0.00000000000E+00  0.00000000000E+00  0.45593999997E+02  0.45594000000E+02  0.51100000000E-03 0. -1.
         11   -1    0    0    0    0 -0.00000000000E+00 -0.00000000000E+00 -0.45593999997E+02  0.45594000000E+02  0.51100000000E-03 0.  1.
         23    2    1    2    0    0 -0.35527136788E-14  0.00000000000E+00  0.00000000000E+00  0.91188000000E+02  0.91188000000E+02 0.  0.
    9900012    2    3    3    0    0  0.29324116152E+02  0.21955883884E+02  0.23273631544E+02  0.47787233297E+02  0.19999827893E+02 0.  0.
        -12    1    3    3    0    0 -0.29324116152E+02 -0.21955883884E+02 -0.23273631544E+02  0.43400766703E+02  0.00000000000E+00 0.  1.
         11    1    4    4    0    0  0.34537154489E+01  0.46641406396E+01  0.17778496249E+01  0.60698523753E+01  0.51100000000E-03 0. -1.
        -11    1    4    4    0    0  0.94633537024E+01  0.14240972659E+02  0.17685729578E+02  0.24599703180E+02  0.51100000000E-03 0.  1.
        -12    1    4    4    0    0  0.16407047000E+02  0.30507705855E+01  0.38100523410E+01  0.17117677742E+02  0.00000000000E+00 0.  1.
</event>
<event>
 8    1  0.5331800E-011  0.9118800E+02  0.7816164E-02  0.1184000E+00
        -11   -1    0    0    0    0  0.00000000000E+00  0.00000000000E+00  0.45593999997E+02  0.45594000000E+02  0.51100000000E-03 0.  1.
         11   -1    0    0    0    0 -0.00000000000E+00 -0.00000000000E+00 -0.45593999997E+02  0.45594000000E+02  0.51100000000E-03 0. -1.
         23    2    1    2    0    0  0.00000000000E+00  0.00000000000E+00  0.44408920985E-15  0.91188000000E+02  0.91188000000E+02 0.  0.
    9900012    2    3    3    0    0 -0.22284018186E+02  0.37035839554E+02 -0.39233598519E+01  0.47787266936E+02  0.19999981266E+02 0.  0.
         12    1    3    3    0    0  0.22284018186E+02 -0.37035839554E+02  0.39233598519E+01  0.43400733064E+02  0.00000000000E+00 0. -1.
         11    1    4    4    0    0 -0.24506264642E+01  0.99650426491E+01  0.57660392019E+01  0.11770932563E+02  0.51100000000E-03 0. -1.
        -11    1    4    4    0    0 -0.20136555415E+02  0.23724614964E+02 -0.75100795761E+01  0.32011552831E+02  0.51100000000E-03 0.  1.
        -12    1    4    4    0    0  0.30316369320E+00  0.33461819410E+01 -0.21793194777E+01  0.40047815412E+01  0.00000000000E+00 0.  1.
</event>
<event>
 8    1  0.5331800E-011  0.9118800E+02  0.7816164E-02  0.1184000E+00
        -11   -1    0    0    0    0  0.00000000000E+00  0.00000000000E+00  0.45593999997E+02  0.45594000000E+02  0.51100000000E-03 0. -1.
         11   -1    0    0    0    0 -0.00000000000E+00 -0.00000000000E+00 -0.45593999997E+02  0.45594000000E+02  0.51100000000E-03 0.  1.
         23    2    1    2    0    0  0.00000000000E+00 -0.17763568394E-14  0.00000000000E+00  0.91188000000E+02  0.91188000000E+02 0.  0.
    9900012    2    3    3    0    0 -0.24885910480E+01 -0.12400755326E+02 -0.41516877891E+02  0.47787274569E+02  0.20000016071E+02 0.  0.
         12    1    3    3    0    0  0.24885910480E+01  0.12400755326E+02  0.41516877891E+02  0.43400725431E+02  0.00000000000E+00 0. -1.
         11    1    4    4    0    0 -0.37426496771E+01  0.36896615889E+01 -0.12088640551E+02  0.13181663775E+02  0.51100000000E-03 0. -1.
        -11    1    4    4    0    0 -0.17277763544E+01 -0.47291342970E+01 -0.15957644938E+02  0.16733091602E+02  0.51100000000E-03 0.  1.
         12    1    4    4    0    0  0.29818349835E+01 -0.11361282618E+02 -0.13470592402E+02  0.17872519192E+02  0.00000000000E+00 0. -1.
</event>
<event>
 8    1  0.5331800E-011  0.9118800E+02  0.7816164E-02  0.1184000E+00
        -11   -1    0    0    0    0  0.00000000000E+00  0.00000000000E+00  0.45593999997E+02  0.45594000000E+02  0.51100000000E-03 0.  1.
         11   -1    0    0    0    0 -0.00000000000E+00 -0.00000000000E+00 -0.45593999997E+02  0.45594000000E+02  0.51100000000E-03 0. -1.
         23    2    1    2    0    0 -0.71054273576E-14  0.88817841970E-15  0.00000000000E+00  0.91188000000E+02  0.91188000000E+02 0.  0.
    9900012    2    3    3    0    0 -0.43016252924E+02  0.55577018166E+01  0.15287160184E+01  0.47787273764E+02  0.20000012401E+02 0.  0.
         12    1    3    3    0    0  0.43016252924E+02 -0.55577018166E+01 -0.15287160184E+01  0.43400726236E+02  0.00000000000E+00 0. -1.
         11    1    4    4    0    0 -0.36133056636E+01  0.45257684138E+00 -0.32220540600E+01  0.48623488401E+01  0.51100000000E-03 0. -1.
        -11    1    4    4    0    0 -0.10280575320E+02  0.75391061895E+01 -0.20699415001E+01  0.12915611063E+02  0.51100000000E-03 0.  1.
        -12    1    4    4    0    0 -0.29122371941E+02 -0.24339812142E+01  0.68207115785E+01  0.30009313862E+02  0.00000000000E+00 0.  1.
</event>
<event>
 8    1  0.5331800E-011  0.9118800E+02  0.7816164E-02  0.1184000E+00
        -11   -1    0    0    0    0  0.00000000000E+00  0.00000000000E+00  0.45593999997E+02  0.45594000000E+02  0.51100000000E-03 0. -1.
         11   -1    0    0    0    0 -0.00000000000E+00 -0.00000000000E+00 -0.45593999997E+02  0.45594000000E+02  0.51100000000E-03 0.  1.
         23    2    1    2    0    0  0.00000000000E+00 -0.88817841970E-15  0.14210854715E-13  0.91188000000E+02  0.91188000000E+02 0.  0.
    9900012    2    3    3    0    0 -0.19298492734E+02  0.55104698804E+01 -0.38481504367E+02  0.47787270992E+02  0.19999999759E+02 0.  0.
         12    1    3    3    0    0  0.19298492734E+02 -0.55104698804E+01  0.38481504367E+02  0.43400729008E+02  0.00000000000E+00 0. -1.
         11    1    4    4    0    0 -0.40466350809E+01 -0.38359144484E+01 -0.17690507751E+02  0.18548411250E+02  0.51100000000E-03 0. -1.
        -11    1    4    4    0    0 -0.12052661286E+02  0.58908703298E+01 -0.80257221836E+01  0.15632696957E+02  0.51100000000E-03 0.  1.
        -12    1    4    4    0    0 -0.31991963671E+01  0.34555139991E+01 -0.12765274432E+02  0.13606162785E+02  0.00000000000E+00 0.  1.
</event>
<event>
 8    1  0.5331800E-011  0.9118800E+02  0.7816164E-02  0.1184000E+00
        -11   -1    0    0    0    0  0.00000000000E+00  0.00000000000E+00  0.45593999997E+02  0.45594000000E+02  0.51100000000E-03 0. -1.
         11   -1    0    0    0    0 -0.00000000000E+00 -0.00000000000E+00 -0.45593999997E+02  0.45594000000E+02  0.51100000000E-03 0.  1.
         23    2    1    2    0    0  0.00000000000E+00  0.00000000000E+00  0.00000000000E+00  0.91188000000E+02  0.91188000000E+02 0.  0.
    9900012    2    3    3    0    0 -0.99168214440E+01  0.90220184608E+01  0.41278122880E+02  0.47787267366E+02  0.19999983227E+02 0.  0.
        -12    1    3    3    0    0  0.99168214440E+01 -0.90220184608E+01 -0.41278122880E+02  0.43400732634E+02  0.00000000000E+00 0.  1.
         11    1    4    4    0    0 -0.12713265316E+02 -0.49787401814E+00  0.19771084607E+02  0.23511077822E+02  0.51100000000E-03 0. -1.
        -11    1    4    4    0    0  0.37406390957E+01  0.48964484484E+01  0.15182325242E+02  0.16385072117E+02  0.51100000000E-03 0.  1.
         12    1    4    4    0    0 -0.94419522341E+00  0.46234440305E+01  0.63247130311E+01  0.78911174271E+01  0.00000000000E+00 0. -1.
</event>
<event>
 8    1  0.5331800E-011  0.9118800E+02  0.7816164E-02  0.1184000E+00
        -11   -1    0    0    0    0  0.00000000000E+00  0.00000000000E+00  0.45593999997E+02  0.45594000000E+02  0.51100000000E-03 0. -1.
         11   -1    0    0    0    0 -0.00000000000E+00 -0.00000000000E+00 -0.45593999997E+02  0.45594000000E+02  0.51100000000E-03 0.  1.
         23    2    1    2    0    0 -0.17763568394E-14  0.00000000000E+00  0.00000000000E+00  0.91188000000E+02  0.91188000000E+02 0.  0.
    9900012    2    3    3    0    0  0.12320297204E+02  0.19023425936E+02 -0.37012739504E+02  0.47787270247E+02  0.19999996364E+02 0.  0.
         12    1    3    3    0    0 -0.12320297204E+02 -0.19023425936E+02  0.37012739504E+02  0.43400729753E+02  0.00000000000E+00 0. -1.
         11    1    4    4    0    0  0.86222647514E+01  0.21963837404E+02 -0.26513994859E+02  0.35492894029E+02  0.51100000000E-03 0. -1.
        -11    1    4    4    0    0  0.59568072983E+00 -0.72221268954E+00 -0.71740391245E+01  0.72348644992E+01  0.51100000000E-03 0.  1.
         12    1    4    4    0    0  0.31023517228E+01 -0.22181987784E+01 -0.33247055205E+01  0.50595117185E+01  0.00000000000E+00 0. -1.
</event>
<event>
 8    1  0.5331800E-011  0.9118800E+02  0.7816164E-02  0.1184000E+00
        -11   -1    0    0    0    0  0.00000000000E+00  0.00000000000E+00  0.45593999997E+02  0.45594000000E+02  0.51100000000E-03 0. -1.
         11   -1    0    0    0    0 -0.00000000000E+00 -0.00000000000E+00 -0.45593999997E+02  0.45594000000E+02  0.51100000000E-03 0.  1.
         23    2    1    2    0    0  0.00000000000E+00  0.00000000000E+00  0.71054273576E-14  0.91188000000E+02  0.91188000000E+02 0.  0.
    9900012    2    3    3    0    0 -0.98041021673E+01 -0.13377634365E+02  0.40106632349E+02  0.47787268683E+02  0.19999989232E+02 0.  0.
        -12    1    3    3    0    0  0.98041021673E+01  0.13377634365E+02 -0.40106632349E+02  0.43400731317E+02  0.00000000000E+00 0.  1.
         11    1    4    4    0    0 -0.24190407957E+01  0.20284659485E+01  0.19794802642E+02  0.20044965562E+02  0.51100000000E-03 0. -1.
        -11    1    4    4    0    0  0.21106000544E+00 -0.81503278329E+01  0.67283050009E+01  0.10570831498E+02  0.51100000000E-03 0.  1.
         12    1    4    4    0    0 -0.75961213771E+01 -0.72557724804E+01  0.13583524706E+02  0.17171471623E+02  0.00000000000E+00 0. -1.
</event>
<event>
 8    1  0.5331800E-011  0.9118800E+02  0.7816164E-02  0.1184000E+00
        -11   -1    0    0    0    0  0.00000000000E+00  0.00000000000E+00  0.45593999997E+02  0.45594000000E+02  0.51100000000E-03 0. -1.
         11   -1    0    0    0    0 -0.00000000000E+00 -0.00000000000E+00 -0.45593999997E+02  0.45594000000E+02  0.51100000000E-03 0.  1.
         23    2    1    2    0    0  0.00000000000E+00  0.00000000000E+00  0.00000000000E+00  0.91188000000E+02  0.91188000000E+02 0.  0.
    9900012    2    3    3    0    0  0.12154380394E+02  0.15406197161E+02 -0.38711017762E+02  0.47787276850E+02  0.20000026470E+02 0.  0.
         12    1    3    3    0    0 -0.12154380394E+02 -0.15406197161E+02  0.38711017762E+02  0.43400723150E+02  0.00000000000E+00 0. -1.
         11    1    4    4    0    0  0.47494687266E+01 -0.10712854856E+01 -0.15572315105E+02  0.16315701143E+02  0.51100000000E-03 0. -1.
        -11    1    4    4    0    0 -0.78140737961E+00  0.66080526584E+01 -0.23703645306E+01  0.70636807472E+01  0.51100000000E-03 0.  1.
        -12    1    4    4    0    0  0.81863190474E+01  0.98694299884E+01 -0.20768338127E+02  0.24407894960E+02  0.00000000000E+00 0.  1.
</event>
<event>
 8    1  0.5331800E-011  0.9118800E+02  0.7816164E-02  0.1184000E+00
        -11   -1    0    0    0    0  0.00000000000E+00  0.00000000000E+00  0.45593999997E+02  0.45594000000E+02  0.51100000000E-03 0. -1.
         11   -1    0    0    0    0 -0.00000000000E+00 -0.00000000000E+00 -0.45593999997E+02  0.45594000000E+02  0.51100000000E-03 0.  1.
         23    2    1    2    0    0 -0.17763568394E-14  0.17763568394E-14  0.00000000000E+00  0.91188000000E+02  0.91188000000E+02 0.  0.
    9900012    2    3    3    0    0 -0.89168828223E+01  0.14390729606E+02  0.39962726119E+02  0.47787269859E+02  0.19999994596E+02 0.  0.
        -12    1    3    3    0    0  0.89168828223E+01 -0.14390729606E+02 -0.39962726119E+02  0.43400730141E+02  0.00000000000E+00 0.  1.
         11    1    4    4    0    0 -0.39502558586E+01  0.15636601250E+02  0.27389729516E+02  0.31785296966E+02  0.51100000000E-03 0. -1.
        -11    1    4    4    0    0 -0.21368323003E+00 -0.27222153719E+01  0.10064981101E+02  0.10428804432E+02  0.51100000000E-03 0.  1.
         12    1    4    4    0    0 -0.47529437337E+01  0.14763437282E+01  0.25080155024E+01  0.55731684615E+01  0.00000000000E+00 0. -1.
</event>
<event>
 8    1  0.5331800E-011  0.9118800E+02  0.7816164E-02  0.1184000E+00
        -11   -1    0    0    0    0  0.00000000000E+00  0.00000000000E+00  0.45593999997E+02  0.45594000000E+02  0.51100000000E-03 0. -1.
         11   -1    0    0    0    0 -0.00000000000E+00 -0.00000000000E+00 -0.45593999997E+02  0.45594000000E+02  0.51100000000E-03 0.  1.
         23    2    1    2    0    0  0.00000000000E+00  0.00000000000E+00 -0.71054273576E-14  0.91188000000E+02  0.91188000000E+02 0.  0.
    9900012    2    3    3    0    0 -0.11325072200E+02  0.88952330770E+01  0.40941922801E+02  0.47787268734E+02  0.19999989464E+02 0.  0.
        -12    1    3    3    0    0  0.11325072200E+02 -0.88952330770E+01 -0.40941922801E+02  0.43400731266E+02  0.00000000000E+00 0.  1.
         11    1    4    4    0    0 -0.43557282924E+00  0.26537634742E+01  0.52588359231E+01  0.59065675137E+01  0.51100000000E-03 0. -1.
        -11    1    4    4    0    0  0.41511721278E+01 -0.15907560361E+01  0.11631327220E+02  0.12451927881E+02  0.51100000000E-03 0.  1.
        -12    1    4    4    0    0 -0.15040671498E+02  0.78322256389E+01  0.24051759658E+02  0.29428773338E+02  0.00000000000E+00 0.  1.
</event>
<event>
 8    1  0.5331800E-011  0.9118800E+02  0.7816164E-02  0.1184000E+00
        -11   -1    0    0    0    0  0.00000000000E+00  0.00000000000E+00  0.45593999997E+02  0.45594000000E+02  0.51100000000E-03 0. -1.
         11   -1    0    0    0    0 -0.00000000000E+00 -0.00000000000E+00 -0.45593999997E+02  0.45594000000E+02  0.51100000000E-03 0.  1.
         23    2    1    2    0    0  0.00000000000E+00  0.00000000000E+00  0.35527136788E-14  0.91188000000E+02  0.91188000000E+02 0.  0.
    9900012    2    3    3    0    0 -0.23103584748E+02 -0.32423107050E+02  0.17279751047E+02  0.47787270799E+02  0.19999998879E+02 0.  0.
        -12    1    3    3    0    0  0.23103584748E+02  0.32423107050E+02 -0.17279751047E+02  0.43400729201E+02  0.00000000000E+00 0.  1.
         11    1    4    4    0    0 -0.15848060235E+02 -0.83110118260E+01  0.75581095552E+01  0.19425729100E+02  0.51100000000E-03 0. -1.
        -11    1    4    4    0    0 -0.35044889369E+01 -0.10621145971E+02 -0.22333588630E+00  0.11186601969E+02  0.51100000000E-03 0.  1.
         12    1    4    4    0    0 -0.37510355770E+01 -0.13490949253E+02  0.99449773779E+01  0.17174939729E+02  0.00000000000E+00 0. -1.
</event>
<event>
 8    1  0.5331800E-011  0.9118800E+02  0.7816164E-02  0.1184000E+00
        -11   -1    0    0    0    0  0.00000000000E+00  0.00000000000E+00  0.45593999997E+02  0.45594000000E+02  0.51100000000E-03 0. -1.
         11   -1    0    0    0    0 -0.00000000000E+00 -0.00000000000E+00 -0.45593999997E+02  0.45594000000E+02  0.51100000000E-03 0.  1.
         23    2    1    2    0    0  0.00000000000E+00  0.44408920985E-15  0.00000000000E+00  0.91188000000E+02  0.91188000000E+02 0.  0.
    9900012    2    3    3    0    0 -0.20403560492E+02  0.28604077700E+01 -0.38198639968E+02  0.47787270643E+02  0.19999998170E+02 0.  0.
         12    1    3    3    0    0  0.20403560492E+02 -0.28604077700E+01  0.38198639968E+02  0.43400729357E+02  0.00000000000E+00 0. -1.
         11    1    4    4    0    0 -0.53212728735E+01 -0.31310631488E+01 -0.76935060278E+01  0.98645596302E+01  0.51100000000E-03 0.  1.
        -11    1    4    4    0    0 -0.15098535828E+02  0.52982290834E+01 -0.13590240554E+02  0.20993609841E+02  0.51100000000E-03 0. -1.
        -12    1    4    4    0    0  0.16248209863E-01  0.69324183545E+00 -0.16914893385E+02  0.16929101172E+02  0.00000000000E+00 0.  1.
</event>
<event>
 8    1  0.5331800E-011  0.9118800E+02  0.7816164E-02  0.1184000E+00
        -11   -1    0    0    0    0  0.00000000000E+00  0.00000000000E+00  0.45593999997E+02  0.45594000000E+02  0.51100000000E-03 0.  1.
         11   -1    0    0    0    0 -0.00000000000E+00 -0.00000000000E+00 -0.45593999997E+02  0.45594000000E+02  0.51100000000E-03 0. -1.
         23    2    1    2    0    0 -0.35527136788E-14  0.00000000000E+00  0.35527136788E-14  0.91188000000E+02  0.91188000000E+02 0.  0.
    9900012    2    3    3    0    0 -0.27387408214E+02  0.28288913005E+02  0.18256254884E+02  0.47787267632E+02  0.19999984441E+02 0.  0.
        -12    1    3    3    0    0  0.27387408214E+02 -0.28288913005E+02 -0.18256254884E+02  0.43400732368E+02  0.00000000000E+00 0.  1.
         11    1    4    4    0    0 -0.27292230798E+01  0.15894169778E+02  0.93914584380E+01  0.18662068036E+02  0.51100000000E-03 0.  1.
        -11    1    4    4    0    0 -0.17858122396E+02  0.93284995459E+01  0.51682226584E+01  0.20800095312E+02  0.51100000000E-03 0. -1.
         12    1    4    4    0    0 -0.68000627383E+01  0.30662436810E+01  0.36965737877E+01  0.83251042831E+01  0.00000000000E+00 0. -1.
</event>
<event>
 8    1  0.5331800E-011  0.9118800E+02  0.7816164E-02  0.1184000E+00
        -11   -1    0    0    0    0  0.00000000000E+00  0.00000000000E+00  0.45593999997E+02  0.45594000000E+02  0.51100000000E-03 0.  1.
         11   -1    0    0    0    0 -0.00000000000E+00 -0.00000000000E+00 -0.45593999997E+02  0.45594000000E+02  0.51100000000E-03 0. -1.
         23    2    1    2    0    0 -0.35527136788E-14 -0.71054273576E-14  0.00000000000E+00  0.91188000000E+02  0.91188000000E+02 0.  0.
    9900012    2    3    3    0    0 -0.12339322938E+02 -0.31602625702E+02  0.27067290614E+02  0.47787273473E+02  0.20000011075E+02 0.  0.
         12    1    3    3    0    0  0.12339322938E+02  0.31602625702E+02 -0.27067290614E+02  0.43400726527E+02  0.00000000000E+00 0. -1.
         11    1    4    4    0    0  0.21225351539E+01 -0.21933173683E+01  0.63706820517E+01  0.70640913515E+01  0.51100000000E-03 0. -1.
        -11    1    4    4    0    0 -0.11665472231E+02 -0.14470403414E+02  0.58729690441E+01  0.19492757193E+02  0.51100000000E-03 0.  1.
         12    1    4    4    0    0 -0.27963858616E+01 -0.14938904920E+02  0.14823639518E+02  0.21230424929E+02  0.00000000000E+00 0. -1.
</event>
<event>
 8    1  0.5331800E-011  0.9118800E+02  0.7816164E-02  0.1184000E+00
        -11   -1    0    0    0    0  0.00000000000E+00  0.00000000000E+00  0.45593999997E+02  0.45594000000E+02  0.51100000000E-03 0.  1.
         11   -1    0    0    0    0 -0.00000000000E+00 -0.00000000000E+00 -0.45593999997E+02  0.45594000000E+02  0.51100000000E-03 0. -1.
         23    2    1    2    0    0  0.71054273576E-14  0.88817841970E-15  0.00000000000E+00  0.91188000000E+02  0.91188000000E+02 0.  0.
    9900012    2    3    3    0    0 -0.43191459701E+02  0.41406636634E+01  0.98785337444E+00  0.47787272576E+02  0.20000006981E+02 0.  0.
        -12    1    3    3    0    0  0.43191459701E+02 -0.41406636634E+01 -0.98785337444E+00  0.43400727424E+02  0.00000000000E+00 0.  1.
         11    1    4    4    0    0 -0.18859745290E+02 -0.30109342783E+01 -0.34558908787E+01  0.19408732562E+02  0.51100000000E-03 0. -1.
        -11    1    4    4    0    0 -0.12409400514E+02  0.97972781916E+01  0.22315763068E+01  0.15967461106E+02  0.51100000000E-03 0.  1.
        -12    1    4    4    0    0 -0.11922313896E+02 -0.26456802499E+01  0.22121679464E+01  0.12411078908E+02  0.00000000000E+00 0.  1.
</event>
<event>
 8    1  0.5331800E-011  0.9118800E+02  0.7816164E-02  0.1184000E+00
        -11   -1    0    0    0    0  0.00000000000E+00  0.00000000000E+00  0.45593999997E+02  0.45594000000E+02  0.51100000000E-03 0. -1.
         11   -1    0    0    0    0 -0.00000000000E+00 -0.00000000000E+00 -0.45593999997E+02  0.45594000000E+02  0.51100000000E-03 0.  1.
         23    2    1    2    0    0  0.00000000000E+00 -0.17763568394E-14  0.71054273576E-14  0.91188000000E+02  0.91188000000E+02 0.  0.
    9900012    2    3    3    0    0  0.23975821946E+02  0.12033123164E+02 -0.34117256535E+02  0.47787270922E+02  0.19999999440E+02 0.  0.
         12    1    3    3    0    0 -0.23975821946E+02 -0.12033123164E+02  0.34117256535E+02  0.43400729078E+02  0.00000000000E+00 0. -1.
         11    1    4    4    0    0  0.68131898243E+01  0.97183189554E+01 -0.18978199279E+02  0.22383863095E+02  0.51100000000E-03 0. -1.
        -11    1    4    4    0    0  0.50011668947E+01  0.55659744923E+01 -0.79026597516E+01  0.10883187666E+02  0.51100000000E-03 0.  1.
         12    1    4    4    0    0  0.12161465228E+02 -0.32511702837E+01 -0.72363975038E+01  0.14520220161E+02  0.00000000000E+00 0. -1.
</event>
<event>
 8    1  0.5331800E-011  0.9118800E+02  0.7816164E-02  0.1184000E+00
        -11   -1    0    0    0    0  0.00000000000E+00  0.00000000000E+00  0.45593999997E+02  0.45594000000E+02  0.51100000000E-03 0. -1.
         11   -1    0    0    0    0 -0.00000000000E+00 -0.00000000000E+00 -0.45593999997E+02  0.45594000000E+02  0.51100000000E-03 0.  1.
         23    2    1    2    0    0 -0.35527136788E-14  0.00000000000E+00  0.71054273576E-14  0.91188000000E+02  0.91188000000E+02 0.  0.
    9900012    2    3    3    0    0  0.23877348139E+02 -0.12969804226E+02 -0.33841978947E+02  0.47787272876E+02  0.20000008353E+02 0.  0.
         12    1    3    3    0    0 -0.23877348139E+02  0.12969804226E+02  0.33841978947E+02  0.43400727124E+02  0.00000000000E+00 0. -1.
         11    1    4    4    0    0  0.18438007336E+02 -0.12390824307E+00 -0.18749970438E+02  0.26297088422E+02  0.51100000000E-03 0. -1.
        -11    1    4    4    0    0  0.24664050436E+01 -0.81606741568E+01 -0.13028868890E+02  0.15570201712E+02  0.51100000000E-03 0.  1.
         12    1    4    4    0    0  0.29729357592E+01 -0.46852218260E+01 -0.20631396189E+01  0.59199827428E+01  0.00000000000E+00 0. -1.
</event>
<event>
 8    1  0.5331800E-011  0.9118800E+02  0.7816164E-02  0.1184000E+00
        -11   -1    0    0    0    0  0.00000000000E+00  0.00000000000E+00  0.45593999997E+02  0.45594000000E+02  0.51100000000E-03 0. -1.
         11   -1    0    0    0    0 -0.00000000000E+00 -0.00000000000E+00 -0.45593999997E+02  0.45594000000E+02  0.51100000000E-03 0.  1.
         23    2    1    2    0    0 -0.35527136788E-14  0.00000000000E+00  0.00000000000E+00  0.91188000000E+02  0.91188000000E+02 0.  0.
    9900012    2    3    3    0    0  0.26039179687E+02  0.66347579038E+01  0.34081731571E+02  0.47787270535E+02  0.19999997677E+02 0.  0.
        -12    1    3    3    0    0 -0.26039179687E+02 -0.66347579038E+01 -0.34081731571E+02  0.43400729465E+02  0.00000000000E+00 0.  1.
         11    1    4    4    0    0  0.90395129235E+00 -0.19415945460E+00  0.77770912421E+01  0.78318563752E+01  0.51100000000E-03 0. -1.
        -11    1    4    4    0    0  0.30588665330E+01  0.71074469457E+01  0.92349959546E+01  0.12048137495E+02  0.51100000000E-03 0.  1.
        -12    1    4    4    0    0  0.22076361862E+02 -0.27852958728E+00  0.17069644375E+02  0.27907276665E+02  0.00000000000E+00 0.  1.
</event>
<event>
 8    1  0.5331800E-011  0.9118800E+02  0.7816164E-02  0.1184000E+00
        -11   -1    0    0    0    0  0.00000000000E+00  0.00000000000E+00  0.45593999997E+02  0.45594000000E+02  0.51100000000E-03 0. -1.
         11   -1    0    0    0    0 -0.00000000000E+00 -0.00000000000E+00 -0.45593999997E+02  0.45594000000E+02  0.51100000000E-03 0.  1.
         23    2    1    2    0    0  0.17763568394E-14  0.71054273576E-14  0.35527136788E-14  0.91188000000E+02  0.91188000000E+02 0.  0.
    9900012    2    3    3    0    0 -0.84365016295E+01 -0.30538019405E+02 -0.29662745761E+02  0.47787266423E+02  0.19999978928E+02 0.  0.
         12    1    3    3    0    0  0.84365016295E+01  0.30538019405E+02  0.29662745761E+02  0.43400733577E+02  0.00000000000E+00 0. -1.
         11    1    4    4    0    0  0.34959082591E+01 -0.22881943083E+01 -0.70119176350E+01  0.81623646653E+01  0.51100000000E-03 0. -1.
        -11    1    4    4    0    0 -0.50525701369E+01 -0.17605966211E+02 -0.72984963261E+01  0.19717164099E+02  0.51100000000E-03 0.  1.
         12    1    4    4    0    0 -0.68798397517E+01 -0.10643858886E+02 -0.15352331800E+02  0.19907737659E+02  0.00000000000E+00 0. -1.
</event>
<event>
 8    1  0.5331800E-011  0.9118800E+02  0.7816164E-02  0.1184000E+00
        -11   -1    0    0    0    0  0.00000000000E+00  0.00000000000E+00  0.45593999997E+02  0.45594000000E+02  0.51100000000E-03 0. -1.
         11   -1    0    0    0    0 -0.00000000000E+00 -0.00000000000E+00 -0.45593999997E+02  0.45594000000E+02  0.51100000000E-03 0.  1.
         23    2    1    2    0    0  0.00000000000E+00 -0.35527136788E-14  0.00000000000E+00  0.91188000000E+02  0.91188000000E+02 0.  0.
    9900012    2    3    3    0    0 -0.89318315027E+01  0.25459916719E+02 -0.33994678896E+02  0.47787272281E+02  0.20000005637E+02 0.  0.
         12    1    3    3    0    0  0.89318315027E+01 -0.25459916719E+02  0.33994678896E+02  0.43400727719E+02  0.00000000000E+00 0. -1.
         11    1    4    4    0    0  0.43664318940E+01  0.89654342903E+01 -0.10044881274E+02  0.14154306043E+02  0.51100000000E-03 0. -1.
        -11    1    4    4    0    0 -0.29713918849E+01  0.11826628767E+02 -0.10975638840E+02  0.16406186819E+02  0.51100000000E-03 0.  1.
         12    1    4    4    0    0 -0.10326871512E+02  0.46678536607E+01 -0.12974158783E+02  0.17226779419E+02  0.00000000000E+00 0. -1.
</event>
<event>
 8    1  0.5331800E-011  0.9118800E+02  0.7816164E-02  0.1184000E+00
        -11   -1    0    0    0    0  0.00000000000E+00  0.00000000000E+00  0.45593999997E+02  0.45594000000E+02  0.51100000000E-03 0. -1.
         11   -1    0    0    0    0 -0.00000000000E+00 -0.00000000000E+00 -0.45593999997E+02  0.45594000000E+02  0.51100000000E-03 0.  1.
         23    2    1    2    0    0  0.00000000000E+00  0.17763568394E-14  0.00000000000E+00  0.91188000000E+02  0.91188000000E+02 0.  0.
    9900012    2    3    3    0    0 -0.31729588083E+02 -0.13080525396E+02  0.26566075378E+02  0.47787271141E+02  0.20000000439E+02 0.  0.
        -12    1    3    3    0    0  0.31729588083E+02  0.13080525396E+02 -0.26566075378E+02  0.43400728859E+02  0.00000000000E+00 0.  1.
         11    1    4    4    0    0 -0.15448854625E+02  0.96116177950E+00  0.10737246713E+02  0.18838243242E+02  0.51100000000E-03 0. -1.
        -11    1    4    4    0    0 -0.21204445411E+01  0.19435102046E+01  0.16602936731E+01  0.33211582783E+01  0.51100000000E-03 0.  1.
         12    1    4    4    0    0 -0.14160288916E+02 -0.15985197380E+02  0.14168534991E+02  0.25627869620E+02  0.00000000000E+00 0. -1.
</event>
<event>
 8    1  0.5331800E-011  0.9118800E+02  0.7816164E-02  0.1184000E+00
        -11   -1    0    0    0    0  0.00000000000E+00  0.00000000000E+00  0.45593999997E+02  0.45594000000E+02  0.51100000000E-03 0. -1.
         11   -1    0    0    0    0 -0.00000000000E+00 -0.00000000000E+00 -0.45593999997E+02  0.45594000000E+02  0.51100000000E-03 0.  1.
         23    2    1    2    0    0  0.00000000000E+00  0.00000000000E+00  0.00000000000E+00  0.91188000000E+02  0.91188000000E+02 0.  0.
    9900012    2    3    3    0    0  0.32940791857E+02 -0.17642200542E+02  0.22074423067E+02  0.47787272335E+02  0.20000005882E+02 0.  0.
        -12    1    3    3    0    0 -0.32940791857E+02  0.17642200542E+02 -0.22074423067E+02  0.43400727665E+02  0.00000000000E+00 0.  1.
         11    1    4    4    0    0  0.16984450719E+02 -0.26103094636E+01  0.17463104323E+02  0.24499903971E+02  0.51100000000E-03 0. -1.
        -11    1    4    4    0    0  0.13588591768E+02 -0.89245222545E+01  0.37123696732E+01  0.16675689268E+02  0.51100000000E-03 0.  1.
        -12    1    4    4    0    0  0.23677493700E+01 -0.61073688240E+01  0.89894907044E+00  0.66116790955E+01  0.00000000000E+00 0.  1.
</event>
<event>
 8    1  0.5331800E-011  0.9118800E+02  0.7816164E-02  0.1184000E+00
        -11   -1    0    0    0    0  0.00000000000E+00  0.00000000000E+00  0.45593999997E+02  0.45594000000E+02  0.51100000000E-03 0. -1.
         11   -1    0    0    0    0 -0.00000000000E+00 -0.00000000000E+00 -0.45593999997E+02  0.45594000000E+02  0.51100000000E-03 0.  1.
         23    2    1    2    0    0  0.00000000000E+00  0.00000000000E+00  0.00000000000E+00  0.91188000000E+02  0.91188000000E+02 0.  0.
    9900012    2    3    3    0    0  0.21829428185E+02 -0.17350110221E+02  0.33257674305E+02  0.47787272359E+02  0.20000005995E+02 0.  0.
        -12    1    3    3    0    0 -0.21829428185E+02  0.17350110221E+02 -0.33257674305E+02  0.43400727641E+02  0.00000000000E+00 0.  1.
         11    1    4    4    0    0  0.92728564179E+01 -0.54167023256E+01  0.16541318389E+02  0.19721606034E+02  0.51100000000E-03 0. -1.
        -11    1    4    4    0    0  0.77674616617E+00  0.21373569424E+01 -0.10668543746E+01  0.25119330850E+01  0.51100000000E-03 0.  1.
        -12    1    4    4    0    0  0.11779825601E+02 -0.14070764837E+02  0.17783210291E+02  0.25553733241E+02  0.00000000000E+00 0.  1.
</event>
<event>
 8    1  0.5331800E-011  0.9118800E+02  0.7816164E-02  0.1184000E+00
        -11   -1    0    0    0    0  0.00000000000E+00  0.00000000000E+00  0.45593999997E+02  0.45594000000E+02  0.51100000000E-03 0. -1.
         11   -1    0    0    0    0 -0.00000000000E+00 -0.00000000000E+00 -0.45593999997E+02  0.45594000000E+02  0.51100000000E-03 0.  1.
         23    2    1    2    0    0 -0.17763568394E-14  0.00000000000E+00  0.00000000000E+00  0.91188000000E+02  0.91188000000E+02 0.  0.
    9900012    2    3    3    0    0 -0.12467822504E+02  0.94162145468E+01 -0.40490882816E+02  0.47787270909E+02  0.19999999383E+02 0.  0.
         12    1    3    3    0    0  0.12467822504E+02 -0.94162145468E+01  0.40490882816E+02  0.43400729091E+02  0.00000000000E+00 0. -1.
         11    1    4    4    0    0 -0.88225043781E+01 -0.24477887871E+01 -0.12417475301E+02  0.15427959896E+02  0.51100000000E-03 0.  1.
        -11    1    4    4    0    0  0.33108056760E+01  0.26008644000E+01 -0.10485731700E+02  0.11299402612E+02  0.51100000000E-03 0. -1.
        -12    1    4    4    0    0 -0.69561238015E+01  0.92631389339E+01 -0.17587675816E+02  0.21059908401E+02  0.00000000000E+00 0.  1.
</event>
<event>
 8    1  0.5331800E-011  0.9118800E+02  0.7816164E-02  0.1184000E+00
        -11   -1    0    0    0    0  0.00000000000E+00  0.00000000000E+00  0.45593999997E+02  0.45594000000E+02  0.51100000000E-03 0. -1.
         11   -1    0    0    0    0 -0.00000000000E+00 -0.00000000000E+00 -0.45593999997E+02  0.45594000000E+02  0.51100000000E-03 0.  1.
         23    2    1    2    0    0  0.00000000000E+00  0.35527136788E-14  0.00000000000E+00  0.91188000000E+02  0.91188000000E+02 0.  0.
    9900012    2    3    3    0    0 -0.10456636134E+02 -0.26960608496E+02 -0.32363670543E+02  0.47787276265E+02  0.20000023805E+02 0.  0.
         12    1    3    3    0    0  0.10456636134E+02  0.26960608496E+02  0.32363670543E+02  0.43400723735E+02  0.00000000000E+00 0. -1.
         11    1    4    4    0    0 -0.10619051585E+02 -0.13344780691E+02 -0.84670749090E+01  0.19040451309E+02  0.51100000000E-03 0. -1.
        -11    1    4    4    0    0 -0.35398430689E+01 -0.28664109664E+01 -0.57912986627E+01  0.73678993778E+01  0.51100000000E-03 0.  1.
         12    1    4    4    0    0  0.37022585199E+01 -0.10749416838E+02 -0.18105296971E+02  0.21378925579E+02  0.00000000000E+00 0. -1.
</event>
<event>
 8    1  0.5331800E-011  0.9118800E+02  0.7816164E-02  0.1184000E+00
        -11   -1    0    0    0    0  0.00000000000E+00  0.00000000000E+00  0.45593999997E+02  0.45594000000E+02  0.51100000000E-03 0. -1.
         11   -1    0    0    0    0 -0.00000000000E+00 -0.00000000000E+00 -0.45593999997E+02  0.45594000000E+02  0.51100000000E-03 0.  1.
         23    2    1    2    0    0  0.17763568394E-14 -0.35527136788E-14  0.00000000000E+00  0.91188000000E+02  0.91188000000E+02 0.  0.
    9900012    2    3    3    0    0  0.13277168853E+02  0.25242587833E+02 -0.32713175808E+02  0.47787270459E+02  0.19999997330E+02 0.  0.
         12    1    3    3    0    0 -0.13277168853E+02 -0.25242587833E+02  0.32713175808E+02  0.43400729541E+02  0.00000000000E+00 0. -1.
         11    1    4    4    0    0  0.35787098611E+01 -0.26343948382E+01 -0.44380802441E+01  0.62804264941E+01  0.51100000000E-03 0. -1.
        -11    1    4    4    0    0  0.78270089521E+01  0.18437968411E+02 -0.14605559047E+02  0.24789979903E+02  0.51100000000E-03 0.  1.
         12    1    4    4    0    0  0.18714500395E+01  0.94390142603E+01 -0.13669536517E+02  0.16716864061E+02  0.00000000000E+00 0. -1.
</event>
<event>
 8    1  0.5331800E-011  0.9118800E+02  0.7816164E-02  0.1184000E+00
        -11   -1    0    0    0    0  0.00000000000E+00  0.00000000000E+00  0.45593999997E+02  0.45594000000E+02  0.51100000000E-03 0.  1.
         11   -1    0    0    0    0 -0.00000000000E+00 -0.00000000000E+00 -0.45593999997E+02  0.45594000000E+02  0.51100000000E-03 0. -1.
         23    2    1    2    0    0  0.44408920985E-15 -0.71054273576E-14  0.88817841970E-15  0.91188000000E+02  0.91188000000E+02 0.  0.
    9900012    2    3    3    0    0 -0.26906977334E+01 -0.42932332828E+02  0.57617796689E+01  0.47787272341E+02  0.20000005914E+02 0.  0.
        -12    1    3    3    0    0  0.26906977334E+01  0.42932332828E+02 -0.57617796689E+01  0.43400727659E+02  0.00000000000E+00 0.  1.
         11    1    4    4    0    0 -0.34485616165E+01 -0.33329249794E+02  0.29212629265E+01  0.33634286768E+02  0.51100000000E-03 0. -1.
        -11    1    4    4    0    0  0.46293414760E+01 -0.15612911505E+01  0.16066087858E+01  0.51429198525E+01  0.51100000000E-03 0.  1.
         12    1    4    4    0    0 -0.38714775928E+01 -0.80417918834E+01  0.12339079566E+01  0.90100657208E+01  0.00000000000E+00 0. -1.
</event>
<event>
 8    1  0.5331800E-011  0.9118800E+02  0.7816164E-02  0.1184000E+00
        -11   -1    0    0    0    0  0.00000000000E+00  0.00000000000E+00  0.45593999997E+02  0.45594000000E+02  0.51100000000E-03 0. -1.
         11   -1    0    0    0    0 -0.00000000000E+00 -0.00000000000E+00 -0.45593999997E+02  0.45594000000E+02  0.51100000000E-03 0.  1.
         23    2    1    2    0    0  0.00000000000E+00  0.35527136788E-14  0.00000000000E+00  0.91188000000E+02  0.91188000000E+02 0.  0.
    9900012    2    3    3    0    0  0.44819789654E+01 -0.23928386290E+02  0.35930032029E+02  0.47787274113E+02  0.20000013992E+02 0.  0.
        -12    1    3    3    0    0 -0.44819789654E+01  0.23928386290E+02 -0.35930032029E+02  0.43400725887E+02  0.00000000000E+00 0.  1.
         11    1    4    4    0    0  0.80210969560E+01 -0.27102897204E+01  0.80696356305E+01  0.11696268046E+02  0.51100000000E-03 0. -1.
        -11    1    4    4    0    0 -0.48584466413E+01 -0.12779837340E+02  0.12546658877E+02  0.18556599781E+02  0.51100000000E-03 0.  1.
        -12    1    4    4    0    0  0.13193286507E+01 -0.84382592298E+01  0.15313737521E+02  0.17534406286E+02  0.00000000000E+00 0.  1.
</event>
<event>
 8    1  0.5331800E-011  0.9118800E+02  0.7816164E-02  0.1184000E+00
        -11   -1    0    0    0    0  0.00000000000E+00  0.00000000000E+00  0.45593999997E+02  0.45594000000E+02  0.51100000000E-03 0. -1.
         11   -1    0    0    0    0 -0.00000000000E+00 -0.00000000000E+00 -0.45593999997E+02  0.45594000000E+02  0.51100000000E-03 0.  1.
         23    2    1    2    0    0  0.00000000000E+00  0.00000000000E+00  0.71054273576E-14  0.91188000000E+02  0.91188000000E+02 0.  0.
    9900012    2    3    3    0    0  0.27060761846E+02 -0.44553137570E+01 -0.33637607702E+02  0.47787270695E+02  0.19999998405E+02 0.  0.
         12    1    3    3    0    0 -0.27060761846E+02  0.44553137570E+01  0.33637607702E+02  0.43400729305E+02  0.00000000000E+00 0. -1.
         11    1    4    4    0    0  0.84393532747E+01  0.18197946365E+01 -0.19925553288E+02  0.21715478588E+02  0.51100000000E-03 0. -1.
        -11    1    4    4    0    0  0.12082087846E+02 -0.76107903447E+01 -0.50706432821E+01  0.15152966704E+02  0.51100000000E-03 0.  1.
        -12    1    4    4    0    0  0.65393207249E+01  0.13356819513E+01 -0.86414111312E+01  0.10918825402E+02  0.00000000000E+00 0.  1.
</event>
<event>
 8    1  0.5331800E-011  0.9118800E+02  0.7816164E-02  0.1184000E+00
        -11   -1    0    0    0    0  0.00000000000E+00  0.00000000000E+00  0.45593999997E+02  0.45594000000E+02  0.51100000000E-03 0. -1.
         11   -1    0    0    0    0 -0.00000000000E+00 -0.00000000000E+00 -0.45593999997E+02  0.45594000000E+02  0.51100000000E-03 0.  1.
         23    2    1    2    0    0 -0.17763568394E-14 -0.35527136788E-14  0.00000000000E+00  0.91188000000E+02  0.91188000000E+02 0.  0.
    9900012    2    3    3    0    0  0.83090724067E+01  0.26943394494E+02  0.32994484404E+02  0.47787271985E+02  0.20000004290E+02 0.  0.
        -12    1    3    3    0    0 -0.83090724067E+01 -0.26943394494E+02 -0.32994484404E+02  0.43400728015E+02  0.00000000000E+00 0.  1.
         11    1    4    4    0    0 -0.31741352863E+01  0.12226751898E+02  0.17628066963E+02  0.21686801098E+02  0.51100000000E-03 0. -1.
        -11    1    4    4    0    0  0.12534520335E+02  0.11397876722E+02  0.14949039975E+02  0.22594237987E+02  0.51100000000E-03 0.  1.
        -12    1    4    4    0    0 -0.10513126415E+01  0.33187658740E+01  0.41737746643E+00  0.35062328996E+01  0.00000000000E+00 0.  1.
</event>
<event>
 8    1  0.5331800E-011  0.9118800E+02  0.7816164E-02  0.1184000E+00
        -11   -1    0    0    0    0  0.00000000000E+00  0.00000000000E+00  0.45593999997E+02  0.45594000000E+02  0.51100000000E-03 0. -1.
         11   -1    0    0    0    0 -0.00000000000E+00 -0.00000000000E+00 -0.45593999997E+02  0.45594000000E+02  0.51100000000E-03 0.  1.
         23    2    1    2    0    0  0.88817841970E-15 -0.22204460493E-15  0.00000000000E+00  0.91188000000E+02  0.91188000000E+02 0.  0.
    9900012    2    3    3    0    0  0.48879051646E+01 -0.97953216839E+00  0.43113481952E+02  0.47787269290E+02  0.19999992000E+02 0.  0.
        -12    1    3    3    0    0 -0.48879051646E+01  0.97953216839E+00 -0.43113481952E+02  0.43400730710E+02  0.00000000000E+00 0.  1.
         11    1    4    4    0    0  0.89542040786E+01  0.18997875988E+01  0.19645205899E+02  0.21673049593E+02  0.51100000000E-03 0. -1.
        -11    1    4    4    0    0 -0.60115343227E+01 -0.36901113582E+01  0.22855897862E+02  0.23919605642E+02  0.51100000000E-03 0.  1.
        -12    1    4    4    0    0  0.19452354087E+01  0.81079159101E+00  0.61237819136E+00  0.21946140545E+01  0.00000000000E+00 0.  1.
</event>
<event>
 8    1  0.5331800E-011  0.9118800E+02  0.7816164E-02  0.1184000E+00
        -11   -1    0    0    0    0  0.00000000000E+00  0.00000000000E+00  0.45593999997E+02  0.45594000000E+02  0.51100000000E-03 0. -1.
         11   -1    0    0    0    0 -0.00000000000E+00 -0.00000000000E+00 -0.45593999997E+02  0.45594000000E+02  0.51100000000E-03 0.  1.
         23    2    1    2    0    0  0.00000000000E+00  0.00000000000E+00  0.00000000000E+00  0.91188000000E+02  0.91188000000E+02 0.  0.
    9900012    2    3    3    0    0  0.13457784587E+02  0.25956836832E+02  0.32074194190E+02  0.47787271005E+02  0.19999999822E+02 0.  0.
        -12    1    3    3    0    0 -0.13457784587E+02 -0.25956836832E+02 -0.32074194190E+02  0.43400728995E+02  0.00000000000E+00 0.  1.
         11    1    4    4    0    0  0.96189358125E+01  0.70015180400E+01  0.29496738488E+01  0.12257477600E+02  0.51100000000E-03 0. -1.
        -11    1    4    4    0    0 -0.11005424554E+01  0.10433188319E+02  0.15548293590E+02  0.18756653379E+02  0.51100000000E-03 0.  1.
         12    1    4    4    0    0  0.49393912304E+01  0.85221304739E+01  0.13576226751E+02  0.16773140026E+02  0.00000000000E+00 0. -1.
</event>
<event>
 8    1  0.5331800E-011  0.9118800E+02  0.7816164E-02  0.1184000E+00
        -11   -1    0    0    0    0  0.00000000000E+00  0.00000000000E+00  0.45593999997E+02  0.45594000000E+02  0.51100000000E-03 0. -1.
         11   -1    0    0    0    0 -0.00000000000E+00 -0.00000000000E+00 -0.45593999997E+02  0.45594000000E+02  0.51100000000E-03 0.  1.
         23    2    1    2    0    0  0.00000000000E+00  0.00000000000E+00  0.00000000000E+00  0.91188000000E+02  0.91188000000E+02 0.  0.
    9900012    2    3    3    0    0  0.26431849585E+01  0.34684661928E+02 -0.25954018056E+02  0.47787271284E+02  0.20000001093E+02 0.  0.
         12    1    3    3    0    0 -0.26431849585E+01 -0.34684661928E+02  0.25954018056E+02  0.43400728716E+02  0.00000000000E+00 0. -1.
         11    1    4    4    0    0 -0.13750810188E+01  0.30657236490E+02 -0.14884995135E+02  0.34107478322E+02  0.51100000000E-03 0. -1.
        -11    1    4    4    0    0  0.51486446206E-01  0.37006313903E+01 -0.73654700879E+01  0.82430257441E+01  0.51100000000E-03 0.  1.
         12    1    4    4    0    0  0.39667795311E+01  0.32679404747E+00 -0.37035528331E+01  0.54367672182E+01  0.00000000000E+00 0. -1.
</event>
<event>
 8    1  0.5331800E-011  0.9118800E+02  0.7816164E-02  0.1184000E+00
        -11   -1    0    0    0    0  0.00000000000E+00  0.00000000000E+00  0.45593999997E+02  0.45594000000E+02  0.51100000000E-03 0. -1.
         11   -1    0    0    0    0 -0.00000000000E+00 -0.00000000000E+00 -0.45593999997E+02  0.45594000000E+02  0.51100000000E-03 0.  1.
         23    2    1    2    0    0  0.00000000000E+00  0.17763568394E-14  0.00000000000E+00  0.91188000000E+02  0.91188000000E+02 0.  0.
    9900012    2    3    3    0    0 -0.22197166039E+02  0.89704205614E+01 -0.36200009556E+02  0.47787270547E+02  0.19999997731E+02 0.  0.
         12    1    3    3    0    0  0.22197166039E+02 -0.89704205614E+01  0.36200009556E+02  0.43400729453E+02  0.00000000000E+00 0. -1.
         11    1    4    4    0    0 -0.15477342609E+02  0.12535810899E+02 -0.20724508521E+02  0.28743693966E+02  0.51100000000E-03 0. -1.
        -11    1    4    4    0    0 -0.34476325574E+01 -0.48638926386E+01 -0.14018470574E+02  0.15233553077E+02  0.51100000000E-03 0.  1.
        -12    1    4    4    0    0 -0.32721908724E+01  0.12985023008E+01 -0.14570304608E+01  0.38100235032E+01  0.00000000000E+00 0.  1.
</event>
<event>
 8    1  0.5331800E-011  0.9118800E+02  0.7816164E-02  0.1184000E+00
        -11   -1    0    0    0    0  0.00000000000E+00  0.00000000000E+00  0.45593999997E+02  0.45594000000E+02  0.51100000000E-03 0. -1.
         11   -1    0    0    0    0 -0.00000000000E+00 -0.00000000000E+00 -0.45593999997E+02  0.45594000000E+02  0.51100000000E-03 0.  1.
         23    2    1    2    0    0  0.35527136788E-14  0.00000000000E+00  0.00000000000E+00  0.91188000000E+02  0.91188000000E+02 0.  0.
    9900012    2    3    3    0    0 -0.28646895007E+02 -0.16865863015E+02  0.27901996147E+02  0.47787270539E+02  0.19999997696E+02 0.  0.
        -12    1    3    3    0    0  0.28646895007E+02  0.16865863015E+02 -0.27901996147E+02  0.43400729461E+02  0.00000000000E+00 0.  1.
         11    1    4    4    0    0 -0.15836340647E+02 -0.11489660077E+02  0.15651210231E+02  0.25055186204E+02  0.51100000000E-03 0. -1.
        -11    1    4    4    0    0  0.22656809036E+01  0.11935802299E+01  0.76483686685E+00  0.26726240694E+01  0.51100000000E-03 0.  1.
        -12    1    4    4    0    0 -0.15076235264E+02 -0.65697831679E+01  0.11485949048E+02  0.20059460265E+02  0.00000000000E+00 0.  1.
</event>
<event>
 8    1  0.5331800E-011  0.9118800E+02  0.7816164E-02  0.1184000E+00
        -11   -1    0    0    0    0  0.00000000000E+00  0.00000000000E+00  0.45593999997E+02  0.45594000000E+02  0.51100000000E-03 0. -1.
         11   -1    0    0    0    0 -0.00000000000E+00 -0.00000000000E+00 -0.45593999997E+02  0.45594000000E+02  0.51100000000E-03 0.  1.
         23    2    1    2    0    0  0.00000000000E+00  0.71054273576E-14 -0.35527136788E-14  0.91188000000E+02  0.91188000000E+02 0.  0.
    9900012    2    3    3    0    0 -0.87161478719E+01 -0.32407945059E+02  0.27520488518E+02  0.47787269304E+02  0.19999992066E+02 0.  0.
        -12    1    3    3    0    0  0.87161478719E+01  0.32407945059E+02 -0.27520488518E+02  0.43400730696E+02  0.00000000000E+00 0.  1.
         11    1    4    4    0    0  0.15865448389E+01 -0.15233623024E+02  0.70403035985E+01  0.16856638751E+02  0.51100000000E-03 0.  1.
        -11    1    4    4    0    0  0.28337053719E+00 -0.10452750737E+02  0.73969749324E+01  0.12808416578E+02  0.51100000000E-03 0. -1.
         12    1    4    4    0    0 -0.10586063248E+02 -0.67215712979E+01  0.13083209987E+02  0.18122213975E+02  0.00000000000E+00 0. -1.
</event>
<event>
 8    1  0.5331800E-011  0.9118800E+02  0.7816164E-02  0.1184000E+00
        -11   -1    0    0    0    0  0.00000000000E+00  0.00000000000E+00  0.45593999997E+02  0.45594000000E+02  0.51100000000E-03 0. -1.
         11   -1    0    0    0    0 -0.00000000000E+00 -0.00000000000E+00 -0.45593999997E+02  0.45594000000E+02  0.51100000000E-03 0.  1.
         23    2    1    2    0    0  0.00000000000E+00  0.00000000000E+00 -0.35527136788E-14  0.91188000000E+02  0.91188000000E+02 0.  0.
    9900012    2    3    3    0    0 -0.16818169081E+02 -0.27785765368E+02 -0.28787579628E+02  0.47787259118E+02  0.19999945621E+02 0.  0.
         12    1    3    3    0    0  0.16818169081E+02  0.27785765368E+02  0.28787579628E+02  0.43400740882E+02  0.00000000000E+00 0. -1.
         11    1    4    4    0    0  0.26047816800E+01 -0.87514735626E+00 -0.76712546379E+01  0.81485531523E+01  0.51100000000E-03 0. -1.
        -11    1    4    4    0    0 -0.11653144571E+02 -0.14119734473E+02 -0.90923122707E+01  0.20440959436E+02  0.51100000000E-03 0.  1.
         12    1    4    4    0    0 -0.77698061894E+01 -0.12790883539E+02 -0.12024012719E+02  0.19197746529E+02  0.00000000000E+00 0. -1.
</event>
<event>
 8    1  0.5331800E-011  0.9118800E+02  0.7816164E-02  0.1184000E+00
        -11   -1    0    0    0    0  0.00000000000E+00  0.00000000000E+00  0.45593999997E+02  0.45594000000E+02  0.51100000000E-03 0. -1.
         11   -1    0    0    0    0 -0.00000000000E+00 -0.00000000000E+00 -0.45593999997E+02  0.45594000000E+02  0.51100000000E-03 0.  1.
         23    2    1    2    0    0  0.00000000000E+00 -0.88817841970E-15 -0.71054273576E-14  0.91188000000E+02  0.91188000000E+02 0.  0.
    9900012    2    3    3    0    0 -0.82265640703E+01  0.44795460942E+01 -0.42377833299E+02  0.47787269076E+02  0.19999991026E+02 0.  0.
         12    1    3    3    0    0  0.82265640703E+01 -0.44795460942E+01  0.42377833299E+02  0.43400730924E+02  0.00000000000E+00 0. -1.
         11    1    4    4    0    0 -0.17149087602E+01 -0.25949245536E+01 -0.86823157633E+01  0.92226434805E+01  0.51100000000E-03 0. -1.
        -11    1    4    4    0    0  0.13547297042E+01 -0.25130951062E+01 -0.21736083632E+00  0.28632473834E+01  0.51100000000E-03 0.  1.
        -12    1    4    4    0    0 -0.78663850143E+01  0.95875657540E+01 -0.33478156699E+02  0.35701378212E+02  0.00000000000E+00 0.  1.
</event>
<event>
 8    1  0.5331800E-011  0.9118800E+02  0.7816164E-02  0.1184000E+00
        -11   -1    0    0    0    0  0.00000000000E+00  0.00000000000E+00  0.45593999997E+02  0.45594000000E+02  0.51100000000E-03 0.  1.
         11   -1    0    0    0    0 -0.00000000000E+00 -0.00000000000E+00 -0.45593999997E+02  0.45594000000E+02  0.51100000000E-03 0. -1.
         23    2    1    2    0    0 -0.71054273576E-14  0.00000000000E+00  0.00000000000E+00  0.91188000000E+02  0.91188000000E+02 0.  0.
    9900012    2    3    3    0    0  0.38829713125E+02  0.61156319194E+01 -0.18397715670E+02  0.47787268243E+02  0.19999987228E+02 0.  0.
         12    1    3    3    0    0 -0.38829713125E+02 -0.61156319194E+01  0.18397715670E+02  0.43400731757E+02  0.00000000000E+00 0. -1.
         11    1    4    4    0    0  0.70372946784E+00  0.36908356337E+01 -0.48548900141E+01  0.61390113332E+01  0.51100000000E-03 0. -1.
        -11    1    4    4    0    0  0.21730104922E+02  0.30788785088E+01 -0.12380341271E+02  0.25198210314E+02  0.51100000000E-03 0.  1.
         12    1    4    4    0    0  0.16395878735E+02 -0.65408222303E+00 -0.11624843847E+01  0.16450046596E+02  0.00000000000E+00 0. -1.
</event>
<event>
 8    1  0.5331800E-011  0.9118800E+02  0.7816164E-02  0.1184000E+00
        -11   -1    0    0    0    0  0.00000000000E+00  0.00000000000E+00  0.45593999997E+02  0.45594000000E+02  0.51100000000E-03 0. -1.
         11   -1    0    0    0    0 -0.00000000000E+00 -0.00000000000E+00 -0.45593999997E+02  0.45594000000E+02  0.51100000000E-03 0.  1.
         23    2    1    2    0    0  0.00000000000E+00  0.00000000000E+00 -0.71054273576E-14  0.91188000000E+02  0.91188000000E+02 0.  0.
    9900012    2    3    3    0    0 -0.16742665653E+02  0.14869725691E+02  0.37177916552E+02  0.47787273342E+02  0.20000010476E+02 0.  0.
        -12    1    3    3    0    0  0.16742665653E+02 -0.14869725691E+02 -0.37177916552E+02  0.43400726658E+02  0.00000000000E+00 0.  1.
         11    1    4    4    0    0 -0.14797159400E+01 -0.32116033245E+01  0.32625721097E+01  0.48112713713E+01  0.51100000000E-03 0. -1.
        -11    1    4    4    0    0 -0.16408002188E+02  0.17510642007E+02  0.34085525258E+02  0.41685346966E+02  0.51100000000E-03 0.  1.
         12    1    4    4    0    0  0.11450524745E+01  0.57068700814E+00 -0.17018081611E+00  0.12906550046E+01  0.00000000000E+00 0. -1.
</event>
<event>
 8    1  0.5331800E-011  0.9118800E+02  0.7816164E-02  0.1184000E+00
        -11   -1    0    0    0    0  0.00000000000E+00  0.00000000000E+00  0.45593999997E+02  0.45594000000E+02  0.51100000000E-03 0. -1.
         11   -1    0    0    0    0 -0.00000000000E+00 -0.00000000000E+00 -0.45593999997E+02  0.45594000000E+02  0.51100000000E-03 0.  1.
         23    2    1    2    0    0  0.00000000000E+00  0.00000000000E+00  0.00000000000E+00  0.91188000000E+02  0.91188000000E+02 0.  0.
    9900012    2    3    3    0    0 -0.10699242682E+02 -0.22492544150E+02  0.35542017347E+02  0.47787270359E+02  0.19999996875E+02 0.  0.
        -12    1    3    3    0    0  0.10699242682E+02  0.22492544150E+02 -0.35542017347E+02  0.43400729641E+02  0.00000000000E+00 0.  1.
         11    1    4    4    0    0  0.24010027643E+01 -0.29565290426E+01  0.13215913762E+02  0.13753772395E+02  0.51100000000E-03 0. -1.
        -11    1    4    4    0    0 -0.12420226993E+02 -0.19446299960E+02  0.23332862320E+02  0.32815287367E+02  0.51100000000E-03 0.  1.
        -12    1    4    4    0    0 -0.68001845349E+00 -0.89715147464E-01 -0.10067587362E+01  0.12182105966E+01  0.00000000000E+00 0.  1.
</event>
<event>
 8    1  0.5331800E-011  0.9118800E+02  0.7816164E-02  0.1184000E+00
        -11   -1    0    0    0    0  0.00000000000E+00  0.00000000000E+00  0.45593999997E+02  0.45594000000E+02  0.51100000000E-03 0. -1.
         11   -1    0    0    0    0 -0.00000000000E+00 -0.00000000000E+00 -0.45593999997E+02  0.45594000000E+02  0.51100000000E-03 0.  1.
         23    2    1    2    0    0  0.33306690739E-15  0.88817841970E-15  0.00000000000E+00  0.91188000000E+02  0.91188000000E+02 0.  0.
    9900012    2    3    3    0    0  0.55616523410E+00  0.51837045259E+01 -0.43086461648E+02  0.47787270862E+02  0.19999999169E+02 0.  0.
         12    1    3    3    0    0 -0.55616523410E+00 -0.51837045259E+01  0.43086461648E+02  0.43400729138E+02  0.00000000000E+00 0. -1.
         11    1    4    4    0    0  0.12034043447E+01  0.79867039818E+01 -0.14781051854E+02  0.16843845069E+02  0.51100000000E-03 0. -1.
        -11    1    4    4    0    0  0.31403984838E+01 -0.64256149684E+01 -0.14283573560E+02  0.15974076006E+02  0.51100000000E-03 0.  1.
        -12    1    4    4    0    0 -0.37876375944E+01  0.36226155124E+01 -0.14021836234E+02  0.14969349787E+02  0.00000000000E+00 0.  1.
</event>
<event>
 8    1  0.5331800E-011  0.9118800E+02  0.7816164E-02  0.1184000E+00
        -11   -1    0    0    0    0  0.00000000000E+00  0.00000000000E+00  0.45593999997E+02  0.45594000000E+02  0.51100000000E-03 0. -1.
         11   -1    0    0    0    0 -0.00000000000E+00 -0.00000000000E+00 -0.45593999997E+02  0.45594000000E+02  0.51100000000E-03 0.  1.
         23    2    1    2    0    0  0.17763568394E-14 -0.13322676296E-14  0.00000000000E+00  0.91188000000E+02  0.91188000000E+02 0.  0.
    9900012    2    3    3    0    0  0.15478615106E+02  0.31335127620E+01  0.40425450920E+02  0.47787268325E+02  0.19999987603E+02 0.  0.
        -12    1    3    3    0    0 -0.15478615106E+02 -0.31335127620E+01 -0.40425450920E+02  0.43400731675E+02  0.00000000000E+00 0.  1.
         11    1    4    4    0    0  0.37318099000E+01 -0.41812290703E+01  0.31467368761E+01  0.64273660933E+01  0.51100000000E-03 0. -1.
        -11    1    4    4    0    0  0.48368086387E+01  0.51384491673E+00  0.29508168249E+01  0.56891189653E+01  0.51100000000E-03 0.  1.
         12    1    4    4    0    0  0.69099965671E+01  0.68008969155E+01  0.34327897219E+02  0.35670783267E+02  0.00000000000E+00 0. -1.
</event>
<event>
 8    1  0.5331800E-011  0.9118800E+02  0.7816164E-02  0.1184000E+00
        -11   -1    0    0    0    0  0.00000000000E+00  0.00000000000E+00  0.45593999997E+02  0.45594000000E+02  0.51100000000E-03 0. -1.
         11   -1    0    0    0    0 -0.00000000000E+00 -0.00000000000E+00 -0.45593999997E+02  0.45594000000E+02  0.51100000000E-03 0.  1.
         23    2    1    2    0    0 -0.35527136788E-14  0.88817841970E-15  0.00000000000E+00  0.91188000000E+02  0.91188000000E+02 0.  0.
    9900012    2    3    3    0    0 -0.26289396803E+02  0.40195189526E+01 -0.34297726082E+02  0.47787274991E+02  0.20000017996E+02 0.  0.
         12    1    3    3    0    0  0.26289396803E+02 -0.40195189526E+01  0.34297726082E+02  0.43400725009E+02  0.00000000000E+00 0. -1.
         11    1    4    4    0    0 -0.58749913471E+01  0.90164438351E+01 -0.13548259662E+02  0.17302228842E+02  0.51100000000E-03 0. -1.
        -11    1    4    4    0    0 -0.20616106137E+02 -0.38107986775E+01 -0.20349225579E+02  0.29217066942E+02  0.51100000000E-03 0.  1.
         12    1    4    4    0    0  0.20170068061E+00 -0.11861262050E+01 -0.40024084075E+00  0.12679792070E+01  0.00000000000E+00 0. -1.
</event>
<event>
 8    1  0.5331800E-011  0.9118800E+02  0.7816164E-02  0.1184000E+00
        -11   -1    0    0    0    0  0.00000000000E+00  0.00000000000E+00  0.45593999997E+02  0.45594000000E+02  0.51100000000E-03 0. -1.
         11   -1    0    0    0    0 -0.00000000000E+00 -0.00000000000E+00 -0.45593999997E+02  0.45594000000E+02  0.51100000000E-03 0.  1.
         23    2    1    2    0    0  0.00000000000E+00 -0.17763568394E-14  0.00000000000E+00  0.91188000000E+02  0.91188000000E+02 0.  0.
    9900012    2    3    3    0    0  0.24897618016E+02 -0.12985515018E+02 -0.33092420435E+02  0.47787271050E+02  0.20000000027E+02 0.  0.
         12    1    3    3    0    0 -0.24897618016E+02  0.12985515018E+02  0.33092420435E+02  0.43400728950E+02  0.00000000000E+00 0. -1.
         11    1    4    4    0    0 -0.12165857961E+01 -0.15815100106E+00  0.20415353769E+00  0.12436927541E+01  0.51100000000E-03 0. -1.
        -11    1    4    4    0    0  0.43410524905E+00 -0.15174646259E+00 -0.89308566768E+01  0.89426883876E+01  0.51100000000E-03 0.  1.
        -12    1    4    4    0    0  0.25680098563E+02 -0.12675617554E+02 -0.24365717296E+02  0.37600889909E+02  0.00000000000E+00 0.  1.
</event>
<event>
 8    1  0.5331800E-011  0.9118800E+02  0.7816164E-02  0.1184000E+00
        -11   -1    0    0    0    0  0.00000000000E+00  0.00000000000E+00  0.45593999997E+02  0.45594000000E+02  0.51100000000E-03 0.  1.
         11   -1    0    0    0    0 -0.00000000000E+00 -0.00000000000E+00 -0.45593999997E+02  0.45594000000E+02  0.51100000000E-03 0. -1.
         23    2    1    2    0    0  0.22204460493E-15  0.00000000000E+00 -0.35527136788E-14  0.91188000000E+02  0.91188000000E+02 0.  0.
    9900012    2    3    3    0    0  0.79430589145E+00  0.32392156013E+02  0.28874565607E+02  0.47787271527E+02  0.20000002201E+02 0.  0.
        -12    1    3    3    0    0 -0.79430589145E+00 -0.32392156013E+02 -0.28874565607E+02  0.43400728473E+02  0.00000000000E+00 0.  1.
         11    1    4    4    0    0  0.52320482770E+01  0.48076046882E+01  0.57892203033E+00  0.71289931259E+01  0.51100000000E-03 0. -1.
        -11    1    4    4    0    0  0.15855162848E+00  0.17006329049E+02  0.20949901418E+02  0.26984045953E+02  0.51100000000E-03 0.  1.
         12    1    4    4    0    0 -0.45962940141E+01  0.10578222276E+02  0.73457421583E+01  0.13674232448E+02  0.00000000000E+00 0. -1.
</event>
<event>
 8    1  0.5331800E-011  0.9118800E+02  0.7816164E-02  0.1184000E+00
        -11   -1    0    0    0    0  0.00000000000E+00  0.00000000000E+00  0.45593999997E+02  0.45594000000E+02  0.51100000000E-03 0. -1.
         11   -1    0    0    0    0 -0.00000000000E+00 -0.00000000000E+00 -0.45593999997E+02  0.45594000000E+02  0.51100000000E-03 0.  1.
         23    2    1    2    0    0  0.35527136788E-14  0.00000000000E+00  0.35527136788E-14  0.91188000000E+02  0.91188000000E+02 0.  0.
    9900012    2    3    3    0    0  0.16990612328E+02 -0.34315470005E+02 -0.20430141656E+02  0.47787273312E+02  0.20000010341E+02 0.  0.
         12    1    3    3    0    0 -0.16990612328E+02  0.34315470005E+02  0.20430141656E+02  0.43400726688E+02  0.00000000000E+00 0. -1.
         11    1    4    4    0    0  0.20629688696E+01 -0.67131404316E+01 -0.16029280992E+01  0.72035736800E+01  0.51100000000E-03 0. -1.
        -11    1    4    4    0    0  0.74966933334E+01 -0.12190245497E+02  0.10588041061E+01  0.14350037025E+02  0.51100000000E-03 0.  1.
        -12    1    4    4    0    0  0.74309501252E+01 -0.15412084076E+02 -0.19886017663E+02  0.26233662607E+02  0.00000000000E+00 0.  1.
</event>
<event>
 8    1  0.5331800E-011  0.9118800E+02  0.7816164E-02  0.1184000E+00
        -11   -1    0    0    0    0  0.00000000000E+00  0.00000000000E+00  0.45593999997E+02  0.45594000000E+02  0.51100000000E-03 0. -1.
         11   -1    0    0    0    0 -0.00000000000E+00 -0.00000000000E+00 -0.45593999997E+02  0.45594000000E+02  0.51100000000E-03 0.  1.
         23    2    1    2    0    0  0.00000000000E+00  0.35527136788E-14 -0.71054273576E-14  0.91188000000E+02  0.91188000000E+02 0.  0.
    9900012    2    3    3    0    0  0.50405752884E+01 -0.26853123170E+02  0.33721294193E+02  0.47787270683E+02  0.19999998351E+02 0.  0.
        -12    1    3    3    0    0 -0.50405752884E+01  0.26853123170E+02 -0.33721294193E+02  0.43400729317E+02  0.00000000000E+00 0.  1.
         11    1    4    4    0    0  0.50024396786E+01 -0.19877341553E+02  0.16852459861E+02  0.26535608408E+02  0.51100000000E-03 0. -1.
        -11    1    4    4    0    0 -0.44295882111E+01  0.24292583190E+00  0.57489725439E+01  0.72616079660E+01  0.51100000000E-03 0.  1.
         12    1    4    4    0    0  0.44677238209E+01 -0.72187074488E+01  0.11119861788E+02  0.13990054309E+02  0.00000000000E+00 0. -1.
</event>
<event>
 8    1  0.5331800E-011  0.9118800E+02  0.7816164E-02  0.1184000E+00
        -11   -1    0    0    0    0  0.00000000000E+00  0.00000000000E+00  0.45593999997E+02  0.45594000000E+02  0.51100000000E-03 0.  1.
         11   -1    0    0    0    0 -0.00000000000E+00 -0.00000000000E+00 -0.45593999997E+02  0.45594000000E+02  0.51100000000E-03 0. -1.
         23    2    1    2    0    0  0.00000000000E+00  0.00000000000E+00  0.88817841970E-15  0.91188000000E+02  0.91188000000E+02 0.  0.
    9900012    2    3    3    0    0 -0.15898745099E+02  0.40129506266E+02  0.45250470524E+01  0.47787269365E+02  0.19999992341E+02 0.  0.
         12    1    3    3    0    0  0.15898745099E+02 -0.40129506266E+02 -0.45250470524E+01  0.43400730635E+02  0.00000000000E+00 0. -1.
         11    1    4    4    0    0 -0.13749103722E+02  0.15787176629E+02 -0.32721697621E+01  0.21189145672E+02  0.51100000000E-03 0. -1.
        -11    1    4    4    0    0 -0.99705094548E+00  0.32540901140E+01  0.38038925081E+01  0.51041954834E+01  0.51100000000E-03 0.  1.
         12    1    4    4    0    0 -0.11525904314E+01  0.21088239523E+02  0.39933243064E+01  0.21493928210E+02  0.00000000000E+00 0. -1.
</event>
<event>
 8    1  0.5331800E-011  0.9118800E+02  0.7816164E-02  0.1184000E+00
        -11   -1    0    0    0    0  0.00000000000E+00  0.00000000000E+00  0.45593999997E+02  0.45594000000E+02  0.51100000000E-03 0. -1.
         11   -1    0    0    0    0 -0.00000000000E+00 -0.00000000000E+00 -0.45593999997E+02  0.45594000000E+02  0.51100000000E-03 0.  1.
         23    2    1    2    0    0 -0.17763568394E-14  0.35527136788E-14  0.00000000000E+00  0.91188000000E+02  0.91188000000E+02 0.  0.
    9900012    2    3    3    0    0 -0.81288618480E+01 -0.22017865966E+02  0.36506961760E+02  0.47787273352E+02  0.20000010522E+02 0.  0.
        -12    1    3    3    0    0  0.81288618480E+01  0.22017865966E+02 -0.36506961760E+02  0.43400726648E+02  0.00000000000E+00 0.  1.
         11    1    4    4    0    0 -0.66897991000E+01 -0.72569447451E+01  0.23272520697E+01  0.10140648968E+02  0.51100000000E-03 0. -1.
        -11    1    4    4    0    0  0.18498772230E+01 -0.85890619635E+01  0.19210336296E+02  0.21124181689E+02  0.51100000000E-03 0.  1.
         12    1    4    4    0    0 -0.32889399709E+01 -0.61718592571E+01  0.14969373394E+02  0.16522442695E+02  0.00000000000E+00 0. -1.
</event>
<event>
 8    1  0.5331800E-011  0.9118800E+02  0.7816164E-02  0.1184000E+00
        -11   -1    0    0    0    0  0.00000000000E+00  0.00000000000E+00  0.45593999997E+02  0.45594000000E+02  0.51100000000E-03 0. -1.
         11   -1    0    0    0    0 -0.00000000000E+00 -0.00000000000E+00 -0.45593999997E+02  0.45594000000E+02  0.51100000000E-03 0.  1.
         23    2    1    2    0    0  0.00000000000E+00 -0.55511151231E-16 -0.71054273576E-14  0.91188000000E+02  0.91188000000E+02 0.  0.
    9900012    2    3    3    0    0 -0.20351165669E+02  0.26341395240E+00 -0.38332547124E+02  0.47787268439E+02  0.19999988122E+02 0.  0.
         12    1    3    3    0    0  0.20351165669E+02 -0.26341395240E+00  0.38332547124E+02  0.43400731561E+02  0.00000000000E+00 0. -1.
         11    1    4    4    0    0 -0.76763641550E+01  0.18336349260E+01 -0.53046865471E+01  0.95093892183E+01  0.51100000000E-03 0. -1.
        -11    1    4    4    0    0 -0.13752006537E+02  0.13745190216E+01 -0.32191252170E+02  0.35032609136E+02  0.51100000000E-03 0.  1.
        -12    1    4    4    0    0  0.10772050227E+01 -0.29447399952E+01 -0.83660840703E+00  0.32452700853E+01  0.00000000000E+00 0.  1.
</event>
<event>
 8    1  0.5331800E-011  0.9118800E+02  0.7816164E-02  0.1184000E+00
        -11   -1    0    0    0    0  0.00000000000E+00  0.00000000000E+00  0.45593999997E+02  0.45594000000E+02  0.51100000000E-03 0. -1.
         11   -1    0    0    0    0 -0.00000000000E+00 -0.00000000000E+00 -0.45593999997E+02  0.45594000000E+02  0.51100000000E-03 0.  1.
         23    2    1    2    0    0  0.00000000000E+00  0.88817841970E-15  0.00000000000E+00  0.91188000000E+02  0.91188000000E+02 0.  0.
    9900012    2    3    3    0    0  0.31037825269E+02 -0.78129581348E+01  0.29312699127E+02  0.47787271407E+02  0.20000001654E+02 0.  0.
        -12    1    3    3    0    0 -0.31037825269E+02  0.78129581348E+01 -0.29312699127E+02  0.43400728593E+02  0.00000000000E+00 0.  1.
         11    1    4    4    0    0  0.31026149240E+02 -0.10289603561E+02  0.23613082376E+02  0.40324626938E+02  0.51100000000E-03 0. -1.
        -11    1    4    4    0    0 -0.63405832273E+00  0.29333777347E+01  0.18344380991E+01  0.35173709346E+01  0.51100000000E-03 0.  1.
         12    1    4    4    0    0  0.64573435217E+00 -0.45673230844E+00  0.38651786518E+01  0.39452735350E+01  0.00000000000E+00 0. -1.
</event>
<event>
 8    1  0.5331800E-011  0.9118800E+02  0.7816164E-02  0.1184000E+00
        -11   -1    0    0    0    0  0.00000000000E+00  0.00000000000E+00  0.45593999997E+02  0.45594000000E+02  0.51100000000E-03 0. -1.
         11   -1    0    0    0    0 -0.00000000000E+00 -0.00000000000E+00 -0.45593999997E+02  0.45594000000E+02  0.51100000000E-03 0.  1.
         23    2    1    2    0    0 -0.22204460493E-15  0.00000000000E+00  0.00000000000E+00  0.91188000000E+02  0.91188000000E+02 0.  0.
    9900012    2    3    3    0    0 -0.10155790492E+01 -0.83893468787E+01  0.42570068410E+02  0.47787271132E+02  0.20000000398E+02 0.  0.
        -12    1    3    3    0    0  0.10155790492E+01  0.83893468787E+01 -0.42570068410E+02  0.43400728868E+02  0.00000000000E+00 0.  1.
         11    1    4    4    0    0  0.41585260939E+01 -0.97861270921E+01  0.37735064581E+02  0.39204549761E+02  0.51100000000E-03 0. -1.
        -11    1    4    4    0    0 -0.32671454463E+01  0.14955947871E+01  0.54922829480E+01  0.65632473195E+01  0.51100000000E-03 0.  1.
         12    1    4    4    0    0 -0.19069596969E+01 -0.98814573682E-01 -0.65727911899E+00  0.20194740517E+01  0.00000000000E+00 0. -1.
</event>
<event>
 8    1  0.5331800E-011  0.9118800E+02  0.7816164E-02  0.1184000E+00
        -11   -1    0    0    0    0  0.00000000000E+00  0.00000000000E+00  0.45593999997E+02  0.45594000000E+02  0.51100000000E-03 0. -1.
         11   -1    0    0    0    0 -0.00000000000E+00 -0.00000000000E+00 -0.45593999997E+02  0.45594000000E+02  0.51100000000E-03 0.  1.
         23    2    1    2    0    0  0.17763568394E-14  0.00000000000E+00  0.00000000000E+00  0.91188000000E+02  0.91188000000E+02 0.  0.
    9900012    2    3    3    0    0 -0.62476622179E+01  0.28174294712E+02 -0.32416050819E+02  0.47787256729E+02  0.19999934732E+02 0.  0.
         12    1    3    3    0    0  0.62476622179E+01 -0.28174294712E+02  0.32416050819E+02  0.43400743271E+02  0.00000000000E+00 0. -1.
         11    1    4    4    0    0  0.35998156512E+01  0.17232908380E+02 -0.91606470994E+01  0.19845635779E+02  0.51100000000E-03 0. -1.
        -11    1    4    4    0    0 -0.91874869370E+01  0.71533937816E+01 -0.17566760342E+02  0.21075389154E+02  0.51100000000E-03 0.  1.
         12    1    4    4    0    0 -0.65999093216E+00  0.37879925510E+01 -0.56886433777E+01  0.68662317960E+01  0.00000000000E+00 0. -1.
</event>
<event>
 8    1  0.5331800E-011  0.9118800E+02  0.7816164E-02  0.1184000E+00
        -11   -1    0    0    0    0  0.00000000000E+00  0.00000000000E+00  0.45593999997E+02  0.45594000000E+02  0.51100000000E-03 0. -1.
         11   -1    0    0    0    0 -0.00000000000E+00 -0.00000000000E+00 -0.45593999997E+02  0.45594000000E+02  0.51100000000E-03 0.  1.
         23    2    1    2    0    0  0.00000000000E+00  0.00000000000E+00 -0.35527136788E-14  0.91188000000E+02  0.91188000000E+02 0.  0.
    9900012    2    3    3    0    0 -0.35921730064E+02 -0.89769374339E+01  0.22642152599E+02  0.47787272232E+02  0.20000005415E+02 0.  0.
        -12    1    3    3    0    0  0.35921730064E+02  0.89769374339E+01 -0.22642152599E+02  0.43400727768E+02  0.00000000000E+00 0.  1.
         11    1    4    4    0    0 -0.34234808647E+02 -0.11264667171E+02  0.19078045140E+02  0.40778507282E+02  0.51100000000E-03 0. -1.
        -11    1    4    4    0    0  0.34677710111E+00  0.13317478829E+01 -0.11454877004E+01  0.17905164379E+01  0.51100000000E-03 0.  1.
         12    1    4    4    0    0 -0.20336985183E+01  0.95598185391E+00  0.47095951594E+01  0.52182485121E+01  0.00000000000E+00 0. -1.
</event>
<event>
 8    1  0.5331800E-011  0.9118800E+02  0.7816164E-02  0.1184000E+00
        -11   -1    0    0    0    0  0.00000000000E+00  0.00000000000E+00  0.45593999997E+02  0.45594000000E+02  0.51100000000E-03 0. -1.
         11   -1    0    0    0    0 -0.00000000000E+00 -0.00000000000E+00 -0.45593999997E+02  0.45594000000E+02  0.51100000000E-03 0.  1.
         23    2    1    2    0    0  0.36082248300E-15  0.00000000000E+00  0.00000000000E+00  0.91188000000E+02  0.91188000000E+02 0.  0.
    9900012    2    3    3    0    0  0.65588902924E-01  0.39410436276E+02  0.18177912429E+02  0.47787270863E+02  0.19999999173E+02 0.  0.
        -12    1    3    3    0    0 -0.65588902924E-01 -0.39410436276E+02 -0.18177912429E+02  0.43400729137E+02  0.00000000000E+00 0.  1.
         11    1    4    4    0    0 -0.38552725938E+00  0.10522811463E+02  0.12405749512E+02  0.16272086946E+02  0.51100000000E-03 0. -1.
        -11    1    4    4    0    0 -0.27901866724E+01  0.14959580642E+02 -0.18174738925E+01  0.15325710629E+02  0.51100000000E-03 0.  1.
        -12    1    4    4    0    0  0.32413028347E+01  0.13928044170E+02  0.75896368095E+01  0.16189473289E+02  0.00000000000E+00 0.  1.
</event>
<event>
 8    1  0.5331800E-011  0.9118800E+02  0.7816164E-02  0.1184000E+00
        -11   -1    0    0    0    0  0.00000000000E+00  0.00000000000E+00  0.45593999997E+02  0.45594000000E+02  0.51100000000E-03 0. -1.
         11   -1    0    0    0    0 -0.00000000000E+00 -0.00000000000E+00 -0.45593999997E+02  0.45594000000E+02  0.51100000000E-03 0.  1.
         23    2    1    2    0    0  0.00000000000E+00  0.71054273576E-14  0.00000000000E+00  0.91188000000E+02  0.91188000000E+02 0.  0.
    9900012    2    3    3    0    0 -0.41533674166E+01  0.35782154499E+02  0.24207645760E+02  0.47787272417E+02  0.20000006258E+02 0.  0.
        -12    1    3    3    0    0  0.41533674166E+01 -0.35782154499E+02 -0.24207645760E+02  0.43400727583E+02  0.00000000000E+00 0.  1.
         11    1    4    4    0    0  0.32037056861E+01  0.15044308104E+02  0.14518377060E+02  0.21151316961E+02  0.51100000000E-03 0. -1.
        -11    1    4    4    0    0 -0.98259214700E+01  0.11088097054E+02  0.50956483727E+01  0.15667171462E+02  0.51100000000E-03 0.  1.
        -12    1    4    4    0    0  0.24688483673E+01  0.96497493406E+01  0.45936203275E+01  0.10968783994E+02  0.00000000000E+00 0.  1.
</event>
<event>
 8    1  0.5331800E-011  0.9118800E+02  0.7816164E-02  0.1184000E+00
        -11   -1    0    0    0    0  0.00000000000E+00  0.00000000000E+00  0.45593999997E+02  0.45594000000E+02  0.51100000000E-03 0. -1.
         11   -1    0    0    0    0 -0.00000000000E+00 -0.00000000000E+00 -0.45593999997E+02  0.45594000000E+02  0.51100000000E-03 0.  1.
         23    2    1    2    0    0 -0.17763568394E-14  0.00000000000E+00  0.00000000000E+00  0.91188000000E+02  0.91188000000E+02 0.  0.
    9900012    2    3    3    0    0 -0.29083645832E+00 -0.13559551145E+02 -0.41227129885E+02  0.47787282821E+02  0.20000053692E+02 0.  0.
         12    1    3    3    0    0  0.29083645832E+00  0.13559551145E+02  0.41227129885E+02  0.43400717179E+02  0.00000000000E+00 0. -1.
         11    1    4    4    0    0  0.80910252157E+01 -0.10659794226E+02 -0.16542014001E+02  0.21277549893E+02  0.51100000000E-03 0. -1.
        -11    1    4    4    0    0 -0.70406591000E+01 -0.25434200127E+01 -0.15417802659E+02  0.17139092887E+02  0.51100000000E-03 0.  1.
         12    1    4    4    0    0 -0.13412025741E+01 -0.35633690652E+00 -0.92673132259E+01  0.93706400402E+01  0.00000000000E+00 0. -1.
</event>
<event>
 8    1  0.5331800E-011  0.9118800E+02  0.7816164E-02  0.1184000E+00
        -11   -1    0    0    0    0  0.00000000000E+00  0.00000000000E+00  0.45593999997E+02  0.45594000000E+02  0.51100000000E-03 0. -1.
         11   -1    0    0    0    0 -0.00000000000E+00 -0.00000000000E+00 -0.45593999997E+02  0.45594000000E+02  0.51100000000E-03 0.  1.
         23    2    1    2    0    0 -0.35527136788E-14  0.00000000000E+00  0.00000000000E+00  0.91188000000E+02  0.91188000000E+02 0.  0.
    9900012    2    3    3    0    0 -0.27267933756E+02 -0.27474834313E+02  0.19626924713E+02  0.47787275288E+02  0.20000019349E+02 0.  0.
        -12    1    3    3    0    0  0.27267933756E+02  0.27474834313E+02 -0.19626924713E+02  0.43400724712E+02  0.00000000000E+00 0.  1.
         11    1    4    4    0    0 -0.39460379910E+01 -0.84371522265E+01  0.62432857665E+01  0.11213178450E+02  0.51100000000E-03 0. -1.
        -11    1    4    4    0    0 -0.68970028075E+01 -0.15310239799E+02  0.38769336282E+01  0.17233766420E+02  0.51100000000E-03 0.  1.
        -12    1    4    4    0    0 -0.16424892958E+02 -0.37274422877E+01  0.95067053179E+01  0.19340330418E+02  0.00000000000E+00 0.  1.
</event>
<event>
 8    1  0.5331800E-011  0.9118800E+02  0.7816164E-02  0.1184000E+00
        -11   -1    0    0    0    0  0.00000000000E+00  0.00000000000E+00  0.45593999997E+02  0.45594000000E+02  0.51100000000E-03 0. -1.
         11   -1    0    0    0    0 -0.00000000000E+00 -0.00000000000E+00 -0.45593999997E+02  0.45594000000E+02  0.51100000000E-03 0.  1.
         23    2    1    2    0    0  0.00000000000E+00  0.00000000000E+00  0.17763568394E-14  0.91188000000E+02  0.91188000000E+02 0.  0.
    9900012    2    3    3    0    0  0.31929767508E+02 -0.25839093063E+02 -0.14016222163E+02  0.47787271122E+02  0.20000000355E+02 0.  0.
         12    1    3    3    0    0 -0.31929767508E+02  0.25839093063E+02  0.14016222163E+02  0.43400728878E+02  0.00000000000E+00 0. -1.
         11    1    4    4    0    0  0.33775340369E+01 -0.57091786150E+01  0.19629918647E+01  0.69177882268E+01  0.51100000000E-03 0. -1.
        -11    1    4    4    0    0  0.19756487008E+02 -0.17840157421E+02 -0.58391693125E+01  0.27252264020E+02  0.51100000000E-03 0.  1.
        -12    1    4    4    0    0  0.87957464627E+01 -0.22897570268E+01 -0.10140044715E+02  0.13617218875E+02  0.00000000000E+00 0.  1.
</event>
<event>
 8    1  0.5331800E-011  0.9118800E+02  0.7816164E-02  0.1184000E+00
        -11   -1    0    0    0    0  0.00000000000E+00  0.00000000000E+00  0.45593999997E+02  0.45594000000E+02  0.51100000000E-03 0. -1.
         11   -1    0    0    0    0 -0.00000000000E+00 -0.00000000000E+00 -0.45593999997E+02  0.45594000000E+02  0.51100000000E-03 0.  1.
         23    2    1    2    0    0  0.17763568394E-14  0.00000000000E+00  0.00000000000E+00  0.91188000000E+02  0.91188000000E+02 0.  0.
    9900012    2    3    3    0    0  0.13288762446E+02  0.40463739720E+02 -0.83496711411E+01  0.47787280563E+02  0.20000043399E+02 0.  0.
         12    1    3    3    0    0 -0.13288762446E+02 -0.40463739720E+02  0.83496711411E+01  0.43400719437E+02  0.00000000000E+00 0. -1.
         11    1    4    4    0    0  0.14933361031E+00  0.61751840508E+01 -0.91706161481E+01  0.11056916360E+02  0.51100000000E-03 0. -1.
        -11    1    4    4    0    0  0.57099943808E+01  0.15264603925E+02  0.44660939099E+00  0.16303730525E+02  0.51100000000E-03 0.  1.
         12    1    4    4    0    0  0.74294344554E+01  0.19023951744E+02  0.37433561607E+00  0.20426633679E+02  0.00000000000E+00 0. -1.
</event>
<event>
 8    1  0.5331800E-011  0.9118800E+02  0.7816164E-02  0.1184000E+00
        -11   -1    0    0    0    0  0.00000000000E+00  0.00000000000E+00  0.45593999997E+02  0.45594000000E+02  0.51100000000E-03 0. -1.
         11   -1    0    0    0    0 -0.00000000000E+00 -0.00000000000E+00 -0.45593999997E+02  0.45594000000E+02  0.51100000000E-03 0.  1.
         23    2    1    2    0    0  0.00000000000E+00  0.00000000000E+00  0.00000000000E+00  0.91188000000E+02  0.91188000000E+02 0.  0.
    9900012    2    3    3    0    0 -0.18664740996E+02 -0.20082142906E+02  0.33644589979E+02  0.47787268958E+02  0.19999990487E+02 0.  0.
        -12    1    3    3    0    0  0.18664740996E+02  0.20082142906E+02 -0.33644589979E+02  0.43400731042E+02  0.00000000000E+00 0.  1.
         11    1    4    4    0    0  0.16082905231E+01 -0.51833051993E+00  0.95295331895E+01  0.96781851607E+01  0.51100000000E-03 0. -1.
        -11    1    4    4    0    0 -0.18328587962E+02 -0.15528742412E+02  0.23468597850E+02  0.33583538570E+02  0.51100000000E-03 0.  1.
        -12    1    4    4    0    0 -0.19444435569E+01 -0.40350699746E+01  0.64645893944E+00  0.45255452275E+01  0.00000000000E+00 0.  1.
</event>
<event>
 8    1  0.5331800E-011  0.9118800E+02  0.7816164E-02  0.1184000E+00
        -11   -1    0    0    0    0  0.00000000000E+00  0.00000000000E+00  0.45593999997E+02  0.45594000000E+02  0.51100000000E-03 0. -1.
         11   -1    0    0    0    0 -0.00000000000E+00 -0.00000000000E+00 -0.45593999997E+02  0.45594000000E+02  0.51100000000E-03 0.  1.
         23    2    1    2    0    0  0.35527136788E-14  0.88817841970E-15  0.00000000000E+00  0.91188000000E+02  0.91188000000E+02 0.  0.
    9900012    2    3    3    0    0  0.31017924935E+02 -0.54358474086E+01  0.29865733808E+02  0.47787283875E+02  0.20000058498E+02 0.  0.
        -12    1    3    3    0    0 -0.31017924935E+02  0.54358474086E+01 -0.29865733808E+02  0.43400716125E+02  0.00000000000E+00 0.  1.
         11    1    4    4    0    0  0.15249590277E+02 -0.16249793907E+01  0.22709884935E+02  0.27403091717E+02  0.51100000000E-03 0. -1.
        -11    1    4    4    0    0  0.18507952139E+01 -0.38693109100E+01 -0.78513738136E+00  0.43604415844E+01  0.51100000000E-03 0.  1.
        -12    1    4    4    0    0  0.13917539444E+02  0.58442892004E-01  0.79409862541E+01  0.16023750573E+02  0.00000000000E+00 0.  1.
</event>
<event>
 8    1  0.5331800E-011  0.9118800E+02  0.7816164E-02  0.1184000E+00
        -11   -1    0    0    0    0  0.00000000000E+00  0.00000000000E+00  0.45593999997E+02  0.45594000000E+02  0.51100000000E-03 0. -1.
         11   -1    0    0    0    0 -0.00000000000E+00 -0.00000000000E+00 -0.45593999997E+02  0.45594000000E+02  0.51100000000E-03 0.  1.
         23    2    1    2    0    0  0.00000000000E+00  0.00000000000E+00  0.00000000000E+00  0.91188000000E+02  0.91188000000E+02 0.  0.
    9900012    2    3    3    0    0 -0.12520854196E+02  0.45877065885E+01  0.41301392956E+02  0.47787263812E+02  0.19999967023E+02 0.  0.
        -12    1    3    3    0    0  0.12520854196E+02 -0.45877065885E+01 -0.41301392956E+02  0.43400736188E+02  0.00000000000E+00 0.  1.
         11    1    4    4    0    0 -0.10450297329E+02  0.11360883945E+02  0.23580218598E+02  0.28183419020E+02  0.51100000000E-03 0. -1.
        -11    1    4    4    0    0 -0.14032718189E+01 -0.39699788301E+01  0.15208596022E+02  0.15780725488E+02  0.51100000000E-03 0.  1.
         12    1    4    4    0    0 -0.66728504876E+00 -0.28031985263E+01  0.25125783366E+01  0.38231193039E+01  0.00000000000E+00 0. -1.
</event>
<event>
 8    1  0.5761606E-011  0.9118800E+02  0.7816164E-02  0.1184000E+00
        -11   -1    0    0    0    0  0.00000000000E+00  0.00000000000E+00  0.45593999997E+02  0.45594000000E+02  0.51100000000E-03 0. -1.
         11   -1    0    0    0    0 -0.00000000000E+00 -0.00000000000E+00 -0.45593999997E+02  0.45594000000E+02  0.51100000000E-03 0.  1.
         23    2    1    2    0    0  0.00000000000E+00  0.35527136788E-14  0.00000000000E+00  0.91188000000E+02  0.91188000000E+02 0.  0.
    9900012    2    3    3    0    0  0.80414583135E+01  0.18376327069E+02  0.38487249823E+02  0.47787275959E+02  0.20000022408E+02 0.  0.
        -12    1    3    3    0    0 -0.80414583135E+01 -0.18376327069E+02 -0.38487249823E+02  0.43400724041E+02  0.00000000000E+00 0.  1.
         11    1    4    4    0    0  0.58146685730E+01  0.86721315412E+01  0.22990548749E+02  0.25250377584E+02  0.51100000000E-03 0. -1.
        -11    1    4    4    0    0 -0.22190908730E+01  0.10031266481E+02  0.56425618946E+01  0.11721312917E+02  0.51100000000E-03 0.  1.
        -12    1    4    4    0    0  0.44458806135E+01 -0.32707095295E+00  0.98541391789E+01  0.10815585458E+02  0.00000000000E+00 0.  1.
</event>
<event>
 8    1  0.5331800E-011  0.9118800E+02  0.7816164E-02  0.1184000E+00
        -11   -1    0    0    0    0  0.00000000000E+00  0.00000000000E+00  0.45593999997E+02  0.45594000000E+02  0.51100000000E-03 0. -1.
         11   -1    0    0    0    0 -0.00000000000E+00 -0.00000000000E+00 -0.45593999997E+02  0.45594000000E+02  0.51100000000E-03 0.  1.
         23    2    1    2    0    0  0.00000000000E+00  0.00000000000E+00 -0.35527136788E-14  0.91188000000E+02  0.91188000000E+02 0.  0.
    9900012    2    3    3    0    0  0.16524074059E+02 -0.27451825737E+02 -0.29274150256E+02  0.47787266907E+02  0.19999981134E+02 0.  0.
         12    1    3    3    0    0 -0.16524074059E+02  0.27451825737E+02  0.29274150256E+02  0.43400733093E+02  0.00000000000E+00 0. -1.
         11    1    4    4    0    0  0.10970669319E+02 -0.22106859407E+02 -0.25985055632E+02  0.35837019053E+02  0.51100000000E-03 0. -1.
        -11    1    4    4    0    0  0.72567877281E+01 -0.62121650800E+01 -0.24436361528E+01  0.98601886909E+01  0.51100000000E-03 0.  1.
         12    1    4    4    0    0 -0.17033829880E+01  0.86719874989E+00 -0.84545847153E+00  0.20900591625E+01  0.00000000000E+00 0. -1.
</event>
<event>
 8    1  0.5331800E-011  0.9118800E+02  0.7816164E-02  0.1184000E+00
        -11   -1    0    0    0    0  0.00000000000E+00  0.00000000000E+00  0.45593999997E+02  0.45594000000E+02  0.51100000000E-03 0. -1.
         11   -1    0    0    0    0 -0.00000000000E+00 -0.00000000000E+00 -0.45593999997E+02  0.45594000000E+02  0.51100000000E-03 0.  1.
         23    2    1    2    0    0  0.00000000000E+00  0.00000000000E+00 -0.35527136788E-14  0.91188000000E+02  0.91188000000E+02 0.  0.
    9900012    2    3    3    0    0 -0.27419272931E+02 -0.16703644613E+02 -0.29202660114E+02  0.47787266952E+02  0.19999981339E+02 0.  0.
         12    1    3    3    0    0  0.27419272931E+02  0.16703644613E+02  0.29202660114E+02  0.43400733048E+02  0.00000000000E+00 0. -1.
         11    1    4    4    0    0 -0.10719541148E+02 -0.16238048491E+02 -0.90014172696E+01  0.21438476959E+02  0.51100000000E-03 0. -1.
        -11    1    4    4    0    0 -0.14577272845E+02 -0.10640989287E+01 -0.18417804290E+02  0.23512649899E+02  0.51100000000E-03 0.  1.
         12    1    4    4    0    0 -0.21224589381E+01  0.59850280684E+00 -0.17834385544E+01  0.28361400937E+01  0.00000000000E+00 0. -1.
</event>
<event>
 8    1  0.5331800E-011  0.9118800E+02  0.7816164E-02  0.1184000E+00
        -11   -1    0    0    0    0  0.00000000000E+00  0.00000000000E+00  0.45593999997E+02  0.45594000000E+02  0.51100000000E-03 0. -1.
         11   -1    0    0    0    0 -0.00000000000E+00 -0.00000000000E+00 -0.45593999997E+02  0.45594000000E+02  0.51100000000E-03 0.  1.
         23    2    1    2    0    0  0.00000000000E+00  0.55511151231E-15  0.00000000000E+00  0.91188000000E+02  0.91188000000E+02 0.  0.
    9900012    2    3    3    0    0 -0.15839381727E+02 -0.61419456599E+00  0.40402476105E+02  0.47787270468E+02  0.19999997373E+02 0.  0.
        -12    1    3    3    0    0  0.15839381727E+02  0.61419456599E+00 -0.40402476105E+02  0.43400729532E+02  0.00000000000E+00 0.  1.
         11    1    4    4    0    0 -0.51032570383E+01 -0.95095477886E+01  0.17542905503E+02  0.20596802307E+02  0.51100000000E-03 0.  1.
        -11    1    4    4    0    0 -0.88309097522E+01  0.75156930686E+01  0.21615178033E+02  0.24529299440E+02  0.51100000000E-03 0. -1.
        -12    1    4    4    0    0 -0.19052149365E+01  0.13796601540E+01  0.12443925688E+01  0.26611687206E+01  0.00000000000E+00 0.  1.
</event>
<event>
 8    1  0.5331800E-011  0.9118800E+02  0.7816164E-02  0.1184000E+00
        -11   -1    0    0    0    0  0.00000000000E+00  0.00000000000E+00  0.45593999997E+02  0.45594000000E+02  0.51100000000E-03 0.  1.
         11   -1    0    0    0    0 -0.00000000000E+00 -0.00000000000E+00 -0.45593999997E+02  0.45594000000E+02  0.51100000000E-03 0. -1.
         23    2    1    2    0    0 -0.71054273576E-14  0.00000000000E+00  0.17763568394E-14  0.91188000000E+02  0.91188000000E+02 0.  0.
    9900012    2    3    3    0    0 -0.37826530954E+02 -0.16736231234E+02 -0.13140606834E+02  0.47787269270E+02  0.19999991911E+02 0.  0.
         12    1    3    3    0    0  0.37826530954E+02  0.16736231234E+02  0.13140606834E+02  0.43400730730E+02  0.00000000000E+00 0. -1.
         11    1    4    4    0    0 -0.73847592812E+01 -0.18748329289E+01 -0.10445884979E+02  0.12929276136E+02  0.51100000000E-03 0. -1.
        -11    1    4    4    0    0 -0.29608272409E+02 -0.13558020416E+02 -0.40313907849E+01  0.32813439694E+02  0.51100000000E-03 0.  1.
         12    1    4    4    0    0 -0.83349926344E+00 -0.13033778892E+01  0.13366689289E+01  0.20445534402E+01  0.00000000000E+00 0. -1.
</event>
<event>
 8    1  0.5331800E-011  0.9118800E+02  0.7816164E-02  0.1184000E+00
        -11   -1    0    0    0    0  0.00000000000E+00  0.00000000000E+00  0.45593999997E+02  0.45594000000E+02  0.51100000000E-03 0. -1.
         11   -1    0    0    0    0 -0.00000000000E+00 -0.00000000000E+00 -0.45593999997E+02  0.45594000000E+02  0.51100000000E-03 0.  1.
         23    2    1    2    0    0  0.00000000000E+00 -0.17763568394E-14 -0.71054273576E-14  0.91188000000E+02  0.91188000000E+02 0.  0.
    9900012    2    3    3    0    0 -0.16051532543E+02 -0.87364185332E+01 -0.39365546307E+02  0.47787274870E+02  0.20000017440E+02 0.  0.
         12    1    3    3    0    0  0.16051532543E+02  0.87364185332E+01  0.39365546307E+02  0.43400725130E+02  0.00000000000E+00 0. -1.
         11    1    4    4    0    0 -0.13165567139E+02 -0.93216268046E+01 -0.35756926261E+02  0.39227320330E+02  0.51100000000E-03 0.  1.
        -11    1    4    4    0    0  0.80421014513E+00 -0.20183792349E+01  0.73527267030E+00  0.22937381835E+01  0.51100000000E-03 0. -1.
         12    1    4    4    0    0 -0.36901755493E+01  0.26035875063E+01 -0.43438927167E+01  0.62662163561E+01  0.00000000000E+00 0. -1.
</event>
<event>
 8    1  0.5331800E-011  0.9118800E+02  0.7816164E-02  0.1184000E+00
        -11   -1    0    0    0    0  0.00000000000E+00  0.00000000000E+00  0.45593999997E+02  0.45594000000E+02  0.51100000000E-03 0. -1.
         11   -1    0    0    0    0 -0.00000000000E+00 -0.00000000000E+00 -0.45593999997E+02  0.45594000000E+02  0.51100000000E-03 0.  1.
         23    2    1    2    0    0  0.22204460493E-15  0.00000000000E+00 -0.35527136788E-14  0.91188000000E+02  0.91188000000E+02 0.  0.
    9900012    2    3    3    0    0 -0.63063667371E+00 -0.33407926987E+02  0.27697217783E+02  0.47787272343E+02  0.20000005922E+02 0.  0.
        -12    1    3    3    0    0  0.63063667371E+00  0.33407926987E+02 -0.27697217783E+02  0.43400727657E+02  0.00000000000E+00 0.  1.
         11    1    4    4    0    0  0.37662880428E+01 -0.29630827623E+02  0.23860355614E+02  0.38229405456E+02  0.51100000000E-03 0. -1.
        -11    1    4    4    0    0 -0.10094024006E+01  0.18912383044E+01  0.11032149350E+01  0.24109664004E+01  0.51100000000E-03 0.  1.
         12    1    4    4    0    0 -0.33875223159E+01 -0.56683376688E+01  0.27336472337E+01  0.71469004867E+01  0.00000000000E+00 0. -1.
</event>
<event>
 8    1  0.5331800E-011  0.9118800E+02  0.7816164E-02  0.1184000E+00
        -11   -1    0    0    0    0  0.00000000000E+00  0.00000000000E+00  0.45593999997E+02  0.45594000000E+02  0.51100000000E-03 0.  1.
         11   -1    0    0    0    0 -0.00000000000E+00 -0.00000000000E+00 -0.45593999997E+02  0.45594000000E+02  0.51100000000E-03 0. -1.
         23    2    1    2    0    0  0.00000000000E+00  0.17763568394E-14 -0.35527136788E-14  0.91188000000E+02  0.91188000000E+02 0.  0.
    9900012    2    3    3    0    0 -0.36461356660E+02  0.13830680348E+02  0.19050019946E+02  0.47787291385E+02  0.20000092739E+02 0.  0.
        -12    1    3    3    0    0  0.36461356660E+02 -0.13830680348E+02 -0.19050019946E+02  0.43400708615E+02  0.00000000000E+00 0.  1.
         11    1    4    4    0    0 -0.23918470118E+02  0.64561380765E+01  0.18611606811E+02  0.30986559021E+02  0.51100000000E-03 0. -1.
        -11    1    4    4    0    0 -0.54683194406E+01  0.32292904306E+01  0.43683887551E+01  0.77080253481E+01  0.51100000000E-03 0.  1.
         12    1    4    4    0    0 -0.70745671016E+01  0.41452518406E+01 -0.39299756199E+01  0.90927070155E+01  0.00000000000E+00 0. -1.
</event>
<event>
 8    1  0.5331800E-011  0.9118800E+02  0.7816164E-02  0.1184000E+00
        -11   -1    0    0    0    0  0.00000000000E+00  0.00000000000E+00  0.45593999997E+02  0.45594000000E+02  0.51100000000E-03 0. -1.
         11   -1    0    0    0    0 -0.00000000000E+00 -0.00000000000E+00 -0.45593999997E+02  0.45594000000E+02  0.51100000000E-03 0.  1.
         23    2    1    2    0    0 -0.35527136788E-14 -0.35527136788E-14  0.00000000000E+00  0.91188000000E+02  0.91188000000E+02 0.  0.
    9900012    2    3    3    0    0  0.17371233517E+02 -0.22923524307E+02 -0.32501939216E+02  0.47787265290E+02  0.19999973764E+02 0.  0.
         12    1    3    3    0    0 -0.17371233517E+02  0.22923524307E+02  0.32501939216E+02  0.43400734710E+02  0.00000000000E+00 0. -1.
         11    1    4    4    0    0  0.71509851900E+00 -0.11618649788E+02 -0.14720009502E+02  0.18766541205E+02  0.51100000000E-03 0. -1.
        -11    1    4    4    0    0  0.14195013861E+02 -0.68310988005E+01 -0.17987529998E+02  0.23910532512E+02  0.51100000000E-03 0.  1.
         12    1    4    4    0    0  0.24611211375E+01 -0.44737757190E+01  0.20560028492E+00  0.51101915732E+01  0.00000000000E+00 0. -1.
</event>
<event>
 8    1  0.5331800E-011  0.9118800E+02  0.7816164E-02  0.1184000E+00
        -11   -1    0    0    0    0  0.00000000000E+00  0.00000000000E+00  0.45593999997E+02  0.45594000000E+02  0.51100000000E-03 0.  1.
         11   -1    0    0    0    0 -0.00000000000E+00 -0.00000000000E+00 -0.45593999997E+02  0.45594000000E+02  0.51100000000E-03 0. -1.
         23    2    1    2    0    0  0.00000000000E+00  0.00000000000E+00  0.00000000000E+00  0.91188000000E+02  0.91188000000E+02 0.  0.
    9900012    2    3    3    0    0  0.31140880355E+02 -0.26388556555E+02 -0.14748320853E+02  0.47787270579E+02  0.19999997877E+02 0.  0.
        -12    1    3    3    0    0 -0.31140880355E+02  0.26388556555E+02  0.14748320853E+02  0.43400729421E+02  0.00000000000E+00 0.  1.
         11    1    4    4    0    0  0.88673699984E+01 -0.14135897830E+02 -0.10147906553E+02  0.19530331944E+02  0.51100000000E-03 0. -1.
        -11    1    4    4    0    0  0.98350119913E+00  0.86104841341E+00 -0.29160144270E+01  0.31955937443E+01  0.51100000000E-03 0.  1.
         12    1    4    4    0    0  0.21290009157E+02 -0.13113707138E+02 -0.16843998730E+01  0.25061344891E+02  0.00000000000E+00 0. -1.
</event>
<event>
 8    1  0.5331800E-011  0.9118800E+02  0.7816164E-02  0.1184000E+00
        -11   -1    0    0    0    0  0.00000000000E+00  0.00000000000E+00  0.45593999997E+02  0.45594000000E+02  0.51100000000E-03 0. -1.
         11   -1    0    0    0    0 -0.00000000000E+00 -0.00000000000E+00 -0.45593999997E+02  0.45594000000E+02  0.51100000000E-03 0.  1.
         23    2    1    2    0    0  0.00000000000E+00 -0.17763568394E-14  0.00000000000E+00  0.91188000000E+02  0.91188000000E+02 0.  0.
    9900012    2    3    3    0    0  0.30979694392E+02  0.10035809183E+02 -0.28690849024E+02  0.47787265579E+02  0.19999975082E+02 0.  0.
         12    1    3    3    0    0 -0.30979694392E+02 -0.10035809183E+02  0.28690849024E+02  0.43400734421E+02  0.00000000000E+00 0. -1.
         11    1    4    4    0    0  0.10885673772E+01 -0.28625812054E+01 -0.56824302936E+01  0.64551812054E+01  0.51100000000E-03 0. -1.
        -11    1    4    4    0    0  0.24409056624E+02  0.59551614808E+01 -0.14256726191E+02  0.28888063893E+02  0.51100000000E-03 0.  1.
         12    1    4    4    0    0  0.54820703907E+01  0.69432289075E+01 -0.87516925386E+01  0.12444020481E+02  0.00000000000E+00 0. -1.
</event>
<event>
 8    1  0.5331800E-011  0.9118800E+02  0.7816164E-02  0.1184000E+00
        -11   -1    0    0    0    0  0.00000000000E+00  0.00000000000E+00  0.45593999997E+02  0.45594000000E+02  0.51100000000E-03 0. -1.
         11   -1    0    0    0    0 -0.00000000000E+00 -0.00000000000E+00 -0.45593999997E+02  0.45594000000E+02  0.51100000000E-03 0.  1.
         23    2    1    2    0    0  0.00000000000E+00 -0.88817841970E-15  0.71054273576E-14  0.91188000000E+02  0.91188000000E+02 0.  0.
    9900012    2    3    3    0    0 -0.36141311902E+01 -0.74452052387E+01  0.42604346814E+02  0.47787269675E+02  0.19999993755E+02 0.  0.
        -12    1    3    3    0    0  0.36141311902E+01  0.74452052387E+01 -0.42604346814E+02  0.43400730325E+02  0.00000000000E+00 0.  1.
         11    1    4    4    0    0  0.37741656871E+01 -0.83370194414E+01  0.19260037671E+02  0.21323678649E+02  0.51100000000E-03 0. -1.
        -11    1    4    4    0    0 -0.12905836545E+01  0.49401867106E+01  0.10639508756E+02  0.11801279496E+02  0.51100000000E-03 0.  1.
         12    1    4    4    0    0 -0.60977132228E+01 -0.40483725079E+01  0.12704800388E+02  0.14662311530E+02  0.00000000000E+00 0. -1.
</event>
<event>
 8    1  0.5331800E-011  0.9118800E+02  0.7816164E-02  0.1184000E+00
        -11   -1    0    0    0    0  0.00000000000E+00  0.00000000000E+00  0.45593999997E+02  0.45594000000E+02  0.51100000000E-03 0. -1.
         11   -1    0    0    0    0 -0.00000000000E+00 -0.00000000000E+00 -0.45593999997E+02  0.45594000000E+02  0.51100000000E-03 0.  1.
         23    2    1    2    0    0  0.00000000000E+00  0.00000000000E+00  0.00000000000E+00  0.91188000000E+02  0.91188000000E+02 0.  0.
    9900012    2    3    3    0    0  0.97205462882E+01 -0.30004791016E+01  0.42191621653E+02  0.47787253086E+02  0.19999918119E+02 0.  0.
        -12    1    3    3    0    0 -0.97205462882E+01  0.30004791016E+01 -0.42191621653E+02  0.43400746914E+02  0.00000000000E+00 0.  1.
         11    1    4    4    0    0  0.11715672112E+02 -0.32027351381E+01  0.13727557661E+02  0.18329220524E+02  0.51100000000E-03 0. -1.
        -11    1    4    4    0    0 -0.40951889910E+01 -0.13334982441E+01  0.23079062212E+02  0.23477476510E+02  0.51100000000E-03 0.  1.
         12    1    4    4    0    0  0.21000631671E+01  0.15357542806E+01  0.53850017798E+01  0.59805560515E+01  0.00000000000E+00 0. -1.
</event>
<event>
 8    1  0.5331800E-011  0.9118800E+02  0.7816164E-02  0.1184000E+00
        -11   -1    0    0    0    0  0.00000000000E+00  0.00000000000E+00  0.45593999997E+02  0.45594000000E+02  0.51100000000E-03 0.  1.
         11   -1    0    0    0    0 -0.00000000000E+00 -0.00000000000E+00 -0.45593999997E+02  0.45594000000E+02  0.51100000000E-03 0. -1.
         23    2    1    2    0    0  0.00000000000E+00  0.44408920985E-15 -0.71054273576E-14  0.91188000000E+02  0.91188000000E+02 0.  0.
    9900012    2    3    3    0    0 -0.27692037202E+02 -0.27490310569E+01  0.33304911331E+02  0.47787271724E+02  0.20000003098E+02 0.  0.
        -12    1    3    3    0    0  0.27692037202E+02  0.27490310569E+01 -0.33304911331E+02  0.43400728276E+02  0.00000000000E+00 0.  1.
         11    1    4    4    0    0 -0.21940215131E+02 -0.54731186493E+01  0.27075710709E+02  0.35276368554E+02  0.51100000000E-03 0. -1.
        -11    1    4    4    0    0 -0.18657153629E+01  0.52362216282E+01  0.55120942317E+01  0.78282880526E+01  0.51100000000E-03 0.  1.
        -12    1    4    4    0    0 -0.38861067077E+01 -0.25121340358E+01  0.71710639066E+00  0.46826151169E+01  0.00000000000E+00 0.  1.
</event>
<event>
 8    1  0.5331800E-011  0.9118800E+02  0.7816164E-02  0.1184000E+00
        -11   -1    0    0    0    0  0.00000000000E+00  0.00000000000E+00  0.45593999997E+02  0.45594000000E+02  0.51100000000E-03 0.  1.
         11   -1    0    0    0    0 -0.00000000000E+00 -0.00000000000E+00 -0.45593999997E+02  0.45594000000E+02  0.51100000000E-03 0. -1.
         23    2    1    2    0    0  0.00000000000E+00 -0.88817841970E-15  0.00000000000E+00  0.91188000000E+02  0.91188000000E+02 0.  0.
    9900012    2    3    3    0    0 -0.42945341658E+02 -0.42460732491E+01  0.46143122759E+01  0.47787269754E+02  0.19999994115E+02 0.  0.
        -12    1    3    3    0    0  0.42945341658E+02  0.42460732491E+01 -0.46143122759E+01  0.43400730246E+02  0.00000000000E+00 0.  1.
         11    1    4    4    0    0 -0.32950609128E+02  0.27457729707E+01  0.49242187920E+01  0.33429475648E+02  0.51100000000E-03 0. -1.
        -11    1    4    4    0    0  0.10579052819E+01 -0.12837884935E+01  0.84299927746E+00  0.18649194418E+01  0.51100000000E-03 0.  1.
        -12    1    4    4    0    0 -0.11052637811E+02 -0.57080577263E+01 -0.11529057936E+01  0.12492874664E+02  0.00000000000E+00 0.  1.
</event>
<event>
 8    1  0.5331800E-011  0.9118800E+02  0.7816164E-02  0.1184000E+00
        -11   -1    0    0    0    0  0.00000000000E+00  0.00000000000E+00  0.45593999997E+02  0.45594000000E+02  0.51100000000E-03 0. -1.
         11   -1    0    0    0    0 -0.00000000000E+00 -0.00000000000E+00 -0.45593999997E+02  0.45594000000E+02  0.51100000000E-03 0.  1.
         23    2    1    2    0    0  0.00000000000E+00  0.00000000000E+00 -0.35527136788E-14  0.91188000000E+02  0.91188000000E+02 0.  0.
    9900012    2    3    3    0    0 -0.35131107083E+02  0.16504138893E+02 -0.19417571446E+02  0.47787269979E+02  0.19999995143E+02 0.  0.
         12    1    3    3    0    0  0.35131107083E+02 -0.16504138893E+02  0.19417571446E+02  0.43400730021E+02  0.00000000000E+00 0. -1.
         11    1    4    4    0    0 -0.84433329260E+01  0.15520901680E+01  0.24897879877E+01  0.89385624836E+01  0.51100000000E-03 0. -1.
        -11    1    4    4    0    0 -0.30714347420E+01  0.44288403695E+01 -0.75203595604E+00  0.54418651888E+01  0.51100000000E-03 0.  1.
        -12    1    4    4    0    0 -0.23616339415E+02  0.10523208355E+02 -0.21155323478E+02  0.33406842307E+02  0.00000000000E+00 0.  1.
</event>
<event>
 8    1  0.5331800E-011  0.9118800E+02  0.7816164E-02  0.1184000E+00
        -11   -1    0    0    0    0  0.00000000000E+00  0.00000000000E+00  0.45593999997E+02  0.45594000000E+02  0.51100000000E-03 0. -1.
         11   -1    0    0    0    0 -0.00000000000E+00 -0.00000000000E+00 -0.45593999997E+02  0.45594000000E+02  0.51100000000E-03 0.  1.
         23    2    1    2    0    0  0.35527136788E-14  0.00000000000E+00 -0.35527136788E-14  0.91188000000E+02  0.91188000000E+02 0.  0.
    9900012    2    3    3    0    0 -0.17613978829E+02 -0.28487375390E+02  0.27601456922E+02  0.47787271538E+02  0.20000002250E+02 0.  0.
        -12    1    3    3    0    0  0.17613978829E+02  0.28487375390E+02 -0.27601456922E+02  0.43400728462E+02  0.00000000000E+00 0.  1.
         11    1    4    4    0    0 -0.40964535680E+01 -0.95193799318E+01  0.11584503637E+02  0.15543495453E+02  0.51100000000E-03 0. -1.
        -11    1    4    4    0    0 -0.60663978625E+01  0.25891400349E+00 -0.99195866510E-01  0.60727308164E+01  0.51100000000E-03 0.  1.
        -12    1    4    4    0    0 -0.74511273983E+01 -0.19226909462E+02  0.16116149152E+02  0.26171045269E+02  0.00000000000E+00 0.  1.
</event>
<event>
 8    1  0.5331800E-011  0.9118800E+02  0.7816164E-02  0.1184000E+00
        -11   -1    0    0    0    0  0.00000000000E+00  0.00000000000E+00  0.45593999997E+02  0.45594000000E+02  0.51100000000E-03 0. -1.
         11   -1    0    0    0    0 -0.00000000000E+00 -0.00000000000E+00 -0.45593999997E+02  0.45594000000E+02  0.51100000000E-03 0.  1.
         23    2    1    2    0    0  0.00000000000E+00 -0.88817841970E-15  0.00000000000E+00  0.91188000000E+02  0.91188000000E+02 0.  0.
    9900012    2    3    3    0    0 -0.41691511097E+02 -0.41198138995E+01  0.11334355153E+02  0.47787279143E+02  0.20000036926E+02 0.  0.
        -12    1    3    3    0    0  0.41691511097E+02  0.41198138995E+01 -0.11334355153E+02  0.43400720857E+02  0.00000000000E+00 0.  1.
         11    1    4    4    0    0 -0.25774157424E+02 -0.55932979091E+01  0.48517839175E+01  0.26816636252E+02  0.51100000000E-03 0. -1.
        -11    1    4    4    0    0 -0.82106111284E+01  0.67127025922E+01  0.39085700997E+01  0.11302717889E+02  0.51100000000E-03 0.  1.
        -12    1    4    4    0    0 -0.77067425450E+01 -0.52392185826E+01  0.25740011360E+01  0.96679250027E+01  0.00000000000E+00 0.  1.
</event>
<event>
 8    1  0.5331800E-011  0.9118800E+02  0.7816164E-02  0.1184000E+00
        -11   -1    0    0    0    0  0.00000000000E+00  0.00000000000E+00  0.45593999997E+02  0.45594000000E+02  0.51100000000E-03 0. -1.
         11   -1    0    0    0    0 -0.00000000000E+00 -0.00000000000E+00 -0.45593999997E+02  0.45594000000E+02  0.51100000000E-03 0.  1.
         23    2    1    2    0    0  0.00000000000E+00 -0.35527136788E-14 -0.35527136788E-14  0.91188000000E+02  0.91188000000E+02 0.  0.
    9900012    2    3    3    0    0  0.17499037112E+02  0.31801813042E+02  0.23791833331E+02  0.47787274824E+02  0.20000017231E+02 0.  0.
        -12    1    3    3    0    0 -0.17499037112E+02 -0.31801813042E+02 -0.23791833331E+02  0.43400725176E+02  0.00000000000E+00 0.  1.
         11    1    4    4    0    0  0.34381020975E+01  0.10576670860E+02  0.82466767579E+01  0.13845367107E+02  0.51100000000E-03 0. -1.
        -11    1    4    4    0    0 -0.34703797623E+01  0.17351403292E+01  0.28552427782E+01  0.48173290567E+01  0.51100000000E-03 0.  1.
        -12    1    4    4    0    0  0.17531314777E+02  0.19490001852E+02  0.12689913795E+02  0.29124578660E+02  0.00000000000E+00 0.  1.
</event>
<event>
 8    1  0.5331800E-011  0.9118800E+02  0.7816164E-02  0.1184000E+00
        -11   -1    0    0    0    0  0.00000000000E+00  0.00000000000E+00  0.45593999997E+02  0.45594000000E+02  0.51100000000E-03 0. -1.
         11   -1    0    0    0    0 -0.00000000000E+00 -0.00000000000E+00 -0.45593999997E+02  0.45594000000E+02  0.51100000000E-03 0.  1.
         23    2    1    2    0    0  0.00000000000E+00  0.17763568394E-14  0.00000000000E+00  0.91188000000E+02  0.91188000000E+02 0.  0.
    9900012    2    3    3    0    0 -0.42240589522E+01  0.15070020268E+02 -0.40480554569E+02  0.47787268634E+02  0.19999989008E+02 0.  0.
         12    1    3    3    0    0  0.42240589522E+01 -0.15070020268E+02  0.40480554569E+02  0.43400731366E+02  0.00000000000E+00 0. -1.
         11    1    4    4    0    0 -0.59336158332E+01 -0.10039390503E+01 -0.54748346504E+01  0.81356932822E+01  0.51100000000E-03 0. -1.
        -11    1    4    4    0    0  0.38364055314E+01  0.13293665284E+02 -0.20520236911E+02  0.24749134677E+02  0.51100000000E-03 0.  1.
         12    1    4    4    0    0 -0.21268486504E+01  0.27802940344E+01 -0.14485483007E+02  0.14902440675E+02  0.00000000000E+00 0. -1.
</event>
<event>
 8    1  0.5331800E-011  0.9118800E+02  0.7816164E-02  0.1184000E+00
        -11   -1    0    0    0    0  0.00000000000E+00  0.00000000000E+00  0.45593999997E+02  0.45594000000E+02  0.51100000000E-03 0. -1.
         11   -1    0    0    0    0 -0.00000000000E+00 -0.00000000000E+00 -0.45593999997E+02  0.45594000000E+02  0.51100000000E-03 0.  1.
         23    2    1    2    0    0  0.00000000000E+00 -0.35527136788E-14  0.71054273576E-14  0.91188000000E+02  0.91188000000E+02 0.  0.
    9900012    2    3    3    0    0  0.68200653554E+01  0.24469802603E+02  0.35190043876E+02  0.47787265918E+02  0.19999976625E+02 0.  0.
        -12    1    3    3    0    0 -0.68200653554E+01 -0.24469802603E+02 -0.35190043876E+02  0.43400734082E+02  0.00000000000E+00 0.  1.
         11    1    4    4    0    0  0.17354096784E+01  0.24742418089E+01 -0.17539644538E+01  0.34942682849E+01  0.51100000000E-03 0.  1.
        -11    1    4    4    0    0  0.58978667412E-01  0.12394283264E+01 -0.37436400677E+00  0.12960747394E+01  0.51100000000E-03 0. -1.
         12    1    4    4    0    0  0.50256770096E+01  0.20756132468E+02  0.37318372337E+02  0.42996922893E+02  0.00000000000E+00 0. -1.
</event>
<event>
 8    1  0.5331800E-011  0.9118800E+02  0.7816164E-02  0.1184000E+00
        -11   -1    0    0    0    0  0.00000000000E+00  0.00000000000E+00  0.45593999997E+02  0.45594000000E+02  0.51100000000E-03 0. -1.
         11   -1    0    0    0    0 -0.00000000000E+00 -0.00000000000E+00 -0.45593999997E+02  0.45594000000E+02  0.51100000000E-03 0.  1.
         23    2    1    2    0    0 -0.17763568394E-14  0.00000000000E+00 -0.71054273576E-14  0.91188000000E+02  0.91188000000E+02 0.  0.
    9900012    2    3    3    0    0 -0.12921913013E+02  0.15313413837E+02  0.38498660830E+02  0.47787269995E+02  0.19999995215E+02 0.  0.
        -12    1    3    3    0    0  0.12921913013E+02 -0.15313413837E+02 -0.38498660830E+02  0.43400730005E+02  0.00000000000E+00 0.  1.
         11    1    4    4    0    0  0.62732563225E+00  0.67184247971E+01  0.26816915454E+01  0.72610081262E+01  0.51100000000E-03 0. -1.
        -11    1    4    4    0    0 -0.56961839509E+01 -0.17237334313E+01  0.12559196701E+02  0.13897884392E+02  0.51100000000E-03 0.  1.
         12    1    4    4    0    0 -0.78530546942E+01  0.10318722471E+02  0.23257772584E+02  0.26628377477E+02  0.00000000000E+00 0. -1.
</event>
<event>
 8    1  0.5331800E-011  0.9118800E+02  0.7816164E-02  0.1184000E+00
        -11   -1    0    0    0    0  0.00000000000E+00  0.00000000000E+00  0.45593999997E+02  0.45594000000E+02  0.51100000000E-03 0. -1.
         11   -1    0    0    0    0 -0.00000000000E+00 -0.00000000000E+00 -0.45593999997E+02  0.45594000000E+02  0.51100000000E-03 0.  1.
         23    2    1    2    0    0  0.00000000000E+00  0.00000000000E+00  0.88817841970E-15  0.91188000000E+02  0.91188000000E+02 0.  0.
    9900012    2    3    3    0    0 -0.25404555213E+02 -0.34637096612E+02  0.62050935875E+01  0.47787273351E+02  0.20000010515E+02 0.  0.
        -12    1    3    3    0    0  0.25404555213E+02  0.34637096612E+02 -0.62050935875E+01  0.43400726649E+02  0.00000000000E+00 0.  1.
         11    1    4    4    0    0 -0.10813622376E+02 -0.19026106512E+02  0.12205068800E+02  0.25057750549E+02  0.51100000000E-03 0. -1.
        -11    1    4    4    0    0 -0.12819203937E+02 -0.15406498637E+02 -0.60801773189E+01  0.20944229427E+02  0.51100000000E-03 0.  1.
         12    1    4    4    0    0 -0.17717289005E+01 -0.20449146235E+00  0.80202106821E-01  0.17852933744E+01  0.00000000000E+00 0. -1.
</event>
<event>
 8    1  0.5331800E-011  0.9118800E+02  0.7816164E-02  0.1184000E+00
        -11   -1    0    0    0    0  0.00000000000E+00  0.00000000000E+00  0.45593999997E+02  0.45594000000E+02  0.51100000000E-03 0.  1.
         11   -1    0    0    0    0 -0.00000000000E+00 -0.00000000000E+00 -0.45593999997E+02  0.45594000000E+02  0.51100000000E-03 0. -1.
         23    2    1    2    0    0  0.00000000000E+00  0.00000000000E+00 -0.35527136788E-14  0.91188000000E+02  0.91188000000E+02 0.  0.
    9900012    2    3    3    0    0  0.36165250724E+02  0.11767129017E+02 -0.20910076294E+02  0.47787285998E+02  0.20000068180E+02 0.  0.
         12    1    3    3    0    0 -0.36165250724E+02 -0.11767129017E+02  0.20910076294E+02  0.43400714002E+02  0.00000000000E+00 0. -1.
         11    1    4    4    0    0  0.12966049613E+02  0.83282983206E+01 -0.15844609897E+02  0.22102729662E+02  0.51100000000E-03 0. -1.
        -11    1    4    4    0    0  0.15236383329E+02  0.48756851257E+01 -0.68439667804E+01  0.17399987470E+02  0.51100000000E-03 0.  1.
         12    1    4    4    0    0  0.79628177824E+01 -0.14368544296E+01  0.17785003834E+01  0.82845688663E+01  0.00000000000E+00 0. -1.
</event>
<event>
 8    1  0.5331800E-011  0.9118800E+02  0.7816164E-02  0.1184000E+00
        -11   -1    0    0    0    0  0.00000000000E+00  0.00000000000E+00  0.45593999997E+02  0.45594000000E+02  0.51100000000E-03 0. -1.
         11   -1    0    0    0    0 -0.00000000000E+00 -0.00000000000E+00 -0.45593999997E+02  0.45594000000E+02  0.51100000000E-03 0.  1.
         23    2    1    2    0    0 -0.71054273576E-14  0.44408920985E-15 -0.44408920985E-15  0.91188000000E+02  0.91188000000E+02 0.  0.
    9900012    2    3    3    0    0  0.43241115888E+02  0.23537962343E+01  0.28789951559E+01  0.47787273358E+02  0.20000010547E+02 0.  0.
        -12    1    3    3    0    0 -0.43241115888E+02 -0.23537962343E+01 -0.28789951559E+01  0.43400726642E+02  0.00000000000E+00 0.  1.
         11    1    4    4    0    0  0.31711230259E+02  0.36770149674E+01 -0.56911777952E+01  0.32427026823E+02  0.51100000000E-03 0. -1.
        -11    1    4    4    0    0  0.26107429585E+01 -0.20099396632E+01  0.43828732494E+01  0.54831938163E+01  0.51100000000E-03 0.  1.
        -12    1    4    4    0    0  0.89191426708E+01  0.68672093016E+00  0.41872997017E+01  0.98770527188E+01  0.00000000000E+00 0.  1.
</event>
<event>
 8    1  0.5331800E-011  0.9118800E+02  0.7816164E-02  0.1184000E+00
        -11   -1    0    0    0    0  0.00000000000E+00  0.00000000000E+00  0.45593999997E+02  0.45594000000E+02  0.51100000000E-03 0. -1.
         11   -1    0    0    0    0 -0.00000000000E+00 -0.00000000000E+00 -0.45593999997E+02  0.45594000000E+02  0.51100000000E-03 0.  1.
         23    2    1    2    0    0 -0.88817841970E-15  0.35527136788E-14  0.71054273576E-14  0.91188000000E+02  0.91188000000E+02 0.  0.
    9900012    2    3    3    0    0  0.73240000878E+01  0.15834498100E+02  0.39739776349E+02  0.47787284203E+02  0.20000059997E+02 0.  0.
        -12    1    3    3    0    0 -0.73240000878E+01 -0.15834498100E+02 -0.39739776349E+02  0.43400715797E+02  0.00000000000E+00 0.  1.
         11    1    4    4    0    0 -0.31546346535E+01  0.11259876958E+02  0.12476136547E+02  0.17099430760E+02  0.51100000000E-03 0. -1.
        -11    1    4    4    0    0  0.11361675893E+02  0.22467496201E+01  0.22968262970E+02  0.25723076548E+02  0.51100000000E-03 0.  1.
        -12    1    4    4    0    0 -0.88304115183E+00  0.23278715220E+01  0.42953768320E+01  0.49647768960E+01  0.00000000000E+00 0.  1.
</event>
<event>
 8    1  0.5331800E-011  0.9118800E+02  0.7816164E-02  0.1184000E+00
        -11   -1    0    0    0    0  0.00000000000E+00  0.00000000000E+00  0.45593999997E+02  0.45594000000E+02  0.51100000000E-03 0. -1.
         11   -1    0    0    0    0 -0.00000000000E+00 -0.00000000000E+00 -0.45593999997E+02  0.45594000000E+02  0.51100000000E-03 0.  1.
         23    2    1    2    0    0  0.71054273576E-14 -0.17763568394E-14  0.71054273576E-14  0.91188000000E+02  0.91188000000E+02 0.  0.
    9900012    2    3    3    0    0  0.37920456700E+02 -0.10564193963E+02  0.18277305771E+02  0.47787272625E+02  0.20000007206E+02 0.  0.
        -12    1    3    3    0    0 -0.37920456700E+02  0.10564193963E+02 -0.18277305771E+02  0.43400727375E+02  0.00000000000E+00 0.  1.
         11    1    4    4    0    0  0.31268260890E+02 -0.11481935636E+02  0.99977864282E+01  0.34777790596E+02  0.51100000000E-03 0. -1.
        -11    1    4    4    0    0  0.33842447361E+01  0.30028413225E+01  0.81332413248E+00  0.45969190604E+01  0.51100000000E-03 0.  1.
        -12    1    4    4    0    0  0.32679510736E+01 -0.20850996501E+01  0.74661952106E+01  0.84125629681E+01  0.00000000000E+00 0.  1.
</event>
<event>
 8    1  0.5331800E-011  0.9118800E+02  0.7816164E-02  0.1184000E+00
        -11   -1    0    0    0    0  0.00000000000E+00  0.00000000000E+00  0.45593999997E+02  0.45594000000E+02  0.51100000000E-03 0. -1.
         11   -1    0    0    0    0 -0.00000000000E+00 -0.00000000000E+00 -0.45593999997E+02  0.45594000000E+02  0.51100000000E-03 0.  1.
         23    2    1    2    0    0  0.35527136788E-14  0.00000000000E+00 -0.17763568394E-14  0.91188000000E+02  0.91188000000E+02 0.  0.
    9900012    2    3    3    0    0 -0.18265029609E+02 -0.38736011799E+02  0.70379894688E+01  0.47787271751E+02  0.20000003223E+02 0.  0.
        -12    1    3    3    0    0  0.18265029609E+02  0.38736011799E+02 -0.70379894688E+01  0.43400728249E+02  0.00000000000E+00 0.  1.
         11    1    4    4    0    0 -0.14911020564E+02 -0.24279774713E+02  0.19761391196E+01  0.28561357119E+02  0.51100000000E-03 0. -1.
        -11    1    4    4    0    0  0.20531763775E+01  0.91723105616E+00  0.71080148359E+00  0.23584073138E+01  0.51100000000E-03 0.  1.
        -12    1    4    4    0    0 -0.54071854229E+01 -0.15373468142E+02  0.43510488656E+01  0.16867507319E+02  0.00000000000E+00 0.  1.
</event>
<event>
 8    1  0.5331800E-011  0.9118800E+02  0.7816164E-02  0.1184000E+00
        -11   -1    0    0    0    0  0.00000000000E+00  0.00000000000E+00  0.45593999997E+02  0.45594000000E+02  0.51100000000E-03 0. -1.
         11   -1    0    0    0    0 -0.00000000000E+00 -0.00000000000E+00 -0.45593999997E+02  0.45594000000E+02  0.51100000000E-03 0.  1.
         23    2    1    2    0    0  0.00000000000E+00  0.00000000000E+00  0.00000000000E+00  0.91188000000E+02  0.91188000000E+02 0.  0.
    9900012    2    3    3    0    0 -0.42283741519E+01  0.13225304287E+02 -0.41119708727E+02  0.47787328724E+02  0.20000262982E+02 0.  0.
         12    1    3    3    0    0  0.42283741519E+01 -0.13225304287E+02  0.41119708727E+02  0.43400671276E+02  0.00000000000E+00 0. -1.
         11    1    4    4    0    0  0.36231479667E+00  0.17691364944E+01 -0.96567954334E+00  0.20478411045E+01  0.51100000000E-03 0. -1.
        -11    1    4    4    0    0  0.46695717899E+00  0.14626140582E+02 -0.34678009729E+02  0.37639160410E+02  0.51100000000E-03 0.  1.
        -12    1    4    4    0    0 -0.50576461275E+01 -0.31699727892E+01 -0.54760194542E+01  0.81003272093E+01  0.00000000000E+00 0.  1.
</event>
<event>
 8    1 -0.5331800E-011  0.9118800E+02  0.7816164E-02  0.1184000E+00
        -11   -1    0    0    0    0  0.00000000000E+00  0.00000000000E+00  0.45593999997E+02  0.45594000000E+02  0.51100000000E-03 0.  1.
         11   -1    0    0    0    0 -0.00000000000E+00 -0.00000000000E+00 -0.45593999997E+02  0.45594000000E+02  0.51100000000E-03 0. -1.
         23    2    1    2    0    0  0.00000000000E+00  0.00000000000E+00  0.00000000000E+00  0.91188000000E+02  0.91188000000E+02 0.  0.
    9900012    2    3    3    0    0 -0.20108355540E+02 -0.31532866622E+02  0.22021705970E+02  0.47787272198E+02  0.20000005260E+02 0.  0.
        -12    1    3    3    0    0  0.20108355540E+02  0.31532866622E+02 -0.22021705970E+02  0.43400727802E+02  0.00000000000E+00 0.  1.
         11    1    4    4    0    0 -0.81401404101E+01 -0.16528927415E+02  0.17787061875E+01  0.18510297765E+02  0.51100000000E-03 0. -1.
        -11    1    4    4    0    0 -0.80993982284E+01 -0.49266567348E+01  0.53564533398E+01  0.10888700147E+02  0.51100000000E-03 0.  1.
         12    1    4    4    0    0 -0.38688169015E+01 -0.10077282472E+02  0.14886546442E+02  0.18388274286E+02  0.00000000000E+00 0. -1.
</event>
<event>
 8    1  0.5331800E-011  0.9118800E+02  0.7816164E-02  0.1184000E+00
        -11   -1    0    0    0    0  0.00000000000E+00  0.00000000000E+00  0.45593999997E+02  0.45594000000E+02  0.51100000000E-03 0. -1.
         11   -1    0    0    0    0 -0.00000000000E+00 -0.00000000000E+00 -0.45593999997E+02  0.45594000000E+02  0.51100000000E-03 0.  1.
         23    2    1    2    0    0  0.88817841970E-15  0.00000000000E+00  0.00000000000E+00  0.91188000000E+02  0.91188000000E+02 0.  0.
    9900012    2    3    3    0    0  0.61411106189E+01 -0.22519584601E+02  0.36589320359E+02  0.47787270806E+02  0.19999998914E+02 0.  0.
        -12    1    3    3    0    0 -0.61411106189E+01  0.22519584601E+02 -0.36589320359E+02  0.43400729194E+02  0.00000000000E+00 0.  1.
         11    1    4    4    0    0  0.62589285380E+01 -0.72431104472E+01  0.21723796221E+02  0.23739422021E+02  0.51100000000E-03 0. -1.
        -11    1    4    4    0    0 -0.36443172544E+01 -0.61336537217E+01  0.12044293937E+01  0.72355653997E+01  0.51100000000E-03 0.  1.
        -12    1    4    4    0    0  0.35264993353E+01 -0.91428204321E+01  0.13661094744E+02  0.16812283385E+02  0.00000000000E+00 0.  1.
</event>
<event>
 8    1  0.5331800E-011  0.9118800E+02  0.7816164E-02  0.1184000E+00
        -11   -1    0    0    0    0  0.00000000000E+00  0.00000000000E+00  0.45593999997E+02  0.45594000000E+02  0.51100000000E-03 0. -1.
         11   -1    0    0    0    0 -0.00000000000E+00 -0.00000000000E+00 -0.45593999997E+02  0.45594000000E+02  0.51100000000E-03 0.  1.
         23    2    1    2    0    0 -0.71054273576E-14  0.88817841970E-15  0.99920072216E-15  0.91188000000E+02  0.91188000000E+02 0.  0.
    9900012    2    3    3    0    0  0.43349933840E+02 -0.20961027576E+01  0.11237504782E+00  0.47787273752E+02  0.20000012343E+02 0.  0.
         12    1    3    3    0    0 -0.43349933840E+02  0.20961027576E+01 -0.11237504782E+00  0.43400726248E+02  0.00000000000E+00 0. -1.
         11    1    4    4    0    0  0.63834445652E+01 -0.49985893898E+01  0.56068303205E+01  0.98575253948E+01  0.51100000000E-03 0. -1.
        -11    1    4    4    0    0  0.36309967541E+02  0.19504622376E+01 -0.51651655548E+01  0.36727332890E+02  0.51100000000E-03 0.  1.
         12    1    4    4    0    0  0.65652173407E+00  0.95202439464E+00 -0.32928971786E+00  0.12024154663E+01  0.00000000000E+00 0. -1.
</event>
<event>
 8    1  0.7676091E-011  0.9118800E+02  0.7816164E-02  0.1184000E+00
        -11   -1    0    0    0    0  0.00000000000E+00  0.00000000000E+00  0.45593999997E+02  0.45594000000E+02  0.51100000000E-03 0. -1.
         11   -1    0    0    0    0 -0.00000000000E+00 -0.00000000000E+00 -0.45593999997E+02  0.45594000000E+02  0.51100000000E-03 0.  1.
         23    2    1    2    0    0  0.00000000000E+00  0.35527136788E-14  0.00000000000E+00  0.91188000000E+02  0.91188000000E+02 0.  0.
    9900012    2    3    3    0    0  0.63799980092E+01  0.31557997380E+02 -0.29103467137E+02  0.47787269906E+02  0.19999994811E+02 0.  0.
         12    1    3    3    0    0 -0.63799980092E+01 -0.31557997380E+02  0.29103467137E+02  0.43400730094E+02  0.00000000000E+00 0. -1.
         11    1    4    4    0    0 -0.18055748409E+01  0.13428814812E+01  0.18639493554E+01  0.29219409027E+01  0.51100000000E-03 0. -1.
        -11    1    4    4    0    0  0.48279667816E+01  0.14703346593E+02 -0.21136018837E+02  0.26195972149E+02  0.51100000000E-03 0.  1.
        -12    1    4    4    0    0  0.33576060685E+01  0.15511769306E+02 -0.98313976555E+01  0.18669356855E+02  0.00000000000E+00 0.  1.
</event>
<event>
 8    1  0.5331800E-011  0.9118800E+02  0.7816164E-02  0.1184000E+00
        -11   -1    0    0    0    0  0.00000000000E+00  0.00000000000E+00  0.45593999997E+02  0.45594000000E+02  0.51100000000E-03 0. -1.
         11   -1    0    0    0    0 -0.00000000000E+00 -0.00000000000E+00 -0.45593999997E+02  0.45594000000E+02  0.51100000000E-03 0.  1.
         23    2    1    2    0    0  0.00000000000E+00 -0.35527136788E-14  0.35527136788E-14  0.91188000000E+02  0.91188000000E+02 0.  0.
    9900012    2    3    3    0    0 -0.29245978389E+02 -0.27691055506E+02  0.16171011579E+02  0.47787269333E+02  0.19999992196E+02 0.  0.
        -12    1    3    3    0    0  0.29245978389E+02  0.27691055506E+02 -0.16171011579E+02  0.43400730667E+02  0.00000000000E+00 0.  1.
         11    1    4    4    0    0 -0.16087573344E+02 -0.11596440567E+02  0.81554790758E+01  0.21442930983E+02  0.51100000000E-03 0. -1.
        -11    1    4    4    0    0 -0.19791041501E+01  0.17123111853E+01 -0.17638846473E+01  0.31559708715E+01  0.51100000000E-03 0.  1.
        -12    1    4    4    0    0 -0.11179300894E+02 -0.17806926125E+02  0.97794171505E+01  0.23188367478E+02  0.00000000000E+00 0.  1.
</event>
<event>
 8    1  0.5331800E-011  0.9118800E+02  0.7816164E-02  0.1184000E+00
        -11   -1    0    0    0    0  0.00000000000E+00  0.00000000000E+00  0.45593999997E+02  0.45594000000E+02  0.51100000000E-03 0. -1.
         11   -1    0    0    0    0 -0.00000000000E+00 -0.00000000000E+00 -0.45593999997E+02  0.45594000000E+02  0.51100000000E-03 0.  1.
         23    2    1    2    0    0  0.17763568394E-14 -0.35527136788E-14  0.00000000000E+00  0.91188000000E+02  0.91188000000E+02 0.  0.
    9900012    2    3    3    0    0 -0.15430263904E+02  0.28860908360E+02  0.28505748542E+02  0.47787276787E+02  0.20000026181E+02 0.  0.
        -12    1    3    3    0    0  0.15430263904E+02 -0.28860908360E+02 -0.28505748542E+02  0.43400723213E+02  0.00000000000E+00 0.  1.
         11    1    4    4    0    0 -0.63658863777E+01  0.47842585374E+01  0.46378793158E+00  0.79767624155E+01  0.51100000000E-03 0. -1.
        -11    1    4    4    0    0 -0.11253857367E+02  0.22761352438E+02  0.26965636084E+02  0.37038817477E+02  0.51100000000E-03 0.  1.
        -12    1    4    4    0    0  0.21894798411E+01  0.13152973848E+01  0.10763245266E+01  0.27716968939E+01  0.00000000000E+00 0.  1.
</event>
<event>
 8    1  0.5331800E-011  0.9118800E+02  0.7816164E-02  0.1184000E+00
        -11   -1    0    0    0    0  0.00000000000E+00  0.00000000000E+00  0.45593999997E+02  0.45594000000E+02  0.51100000000E-03 0. -1.
         11   -1    0    0    0    0 -0.00000000000E+00 -0.00000000000E+00 -0.45593999997E+02  0.45594000000E+02  0.51100000000E-03 0.  1.
         23    2    1    2    0    0  0.00000000000E+00  0.00000000000E+00 -0.17763568394E-14  0.91188000000E+02  0.91188000000E+02 0.  0.
    9900012    2    3    3    0    0 -0.30184709634E+02  0.28115318097E+02  0.13492039218E+02  0.47787275010E+02  0.20000018082E+02 0.  0.
        -12    1    3    3    0    0  0.30184709634E+02 -0.28115318097E+02 -0.13492039218E+02  0.43400724990E+02  0.00000000000E+00 0.  1.
         11    1    4    4    0    0 -0.41399152360E+01  0.13494393797E+02  0.78880584973E+01  0.16169694779E+02  0.51100000000E-03 0. -1.
        -11    1    4    4    0    0 -0.11630805977E+02  0.63121008446E+01 -0.18952403980E+01  0.13368253482E+02  0.51100000000E-03 0.  1.
         12    1    4    4    0    0 -0.14413988421E+02  0.83088234547E+01  0.74992211186E+01  0.18249326749E+02  0.00000000000E+00 0. -1.
</event>
<event>
 8    1  0.5331800E-011  0.9118800E+02  0.7816164E-02  0.1184000E+00
        -11   -1    0    0    0    0  0.00000000000E+00  0.00000000000E+00  0.45593999997E+02  0.45594000000E+02  0.51100000000E-03 0. -1.
         11   -1    0    0    0    0 -0.00000000000E+00 -0.00000000000E+00 -0.45593999997E+02  0.45594000000E+02  0.51100000000E-03 0.  1.
         23    2    1    2    0    0  0.17763568394E-14 -0.71054273576E-14 -0.17763568394E-14  0.91188000000E+02  0.91188000000E+02 0.  0.
    9900012    2    3    3    0    0 -0.81162631846E+01  0.41050810095E+02  0.11514362517E+02  0.47787270954E+02  0.19999999590E+02 0.  0.
        -12    1    3    3    0    0  0.81162631846E+01 -0.41050810095E+02 -0.11514362517E+02  0.43400729046E+02  0.00000000000E+00 0.  1.
         11    1    4    4    0    0 -0.26643930817E+01  0.12119975075E+02  0.90830443603E+01  0.15378377074E+02  0.51100000000E-03 0. -1.
        -11    1    4    4    0    0 -0.45442300056E+01  0.19324351588E+02 -0.47122771513E+01  0.20403091601E+02  0.51100000000E-03 0.  1.
        -12    1    4    4    0    0 -0.90764009733E+00  0.96064834317E+01  0.71435953079E+01  0.12005802280E+02  0.00000000000E+00 0.  1.
</event>
<event>
 8    1  0.5331800E-011  0.9118800E+02  0.7816164E-02  0.1184000E+00
        -11   -1    0    0    0    0  0.00000000000E+00  0.00000000000E+00  0.45593999997E+02  0.45594000000E+02  0.51100000000E-03 0. -1.
         11   -1    0    0    0    0 -0.00000000000E+00 -0.00000000000E+00 -0.45593999997E+02  0.45594000000E+02  0.51100000000E-03 0.  1.
         23    2    1    2    0    0 -0.88817841970E-15 -0.71054273576E-14 -0.35527136788E-14  0.91188000000E+02  0.91188000000E+02 0.  0.
    9900012    2    3    3    0    0  0.33718222311E+01  0.33688866359E+02  0.27153515127E+02  0.47787282432E+02  0.20000051919E+02 0.  0.
        -12    1    3    3    0    0 -0.33718222311E+01 -0.33688866359E+02 -0.27153515127E+02  0.43400717568E+02  0.00000000000E+00 0.  1.
         11    1    4    4    0    0  0.10399476146E+02  0.20347899141E+02  0.11125623034E+02  0.25415853158E+02  0.51100000000E-03 0. -1.
        -11    1    4    4    0    0 -0.62495851270E+01  0.11850439657E+02  0.15732958297E+02  0.20664370578E+02  0.51100000000E-03 0.  1.
         12    1    4    4    0    0 -0.77806878819E+00  0.14905275608E+01  0.29493379562E+00  0.17070586963E+01  0.00000000000E+00 0. -1.
</event>
<event>
 8    1  0.5331800E-011  0.9118800E+02  0.7816164E-02  0.1184000E+00
        -11   -1    0    0    0    0  0.00000000000E+00  0.00000000000E+00  0.45593999997E+02  0.45594000000E+02  0.51100000000E-03 0. -1.
         11   -1    0    0    0    0 -0.00000000000E+00 -0.00000000000E+00 -0.45593999997E+02  0.45594000000E+02  0.51100000000E-03 0.  1.
         23    2    1    2    0    0 -0.17763568394E-14  0.00000000000E+00  0.35527136788E-14  0.91188000000E+02  0.91188000000E+02 0.  0.
    9900012    2    3    3    0    0 -0.11911581862E+02  0.38512417312E+02  0.16078905891E+02  0.47787270925E+02  0.19999999453E+02 0.  0.
        -12    1    3    3    0    0  0.11911581862E+02 -0.38512417312E+02 -0.16078905891E+02  0.43400729075E+02  0.00000000000E+00 0.  1.
         11    1    4    4    0    0 -0.47137996859E+01  0.62024404232E+01 -0.35035385886E+01  0.85419527969E+01  0.51100000000E-03 0. -1.
        -11    1    4    4    0    0 -0.40408038817E+01  0.70232655075E+01  0.75079117316E+01  0.11046406349E+02  0.51100000000E-03 0.  1.
         12    1    4    4    0    0 -0.31569782943E+01  0.25286711381E+02  0.12074532748E+02  0.28198911778E+02  0.00000000000E+00 0. -1.
</event>
<event>
 8    1  0.5331800E-011  0.9118800E+02  0.7816164E-02  0.1184000E+00
        -11   -1    0    0    0    0  0.00000000000E+00  0.00000000000E+00  0.45593999997E+02  0.45594000000E+02  0.51100000000E-03 0. -1.
         11   -1    0    0    0    0 -0.00000000000E+00 -0.00000000000E+00 -0.45593999997E+02  0.45594000000E+02  0.51100000000E-03 0.  1.
         23    2    1    2    0    0 -0.44408920985E-15 -0.88817841970E-15 -0.14210854715E-13  0.91188000000E+02  0.91188000000E+02 0.  0.
    9900012    2    3    3    0    0 -0.33089979104E+01  0.77235424270E+01 -0.42579577217E+02  0.47787274537E+02  0.20000015923E+02 0.  0.
         12    1    3    3    0    0  0.33089979104E+01 -0.77235424270E+01  0.42579577217E+02  0.43400725463E+02  0.00000000000E+00 0. -1.
         11    1    4    4    0    0 -0.45710687291E+01 -0.22900985709E+01 -0.31349287944E+01  0.59972493359E+01  0.51100000000E-03 0. -1.
        -11    1    4    4    0    0  0.56055170746E+00  0.11309538449E+02 -0.38256450973E+02  0.39897066552E+02  0.51100000000E-03 0.  1.
         12    1    4    4    0    0  0.70151911119E+00 -0.12958974515E+01 -0.11881974495E+01  0.18929586491E+01  0.00000000000E+00 0. -1.
</event>
<event>
 8    1  0.5331800E-011  0.9118800E+02  0.7816164E-02  0.1184000E+00
        -11   -1    0    0    0    0  0.00000000000E+00  0.00000000000E+00  0.45593999997E+02  0.45594000000E+02  0.51100000000E-03 0.  1.
         11   -1    0    0    0    0 -0.00000000000E+00 -0.00000000000E+00 -0.45593999997E+02  0.45594000000E+02  0.51100000000E-03 0. -1.
         23    2    1    2    0    0  0.00000000000E+00  0.00000000000E+00  0.88817841970E-15  0.91188000000E+02  0.91188000000E+02 0.  0.
    9900012    2    3    3    0    0  0.99770708442E+01  0.42201067942E+02  0.17749481162E+01  0.47787279742E+02  0.20000039658E+02 0.  0.
         12    1    3    3    0    0 -0.99770708442E+01 -0.42201067942E+02 -0.17749481162E+01  0.43400720258E+02  0.00000000000E+00 0. -1.
         11    1    4    4    0    0 -0.25779711071E+01  0.45682733648E+01  0.35469880282E+01  0.63321545226E+01  0.51100000000E-03 0. -1.
        -11    1    4    4    0    0  0.11335841079E+02  0.24183988611E+02 -0.58634776100E+01  0.27344962389E+02  0.51100000000E-03 0.  1.
        -12    1    4    4    0    0  0.12192008719E+01  0.13448805966E+02  0.40914376980E+01  0.14110162831E+02  0.00000000000E+00 0.  1.
</event>
<event>
 8    1  0.5331800E-011  0.9118800E+02  0.7816164E-02  0.1184000E+00
        -11   -1    0    0    0    0  0.00000000000E+00  0.00000000000E+00  0.45593999997E+02  0.45594000000E+02  0.51100000000E-03 0.  1.
         11   -1    0    0    0    0 -0.00000000000E+00 -0.00000000000E+00 -0.45593999997E+02  0.45594000000E+02  0.51100000000E-03 0. -1.
         23    2    1    2    0    0  0.71054273576E-14  0.17763568394E-14  0.35527136788E-14  0.91188000000E+02  0.91188000000E+02 0.  0.
    9900012    2    3    3    0    0 -0.38423974174E+02 -0.11621366153E+02 -0.16497432546E+02  0.47787271628E+02  0.20000002659E+02 0.  0.
         12    1    3    3    0    0  0.38423974174E+02  0.11621366153E+02  0.16497432546E+02  0.43400728372E+02  0.00000000000E+00 0. -1.
         11    1    4    4    0    0 -0.16899209084E+02 -0.11990357318E+02 -0.14750162823E+02  0.25434607130E+02  0.51100000000E-03 0. -1.
        -11    1    4    4    0    0 -0.12811646440E+02 -0.13256320834E+01  0.13519024290E+01  0.12950800183E+02  0.51100000000E-03 0.  1.
         12    1    4    4    0    0 -0.87131186502E+01  0.16946232484E+01 -0.30991721523E+01  0.94018643149E+01  0.00000000000E+00 0. -1.
</event>
<event>
 8    1  0.5331800E-011  0.9118800E+02  0.7816164E-02  0.1184000E+00
        -11   -1    0    0    0    0  0.00000000000E+00  0.00000000000E+00  0.45593999997E+02  0.45594000000E+02  0.51100000000E-03 0. -1.
         11   -1    0    0    0    0 -0.00000000000E+00 -0.00000000000E+00 -0.45593999997E+02  0.45594000000E+02  0.51100000000E-03 0.  1.
         23    2    1    2    0    0  0.00000000000E+00  0.44408920985E-15  0.00000000000E+00  0.91188000000E+02  0.91188000000E+02 0.  0.
    9900012    2    3    3    0    0  0.12512633553E+02 -0.32580538029E+01 -0.41429968111E+02  0.47787272234E+02  0.20000005422E+02 0.  0.
         12    1    3    3    0    0 -0.12512633553E+02  0.32580538029E+01  0.41429968111E+02  0.43400727766E+02  0.00000000000E+00 0. -1.
         11    1    4    4    0    0  0.14786434802E+02  0.42681617933E+01 -0.29524901557E+02  0.33295280018E+02  0.51100000000E-03 0.  1.
        -11    1    4    4    0    0 -0.21468175912E+01 -0.67988895665E+01 -0.11740052563E+02  0.13735449012E+02  0.51100000000E-03 0. -1.
        -12    1    4    4    0    0 -0.12698365809E+00 -0.72732602958E+00 -0.16501399076E+00  0.75654320423E+00  0.00000000000E+00 0.  1.
</event>
<event>
 8    1  0.5331800E-011  0.9118800E+02  0.7816164E-02  0.1184000E+00
        -11   -1    0    0    0    0  0.00000000000E+00  0.00000000000E+00  0.45593999997E+02  0.45594000000E+02  0.51100000000E-03 0. -1.
         11   -1    0    0    0    0 -0.00000000000E+00 -0.00000000000E+00 -0.45593999997E+02  0.45594000000E+02  0.51100000000E-03 0.  1.
         23    2    1    2    0    0 -0.88817841970E-15  0.00000000000E+00  0.00000000000E+00  0.91188000000E+02  0.91188000000E+02 0.  0.
    9900012    2    3    3    0    0 -0.55584038320E+01  0.17782961762E+02  0.39198134842E+02  0.47787270084E+02  0.19999995622E+02 0.  0.
        -12    1    3    3    0    0  0.55584038320E+01 -0.17782961762E+02 -0.39198134842E+02  0.43400729916E+02  0.00000000000E+00 0.  1.
         11    1    4    4    0    0 -0.79971764607E+01  0.15856326336E+01  0.60006805747E+01  0.10123103764E+02  0.51100000000E-03 0.  1.
        -11    1    4    4    0    0  0.81288210075E+00  0.16114368711E+02  0.29499548614E+02  0.33623756853E+02  0.51100000000E-03 0. -1.
        -12    1    4    4    0    0  0.16258905280E+01  0.82960416691E-01  0.36979056532E+01  0.40404094668E+01  0.00000000000E+00 0.  1.
</event>
<event>
 8    1  0.5331800E-011  0.9118800E+02  0.7816164E-02  0.1184000E+00
        -11   -1    0    0    0    0  0.00000000000E+00  0.00000000000E+00  0.45593999997E+02  0.45594000000E+02  0.51100000000E-03 0. -1.
         11   -1    0    0    0    0 -0.00000000000E+00 -0.00000000000E+00 -0.45593999997E+02  0.45594000000E+02  0.51100000000E-03 0.  1.
         23    2    1    2    0    0 -0.44408920985E-15  0.00000000000E+00  0.00000000000E+00  0.91188000000E+02  0.91188000000E+02 0.  0.
    9900012    2    3    3    0    0  0.36981978121E+01 -0.23154870231E+02  0.36521207961E+02  0.47787270589E+02  0.19999997921E+02 0.  0.
        -12    1    3    3    0    0 -0.36981978121E+01  0.23154870231E+02 -0.36521207961E+02  0.43400729411E+02  0.00000000000E+00 0.  1.
         11    1    4    4    0    0  0.67895155627E+01 -0.10993588806E+02  0.10704806869E+02  0.16779434042E+02  0.51100000000E-03 0. -1.
        -11    1    4    4    0    0 -0.33630016134E+01 -0.12798453020E+02  0.26750704060E+02  0.29844770857E+02  0.51100000000E-03 0.  1.
        -12    1    4    4    0    0  0.27168386279E+00  0.63717159448E+00 -0.93430296750E+00  0.11630656891E+01  0.00000000000E+00 0.  1.
</event>
<event>
 8    1  0.5331800E-011  0.9118800E+02  0.7816164E-02  0.1184000E+00
        -11   -1    0    0    0    0  0.00000000000E+00  0.00000000000E+00  0.45593999997E+02  0.45594000000E+02  0.51100000000E-03 0. -1.
         11   -1    0    0    0    0 -0.00000000000E+00 -0.00000000000E+00 -0.45593999997E+02  0.45594000000E+02  0.51100000000E-03 0.  1.
         23    2    1    2    0    0  0.00000000000E+00  0.10130785100E-14 -0.35527136788E-14  0.91188000000E+02  0.91188000000E+02 0.  0.
    9900012    2    3    3    0    0  0.33363932607E+02 -0.11006188914E+00  0.27757156079E+02  0.47787264681E+02  0.19999970985E+02 0.  0.
        -12    1    3    3    0    0 -0.33363932607E+02  0.11006188914E+00 -0.27757156079E+02  0.43400735319E+02  0.00000000000E+00 0.  1.
         11    1    4    4    0    0  0.17764690116E+02  0.78315783739E+01  0.11464002302E+02  0.22546422860E+02  0.51100000000E-03 0. -1.
        -11    1    4    4    0    0  0.37571720294E+01 -0.56325364736E+01  0.85442873682E+01  0.10901681323E+02  0.51100000000E-03 0.  1.
         12    1    4    4    0    0  0.11842070462E+02 -0.23091037895E+01  0.77488664093E+01  0.14339160497E+02  0.00000000000E+00 0. -1.
</event>
<event>
 8    1  0.5331800E-011  0.9118800E+02  0.7816164E-02  0.1184000E+00
        -11   -1    0    0    0    0  0.00000000000E+00  0.00000000000E+00  0.45593999997E+02  0.45594000000E+02  0.51100000000E-03 0. -1.
         11   -1    0    0    0    0 -0.00000000000E+00 -0.00000000000E+00 -0.45593999997E+02  0.45594000000E+02  0.51100000000E-03 0.  1.
         23    2    1    2    0    0 -0.88817841970E-15  0.00000000000E+00  0.00000000000E+00  0.91188000000E+02  0.91188000000E+02 0.  0.
    9900012    2    3    3    0    0  0.40910993586E+01  0.23477465855E+02  0.36272504433E+02  0.47787273338E+02  0.20000010459E+02 0.  0.
        -12    1    3    3    0    0 -0.40910993586E+01 -0.23477465855E+02 -0.36272504433E+02  0.43400726662E+02  0.00000000000E+00 0.  1.
         11    1    4    4    0    0  0.50018647283E+01  0.10433182032E+02  0.12631577683E+02  0.17129702072E+02  0.51100000000E-03 0. -1.
        -11    1    4    4    0    0 -0.51658833189E+01  0.67411232275E+01  0.20923861159E+02  0.22581785999E+02  0.51100000000E-03 0.  1.
        -12    1    4    4    0    0  0.42551179493E+01  0.63031605952E+01  0.27170655907E+01  0.80757852668E+01  0.00000000000E+00 0.  1.
</event>
<event>
 8    1  0.5331800E-011  0.9118800E+02  0.7816164E-02  0.1184000E+00
        -11   -1    0    0    0    0  0.00000000000E+00  0.00000000000E+00  0.45593999997E+02  0.45594000000E+02  0.51100000000E-03 0. -1.
         11   -1    0    0    0    0 -0.00000000000E+00 -0.00000000000E+00 -0.45593999997E+02  0.45594000000E+02  0.51100000000E-03 0.  1.
         23    2    1    2    0    0  0.00000000000E+00  0.35527136788E-14  0.71054273576E-14  0.91188000000E+02  0.91188000000E+02 0.  0.
    9900012    2    3    3    0    0 -0.43025183930E+01 -0.20908199621E+02 -0.37788342763E+02  0.47787270459E+02  0.19999997332E+02 0.  0.
         12    1    3    3    0    0  0.43025183930E+01  0.20908199621E+02  0.37788342763E+02  0.43400729541E+02  0.00000000000E+00 0. -1.
         11    1    4    4    0    0 -0.70706785027E+00 -0.10561805066E+02 -0.72392923673E+01  0.12824157884E+02  0.51100000000E-03 0. -1.
        -11    1    4    4    0    0 -0.57508631305E+01 -0.11447938068E+02 -0.29787356202E+02  0.32425519310E+02  0.51100000000E-03 0.  1.
        -12    1    4    4    0    0  0.21554125878E+01  0.11015435128E+01 -0.76169419343E+00  0.25375932650E+01  0.00000000000E+00 0.  1.
</event>
<event>
 8    1  0.5331800E-011  0.9118800E+02  0.7816164E-02  0.1184000E+00
        -11   -1    0    0    0    0  0.00000000000E+00  0.00000000000E+00  0.45593999997E+02  0.45594000000E+02  0.51100000000E-03 0. -1.
         11   -1    0    0    0    0 -0.00000000000E+00 -0.00000000000E+00 -0.45593999997E+02  0.45594000000E+02  0.51100000000E-03 0.  1.
         23    2    1    2    0    0  0.35527136788E-14 -0.22204460493E-15  0.00000000000E+00  0.91188000000E+02  0.91188000000E+02 0.  0.
    9900012    2    3    3    0    0  0.18744966979E+02  0.11416985323E+01 -0.39127288850E+02  0.47787285774E+02  0.20000067158E+02 0.  0.
         12    1    3    3    0    0 -0.18744966979E+02 -0.11416985323E+01  0.39127288850E+02  0.43400714226E+02  0.00000000000E+00 0. -1.
         11    1    4    4    0    0  0.15041086623E+02 -0.55303832580E+00 -0.17157947531E+02  0.22824007140E+02  0.51100000000E-03 0.  1.
        -11    1    4    4    0    0 -0.25606722933E+01 -0.29808176473E+01 -0.58329979418E+01  0.70332198665E+01  0.51100000000E-03 0. -1.
        -12    1    4    4    0    0  0.62645526492E+01  0.46755545053E+01 -0.16136343377E+02  0.17930058767E+02  0.00000000000E+00 0.  1.
</event>
<event>
 8    1  0.5331800E-011  0.9118800E+02  0.7816164E-02  0.1184000E+00
        -11   -1    0    0    0    0  0.00000000000E+00  0.00000000000E+00  0.45593999997E+02  0.45594000000E+02  0.51100000000E-03 0. -1.
         11   -1    0    0    0    0 -0.00000000000E+00 -0.00000000000E+00 -0.45593999997E+02  0.45594000000E+02  0.51100000000E-03 0.  1.
         23    2    1    2    0    0  0.24841240176E-14  0.00000000000E+00 -0.71054273576E-14  0.91188000000E+02  0.91188000000E+02 0.  0.
    9900012    2    3    3    0    0  0.63455362586E-01  0.12107564814E+02  0.41677629455E+02  0.47787286305E+02  0.20000069577E+02 0.  0.
        -12    1    3    3    0    0 -0.63455362586E-01 -0.12107564814E+02 -0.41677629455E+02  0.43400713695E+02  0.00000000000E+00 0.  1.
         11    1    4    4    0    0 -0.40748078404E+01  0.74907413820E+01  0.14709540194E+02  0.17002524470E+02  0.51100000000E-03 0. -1.
        -11    1    4    4    0    0  0.82008360023E+01 -0.23345244334E-01  0.11431663678E+02  0.14069015276E+02  0.51100000000E-03 0.  1.
        -12    1    4    4    0    0 -0.40625727993E+01  0.46401686759E+01  0.15536425583E+02  0.16715746558E+02  0.00000000000E+00 0.  1.
</event>
<event>
 8    1  0.5331800E-011  0.9118800E+02  0.7816164E-02  0.1184000E+00
        -11   -1    0    0    0    0  0.00000000000E+00  0.00000000000E+00  0.45593999997E+02  0.45594000000E+02  0.51100000000E-03 0. -1.
         11   -1    0    0    0    0 -0.00000000000E+00 -0.00000000000E+00 -0.45593999997E+02  0.45594000000E+02  0.51100000000E-03 0.  1.
         23    2    1    2    0    0  0.17763568394E-14 -0.44408920985E-15  0.00000000000E+00  0.91188000000E+02  0.91188000000E+02 0.  0.
    9900012    2    3    3    0    0 -0.15155819834E+02 -0.21942161334E+01  0.40609238214E+02  0.47787266278E+02  0.19999978268E+02 0.  0.
        -12    1    3    3    0    0  0.15155819834E+02  0.21942161334E+01 -0.40609238214E+02  0.43400733722E+02  0.00000000000E+00 0.  1.
         11    1    4    4    0    0  0.41684103460E+00 -0.53312925471E+01  0.19338402083E+02  0.20064152912E+02  0.51100000000E-03 0. -1.
        -11    1    4    4    0    0 -0.81622359737E+01  0.54350892649E+01  0.97104406822E+01  0.13800541653E+02  0.51100000000E-03 0.  1.
        -12    1    4    4    0    0 -0.74104248949E+01 -0.22980128513E+01  0.11560395448E+02  0.13922571713E+02  0.00000000000E+00 0.  1.
</event>
<event>
 8    1  0.5331800E-011  0.9118800E+02  0.7816164E-02  0.1184000E+00
        -11   -1    0    0    0    0  0.00000000000E+00  0.00000000000E+00  0.45593999997E+02  0.45594000000E+02  0.51100000000E-03 0. -1.
         11   -1    0    0    0    0 -0.00000000000E+00 -0.00000000000E+00 -0.45593999997E+02  0.45594000000E+02  0.51100000000E-03 0.  1.
         23    2    1    2    0    0  0.00000000000E+00  0.00000000000E+00 -0.17763568394E-14  0.91188000000E+02  0.91188000000E+02 0.  0.
    9900012    2    3    3    0    0 -0.29876915898E+02  0.30067298732E+02 -0.93247253938E+01  0.47787273505E+02  0.20000011219E+02 0.  0.
         12    1    3    3    0    0  0.29876915898E+02 -0.30067298732E+02  0.93247253938E+01  0.43400726495E+02  0.00000000000E+00 0. -1.
         11    1    4    4    0    0 -0.36698364813E+01 -0.54593163804E+00  0.38903563440E+01  0.53759291195E+01  0.51100000000E-03 0. -1.
        -11    1    4    4    0    0 -0.14449103532E+02  0.17103587160E+02 -0.72759328210E+01  0.23542482565E+02  0.51100000000E-03 0.  1.
         12    1    4    4    0    0 -0.11757975885E+02  0.13509643210E+02 -0.59391489169E+01  0.18868861821E+02  0.00000000000E+00 0. -1.
</event>
<event>
 8    1  0.5331800E-011  0.9118800E+02  0.7816164E-02  0.1184000E+00
        -11   -1    0    0    0    0  0.00000000000E+00  0.00000000000E+00  0.45593999997E+02  0.45594000000E+02  0.51100000000E-03 0. -1.
         11   -1    0    0    0    0 -0.00000000000E+00 -0.00000000000E+00 -0.45593999997E+02  0.45594000000E+02  0.51100000000E-03 0.  1.
         23    2    1    2    0    0  0.00000000000E+00  0.00000000000E+00  0.00000000000E+00  0.91188000000E+02  0.91188000000E+02 0.  0.
    9900012    2    3    3    0    0  0.16082508981E+02 -0.25558241397E+02 -0.31172941686E+02  0.47787273142E+02  0.20000009562E+02 0.  0.
         12    1    3    3    0    0 -0.16082508981E+02  0.25558241397E+02  0.31172941686E+02  0.43400726858E+02  0.00000000000E+00 0. -1.
         11    1    4    4    0    0  0.73084924730E+00 -0.29257287175E+01 -0.14136137538E+02  0.14454217858E+02  0.51100000000E-03 0. -1.
        -11    1    4    4    0    0  0.35352058478E+01 -0.12795528673E+02 -0.78236461440E+01  0.15408850497E+02  0.51100000000E-03 0.  1.
         12    1    4    4    0    0  0.11816453886E+02 -0.98369840072E+01 -0.92131580047E+01  0.17924204786E+02  0.00000000000E+00 0. -1.
</event>
<event>
 8    1  0.5331800E-011  0.9118800E+02  0.7816164E-02  0.1184000E+00
        -11   -1    0    0    0    0  0.00000000000E+00  0.00000000000E+00  0.45593999997E+02  0.45594000000E+02  0.51100000000E-03 0. -1.
         11   -1    0    0    0    0 -0.00000000000E+00 -0.00000000000E+00 -0.45593999997E+02  0.45594000000E+02  0.51100000000E-03 0.  1.
         23    2    1    2    0    0  0.00000000000E+00  0.17763568394E-14  0.00000000000E+00  0.91188000000E+02  0.91188000000E+02 0.  0.
    9900012    2    3    3    0    0 -0.30853763048E+02  0.15364091770E+02  0.26374468908E+02  0.47787278574E+02  0.20000034331E+02 0.  0.
        -12    1    3    3    0    0  0.30853763048E+02 -0.15364091770E+02 -0.26374468908E+02  0.43400721426E+02  0.00000000000E+00 0.  1.
         11    1    4    4    0    0 -0.62189179140E+01  0.79602902266E+01  0.18048787252E+02  0.20683323767E+02  0.51100000000E-03 0. -1.
        -11    1    4    4    0    0 -0.22069133571E+02  0.65011181991E+01  0.68259940526E+01  0.23998028867E+02  0.51100000000E-03 0.  1.
         12    1    4    4    0    0 -0.25657115625E+01  0.90268334477E+00  0.14996876030E+01  0.31059259408E+01  0.00000000000E+00 0. -1.
</event>
<event>
 8    1  0.5331800E-011  0.9118800E+02  0.7816164E-02  0.1184000E+00
        -11   -1    0    0    0    0  0.00000000000E+00  0.00000000000E+00  0.45593999997E+02  0.45594000000E+02  0.51100000000E-03 0. -1.
         11   -1    0    0    0    0 -0.00000000000E+00 -0.00000000000E+00 -0.45593999997E+02  0.45594000000E+02  0.51100000000E-03 0.  1.
         23    2    1    2    0    0  0.00000000000E+00  0.35527136788E-14  0.71054273576E-14  0.91188000000E+02  0.91188000000E+02 0.  0.
    9900012    2    3    3    0    0 -0.14754548819E+02  0.19957766271E+02  0.35603570378E+02  0.47787269948E+02  0.19999995002E+02 0.  0.
        -12    1    3    3    0    0  0.14754548819E+02 -0.19957766271E+02 -0.35603570378E+02  0.43400730052E+02  0.00000000000E+00 0.  1.
         11    1    4    4    0    0 -0.85768875436E+01  0.41043648804E+01  0.22843495148E+02  0.24743364400E+02  0.51100000000E-03 0. -1.
        -11    1    4    4    0    0 -0.52462420465E+00  0.12080913173E+02  0.10064273651E+02  0.15732555357E+02  0.51100000000E-03 0.  1.
         12    1    4    4    0    0 -0.56530370707E+01  0.37724882172E+01  0.26958015789E+01  0.73113501916E+01  0.00000000000E+00 0. -1.
</event>
<event>
 8    1  0.5331800E-011  0.9118800E+02  0.7816164E-02  0.1184000E+00
        -11   -1    0    0    0    0  0.00000000000E+00  0.00000000000E+00  0.45593999997E+02  0.45594000000E+02  0.51100000000E-03 0. -1.
         11   -1    0    0    0    0 -0.00000000000E+00 -0.00000000000E+00 -0.45593999997E+02  0.45594000000E+02  0.51100000000E-03 0.  1.
         23    2    1    2    0    0  0.00000000000E+00  0.00000000000E+00  0.71054273576E-14  0.91188000000E+02  0.91188000000E+02 0.  0.
    9900012    2    3    3    0    0 -0.23032662321E+02  0.23094987238E+01  0.36712217017E+02  0.47787260418E+02  0.19999951549E+02 0.  0.
        -12    1    3    3    0    0  0.23032662321E+02 -0.23094987238E+01 -0.36712217017E+02  0.43400739582E+02  0.00000000000E+00 0.  1.
         11    1    4    4    0    0 -0.22035736539E+01  0.65383013371E+00  0.51023300820E+01  0.55961596849E+01  0.51100000000E-03 0. -1.
        -11    1    4    4    0    0 -0.21448863210E+02 -0.51788555042E+00  0.16908573784E+02  0.27317060715E+02  0.51100000000E-03 0.  1.
        -12    1    4    4    0    0  0.61977454252E+00  0.21735541405E+01  0.14701313151E+02  0.14874040018E+02  0.00000000000E+00 0.  1.
</event>
<event>
 8    1  0.5331800E-011  0.9118800E+02  0.7816164E-02  0.1184000E+00
        -11   -1    0    0    0    0  0.00000000000E+00  0.00000000000E+00  0.45593999997E+02  0.45594000000E+02  0.51100000000E-03 0.  1.
         11   -1    0    0    0    0 -0.00000000000E+00 -0.00000000000E+00 -0.45593999997E+02  0.45594000000E+02  0.51100000000E-03 0. -1.
         23    2    1    2    0    0 -0.17763568394E-14  0.00000000000E+00 -0.22204460493E-15  0.91188000000E+02  0.91188000000E+02 0.  0.
    9900012    2    3    3    0    0  0.10386990983E+02 -0.42095048609E+02 -0.19335930959E+01  0.47787291695E+02  0.20000094155E+02 0.  0.
        -12    1    3    3    0    0 -0.10386990983E+02  0.42095048609E+02  0.19335930959E+01  0.43400708305E+02  0.00000000000E+00 0.  1.
         11    1    4    4    0    0  0.13168991383E+02 -0.33147474883E+02  0.65393351246E+00  0.35673590434E+02  0.51100000000E-03 0. -1.
        -11    1    4    4    0    0  0.27355554104E+00  0.81754336143E+00  0.95429057383E+00  0.12860328698E+01  0.51100000000E-03 0.  1.
         12    1    4    4    0    0 -0.30555559407E+01 -0.97651170877E+01 -0.35418171821E+01  0.10827668391E+02  0.00000000000E+00 0. -1.
</event>
<event>
 8    1  0.5331800E-011  0.9118800E+02  0.7816164E-02  0.1184000E+00
        -11   -1    0    0    0    0  0.00000000000E+00  0.00000000000E+00  0.45593999997E+02  0.45594000000E+02  0.51100000000E-03 0.  1.
         11   -1    0    0    0    0 -0.00000000000E+00 -0.00000000000E+00 -0.45593999997E+02  0.45594000000E+02  0.51100000000E-03 0. -1.
         23    2    1    2    0    0 -0.17763568394E-14  0.00000000000E+00  0.00000000000E+00  0.91188000000E+02  0.91188000000E+02 0.  0.
    9900012    2    3    3    0    0 -0.12401306797E+02 -0.38427069354E+02  0.15911932528E+02  0.47787289566E+02  0.20000084445E+02 0.  0.
        -12    1    3    3    0    0  0.12401306797E+02  0.38427069354E+02 -0.15911932528E+02  0.43400710434E+02  0.00000000000E+00 0.  1.
         11    1    4    4    0    0  0.24811800637E+01  0.33503081450E+00  0.44795904684E+00  0.25434558624E+01  0.51100000000E-03 0. -1.
        -11    1    4    4    0    0  0.11840770260E+01 -0.28283504715E+01  0.37601242998E+00  0.30891730935E+01  0.51100000000E-03 0.  1.
         12    1    4    4    0    0 -0.16066563886E+02 -0.35933749697E+02  0.15087961051E+02  0.42154660610E+02  0.00000000000E+00 0. -1.
</event>
<event>
 8    1  0.5331800E-011  0.9118800E+02  0.7816164E-02  0.1184000E+00
        -11   -1    0    0    0    0  0.00000000000E+00  0.00000000000E+00  0.45593999997E+02  0.45594000000E+02  0.51100000000E-03 0. -1.
         11   -1    0    0    0    0 -0.00000000000E+00 -0.00000000000E+00 -0.45593999997E+02  0.45594000000E+02  0.51100000000E-03 0.  1.
         23    2    1    2    0    0  0.00000000000E+00  0.71054273576E-14  0.35527136788E-14  0.91188000000E+02  0.91188000000E+02 0.  0.
    9900012    2    3    3    0    0 -0.22140822452E+02  0.27738082012E+02 -0.24980111040E+02  0.47787272355E+02  0.20000005975E+02 0.  0.
         12    1    3    3    0    0  0.22140822452E+02 -0.27738082012E+02  0.24980111040E+02  0.43400727645E+02  0.00000000000E+00 0. -1.
         11    1    4    4    0    0 -0.71059376094E+01  0.92979999064E+01 -0.16148325742E+02  0.19942807628E+02  0.51100000000E-03 0.  1.
        -11    1    4    4    0    0 -0.14235320445E+02  0.14192158540E+02 -0.26121539626E+01  0.20270299968E+02  0.51100000000E-03 0. -1.
         12    1    4    4    0    0 -0.79956439710E+00  0.42479235656E+01 -0.62196313351E+01  0.75741647584E+01  0.00000000000E+00 0. -1.
</event>
<event>
 8    1  0.5331800E-011  0.9118800E+02  0.7816164E-02  0.1184000E+00
        -11   -1    0    0    0    0  0.00000000000E+00  0.00000000000E+00  0.45593999997E+02  0.45594000000E+02  0.51100000000E-03 0. -1.
         11   -1    0    0    0    0 -0.00000000000E+00 -0.00000000000E+00 -0.45593999997E+02  0.45594000000E+02  0.51100000000E-03 0.  1.
         23    2    1    2    0    0  0.00000000000E+00  0.00000000000E+00  0.00000000000E+00  0.91188000000E+02  0.91188000000E+02 0.  0.
    9900012    2    3    3    0    0  0.18040756973E+02 -0.23622022183E+02  0.31625200448E+02  0.47787284020E+02  0.20000059163E+02 0.  0.
        -12    1    3    3    0    0 -0.18040756973E+02  0.23622022183E+02 -0.31625200448E+02  0.43400715980E+02  0.00000000000E+00 0.  1.
         11    1    4    4    0    0  0.35148549925E+01 -0.80953688886E+00 -0.28217468438E+00  0.36178969591E+01  0.51100000000E-03 0. -1.
        -11    1    4    4    0    0  0.14747095088E+02 -0.23981620185E+02  0.32363468888E+02  0.42895093414E+02  0.51100000000E-03 0.  1.
        -12    1    4    4    0    0 -0.22119310681E+00  0.11691348916E+01 -0.45609375613E+00  0.12742936473E+01  0.00000000000E+00 0.  1.
</event>
<event>
 8    1  0.5331800E-011  0.9118800E+02  0.7816164E-02  0.1184000E+00
        -11   -1    0    0    0    0  0.00000000000E+00  0.00000000000E+00  0.45593999997E+02  0.45594000000E+02  0.51100000000E-03 0. -1.
         11   -1    0    0    0    0 -0.00000000000E+00 -0.00000000000E+00 -0.45593999997E+02  0.45594000000E+02  0.51100000000E-03 0.  1.
         23    2    1    2    0    0  0.00000000000E+00  0.00000000000E+00  0.00000000000E+00  0.91188000000E+02  0.91188000000E+02 0.  0.
    9900012    2    3    3    0    0 -0.13731545944E+02  0.39958558295E+02 -0.99187474574E+01  0.47787270903E+02  0.19999999356E+02 0.  0.
         12    1    3    3    0    0  0.13731545944E+02 -0.39958558295E+02  0.99187474574E+01  0.43400729097E+02  0.00000000000E+00 0. -1.
         11    1    4    4    0    0 -0.30287215668E+00  0.18866015361E+02 -0.11333649217E+02  0.22010676318E+02  0.51100000000E-03 0.  1.
        -11    1    4    4    0    0 -0.62530374929E+01  0.86186873793E+01  0.35591899476E+01  0.11227202830E+02  0.51100000000E-03 0. -1.
        -12    1    4    4    0    0 -0.71756362942E+01  0.12473855555E+02 -0.21442881883E+01  0.14549391756E+02  0.00000000000E+00 0.  1.
</event>
<event>
 8    1  0.5331800E-011  0.9118800E+02  0.7816164E-02  0.1184000E+00
        -11   -1    0    0    0    0  0.00000000000E+00  0.00000000000E+00  0.45593999997E+02  0.45594000000E+02  0.51100000000E-03 0.  1.
         11   -1    0    0    0    0 -0.00000000000E+00 -0.00000000000E+00 -0.45593999997E+02  0.45594000000E+02  0.51100000000E-03 0. -1.
         23    2    1    2    0    0  0.44408920985E-15  0.00000000000E+00  0.17763568394E-14  0.91188000000E+02  0.91188000000E+02 0.  0.
    9900012    2    3    3    0    0 -0.17792903630E+01  0.42699113883E+02 -0.75659029528E+01  0.47787273185E+02  0.20000009758E+02 0.  0.
         12    1    3    3    0    0  0.17792903630E+01 -0.42699113883E+02  0.75659029528E+01  0.43400726815E+02  0.00000000000E+00 0. -1.
         11    1    4    4    0    0  0.33172048314E+01  0.43463138139E+01 -0.12555519215E+01  0.56098754488E+01  0.51100000000E-03 0. -1.
        -11    1    4    4    0    0  0.14767375329E+01  0.23645386653E+02 -0.98934992517E+01  0.25674235947E+02  0.51100000000E-03 0.  1.
        -12    1    4    4    0    0 -0.65732327273E+01  0.14707413416E+02  0.35831482204E+01  0.16503161789E+02  0.00000000000E+00 0.  1.
</event>
<event>
 8    1  0.5331800E-011  0.9118800E+02  0.7816164E-02  0.1184000E+00
        -11   -1    0    0    0    0  0.00000000000E+00  0.00000000000E+00  0.45593999997E+02  0.45594000000E+02  0.51100000000E-03 0. -1.
         11   -1    0    0    0    0 -0.00000000000E+00 -0.00000000000E+00 -0.45593999997E+02  0.45594000000E+02  0.51100000000E-03 0.  1.
         23    2    1    2    0    0  0.00000000000E+00  0.00000000000E+00 -0.71054273576E-14  0.91188000000E+02  0.91188000000E+02 0.  0.
    9900012    2    3    3    0    0  0.28942858984E+01  0.18565913185E+02  0.39122292683E+02  0.47787264891E+02  0.19999971943E+02 0.  0.
        -12    1    3    3    0    0 -0.28942858984E+01 -0.18565913185E+02 -0.39122292683E+02  0.43400735109E+02  0.00000000000E+00 0.  1.
         11    1    4    4    0    0 -0.21486097000E+01 -0.19737853952E+01  0.32104771944E+01  0.43381466672E+01  0.51100000000E-03 0.  1.
        -11    1    4    4    0    0  0.11410554233E+00 -0.16735418349E+01  0.30127404901E+01  0.34482412720E+01  0.51100000000E-03 0. -1.
         12    1    4    4    0    0  0.49287900561E+01  0.22213240415E+02  0.32899074998E+02  0.40000876952E+02  0.00000000000E+00 0. -1.
</event>
<event>
 8    1  0.5331800E-011  0.9118800E+02  0.7816164E-02  0.1184000E+00
        -11   -1    0    0    0    0  0.00000000000E+00  0.00000000000E+00  0.45593999997E+02  0.45594000000E+02  0.51100000000E-03 0. -1.
         11   -1    0    0    0    0 -0.00000000000E+00 -0.00000000000E+00 -0.45593999997E+02  0.45594000000E+02  0.51100000000E-03 0.  1.
         23    2    1    2    0    0  0.00000000000E+00  0.00000000000E+00  0.00000000000E+00  0.91188000000E+02  0.91188000000E+02 0.  0.
    9900012    2    3    3    0    0 -0.16987603083E+02 -0.14385168035E+02  0.37257328096E+02  0.47787306287E+02  0.20000160685E+02 0.  0.
        -12    1    3    3    0    0  0.16987603083E+02  0.14385168035E+02 -0.37257328096E+02  0.43400693713E+02  0.00000000000E+00 0.  1.
         11    1    4    4    0    0 -0.69157183824E+01 -0.95778306111E+01  0.67246082637E+01  0.13593467421E+02  0.51100000000E-03 0. -1.
        -11    1    4    4    0    0 -0.10597071635E+02 -0.52599961972E+01  0.31115101184E+02  0.33288361467E+02  0.51100000000E-03 0.  1.
        -12    1    4    4    0    0  0.52518693466E+00  0.45265877383E+00 -0.58238135123E+00  0.90547739901E+00  0.00000000000E+00 0.  1.
</event>
<event>
 8    1  0.5331800E-011  0.9118800E+02  0.7816164E-02  0.1184000E+00
        -11   -1    0    0    0    0  0.00000000000E+00  0.00000000000E+00  0.45593999997E+02  0.45594000000E+02  0.51100000000E-03 0. -1.
         11   -1    0    0    0    0 -0.00000000000E+00 -0.00000000000E+00 -0.45593999997E+02  0.45594000000E+02  0.51100000000E-03 0.  1.
         23    2    1    2    0    0  0.35527136788E-14  0.35527136788E-14  0.00000000000E+00  0.91188000000E+02  0.91188000000E+02 0.  0.
    9900012    2    3    3    0    0 -0.16498412688E+02 -0.22352535063E+02 -0.33343515189E+02  0.47787269014E+02  0.19999990744E+02 0.  0.
         12    1    3    3    0    0  0.16498412688E+02  0.22352535063E+02  0.33343515189E+02  0.43400730986E+02  0.00000000000E+00 0. -1.
         11    1    4    4    0    0 -0.81730225330E+01 -0.43318361131E+01 -0.69846757902E+01  0.11590892873E+02  0.51100000000E-03 0. -1.
        -11    1    4    4    0    0 -0.53672328336E+01 -0.14269607650E+02 -0.79819902430E+01  0.17208749498E+02  0.51100000000E-03 0.  1.
        -12    1    4    4    0    0 -0.29581573211E+01 -0.37510912998E+01 -0.18376849156E+02  0.18987626644E+02  0.00000000000E+00 0.  1.
</event>
<event>
 8    1  0.5331800E-011  0.9118800E+02  0.7816164E-02  0.1184000E+00
        -11   -1    0    0    0    0  0.00000000000E+00  0.00000000000E+00  0.45593999997E+02  0.45594000000E+02  0.51100000000E-03 0. -1.
         11   -1    0    0    0    0 -0.00000000000E+00 -0.00000000000E+00 -0.45593999997E+02  0.45594000000E+02  0.51100000000E-03 0.  1.
         23    2    1    2    0    0 -0.26645352591E-14 -0.17763568394E-14 -0.71054273576E-14  0.91188000000E+02  0.91188000000E+02 0.  0.
    9900012    2    3    3    0    0 -0.35241154205E+01 -0.92019587662E+01 -0.42267337404E+02  0.47787271368E+02  0.20000001473E+02 0.  0.
         12    1    3    3    0    0  0.35241154205E+01  0.92019587662E+01  0.42267337404E+02  0.43400728632E+02  0.00000000000E+00 0. -1.
         11    1    4    4    0    0  0.76211877958E+01 -0.29491760471E+01 -0.15755691644E+02  0.17748858053E+02  0.51100000000E-03 0. -1.
        -11    1    4    4    0    0 -0.97176583447E+01 -0.53270145259E+01 -0.25997453801E+02  0.28260884131E+02  0.51100000000E-03 0.  1.
         12    1    4    4    0    0 -0.14276448716E+01 -0.92576819321E+00 -0.51419195952E+00  0.17775291835E+01  0.00000000000E+00 0. -1.
</event>
<event>
 8    1  0.5331800E-011  0.9118800E+02  0.7816164E-02  0.1184000E+00
        -11   -1    0    0    0    0  0.00000000000E+00  0.00000000000E+00  0.45593999997E+02  0.45594000000E+02  0.51100000000E-03 0. -1.
         11   -1    0    0    0    0 -0.00000000000E+00 -0.00000000000E+00 -0.45593999997E+02  0.45594000000E+02  0.51100000000E-03 0.  1.
         23    2    1    2    0    0  0.00000000000E+00 -0.88817841970E-15  0.00000000000E+00  0.91188000000E+02  0.91188000000E+02 0.  0.
    9900012    2    3    3    0    0 -0.21676286286E+02 -0.72700552716E+01  0.36890485914E+02  0.47787273718E+02  0.20000012192E+02 0.  0.
        -12    1    3    3    0    0  0.21676286286E+02  0.72700552716E+01 -0.36890485914E+02  0.43400726282E+02  0.00000000000E+00 0.  1.
         11    1    4    4    0    0 -0.59504481918E+01 -0.52941433324E+01  0.23184074502E+02  0.24514018399E+02  0.51100000000E-03 0. -1.
        -11    1    4    4    0    0 -0.14325642464E+02  0.13952760071E+01  0.79115726035E+01  0.16424488073E+02  0.51100000000E-03 0.  1.
        -12    1    4    4    0    0 -0.14001956299E+01 -0.33711879464E+01  0.57948388084E+01  0.68487672458E+01  0.00000000000E+00 0.  1.
</event>
<event>
 8    1  0.5331800E-011  0.9118800E+02  0.7816164E-02  0.1184000E+00
        -11   -1    0    0    0    0  0.00000000000E+00  0.00000000000E+00  0.45593999997E+02  0.45594000000E+02  0.51100000000E-03 0. -1.
         11   -1    0    0    0    0 -0.00000000000E+00 -0.00000000000E+00 -0.45593999997E+02  0.45594000000E+02  0.51100000000E-03 0.  1.
         23    2    1    2    0    0  0.00000000000E+00 -0.44408920985E-15  0.00000000000E+00  0.91188000000E+02  0.91188000000E+02 0.  0.
    9900012    2    3    3    0    0  0.17486813456E+02 -0.39228623484E+01  0.39527781015E+02  0.47787274593E+02  0.20000016181E+02 0.  0.
        -12    1    3    3    0    0 -0.17486813456E+02  0.39228623484E+01 -0.39527781015E+02  0.43400725407E+02  0.00000000000E+00 0.  1.
         11    1    4    4    0    0  0.16650389390E+02  0.25953279128E+01  0.22041527753E+02  0.27745272385E+02  0.51100000000E-03 0. -1.
        -11    1    4    4    0    0  0.33282452026E+01 -0.59857779604E+01  0.14963247071E+02  0.16456169575E+02  0.51100000000E-03 0.  1.
         12    1    4    4    0    0 -0.24918211358E+01 -0.53241230083E+00  0.25230061909E+01  0.35858326328E+01  0.00000000000E+00 0. -1.
</event>
<event>
 8    1  0.5331800E-011  0.9118800E+02  0.7816164E-02  0.1184000E+00
        -11   -1    0    0    0    0  0.00000000000E+00  0.00000000000E+00  0.45593999997E+02  0.45594000000E+02  0.51100000000E-03 0. -1.
         11   -1    0    0    0    0 -0.00000000000E+00 -0.00000000000E+00 -0.45593999997E+02  0.45594000000E+02  0.51100000000E-03 0.  1.
         23    2    1    2    0    0  0.00000000000E+00  0.00000000000E+00  0.35527136788E-14  0.91188000000E+02  0.91188000000E+02 0.  0.
    9900012    2    3    3    0    0 -0.27420551641E+02 -0.25859626757E+02  0.21517814667E+02  0.47787270785E+02  0.19999998818E+02 0.  0.
        -12    1    3    3    0    0  0.27420551641E+02  0.25859626757E+02 -0.21517814667E+02  0.43400729215E+02  0.00000000000E+00 0.  1.
         11    1    4    4    0    0 -0.11674238848E+02 -0.72720096533E+01  0.32062054187E+01  0.14122667260E+02  0.51100000000E-03 0. -1.
        -11    1    4    4    0    0 -0.14943470581E+02 -0.20751833306E+02  0.18134006572E+02  0.31349451242E+02  0.51100000000E-03 0.  1.
        -12    1    4    4    0    0 -0.80284221181E+00  0.21642162019E+01  0.17760267647E+00  0.23151522836E+01  0.00000000000E+00 0.  1.
</event>
<event>
 8    1  0.5331800E-011  0.9118800E+02  0.7816164E-02  0.1184000E+00
        -11   -1    0    0    0    0  0.00000000000E+00  0.00000000000E+00  0.45593999997E+02  0.45594000000E+02  0.51100000000E-03 0. -1.
         11   -1    0    0    0    0 -0.00000000000E+00 -0.00000000000E+00 -0.45593999997E+02  0.45594000000E+02  0.51100000000E-03 0.  1.
         23    2    1    2    0    0  0.00000000000E+00 -0.17763568394E-14  0.00000000000E+00  0.91188000000E+02  0.91188000000E+02 0.  0.
    9900012    2    3    3    0    0  0.34417585922E+02  0.51265463515E+01 -0.25937751693E+02  0.47787324187E+02  0.20000242294E+02 0.  0.
         12    1    3    3    0    0 -0.34417585922E+02 -0.51265463515E+01  0.25937751693E+02  0.43400675813E+02  0.00000000000E+00 0. -1.
         11    1    4    4    0    0  0.17515963513E+02  0.93881354511E+01 -0.17826697126E+02  0.26697138343E+02  0.51100000000E-03 0. -1.
        -11    1    4    4    0    0 -0.66444099337E-01 -0.72157129587E+00 -0.29018227454E+01  0.29909288624E+01  0.51100000000E-03 0.  1.
         12    1    4    4    0    0  0.16968066509E+02 -0.35400178038E+01 -0.52092318212E+01  0.18099256981E+02  0.00000000000E+00 0. -1.
</event>
<event>
 8    1  0.5331800E-011  0.9118800E+02  0.7816164E-02  0.1184000E+00
        -11   -1    0    0    0    0  0.00000000000E+00  0.00000000000E+00  0.45593999997E+02  0.45594000000E+02  0.51100000000E-03 0. -1.
         11   -1    0    0    0    0 -0.00000000000E+00 -0.00000000000E+00 -0.45593999997E+02  0.45594000000E+02  0.51100000000E-03 0.  1.
         23    2    1    2    0    0  0.17763568394E-14  0.14210854715E-13  0.22204460493E-15  0.91188000000E+02  0.91188000000E+02 0.  0.
    9900012    2    3    3    0    0 -0.10576921061E+02  0.42074880093E+02 -0.12067766592E+01  0.47787273003E+02  0.20000008931E+02 0.  0.
        -12    1    3    3    0    0  0.10576921061E+02 -0.42074880093E+02  0.12067766592E+01  0.43400726997E+02  0.00000000000E+00 0.  1.
         11    1    4    4    0    0 -0.16860264625E+01  0.27855291710E+02 -0.24652464499E+00  0.27907359892E+02  0.51100000000E-03 0. -1.
        -11    1    4    4    0    0 -0.24982666762E+01  0.69862667226E+00 -0.38547953589E+01  0.46463817249E+01  0.51100000000E-03 0.  1.
        -12    1    4    4    0    0 -0.63926279219E+01  0.13520961710E+02  0.28945433447E+01  0.15233531386E+02  0.00000000000E+00 0.  1.
</event>
<event>
 8    1  0.5331800E-011  0.9118800E+02  0.7816164E-02  0.1184000E+00
        -11   -1    0    0    0    0  0.00000000000E+00  0.00000000000E+00  0.45593999997E+02  0.45594000000E+02  0.51100000000E-03 0. -1.
         11   -1    0    0    0    0 -0.00000000000E+00 -0.00000000000E+00 -0.45593999997E+02  0.45594000000E+02  0.51100000000E-03 0.  1.
         23    2    1    2    0    0  0.35527136788E-14  0.35527136788E-14 -0.35527136788E-14  0.91188000000E+02  0.91188000000E+02 0.  0.
    9900012    2    3    3    0    0  0.29456335994E+02 -0.25553966697E+02  0.19051144341E+02  0.47787227600E+02  0.19999801920E+02 0.  0.
        -12    1    3    3    0    0 -0.29456335994E+02  0.25553966697E+02 -0.19051144341E+02  0.43400772400E+02  0.00000000000E+00 0.  1.
         11    1    4    4    0    0  0.22452638555E+02 -0.12634170986E+02  0.15162179172E+02  0.29893727303E+02  0.51100000000E-03 0. -1.
        -11    1    4    4    0    0 -0.13797022950E+01 -0.14128752205E+01 -0.16932144511E+01  0.26013016454E+01  0.51100000000E-03 0.  1.
         12    1    4    4    0    0  0.83833997343E+01 -0.11506920491E+02  0.55821796204E+01  0.15292198652E+02  0.00000000000E+00 0. -1.
</event>
<event>
 8    1  0.5331800E-011  0.9118800E+02  0.7816164E-02  0.1184000E+00
        -11   -1    0    0    0    0  0.00000000000E+00  0.00000000000E+00  0.45593999997E+02  0.45594000000E+02  0.51100000000E-03 0. -1.
         11   -1    0    0    0    0 -0.00000000000E+00 -0.00000000000E+00 -0.45593999997E+02  0.45594000000E+02  0.51100000000E-03 0.  1.
         23    2    1    2    0    0 -0.17763568394E-14  0.00000000000E+00  0.00000000000E+00  0.91188000000E+02  0.91188000000E+02 0.  0.
    9900012    2    3    3    0    0  0.10307399909E+02  0.33782506838E+02 -0.25221468709E+02  0.47787277138E+02  0.20000027781E+02 0.  0.
         12    1    3    3    0    0 -0.10307399909E+02 -0.33782506838E+02  0.25221468709E+02  0.43400722862E+02  0.00000000000E+00 0. -1.
         11    1    4    4    0    0 -0.37035659290E+01  0.11846945757E+01 -0.84809558250E+00  0.39798452490E+01  0.51100000000E-03 0. -1.
        -11    1    4    4    0    0  0.88109059341E+01  0.28016943390E+02 -0.20963671378E+02  0.36084022755E+02  0.51100000000E-03 0.  1.
        -12    1    4    4    0    0  0.52000599035E+01  0.45808688726E+01 -0.34097017490E+01  0.77234091336E+01  0.00000000000E+00 0.  1.
</event>
<event>
 8    1  0.5331800E-011  0.9118800E+02  0.7816164E-02  0.1184000E+00
        -11   -1    0    0    0    0  0.00000000000E+00  0.00000000000E+00  0.45593999997E+02  0.45594000000E+02  0.51100000000E-03 0. -1.
         11   -1    0    0    0    0 -0.00000000000E+00 -0.00000000000E+00 -0.45593999997E+02  0.45594000000E+02  0.51100000000E-03 0.  1.
         23    2    1    2    0    0  0.35527136788E-14  0.35527136788E-14  0.00000000000E+00  0.91188000000E+02  0.91188000000E+02 0.  0.
    9900012    2    3    3    0    0 -0.21861186591E+02 -0.28826527830E+02  0.23973795373E+02  0.47787273618E+02  0.20000011734E+02 0.  0.
        -12    1    3    3    0    0  0.21861186591E+02  0.28826527830E+02 -0.23973795373E+02  0.43400726382E+02  0.00000000000E+00 0.  1.
         11    1    4    4    0    0 -0.68247213542E+01 -0.89331193881E+01  0.70666402521E+01  0.13278360150E+02  0.51100000000E-03 0. -1.
        -11    1    4    4    0    0 -0.13563474716E+02 -0.15750960295E+02  0.43934036113E+01  0.21245295765E+02  0.51100000000E-03 0.  1.
        -12    1    4    4    0    0 -0.14729905208E+01 -0.41424481469E+01  0.12513751509E+02  0.13263617703E+02  0.00000000000E+00 0.  1.
</event>
<event>
 8    1  0.5331800E-011  0.9118800E+02  0.7816164E-02  0.1184000E+00
        -11   -1    0    0    0    0  0.00000000000E+00  0.00000000000E+00  0.45593999997E+02  0.45594000000E+02  0.51100000000E-03 0. -1.
         11   -1    0    0    0    0 -0.00000000000E+00 -0.00000000000E+00 -0.45593999997E+02  0.45594000000E+02  0.51100000000E-03 0.  1.
         23    2    1    2    0    0  0.00000000000E+00  0.00000000000E+00  0.00000000000E+00  0.91188000000E+02  0.91188000000E+02 0.  0.
    9900012    2    3    3    0    0  0.17229599254E+02  0.19128565546E+02  0.34940837895E+02  0.47787271168E+02  0.20000000564E+02 0.  0.
        -12    1    3    3    0    0 -0.17229599254E+02 -0.19128565546E+02 -0.34940837895E+02  0.43400728832E+02  0.00000000000E+00 0.  1.
         11    1    4    4    0    0  0.83613253884E+01  0.10243896936E+02  0.22465771542E+02  0.26068373135E+02  0.51100000000E-03 0. -1.
        -11    1    4    4    0    0  0.76859212823E+01 -0.10450891892E+01  0.49135559304E+01  0.91819730730E+01  0.51100000000E-03 0.  1.
        -12    1    4    4    0    0  0.11823525831E+01  0.99297577986E+01  0.75615104236E+01  0.12536924960E+02  0.00000000000E+00 0.  1.
</event>
<event>
 8    1  0.5331800E-011  0.9118800E+02  0.7816164E-02  0.1184000E+00
        -11   -1    0    0    0    0  0.00000000000E+00  0.00000000000E+00  0.45593999997E+02  0.45594000000E+02  0.51100000000E-03 0. -1.
         11   -1    0    0    0    0 -0.00000000000E+00 -0.00000000000E+00 -0.45593999997E+02  0.45594000000E+02  0.51100000000E-03 0.  1.
         23    2    1    2    0    0  0.00000000000E+00 -0.35527136788E-14  0.35527136788E-14  0.91188000000E+02  0.91188000000E+02 0.  0.
    9900012    2    3    3    0    0 -0.11598173837E+02  0.29595557830E+02 -0.29550099641E+02  0.47787273411E+02  0.20000010792E+02 0.  0.
         12    1    3    3    0    0  0.11598173837E+02 -0.29595557830E+02  0.29550099641E+02  0.43400726589E+02  0.00000000000E+00 0. -1.
         11    1    4    4    0    0 -0.89516882704E+01  0.14891836521E+02 -0.23514463922E+02  0.29237467942E+02  0.51100000000E-03 0. -1.
        -11    1    4    4    0    0 -0.25039490621E+01  0.28881084286E+01 -0.55300417572E+01  0.67225213498E+01  0.51100000000E-03 0.  1.
         12    1    4    4    0    0 -0.14253650454E+00  0.11815612880E+02 -0.50559396199E+00  0.11827284119E+02  0.00000000000E+00 0. -1.
</event>
<event>
 8    1  0.5331800E-011  0.9118800E+02  0.7816164E-02  0.1184000E+00
        -11   -1    0    0    0    0  0.00000000000E+00  0.00000000000E+00  0.45593999997E+02  0.45594000000E+02  0.51100000000E-03 0. -1.
         11   -1    0    0    0    0 -0.00000000000E+00 -0.00000000000E+00 -0.45593999997E+02  0.45594000000E+02  0.51100000000E-03 0.  1.
         23    2    1    2    0    0 -0.17763568394E-14  0.00000000000E+00  0.00000000000E+00  0.91188000000E+02  0.91188000000E+02 0.  0.
    9900012    2    3    3    0    0  0.15058117808E+02 -0.19703274974E+02  0.35618235543E+02  0.47787255078E+02  0.19999927204E+02 0.  0.
        -12    1    3    3    0    0 -0.15058117808E+02  0.19703274974E+02 -0.35618235543E+02  0.43400744922E+02  0.00000000000E+00 0.  1.
         11    1    4    4    0    0  0.61617344445E+01 -0.53109955762E+01  0.16423979751E+00  0.81363763646E+01  0.51100000000E-03 0. -1.
        -11    1    4    4    0    0  0.62405739762E+01 -0.83160862606E+01  0.26815745240E+02  0.28760845733E+02  0.51100000000E-03 0.  1.
         12    1    4    4    0    0  0.26558093869E+01 -0.60761931367E+01  0.86382505054E+01  0.10890032981E+02  0.00000000000E+00 0. -1.
</event>
<event>
 8    1  0.5331800E-011  0.9118800E+02  0.7816164E-02  0.1184000E+00
        -11   -1    0    0    0    0  0.00000000000E+00  0.00000000000E+00  0.45593999997E+02  0.45594000000E+02  0.51100000000E-03 0. -1.
         11   -1    0    0    0    0 -0.00000000000E+00 -0.00000000000E+00 -0.45593999997E+02  0.45594000000E+02  0.51100000000E-03 0.  1.
         23    2    1    2    0    0  0.00000000000E+00  0.00000000000E+00  0.00000000000E+00  0.91188000000E+02  0.91188000000E+02 0.  0.
    9900012    2    3    3    0    0 -0.17741322572E+02  0.83267863818E+01  0.38723811303E+02  0.47787268902E+02  0.19999990230E+02 0.  0.
        -12    1    3    3    0    0  0.17741322572E+02 -0.83267863818E+01 -0.38723811303E+02  0.43400731098E+02  0.00000000000E+00 0.  1.
         11    1    4    4    0    0 -0.64405368238E+00 -0.16585130854E+01  0.11058114656E+02  0.11200329049E+02  0.51100000000E-03 0. -1.
        -11    1    4    4    0    0 -0.55459378403E+01  0.10581966068E+02  0.17491641610E+02  0.21182373778E+02  0.51100000000E-03 0.  1.
        -12    1    4    4    0    0 -0.11551331050E+02 -0.59666660115E+00  0.10174055036E+02  0.15404566074E+02  0.00000000000E+00 0.  1.
</event>
<event>
 8    1  0.5331800E-011  0.9118800E+02  0.7816164E-02  0.1184000E+00
        -11   -1    0    0    0    0  0.00000000000E+00  0.00000000000E+00  0.45593999997E+02  0.45594000000E+02  0.51100000000E-03 0. -1.
         11   -1    0    0    0    0 -0.00000000000E+00 -0.00000000000E+00 -0.45593999997E+02  0.45594000000E+02  0.51100000000E-03 0.  1.
         23    2    1    2    0    0  0.00000000000E+00  0.00000000000E+00  0.00000000000E+00  0.91188000000E+02  0.91188000000E+02 0.  0.
    9900012    2    3    3    0    0  0.86667951896E+01  0.25688667121E+02  0.33891037650E+02  0.47787269703E+02  0.19999993886E+02 0.  0.
        -12    1    3    3    0    0 -0.86667951896E+01 -0.25688667121E+02 -0.33891037650E+02  0.43400730297E+02  0.00000000000E+00 0.  1.
         11    1    4    4    0    0  0.75891891236E+01  0.16533544110E+02  0.28057159545E+02  0.33438870710E+02  0.51100000000E-03 0. -1.
        -11    1    4    4    0    0  0.47417807142E+01  0.52678808114E+01  0.10262185506E+01  0.71615764577E+01  0.51100000000E-03 0.  1.
         12    1    4    4    0    0 -0.36641746482E+01  0.38872421995E+01  0.48076595544E+01  0.71868225358E+01  0.00000000000E+00 0. -1.
</event>
<event>
 8    1  0.5331800E-011  0.9118800E+02  0.7816164E-02  0.1184000E+00
        -11   -1    0    0    0    0  0.00000000000E+00  0.00000000000E+00  0.45593999997E+02  0.45594000000E+02  0.51100000000E-03 0. -1.
         11   -1    0    0    0    0 -0.00000000000E+00 -0.00000000000E+00 -0.45593999997E+02  0.45594000000E+02  0.51100000000E-03 0.  1.
         23    2    1    2    0    0  0.00000000000E+00  0.00000000000E+00  0.00000000000E+00  0.91188000000E+02  0.91188000000E+02 0.  0.
    9900012    2    3    3    0    0 -0.16794116678E+02 -0.20767786138E+02  0.34209354232E+02  0.47787271745E+02  0.20000003195E+02 0.  0.
        -12    1    3    3    0    0  0.16794116678E+02  0.20767786138E+02 -0.34209354232E+02  0.43400728255E+02  0.00000000000E+00 0.  1.
         11    1    4    4    0    0 -0.16880327207E+02 -0.18913715411E+02  0.17663653284E+02  0.30897875733E+02  0.51100000000E-03 0. -1.
        -11    1    4    4    0    0  0.91053146103E+00 -0.61243760102E+00  0.12959040315E+02  0.13005417083E+02  0.51100000000E-03 0.  1.
         12    1    4    4    0    0 -0.82432093184E+00 -0.12416331260E+01  0.35866606336E+01  0.38839789287E+01  0.00000000000E+00 0. -1.
</event>
<event>
 8    1  0.5331800E-011  0.9118800E+02  0.7816164E-02  0.1184000E+00
        -11   -1    0    0    0    0  0.00000000000E+00  0.00000000000E+00  0.45593999997E+02  0.45594000000E+02  0.51100000000E-03 0. -1.
         11   -1    0    0    0    0 -0.00000000000E+00 -0.00000000000E+00 -0.45593999997E+02  0.45594000000E+02  0.51100000000E-03 0.  1.
         23    2    1    2    0    0  0.00000000000E+00  0.00000000000E+00  0.00000000000E+00  0.91188000000E+02  0.91188000000E+02 0.  0.
    9900012    2    3    3    0    0  0.10039528373E+02  0.30807657178E+02 -0.28874199434E+02  0.47787271162E+02  0.20000000535E+02 0.  0.
         12    1    3    3    0    0 -0.10039528373E+02 -0.30807657178E+02  0.28874199434E+02  0.43400728838E+02  0.00000000000E+00 0. -1.
         11    1    4    4    0    0 -0.45699583511E+01  0.45842751070E+01 -0.30405797467E+01  0.71515888476E+01  0.51100000000E-03 0. -1.
        -11    1    4    4    0    0  0.93901701150E+01  0.20410479447E+02 -0.23432013525E+02  0.32462628115E+02  0.51100000000E-03 0.  1.
        -12    1    4    4    0    0  0.52193166087E+01  0.58129026244E+01 -0.24016061619E+01  0.81730541990E+01  0.00000000000E+00 0.  1.
</event>
<event>
 8    1  0.5331800E-011  0.9118800E+02  0.7816164E-02  0.1184000E+00
        -11   -1    0    0    0    0  0.00000000000E+00  0.00000000000E+00  0.45593999997E+02  0.45594000000E+02  0.51100000000E-03 0. -1.
         11   -1    0    0    0    0 -0.00000000000E+00 -0.00000000000E+00 -0.45593999997E+02  0.45594000000E+02  0.51100000000E-03 0.  1.
         23    2    1    2    0    0  0.17763568394E-14  0.00000000000E+00  0.00000000000E+00  0.91188000000E+02  0.91188000000E+02 0.  0.
    9900012    2    3    3    0    0 -0.94282460413E+01 -0.28228557415E+02 -0.31589238577E+02  0.47787271077E+02  0.20000000149E+02 0.  0.
         12    1    3    3    0    0  0.94282460413E+01  0.28228557415E+02  0.31589238577E+02  0.43400728923E+02  0.00000000000E+00 0. -1.
         11    1    4    4    0    0 -0.10400226452E+01 -0.89739771746E+01 -0.11785342656E+01  0.91105903601E+01  0.51100000000E-03 0. -1.
        -11    1    4    4    0    0 -0.92488964463E+01 -0.74313252415E+01 -0.17568334760E+02  0.21199364774E+02  0.51100000000E-03 0.  1.
        -12    1    4    4    0    0  0.86067305026E+00 -0.11823254999E+02 -0.12842369552E+02  0.17477315943E+02  0.00000000000E+00 0.  1.
</event>
<event>
 8    1  0.5331800E-011  0.9118800E+02  0.7816164E-02  0.1184000E+00
        -11   -1    0    0    0    0  0.00000000000E+00  0.00000000000E+00  0.45593999997E+02  0.45594000000E+02  0.51100000000E-03 0.  1.
         11   -1    0    0    0    0 -0.00000000000E+00 -0.00000000000E+00 -0.45593999997E+02  0.45594000000E+02  0.51100000000E-03 0. -1.
         23    2    1    2    0    0  0.88817841970E-15  0.00000000000E+00  0.00000000000E+00  0.91188000000E+02  0.91188000000E+02 0.  0.
    9900012    2    3    3    0    0 -0.25721373844E+01 -0.36229384028E+02 -0.23757943498E+02  0.47787262253E+02  0.19999959916E+02 0.  0.
         12    1    3    3    0    0  0.25721373844E+01  0.36229384028E+02  0.23757943498E+02  0.43400737747E+02  0.00000000000E+00 0. -1.
         11    1    4    4    0    0 -0.40368418422E+01 -0.12943697214E+01 -0.86831523231E+01  0.96627438940E+01  0.51100000000E-03 0. -1.
        -11    1    4    4    0    0 -0.85058716585E-01 -0.26240620110E+01 -0.64253011768E+00  0.27029209452E+01  0.51100000000E-03 0.  1.
         12    1    4    4    0    0  0.15497631744E+01 -0.32310952295E+02 -0.14432261057E+02  0.35421597414E+02  0.00000000000E+00 0. -1.
</event>
<event>
 8    1  0.5331800E-011  0.9118800E+02  0.7816164E-02  0.1184000E+00
        -11   -1    0    0    0    0  0.00000000000E+00  0.00000000000E+00  0.45593999997E+02  0.45594000000E+02  0.51100000000E-03 0. -1.
         11   -1    0    0    0    0 -0.00000000000E+00 -0.00000000000E+00 -0.45593999997E+02  0.45594000000E+02  0.51100000000E-03 0.  1.
         23    2    1    2    0    0  0.00000000000E+00  0.00000000000E+00  0.00000000000E+00  0.91188000000E+02  0.91188000000E+02 0.  0.
    9900012    2    3    3    0    0  0.20807669470E+02 -0.13941638489E+02  0.35444257114E+02  0.47787265503E+02  0.19999974734E+02 0.  0.
        -12    1    3    3    0    0 -0.20807669470E+02  0.13941638489E+02 -0.35444257114E+02  0.43400734497E+02  0.00000000000E+00 0.  1.
         11    1    4    4    0    0  0.82790348692E+01 -0.90775858173E+01  0.56773771189E+01  0.13534311724E+02  0.51100000000E-03 0. -1.
        -11    1    4    4    0    0  0.14267809264E+02 -0.43265643281E+01  0.24495341564E+02  0.28675970754E+02  0.51100000000E-03 0.  1.
        -12    1    4    4    0    0 -0.17391746634E+01 -0.53748834327E+00  0.52715384307E+01  0.55769830245E+01  0.00000000000E+00 0.  1.
</event>
<event>
 8    1  0.5331800E-011  0.9118800E+02  0.7816164E-02  0.1184000E+00
        -11   -1    0    0    0    0  0.00000000000E+00  0.00000000000E+00  0.45593999997E+02  0.45594000000E+02  0.51100000000E-03 0.  1.
         11   -1    0    0    0    0 -0.00000000000E+00 -0.00000000000E+00 -0.45593999997E+02  0.45594000000E+02  0.51100000000E-03 0. -1.
         23    2    1    2    0    0  0.17763568394E-14  0.00000000000E+00  0.17763568394E-14  0.91188000000E+02  0.91188000000E+02 0.  0.
    9900012    2    3    3    0    0  0.14117756203E+02  0.39278448109E+02  0.11896042626E+02  0.47787270096E+02  0.19999995676E+02 0.  0.
         12    1    3    3    0    0 -0.14117756203E+02 -0.39278448109E+02 -0.11896042626E+02  0.43400729904E+02  0.00000000000E+00 0. -1.
         11    1    4    4    0    0 -0.50954688747E+00 -0.15799803287E+01  0.68223601109E+00  0.17948320550E+01  0.51100000000E-03 0. -1.
        -11    1    4    4    0    0  0.42744514421E+01  0.15978180257E+02 -0.63974362748E+00  0.16552415281E+02  0.51100000000E-03 0.  1.
         12    1    4    4    0    0  0.10352851649E+02  0.24880248180E+02  0.11853550243E+02  0.29440022760E+02  0.00000000000E+00 0. -1.
</event>
<event>
 8    1  0.5331800E-011  0.9118800E+02  0.7816164E-02  0.1184000E+00
        -11   -1    0    0    0    0  0.00000000000E+00  0.00000000000E+00  0.45593999997E+02  0.45594000000E+02  0.51100000000E-03 0. -1.
         11   -1    0    0    0    0 -0.00000000000E+00 -0.00000000000E+00 -0.45593999997E+02  0.45594000000E+02  0.51100000000E-03 0.  1.
         23    2    1    2    0    0  0.35527136788E-14  0.00000000000E+00  0.35527136788E-14  0.91188000000E+02  0.91188000000E+02 0.  0.
    9900012    2    3    3    0    0 -0.21797527081E+02  0.25960552943E+02  0.27102411017E+02  0.47787272139E+02  0.20000004989E+02 0.  0.
        -12    1    3    3    0    0  0.21797527081E+02 -0.25960552943E+02 -0.27102411017E+02  0.43400727861E+02  0.00000000000E+00 0.  1.
         11    1    4    4    0    0  0.29810818285E+01  0.24303597664E+01  0.87377870619E+00  0.39442346470E+01  0.51100000000E-03 0. -1.
        -11    1    4    4    0    0 -0.15289113642E+02  0.10295414258E+02  0.10554976274E+02  0.21240529068E+02  0.51100000000E-03 0.  1.
         12    1    4    4    0    0 -0.94894952673E+01  0.13234778919E+02  0.15673656037E+02  0.22602508423E+02  0.00000000000E+00 0. -1.
</event>
<event>
 8    1  0.5331800E-011  0.9118800E+02  0.7816164E-02  0.1184000E+00
        -11   -1    0    0    0    0  0.00000000000E+00  0.00000000000E+00  0.45593999997E+02  0.45594000000E+02  0.51100000000E-03 0.  1.
         11   -1    0    0    0    0 -0.00000000000E+00 -0.00000000000E+00 -0.45593999997E+02  0.45594000000E+02  0.51100000000E-03 0. -1.
         23    2    1    2    0    0  0.00000000000E+00  0.00000000000E+00 -0.88817841970E-15  0.91188000000E+02  0.91188000000E+02 0.  0.
    9900012    2    3    3    0    0 -0.19685475622E+02  0.38335967820E+02  0.51436499780E+01  0.47787291316E+02  0.20000092428E+02 0.  0.
        -12    1    3    3    0    0  0.19685475622E+02 -0.38335967820E+02 -0.51436499780E+01  0.43400708684E+02  0.00000000000E+00 0.  1.
         11    1    4    4    0    0 -0.12532506678E+02  0.33869990883E+02  0.93361176519E+01  0.37301516044E+02  0.51100000000E-03 0. -1.
        -11    1    4    4    0    0 -0.64806234795E+01  0.16530058739E+01 -0.25358484002E+01  0.71527223119E+01  0.51100000000E-03 0.  1.
         12    1    4    4    0    0 -0.67234546478E+00  0.28129710624E+01 -0.16566192737E+01  0.33330529609E+01  0.00000000000E+00 0. -1.
</event>
<event>
 8    1  0.5331800E-011  0.9118800E+02  0.7816164E-02  0.1184000E+00
        -11   -1    0    0    0    0  0.00000000000E+00  0.00000000000E+00  0.45593999997E+02  0.45594000000E+02  0.51100000000E-03 0. -1.
         11   -1    0    0    0    0 -0.00000000000E+00 -0.00000000000E+00 -0.45593999997E+02  0.45594000000E+02  0.51100000000E-03 0.  1.
         23    2    1    2    0    0  0.17763568394E-14 -0.17763568394E-14  0.00000000000E+00  0.91188000000E+02  0.91188000000E+02 0.  0.
    9900012    2    3    3    0    0 -0.10253160462E+02 -0.14674491628E+02  0.39536757329E+02  0.47787272078E+02  0.20000004714E+02 0.  0.
        -12    1    3    3    0    0  0.10253160462E+02  0.14674491628E+02 -0.39536757329E+02  0.43400727922E+02  0.00000000000E+00 0.  1.
         11    1    4    4    0    0 -0.72306653254E+01  0.16327187060E+01  0.16252145742E+02  0.17862825446E+02  0.51100000000E-03 0. -1.
        -11    1    4    4    0    0 -0.17997590046E+01 -0.15925935493E+02  0.23671073410E+02  0.28586609985E+02  0.51100000000E-03 0.  1.
        -12    1    4    4    0    0 -0.12227361320E+01 -0.38127484102E+00 -0.38646182318E+00  0.13378366469E+01  0.00000000000E+00 0.  1.
</event>
<event>
 8    1  0.5331800E-011  0.9118800E+02  0.7816164E-02  0.1184000E+00
        -11   -1    0    0    0    0  0.00000000000E+00  0.00000000000E+00  0.45593999997E+02  0.45594000000E+02  0.51100000000E-03 0. -1.
         11   -1    0    0    0    0 -0.00000000000E+00 -0.00000000000E+00 -0.45593999997E+02  0.45594000000E+02  0.51100000000E-03 0.  1.
         23    2    1    2    0    0  0.00000000000E+00  0.00000000000E+00  0.00000000000E+00  0.91188000000E+02  0.91188000000E+02 0.  0.
    9900012    2    3    3    0    0  0.24573013620E+02  0.17562371201E+02  0.31166546153E+02  0.47787268674E+02  0.19999989191E+02 0.  0.
        -12    1    3    3    0    0 -0.24573013620E+02 -0.17562371201E+02 -0.31166546153E+02  0.43400731326E+02  0.00000000000E+00 0.  1.
         11    1    4    4    0    0  0.24951047987E+02  0.14048003101E+02  0.22005749565E+02  0.36113075208E+02  0.51100000000E-03 0. -1.
        -11    1    4    4    0    0 -0.15325407195E+01  0.30051896288E+01  0.11491048099E+01  0.35637463276E+01  0.51100000000E-03 0.  1.
         12    1    4    4    0    0  0.11545063519E+01  0.50917847098E+00  0.80116917780E+01  0.81104471379E+01  0.00000000000E+00 0. -1.
</event>
<event>
 8    1  0.5331800E-011  0.9118800E+02  0.7816164E-02  0.1184000E+00
        -11   -1    0    0    0    0  0.00000000000E+00  0.00000000000E+00  0.45593999997E+02  0.45594000000E+02  0.51100000000E-03 0. -1.
         11   -1    0    0    0    0 -0.00000000000E+00 -0.00000000000E+00 -0.45593999997E+02  0.45594000000E+02  0.51100000000E-03 0.  1.
         23    2    1    2    0    0  0.00000000000E+00  0.00000000000E+00  0.00000000000E+00  0.91188000000E+02  0.91188000000E+02 0.  0.
    9900012    2    3    3    0    0  0.20915875625E+02  0.18131781425E+02 -0.33427342690E+02  0.47787278921E+02  0.20000035914E+02 0.  0.
         12    1    3    3    0    0 -0.20915875625E+02 -0.18131781425E+02  0.33427342690E+02  0.43400721079E+02  0.00000000000E+00 0. -1.
         11    1    4    4    0    0  0.19358458203E+02  0.19583170725E+02 -0.19988537380E+02  0.34026344301E+02  0.51100000000E-03 0. -1.
        -11    1    4    4    0    0  0.12870552638E+01 -0.30678275063E+00 -0.10683455457E+02  0.10765075368E+02  0.51100000000E-03 0.  1.
         12    1    4    4    0    0  0.27036215761E+00 -0.11446065488E+01 -0.27553498528E+01  0.29958592522E+01  0.00000000000E+00 0. -1.
</event>
<event>
 8    1  0.5645306E-011  0.9118800E+02  0.7816164E-02  0.1184000E+00
        -11   -1    0    0    0    0  0.00000000000E+00  0.00000000000E+00  0.45593999997E+02  0.45594000000E+02  0.51100000000E-03 0. -1.
         11   -1    0    0    0    0 -0.00000000000E+00 -0.00000000000E+00 -0.45593999997E+02  0.45594000000E+02  0.51100000000E-03 0.  1.
         23    2    1    2    0    0  0.35527136788E-14  0.00000000000E+00  0.00000000000E+00  0.91188000000E+02  0.91188000000E+02 0.  0.
    9900012    2    3    3    0    0 -0.19181814540E+02  0.14376862590E+02 -0.36179926159E+02  0.47787271390E+02  0.20000001576E+02 0.  0.
         12    1    3    3    0    0  0.19181814540E+02 -0.14376862590E+02  0.36179926159E+02  0.43400728610E+02  0.00000000000E+00 0. -1.
         11    1    4    4    0    0 -0.72196200630E+01 -0.14305311938E+01 -0.27389384427E+01  0.78530960394E+01  0.51100000000E-03 0. -1.
        -11    1    4    4    0    0 -0.54588146415E+01  0.13184199046E+02 -0.26323943218E+02  0.29942807961E+02  0.51100000000E-03 0.  1.
        -12    1    4    4    0    0 -0.65033798358E+01  0.26231947373E+01 -0.71170444984E+01  0.99913673895E+01  0.00000000000E+00 0.  1.
</event>
<event>
 8    1  0.5331800E-011  0.9118800E+02  0.7816164E-02  0.1184000E+00
        -11   -1    0    0    0    0  0.00000000000E+00  0.00000000000E+00  0.45593999997E+02  0.45594000000E+02  0.51100000000E-03 0. -1.
         11   -1    0    0    0    0 -0.00000000000E+00 -0.00000000000E+00 -0.45593999997E+02  0.45594000000E+02  0.51100000000E-03 0.  1.
         23    2    1    2    0    0 -0.66613381478E-15  0.71054273576E-14  0.00000000000E+00  0.91188000000E+02  0.91188000000E+02 0.  0.
    9900012    2    3    3    0    0 -0.12469885280E+01 -0.33935521472E+02 -0.27026808907E+02  0.47787274227E+02  0.20000014509E+02 0.  0.
         12    1    3    3    0    0  0.12469885280E+01  0.33935521472E+02  0.27026808907E+02  0.43400725773E+02  0.00000000000E+00 0. -1.
         11    1    4    4    0    0  0.24987925102E+01 -0.12561859698E+02 -0.15069914539E+02  0.19777426718E+02  0.51100000000E-03 0. -1.
        -11    1    4    4    0    0 -0.22987712702E+01 -0.37554272176E+01  0.25970386608E+01  0.51119656695E+01  0.51100000000E-03 0.  1.
        -12    1    4    4    0    0 -0.14470097679E+01 -0.17618234556E+02 -0.14553933028E+02  0.22897881839E+02  0.00000000000E+00 0.  1.
</event>
<event>
 8    1  0.5331800E-011  0.9118800E+02  0.7816164E-02  0.1184000E+00
        -11   -1    0    0    0    0  0.00000000000E+00  0.00000000000E+00  0.45593999997E+02  0.45594000000E+02  0.51100000000E-03 0. -1.
         11   -1    0    0    0    0 -0.00000000000E+00 -0.00000000000E+00 -0.45593999997E+02  0.45594000000E+02  0.51100000000E-03 0.  1.
         23    2    1    2    0    0  0.00000000000E+00  0.00000000000E+00  0.00000000000E+00  0.91188000000E+02  0.91188000000E+02 0.  0.
    9900012    2    3    3    0    0 -0.43360393120E+01 -0.20494005582E+02  0.38010758237E+02  0.47787271395E+02  0.20000001597E+02 0.  0.
        -12    1    3    3    0    0  0.43360393120E+01  0.20494005582E+02 -0.38010758237E+02  0.43400728605E+02  0.00000000000E+00 0.  1.
         11    1    4    4    0    0 -0.33464629462E+01 -0.36439205669E+01  0.95815489263E+01  0.10783461941E+02  0.51100000000E-03 0. -1.
        -11    1    4    4    0    0 -0.26702653366E+01 -0.19866974340E+02  0.25751677072E+02  0.32633967866E+02  0.51100000000E-03 0.  1.
        -12    1    4    4    0    0  0.16806889707E+01  0.30168893247E+01  0.26775322389E+01  0.43698415880E+01  0.00000000000E+00 0.  1.
</event>
<event>
 8    1  0.5331800E-011  0.9118800E+02  0.7816164E-02  0.1184000E+00
        -11   -1    0    0    0    0  0.00000000000E+00  0.00000000000E+00  0.45593999997E+02  0.45594000000E+02  0.51100000000E-03 0.  1.
         11   -1    0    0    0    0 -0.00000000000E+00 -0.00000000000E+00 -0.45593999997E+02  0.45594000000E+02  0.51100000000E-03 0. -1.
         23    2    1    2    0    0 -0.35527136788E-14 -0.71054273576E-14  0.00000000000E+00  0.91188000000E+02  0.91188000000E+02 0.  0.
    9900012    2    3    3    0    0 -0.12276926454E+02 -0.40897209851E+02  0.77665003171E+01  0.47787271620E+02  0.20000002623E+02 0.  0.
        -12    1    3    3    0    0  0.12276926454E+02  0.40897209851E+02 -0.77665003171E+01  0.43400728380E+02  0.00000000000E+00 0.  1.
         11    1    4    4    0    0 -0.50880584162E+00 -0.14092231108E+02 -0.42288985998E+01  0.14721869603E+02  0.51100000000E-03 0. -1.
        -11    1    4    4    0    0 -0.48908730764E+00  0.16371257076E+00 -0.96086915996E+00  0.10905402349E+01  0.51100000000E-03 0.  1.
         12    1    4    4    0    0 -0.11279033305E+02 -0.26968691314E+02  0.12956268077E+02  0.31974861782E+02  0.00000000000E+00 0. -1.
</event>
<event>
 8    1  0.5331800E-011  0.9118800E+02  0.7816164E-02  0.1184000E+00
        -11   -1    0    0    0    0  0.00000000000E+00  0.00000000000E+00  0.45593999997E+02  0.45594000000E+02  0.51100000000E-03 0. -1.
         11   -1    0    0    0    0 -0.00000000000E+00 -0.00000000000E+00 -0.45593999997E+02  0.45594000000E+02  0.51100000000E-03 0.  1.
         23    2    1    2    0    0  0.17763568394E-14  0.00000000000E+00  0.35527136788E-14  0.91188000000E+02  0.91188000000E+02 0.  0.
    9900012    2    3    3    0    0 -0.15289464301E+02  0.36335104043E+02 -0.18155217145E+02  0.47787315512E+02  0.20000202744E+02 0.  0.
         12    1    3    3    0    0  0.15289464301E+02 -0.36335104043E+02  0.18155217145E+02  0.43400684488E+02  0.00000000000E+00 0. -1.
         11    1    4    4    0    0 -0.94635679948E+01  0.87817440345E+01 -0.72141969884E+01  0.14789279426E+02  0.51100000000E-03 0. -1.
        -11    1    4    4    0    0  0.33826209939E+01  0.84062898094E+01  0.83499960972E-01  0.90617220026E+01  0.51100000000E-03 0.  1.
        -12    1    4    4    0    0 -0.92085172999E+01  0.19147070200E+02 -0.11024520118E+02  0.23936314084E+02  0.00000000000E+00 0.  1.
</event>
<event>
 8    1  0.5331800E-011  0.9118800E+02  0.7816164E-02  0.1184000E+00
        -11   -1    0    0    0    0  0.00000000000E+00  0.00000000000E+00  0.45593999997E+02  0.45594000000E+02  0.51100000000E-03 0.  1.
         11   -1    0    0    0    0 -0.00000000000E+00 -0.00000000000E+00 -0.45593999997E+02  0.45594000000E+02  0.51100000000E-03 0. -1.
         23    2    1    2    0    0  0.71054273576E-14  0.35527136788E-14  0.00000000000E+00  0.91188000000E+02  0.91188000000E+02 0.  0.
    9900012    2    3    3    0    0 -0.33432994976E+02 -0.16295012177E+02 -0.22368093980E+02  0.47787260338E+02  0.19999951184E+02 0.  0.
         12    1    3    3    0    0  0.33432994976E+02  0.16295012177E+02  0.22368093980E+02  0.43400739662E+02  0.00000000000E+00 0. -1.
         11    1    4    4    0    0 -0.75412750190E+01 -0.12812452032E+01  0.19752120525E+01  0.79002456352E+01  0.51100000000E-03 0. -1.
        -11    1    4    4    0    0 -0.15973319498E+02 -0.74183769593E+01 -0.20027774974E+02  0.26670039804E+02  0.51100000000E-03 0.  1.
        -12    1    4    4    0    0 -0.99184004595E+01 -0.75953900147E+01 -0.43155310581E+01  0.13216974898E+02  0.00000000000E+00 0.  1.
</event>
<event>
 8    1  0.5331800E-011  0.9118800E+02  0.7816164E-02  0.1184000E+00
        -11   -1    0    0    0    0  0.00000000000E+00  0.00000000000E+00  0.45593999997E+02  0.45594000000E+02  0.51100000000E-03 0.  1.
         11   -1    0    0    0    0 -0.00000000000E+00 -0.00000000000E+00 -0.45593999997E+02  0.45594000000E+02  0.51100000000E-03 0. -1.
         23    2    1    2    0    0  0.00000000000E+00  0.00000000000E+00 -0.88817841970E-15  0.91188000000E+02  0.91188000000E+02 0.  0.
    9900012    2    3    3    0    0  0.28550526638E+02  0.31847924182E+02 -0.73621116528E+01  0.47787268048E+02  0.19999986337E+02 0.  0.
        -12    1    3    3    0    0 -0.28550526638E+02 -0.31847924182E+02  0.73621116528E+01  0.43400731952E+02  0.00000000000E+00 0.  1.
         11    1    4    4    0    0  0.57808463646E+01  0.15630326310E+02 -0.78468325429E+01  0.18420045235E+02  0.51100000000E-03 0. -1.
        -11    1    4    4    0    0  0.30684461929E+01  0.12859651062E+01 -0.29035167499E+01  0.44158213360E+01  0.51100000000E-03 0.  1.
         12    1    4    4    0    0  0.19701234080E+02  0.14931632766E+02  0.33882376400E+01  0.24951401476E+02  0.00000000000E+00 0. -1.
</event>
<event>
 8    1  0.5331800E-011  0.9118800E+02  0.7816164E-02  0.1184000E+00
        -11   -1    0    0    0    0  0.00000000000E+00  0.00000000000E+00  0.45593999997E+02  0.45594000000E+02  0.51100000000E-03 0. -1.
         11   -1    0    0    0    0 -0.00000000000E+00 -0.00000000000E+00 -0.45593999997E+02  0.45594000000E+02  0.51100000000E-03 0.  1.
         23    2    1    2    0    0  0.00000000000E+00  0.00000000000E+00 -0.71054273576E-14  0.91188000000E+02  0.91188000000E+02 0.  0.
    9900012    2    3    3    0    0  0.14236136871E+02 -0.41003595496E+01  0.40793903788E+02  0.47787272728E+02  0.20000007677E+02 0.  0.
        -12    1    3    3    0    0 -0.14236136871E+02  0.41003595496E+01 -0.40793903788E+02  0.43400727272E+02  0.00000000000E+00 0.  1.
         11    1    4    4    0    0  0.15852362307E+02 -0.34675534809E+00  0.17668960223E+02  0.23740467258E+02  0.51100000000E-03 0. -1.
        -11    1    4    4    0    0 -0.53198534296E+00  0.77919085787E+00  0.78934222382E+00  0.12301252804E+01  0.51100000000E-03 0.  1.
         12    1    4    4    0    0 -0.10842400933E+01 -0.45327950594E+01  0.22335601341E+02  0.22816680190E+02  0.00000000000E+00 0. -1.
</event>
<event>
 8    1  0.5331800E-011  0.9118800E+02  0.7816164E-02  0.1184000E+00
        -11   -1    0    0    0    0  0.00000000000E+00  0.00000000000E+00  0.45593999997E+02  0.45594000000E+02  0.51100000000E-03 0. -1.
         11   -1    0    0    0    0 -0.00000000000E+00 -0.00000000000E+00 -0.45593999997E+02  0.45594000000E+02  0.51100000000E-03 0.  1.
         23    2    1    2    0    0  0.00000000000E+00  0.00000000000E+00  0.00000000000E+00  0.91188000000E+02  0.91188000000E+02 0.  0.
    9900012    2    3    3    0    0 -0.21881187647E+02 -0.25923583622E+02 -0.27070356741E+02  0.47787276795E+02  0.20000026220E+02 0.  0.
         12    1    3    3    0    0  0.21881187647E+02  0.25923583622E+02  0.27070356741E+02  0.43400723205E+02  0.00000000000E+00 0. -1.
         11    1    4    4    0    0 -0.74076651014E+01 -0.16106571621E+01 -0.11036001203E+02  0.13388840187E+02  0.51100000000E-03 0. -1.
        -11    1    4    4    0    0 -0.95610525565E+00 -0.12155136794E+02 -0.74968866122E+01  0.14313098787E+02  0.51100000000E-03 0.  1.
         12    1    4    4    0    0 -0.13517417290E+02 -0.12157789665E+02 -0.85374689256E+01  0.20085337821E+02  0.00000000000E+00 0. -1.
</event>
<event>
 8    1  0.5331800E-011  0.9118800E+02  0.7816164E-02  0.1184000E+00
        -11   -1    0    0    0    0  0.00000000000E+00  0.00000000000E+00  0.45593999997E+02  0.45594000000E+02  0.51100000000E-03 0. -1.
         11   -1    0    0    0    0 -0.00000000000E+00 -0.00000000000E+00 -0.45593999997E+02  0.45594000000E+02  0.51100000000E-03 0.  1.
         23    2    1    2    0    0  0.00000000000E+00  0.00000000000E+00  0.00000000000E+00  0.91188000000E+02  0.91188000000E+02 0.  0.
    9900012    2    3    3    0    0 -0.13431868951E+02 -0.22381034046E+02  0.34674152797E+02  0.47787278109E+02  0.20000032212E+02 0.  0.
        -12    1    3    3    0    0  0.13431868951E+02  0.22381034046E+02 -0.34674152797E+02  0.43400721891E+02  0.00000000000E+00 0.  1.
         11    1    4    4    0    0 -0.89990703411E+01 -0.49159444610E+01  0.58069573929E+01  0.11784334151E+02  0.51100000000E-03 0. -1.
        -11    1    4    4    0    0  0.40616157627E+01 -0.60223612991E+01  0.97819209638E+01  0.12184068952E+02  0.51100000000E-03 0.  1.
         12    1    4    4    0    0 -0.84944143721E+01 -0.11442728286E+02  0.19085274440E+02  0.23818875007E+02  0.00000000000E+00 0. -1.
</event>
<event>
 8    1  0.5822647E-011  0.9118800E+02  0.7816164E-02  0.1184000E+00
        -11   -1    0    0    0    0  0.00000000000E+00  0.00000000000E+00  0.45593999997E+02  0.45594000000E+02  0.51100000000E-03 0. -1.
         11   -1    0    0    0    0 -0.00000000000E+00 -0.00000000000E+00 -0.45593999997E+02  0.45594000000E+02  0.51100000000E-03 0.  1.
         23    2    1    2    0    0  0.00000000000E+00 -0.35527136788E-14  0.00000000000E+00  0.91188000000E+02  0.91188000000E+02 0.  0.
    9900012    2    3    3    0    0 -0.51340224578E+01 -0.30209271139E+02 -0.30735400536E+02  0.47787273100E+02  0.20000009371E+02 0.  0.
         12    1    3    3    0    0  0.51340224578E+01  0.30209271139E+02  0.30735400536E+02  0.43400726900E+02  0.00000000000E+00 0. -1.
         11    1    4    4    0    0  0.28882533407E+01  0.48958327285E+00 -0.30048766543E+01  0.41965441866E+01  0.51100000000E-03 0. -1.
        -11    1    4    4    0    0 -0.38715323972E+01 -0.23353331936E+02 -0.25643637786E+02  0.34899327139E+02  0.51100000000E-03 0.  1.
        -12    1    4    4    0    0 -0.41507434013E+01 -0.73455224753E+01 -0.20868860966E+01  0.86914017740E+01  0.00000000000E+00 0.  1.
</event>
<event>
 8    1  0.5331800E-011  0.9118800E+02  0.7816164E-02  0.1184000E+00
        -11   -1    0    0    0    0  0.00000000000E+00  0.00000000000E+00  0.45593999997E+02  0.45594000000E+02  0.51100000000E-03 0. -1.
         11   -1    0    0    0    0 -0.00000000000E+00 -0.00000000000E+00 -0.45593999997E+02  0.45594000000E+02  0.51100000000E-03 0.  1.
         23    2    1    2    0    0 -0.35527136788E-14  0.17763568394E-14  0.00000000000E+00  0.91188000000E+02  0.91188000000E+02 0.  0.
    9900012    2    3    3    0    0 -0.23136982672E+02  0.14019671717E+02  0.33937472268E+02  0.47787272055E+02  0.20000004607E+02 0.  0.
        -12    1    3    3    0    0  0.23136982672E+02 -0.14019671717E+02 -0.33937472268E+02  0.43400727945E+02  0.00000000000E+00 0.  1.
         11    1    4    4    0    0 -0.55783369257E+01 -0.14274356431E+01  0.15373796843E+02  0.16416730643E+02  0.51100000000E-03 0. -1.
        -11    1    4    4    0    0 -0.12716406659E+02  0.73909811164E+01  0.65082032265E+01  0.16083852452E+02  0.51100000000E-03 0.  1.
         12    1    4    4    0    0 -0.48422390869E+01  0.80561262437E+01  0.12055472198E+02  0.15286688960E+02  0.00000000000E+00 0. -1.
</event>
<event>
 8    1  0.5331800E-011  0.9118800E+02  0.7816164E-02  0.1184000E+00
        -11   -1    0    0    0    0  0.00000000000E+00  0.00000000000E+00  0.45593999997E+02  0.45594000000E+02  0.51100000000E-03 0. -1.
         11   -1    0    0    0    0 -0.00000000000E+00 -0.00000000000E+00 -0.45593999997E+02  0.45594000000E+02  0.51100000000E-03 0.  1.
         23    2    1    2    0    0  0.00000000000E+00  0.00000000000E+00  0.00000000000E+00  0.91188000000E+02  0.91188000000E+02 0.  0.
    9900012    2    3    3    0    0 -0.12852470972E+02  0.92238710772E+01 -0.40414808553E+02  0.47787279291E+02  0.20000037598E+02 0.  0.
         12    1    3    3    0    0  0.12852470972E+02 -0.92238710772E+01  0.40414808553E+02  0.43400720709E+02  0.00000000000E+00 0. -1.
         11    1    4    4    0    0 -0.88281895735E+01 -0.29028736093E+01 -0.26287044800E+02  0.27881397578E+02  0.51100000000E-03 0. -1.
        -11    1    4    4    0    0  0.55532589138E+00  0.53598398034E+01 -0.81966705100E+01  0.98092648692E+01  0.51100000000E-03 0.  1.
         12    1    4    4    0    0 -0.45796072896E+01  0.67669048831E+01 -0.59310932429E+01  0.10096616843E+02  0.00000000000E+00 0. -1.
</event>
<event>
 8    1  0.5331800E-011  0.9118800E+02  0.7816164E-02  0.1184000E+00
        -11   -1    0    0    0    0  0.00000000000E+00  0.00000000000E+00  0.45593999997E+02  0.45594000000E+02  0.51100000000E-03 0. -1.
         11   -1    0    0    0    0 -0.00000000000E+00 -0.00000000000E+00 -0.45593999997E+02  0.45594000000E+02  0.51100000000E-03 0.  1.
         23    2    1    2    0    0  0.35527136788E-14 -0.44408920985E-15  0.00000000000E+00  0.91188000000E+02  0.91188000000E+02 0.  0.
    9900012    2    3    3    0    0 -0.13289862232E+02 -0.10678289154E+01  0.41302088318E+02  0.47787271940E+02  0.20000004083E+02 0.  0.
        -12    1    3    3    0    0  0.13289862232E+02  0.10678289154E+01 -0.41302088318E+02  0.43400728060E+02  0.00000000000E+00 0.  1.
         11    1    4    4    0    0 -0.29056871723E+01 -0.37450588760E+00  0.11230827129E+02  0.11606668379E+02  0.51100000000E-03 0. -1.
        -11    1    4    4    0    0 -0.67790054790E+00 -0.57604078142E+01  0.21519479033E+02  0.22287436494E+02  0.51100000000E-03 0.  1.
        -12    1    4    4    0    0 -0.97062745113E+01  0.50670847864E+01  0.85517821559E+01  0.13893167067E+02  0.00000000000E+00 0.  1.
</event>
<event>
 8    1  0.5331800E-011  0.9118800E+02  0.7816164E-02  0.1184000E+00
        -11   -1    0    0    0    0  0.00000000000E+00  0.00000000000E+00  0.45593999997E+02  0.45594000000E+02  0.51100000000E-03 0. -1.
         11   -1    0    0    0    0 -0.00000000000E+00 -0.00000000000E+00 -0.45593999997E+02  0.45594000000E+02  0.51100000000E-03 0.  1.
         23    2    1    2    0    0  0.00000000000E+00  0.44408920985E-15 -0.35527136788E-14  0.91188000000E+02  0.91188000000E+02 0.  0.
    9900012    2    3    3    0    0 -0.32454011159E+02  0.17309020234E+01  0.28763943850E+02  0.47787270421E+02  0.19999997159E+02 0.  0.
        -12    1    3    3    0    0  0.32454011159E+02 -0.17309020234E+01 -0.28763943850E+02  0.43400729579E+02  0.00000000000E+00 0.  1.
         11    1    4    4    0    0 -0.18626718776E+02 -0.16719091178E+00  0.12191229292E+02  0.22262270259E+02  0.51100000000E-03 0. -1.
        -11    1    4    4    0    0  0.84406095205E+00 -0.26409080027E+01  0.67439832050E+01  0.72916489013E+01  0.51100000000E-03 0.  1.
        -12    1    4    4    0    0 -0.14671353335E+02  0.45390009379E+01  0.98287313531E+01  0.18233351261E+02  0.00000000000E+00 0.  1.
</event>
<event>
 8    1  0.6619554E-011  0.9118800E+02  0.7816164E-02  0.1184000E+00
        -11   -1    0    0    0    0  0.00000000000E+00  0.00000000000E+00  0.45593999997E+02  0.45594000000E+02  0.51100000000E-03 0. -1.
         11   -1    0    0    0    0 -0.00000000000E+00 -0.00000000000E+00 -0.45593999997E+02  0.45594000000E+02  0.51100000000E-03 0.  1.
         23    2    1    2    0    0 -0.44408920985E-15  0.44408920985E-15  0.71054273576E-14  0.91188000000E+02  0.91188000000E+02 0.  0.
    9900012    2    3    3    0    0 -0.26478271576E+01  0.23579189644E+01  0.43255662537E+02  0.47787272909E+02  0.20000008501E+02 0.  0.
        -12    1    3    3    0    0  0.26478271576E+01 -0.23579189644E+01 -0.43255662537E+02  0.43400727091E+02  0.00000000000E+00 0.  1.
         11    1    4    4    0    0  0.53118845332E+00  0.12022030993E+01  0.11929213790E+02  0.12001399725E+02  0.51100000000E-03 0. -1.
        -11    1    4    4    0    0  0.17000068363E+01 -0.61455212245E+01  0.22295660995E+02  0.23189522501E+02  0.51100000000E-03 0.  1.
        -12    1    4    4    0    0 -0.48790224472E+01  0.73012370896E+01  0.90307877522E+01  0.12596350682E+02  0.00000000000E+00 0.  1.
</event>
<event>
 8    1  0.5947104E-011  0.9118800E+02  0.7816164E-02  0.1184000E+00
        -11   -1    0    0    0    0  0.00000000000E+00  0.00000000000E+00  0.45593999997E+02  0.45594000000E+02  0.51100000000E-03 0. -1.
         11   -1    0    0    0    0 -0.00000000000E+00 -0.00000000000E+00 -0.45593999997E+02  0.45594000000E+02  0.51100000000E-03 0.  1.
         23    2    1    2    0    0  0.00000000000E+00  0.00000000000E+00  0.71054273576E-14  0.91188000000E+02  0.91188000000E+02 0.  0.
    9900012    2    3    3    0    0 -0.12021344902E+02  0.68300052592E+01  0.41139543867E+02  0.47787265275E+02  0.19999973695E+02 0.  0.
        -12    1    3    3    0    0  0.12021344902E+02 -0.68300052592E+01 -0.41139543867E+02  0.43400734725E+02  0.00000000000E+00 0.  1.
         11    1    4    4    0    0 -0.54650384422E+01  0.74160701979E+01  0.24488694308E+02  0.26164114576E+02  0.51100000000E-03 0. -1.
        -11    1    4    4    0    0 -0.68552349793E+01  0.56848716308E+00  0.23447293088E+01  0.72674053189E+01  0.51100000000E-03 0.  1.
        -12    1    4    4    0    0  0.29892852005E+00 -0.11545521018E+01  0.14306120250E+02  0.14355745381E+02  0.00000000000E+00 0.  1.
</event>
<event>
 8    1  0.5331800E-011  0.9118800E+02  0.7816164E-02  0.1184000E+00
        -11   -1    0    0    0    0  0.00000000000E+00  0.00000000000E+00  0.45593999997E+02  0.45594000000E+02  0.51100000000E-03 0. -1.
         11   -1    0    0    0    0 -0.00000000000E+00 -0.00000000000E+00 -0.45593999997E+02  0.45594000000E+02  0.51100000000E-03 0.  1.
         23    2    1    2    0    0  0.00000000000E+00  0.35527136788E-14 -0.35527136788E-14  0.91188000000E+02  0.91188000000E+02 0.  0.
    9900012    2    3    3    0    0  0.35223711937E+02 -0.19031262041E+02  0.16754842833E+02  0.47787267566E+02  0.19999984139E+02 0.  0.
        -12    1    3    3    0    0 -0.35223711937E+02  0.19031262041E+02 -0.16754842833E+02  0.43400732434E+02  0.00000000000E+00 0.  1.
         11    1    4    4    0    0  0.29726333947E+02 -0.14105539505E+02  0.90122766403E+01  0.34115133082E+02  0.51100000000E-03 0.  1.
        -11    1    4    4    0    0  0.21494115275E+01 -0.41943050621E+01  0.88868252093E+01  0.10059216045E+02  0.51100000000E-03 0. -1.
        -12    1    4    4    0    0  0.33479664622E+01 -0.73141747337E+00 -0.11442590168E+01  0.36129184394E+01  0.00000000000E+00 0.  1.
</event>
<event>
 8    1  0.5331800E-011  0.9118800E+02  0.7816164E-02  0.1184000E+00
        -11   -1    0    0    0    0  0.00000000000E+00  0.00000000000E+00  0.45593999997E+02  0.45594000000E+02  0.51100000000E-03 0. -1.
         11   -1    0    0    0    0 -0.00000000000E+00 -0.00000000000E+00 -0.45593999997E+02  0.45594000000E+02  0.51100000000E-03 0.  1.
         23    2    1    2    0    0  0.00000000000E+00  0.00000000000E+00  0.00000000000E+00  0.91188000000E+02  0.91188000000E+02 0.  0.
    9900012    2    3    3    0    0  0.16745187052E+02  0.11849555747E+01 -0.40022721024E+02  0.47787267203E+02  0.19999982486E+02 0.  0.
         12    1    3    3    0    0 -0.16745187052E+02 -0.11849555747E+01  0.40022721024E+02  0.43400732797E+02  0.00000000000E+00 0. -1.
         11    1    4    4    0    0  0.46458967366E+01  0.67632582581E+01 -0.23105169827E+02  0.24518868076E+02  0.51100000000E-03 0. -1.
        -11    1    4    4    0    0  0.52917342797E+01 -0.17615923190E+01 -0.11782157950E+01  0.57003378765E+01  0.51100000000E-03 0.  1.
         12    1    4    4    0    0  0.68075560354E+01 -0.38167103644E+01 -0.15739335402E+02  0.17568061250E+02  0.00000000000E+00 0. -1.
</event>
<event>
 8    1  0.5331800E-011  0.9118800E+02  0.7816164E-02  0.1184000E+00
        -11   -1    0    0    0    0  0.00000000000E+00  0.00000000000E+00  0.45593999997E+02  0.45594000000E+02  0.51100000000E-03 0. -1.
         11   -1    0    0    0    0 -0.00000000000E+00 -0.00000000000E+00 -0.45593999997E+02  0.45594000000E+02  0.51100000000E-03 0.  1.
         23    2    1    2    0    0  0.00000000000E+00  0.00000000000E+00  0.00000000000E+00  0.91188000000E+02  0.91188000000E+02 0.  0.
    9900012    2    3    3    0    0  0.40914855400E+02 -0.39049546049E+01 -0.13940914748E+02  0.47787272277E+02  0.20000005621E+02 0.  0.
         12    1    3    3    0    0 -0.40914855400E+02  0.39049546049E+01  0.13940914748E+02  0.43400727723E+02  0.00000000000E+00 0. -1.
         11    1    4    4    0    0  0.35364706028E+01  0.13662452440E+01  0.16017400775E+01  0.41156800080E+01  0.51100000000E-03 0.  1.
        -11    1    4    4    0    0  0.10207316580E+02  0.26284237043E+01 -0.10597233718E+02  0.14946547617E+02  0.51100000000E-03 0. -1.
        -12    1    4    4    0    0  0.27171068217E+02 -0.78996235533E+01 -0.49454211069E+01  0.28725044652E+02  0.00000000000E+00 0.  1.
</event>
<event>
 8    1  0.6332748E-011  0.9118800E+02  0.7816164E-02  0.1184000E+00
        -11   -1    0    0    0    0  0.00000000000E+00  0.00000000000E+00  0.45593999997E+02  0.45594000000E+02  0.51100000000E-03 0. -1.
         11   -1    0    0    0    0 -0.00000000000E+00 -0.00000000000E+00 -0.45593999997E+02  0.45594000000E+02  0.51100000000E-03 0.  1.
         23    2    1    2    0    0  0.00000000000E+00  0.00000000000E+00  0.00000000000E+00  0.91188000000E+02  0.91188000000E+02 0.  0.
    9900012    2    3    3    0    0  0.12025132368E+02 -0.96375431885E+01 -0.40572618084E+02  0.47787269760E+02  0.19999994144E+02 0.  0.
         12    1    3    3    0    0 -0.12025132368E+02  0.96375431885E+01  0.40572618084E+02  0.43400730240E+02  0.00000000000E+00 0. -1.
         11    1    4    4    0    0 -0.17143791779E+01  0.24926692292E+01 -0.37655242594E+01  0.48302866438E+01  0.51100000000E-03 0. -1.
        -11    1    4    4    0    0  0.77858272567E+01 -0.13537783499E+02 -0.29880376325E+02  0.33715390814E+02  0.51100000000E-03 0.  1.
        -12    1    4    4    0    0  0.59536842895E+01  0.14075710814E+01 -0.69267174995E+01  0.92415923025E+01  0.00000000000E+00 0.  1.
</event>
<event>
 8    1  0.5331800E-011  0.9118800E+02  0.7816164E-02  0.1184000E+00
        -11   -1    0    0    0    0  0.00000000000E+00  0.00000000000E+00  0.45593999997E+02  0.45594000000E+02  0.51100000000E-03 0. -1.
         11   -1    0    0    0    0 -0.00000000000E+00 -0.00000000000E+00 -0.45593999997E+02  0.45594000000E+02  0.51100000000E-03 0.  1.
         23    2    1    2    0    0 -0.88817841970E-15 -0.35527136788E-14  0.00000000000E+00  0.91188000000E+02  0.91188000000E+02 0.  0.
    9900012    2    3    3    0    0 -0.49720191127E+01 -0.17908275261E+02  0.39219805411E+02  0.47787303769E+02  0.20000149202E+02 0.  0.
        -12    1    3    3    0    0  0.49720191127E+01  0.17908275261E+02 -0.39219805411E+02  0.43400696231E+02  0.00000000000E+00 0.  1.
         11    1    4    4    0    0 -0.24298297173E+01 -0.88578147930E+01  0.29876849246E+02  0.31256856472E+02  0.51100000000E-03 0. -1.
        -11    1    4    4    0    0 -0.10656416798E+01 -0.11000541194E+02  0.66769969623E+01  0.12912388914E+02  0.51100000000E-03 0.  1.
         12    1    4    4    0    0 -0.14765477156E+01  0.19500807261E+01  0.26659592029E+01  0.36180583835E+01  0.00000000000E+00 0. -1.
</event>
<event>
 8    1  0.5331800E-011  0.9118800E+02  0.7816164E-02  0.1184000E+00
        -11   -1    0    0    0    0  0.00000000000E+00  0.00000000000E+00  0.45593999997E+02  0.45594000000E+02  0.51100000000E-03 0. -1.
         11   -1    0    0    0    0 -0.00000000000E+00 -0.00000000000E+00 -0.45593999997E+02  0.45594000000E+02  0.51100000000E-03 0.  1.
         23    2    1    2    0    0  0.00000000000E+00  0.35527136788E-14  0.35527136788E-14  0.91188000000E+02  0.91188000000E+02 0.  0.
    9900012    2    3    3    0    0  0.32001195931E+02  0.24067535847E+02  0.16742135971E+02  0.47787286416E+02  0.20000070085E+02 0.  0.
        -12    1    3    3    0    0 -0.32001195931E+02 -0.24067535847E+02 -0.16742135971E+02  0.43400713584E+02  0.00000000000E+00 0.  1.
         11    1    4    4    0    0  0.11166726282E+02  0.11330758957E+02  0.13617661363E+02  0.20940930630E+02  0.51100000000E-03 0. -1.
        -11    1    4    4    0    0  0.12975008298E+02  0.11391501023E+02 -0.19791883297E+01  0.17379134691E+02  0.51100000000E-03 0.  1.
         12    1    4    4    0    0  0.78594613512E+01  0.13452758671E+01  0.51036629378E+01  0.94672210956E+01  0.00000000000E+00 0. -1.
</event>
<event>
 8    1  0.5331800E-011  0.9118800E+02  0.7816164E-02  0.1184000E+00
        -11   -1    0    0    0    0  0.00000000000E+00  0.00000000000E+00  0.45593999997E+02  0.45594000000E+02  0.51100000000E-03 0. -1.
         11   -1    0    0    0    0 -0.00000000000E+00 -0.00000000000E+00 -0.45593999997E+02  0.45594000000E+02  0.51100000000E-03 0.  1.
         23    2    1    2    0    0  0.00000000000E+00  0.17763568394E-14 -0.71054273576E-14  0.91188000000E+02  0.91188000000E+02 0.  0.
    9900012    2    3    3    0    0  0.12683177602E+02  0.14744363199E+02 -0.38799021143E+02  0.47787270952E+02  0.19999999579E+02 0.  0.
         12    1    3    3    0    0 -0.12683177602E+02 -0.14744363199E+02  0.38799021143E+02  0.43400729048E+02  0.00000000000E+00 0. -1.
         11    1    4    4    0    0  0.66060819902E+01  0.53096153371E+01 -0.23982077856E+01  0.88081629829E+01  0.51100000000E-03 0. -1.
        -11    1    4    4    0    0  0.11324345572E+01  0.78347665426E+01 -0.28028121844E+02  0.29124587365E+02  0.51100000000E-03 0.  1.
        -12    1    4    4    0    0  0.49446610546E+01  0.15999813198E+01 -0.83726915130E+01  0.98545206043E+01  0.00000000000E+00 0.  1.
</event>
<event>
 8    1  0.5331800E-011  0.9118800E+02  0.7816164E-02  0.1184000E+00
        -11   -1    0    0    0    0  0.00000000000E+00  0.00000000000E+00  0.45593999997E+02  0.45594000000E+02  0.51100000000E-03 0. -1.
         11   -1    0    0    0    0 -0.00000000000E+00 -0.00000000000E+00 -0.45593999997E+02  0.45594000000E+02  0.51100000000E-03 0.  1.
         23    2    1    2    0    0  0.00000000000E+00  0.00000000000E+00  0.17763568394E-14  0.91188000000E+02  0.91188000000E+02 0.  0.
    9900012    2    3    3    0    0  0.40547280799E+02 -0.10195705665E+02  0.11644266724E+02  0.47787270263E+02  0.19999996436E+02 0.  0.
        -12    1    3    3    0    0 -0.40547280799E+02  0.10195705665E+02 -0.11644266724E+02  0.43400729737E+02  0.00000000000E+00 0.  1.
         11    1    4    4    0    0  0.10306298025E+02 -0.82528431524E+00 -0.36549037000E+01  0.10966275325E+02  0.51100000000E-03 0. -1.
        -11    1    4    4    0    0  0.36112666063E+01  0.73509385933E-01 -0.15425784570E+01  0.39276199776E+01  0.51100000000E-03 0.  1.
         12    1    4    4    0    0  0.26629716167E+02 -0.94439307354E+01  0.16841748881E+02  0.32893374960E+02  0.00000000000E+00 0. -1.
</event>
<event>
 8    1  0.5331800E-011  0.9118800E+02  0.7816164E-02  0.1184000E+00
        -11   -1    0    0    0    0  0.00000000000E+00  0.00000000000E+00  0.45593999997E+02  0.45594000000E+02  0.51100000000E-03 0. -1.
         11   -1    0    0    0    0 -0.00000000000E+00 -0.00000000000E+00 -0.45593999997E+02  0.45594000000E+02  0.51100000000E-03 0.  1.
         23    2    1    2    0    0  0.00000000000E+00  0.00000000000E+00  0.00000000000E+00  0.91188000000E+02  0.91188000000E+02 0.  0.
    9900012    2    3    3    0    0  0.53523233430E+01  0.14894515468E+02  0.40411997402E+02  0.47787268552E+02  0.19999988636E+02 0.  0.
        -12    1    3    3    0    0 -0.53523233430E+01 -0.14894515468E+02 -0.40411997402E+02  0.43400731448E+02  0.00000000000E+00 0.  1.
         11    1    4    4    0    0  0.38786847059E+01  0.13794207382E+02  0.29956350465E+02  0.33207036691E+02  0.51100000000E-03 0. -1.
        -11    1    4    4    0    0  0.87321244398E+00  0.31256880053E+01 -0.62073432374E+00  0.33041998790E+01  0.51100000000E-03 0.  1.
         12    1    4    4    0    0  0.60042619315E+00 -0.20253799192E+01  0.11076381260E+02  0.11276031982E+02  0.00000000000E+00 0. -1.
</event>
<event>
 8    1  0.6234327E-011  0.9118800E+02  0.7816164E-02  0.1184000E+00
        -11   -1    0    0    0    0  0.00000000000E+00  0.00000000000E+00  0.45593999997E+02  0.45594000000E+02  0.51100000000E-03 0. -1.
         11   -1    0    0    0    0 -0.00000000000E+00 -0.00000000000E+00 -0.45593999997E+02  0.45594000000E+02  0.51100000000E-03 0.  1.
         23    2    1    2    0    0  0.00000000000E+00 -0.17763568394E-14  0.00000000000E+00  0.91188000000E+02  0.91188000000E+02 0.  0.
    9900012    2    3    3    0    0 -0.31989839598E+02  0.12858017669E+02 -0.26361814011E+02  0.47787266206E+02  0.19999977940E+02 0.  0.
         12    1    3    3    0    0  0.31989839598E+02 -0.12858017669E+02  0.26361814011E+02  0.43400733794E+02  0.00000000000E+00 0. -1.
         11    1    4    4    0    0  0.12898547999E+01  0.45360937438E+01 -0.17203758406E+01  0.50199168471E+01  0.51100000000E-03 0. -1.
        -11    1    4    4    0    0 -0.16865780790E+02  0.77279513760E+00 -0.11552296494E+02  0.20457451663E+02  0.51100000000E-03 0.  1.
        -12    1    4    4    0    0 -0.16413913608E+02  0.75491287877E+01 -0.13089141677E+02  0.22309897696E+02  0.00000000000E+00 0.  1.
</event>
<event>
 8    1  0.5331800E-011  0.9118800E+02  0.7816164E-02  0.1184000E+00
        -11   -1    0    0    0    0  0.00000000000E+00  0.00000000000E+00  0.45593999997E+02  0.45594000000E+02  0.51100000000E-03 0. -1.
         11   -1    0    0    0    0 -0.00000000000E+00 -0.00000000000E+00 -0.45593999997E+02  0.45594000000E+02  0.51100000000E-03 0.  1.
         23    2    1    2    0    0  0.88817841970E-15  0.00000000000E+00 -0.22204460493E-14  0.91188000000E+02  0.91188000000E+02 0.  0.
    9900012    2    3    3    0    0  0.47052808350E+01  0.42967043114E+02 -0.39139492517E+01  0.47787245854E+02  0.19999885146E+02 0.  0.
        -12    1    3    3    0    0 -0.47052808350E+01 -0.42967043114E+02  0.39139492517E+01  0.43400754146E+02  0.00000000000E+00 0.  1.
         11    1    4    4    0    0  0.25735939817E+01  0.20191637119E+01 -0.94035444502E+00  0.34036267160E+01  0.51100000000E-03 0.  1.
        -11    1    4    4    0    0  0.35741816084E+01  0.19050472829E+02  0.65523170792E+01  0.20460404408E+02  0.51100000000E-03 0. -1.
        -12    1    4    4    0    0 -0.14424947551E+01  0.21897406573E+02 -0.95259118858E+01  0.23923214730E+02  0.00000000000E+00 0.  1.
</event>
<event>
 8    1  0.5331800E-011  0.9118800E+02  0.7816164E-02  0.1184000E+00
        -11   -1    0    0    0    0  0.00000000000E+00  0.00000000000E+00  0.45593999997E+02  0.45594000000E+02  0.51100000000E-03 0. -1.
         11   -1    0    0    0    0 -0.00000000000E+00 -0.00000000000E+00 -0.45593999997E+02  0.45594000000E+02  0.51100000000E-03 0.  1.
         23    2    1    2    0    0  0.17763568394E-14 -0.71054273576E-14 -0.35527136788E-14  0.91188000000E+02  0.91188000000E+02 0.  0.
    9900012    2    3    3    0    0  0.93809839271E+01 -0.37627105162E+02 -0.19489007787E+02  0.47787270435E+02  0.19999997220E+02 0.  0.
         12    1    3    3    0    0 -0.93809839271E+01  0.37627105162E+02  0.19489007787E+02  0.43400729565E+02  0.00000000000E+00 0. -1.
         11    1    4    4    0    0 -0.36787755045E+00  0.75563020024E+00  0.84362213326E-01  0.84464675208E+00  0.51100000000E-03 0. -1.
        -11    1    4    4    0    0  0.94776351853E+01 -0.12038377746E+02 -0.24370560643E+01  0.15514101649E+02  0.51100000000E-03 0.  1.
        -12    1    4    4    0    0  0.27122629219E+00 -0.26344357616E+02 -0.17136313936E+02  0.31428522033E+02  0.00000000000E+00 0.  1.
</event>
<event>
 8    1  0.5331800E-011  0.9118800E+02  0.7816164E-02  0.1184000E+00
        -11   -1    0    0    0    0  0.00000000000E+00  0.00000000000E+00  0.45593999997E+02  0.45594000000E+02  0.51100000000E-03 0. -1.
         11   -1    0    0    0    0 -0.00000000000E+00 -0.00000000000E+00 -0.45593999997E+02  0.45594000000E+02  0.51100000000E-03 0.  1.
         23    2    1    2    0    0  0.00000000000E+00  0.00000000000E+00  0.00000000000E+00  0.91188000000E+02  0.91188000000E+02 0.  0.
    9900012    2    3    3    0    0  0.13025465806E+02 -0.35645781346E+02  0.21055603991E+02  0.47787274814E+02  0.20000017186E+02 0.  0.
        -12    1    3    3    0    0 -0.13025465806E+02  0.35645781346E+02 -0.21055603991E+02  0.43400725186E+02  0.00000000000E+00 0.  1.
         11    1    4    4    0    0  0.78535961059E+01 -0.29326922701E+02  0.14480006258E+02  0.33636556726E+02  0.51100000000E-03 0. -1.
        -11    1    4    4    0    0  0.36649084836E+01 -0.36236881225E+01 -0.16120679082E+01  0.54001326839E+01  0.51100000000E-03 0.  1.
         12    1    4    4    0    0  0.15069612166E+01 -0.26951705233E+01  0.81876656412E+01  0.87505854039E+01  0.00000000000E+00 0. -1.
</event>
<event>
 8    1  0.5331800E-011  0.9118800E+02  0.7816164E-02  0.1184000E+00
        -11   -1    0    0    0    0  0.00000000000E+00  0.00000000000E+00  0.45593999997E+02  0.45594000000E+02  0.51100000000E-03 0. -1.
         11   -1    0    0    0    0 -0.00000000000E+00 -0.00000000000E+00 -0.45593999997E+02  0.45594000000E+02  0.51100000000E-03 0.  1.
         23    2    1    2    0    0  0.00000000000E+00 -0.88817841970E-15  0.00000000000E+00  0.91188000000E+02  0.91188000000E+02 0.  0.
    9900012    2    3    3    0    0  0.14796214774E+02  0.73700716153E+01 -0.40129510382E+02  0.47787268085E+02  0.19999986508E+02 0.  0.
         12    1    3    3    0    0 -0.14796214774E+02 -0.73700716153E+01  0.40129510382E+02  0.43400731915E+02  0.00000000000E+00 0. -1.
         11    1    4    4    0    0  0.12670572214E+02 -0.13640579839E-01 -0.11841414676E+02  0.17342511008E+02  0.51100000000E-03 0. -1.
        -11    1    4    4    0    0 -0.22474164225E+01  0.32960447833E+01 -0.18856789036E+02  0.19274161066E+02  0.51100000000E-03 0.  1.
         12    1    4    4    0    0  0.43730589829E+01  0.40876674119E+01 -0.94313066698E+01  0.11170596011E+02  0.00000000000E+00 0. -1.
</event>
<event>
 8    1  0.5331800E-011  0.9118800E+02  0.7816164E-02  0.1184000E+00
        -11   -1    0    0    0    0  0.00000000000E+00  0.00000000000E+00  0.45593999997E+02  0.45594000000E+02  0.51100000000E-03 0. -1.
         11   -1    0    0    0    0 -0.00000000000E+00 -0.00000000000E+00 -0.45593999997E+02  0.45594000000E+02  0.51100000000E-03 0.  1.
         23    2    1    2    0    0  0.00000000000E+00 -0.44408920985E-15  0.00000000000E+00  0.91188000000E+02  0.91188000000E+02 0.  0.
    9900012    2    3    3    0    0 -0.13750357492E+02 -0.34093330107E+01  0.41023501531E+02  0.47787267741E+02  0.19999984940E+02 0.  0.
        -12    1    3    3    0    0  0.13750357492E+02  0.34093330107E+01 -0.41023501531E+02  0.43400732259E+02  0.00000000000E+00 0.  1.
         11    1    4    4    0    0 -0.69016184273E+01 -0.41906546650E+00  0.33635711088E+02  0.34339030468E+02  0.51100000000E-03 0. -1.
        -11    1    4    4    0    0 -0.45971703161E+01 -0.46194966154E+01  0.11480291344E+01  0.66175293765E+01  0.51100000000E-03 0.  1.
        -12    1    4    4    0    0 -0.22515687490E+01  0.16292290712E+01  0.62397613078E+01  0.68307078972E+01  0.00000000000E+00 0.  1.
</event>
<event>
 8    1  0.5331800E-011  0.9118800E+02  0.7816164E-02  0.1184000E+00
        -11   -1    0    0    0    0  0.00000000000E+00  0.00000000000E+00  0.45593999997E+02  0.45594000000E+02  0.51100000000E-03 0. -1.
         11   -1    0    0    0    0 -0.00000000000E+00 -0.00000000000E+00 -0.45593999997E+02  0.45594000000E+02  0.51100000000E-03 0.  1.
         23    2    1    2    0    0  0.00000000000E+00  0.00000000000E+00  0.88817841970E-15  0.91188000000E+02  0.91188000000E+02 0.  0.
    9900012    2    3    3    0    0 -0.72017060168E+01  0.42281979370E+02 -0.66327112736E+01  0.47787271806E+02  0.20000003471E+02 0.  0.
         12    1    3    3    0    0  0.72017060168E+01 -0.42281979370E+02  0.66327112736E+01  0.43400728194E+02  0.00000000000E+00 0. -1.
         11    1    4    4    0    0  0.36712338190E+00  0.58768831794E+01  0.44943766855E+01  0.74075608357E+01  0.51100000000E-03 0. -1.
        -11    1    4    4    0    0 -0.60071993705E+01  0.35589741125E+02 -0.82784964936E+01  0.37030387820E+02  0.51100000000E-03 0.  1.
        -12    1    4    4    0    0 -0.15616300282E+01  0.81535506511E+00 -0.28485914655E+01  0.33493231502E+01  0.00000000000E+00 0.  1.
</event>
<event>
 8    1  0.5331800E-011  0.9118800E+02  0.7816164E-02  0.1184000E+00
        -11   -1    0    0    0    0  0.00000000000E+00  0.00000000000E+00  0.45593999997E+02  0.45594000000E+02  0.51100000000E-03 0. -1.
         11   -1    0    0    0    0 -0.00000000000E+00 -0.00000000000E+00 -0.45593999997E+02  0.45594000000E+02  0.51100000000E-03 0.  1.
         23    2    1    2    0    0 -0.22204460493E-15  0.00000000000E+00  0.00000000000E+00  0.91188000000E+02  0.91188000000E+02 0.  0.
    9900012    2    3    3    0    0 -0.68581645235E+00 -0.35428717254E+01  0.43250446049E+02  0.47787269963E+02  0.19999995069E+02 0.  0.
        -12    1    3    3    0    0  0.68581645235E+00  0.35428717254E+01 -0.43250446049E+02  0.43400730037E+02  0.00000000000E+00 0.  1.
         11    1    4    4    0    0  0.32147423672E+01 -0.89634373759E+01  0.20001295315E+02  0.22152417309E+02  0.51100000000E-03 0. -1.
        -11    1    4    4    0    0 -0.44432556980E+01  0.71697801586E+01  0.21528313005E+02  0.23121776096E+02  0.51100000000E-03 0.  1.
        -12    1    4    4    0    0  0.54269687843E+00 -0.17492145082E+01  0.17208377294E+01  0.25130765584E+01  0.00000000000E+00 0.  1.
</event>
<event>
 8    1  0.5331800E-011  0.9118800E+02  0.7816164E-02  0.1184000E+00
        -11   -1    0    0    0    0  0.00000000000E+00  0.00000000000E+00  0.45593999997E+02  0.45594000000E+02  0.51100000000E-03 0. -1.
         11   -1    0    0    0    0 -0.00000000000E+00 -0.00000000000E+00 -0.45593999997E+02  0.45594000000E+02  0.51100000000E-03 0.  1.
         23    2    1    2    0    0  0.00000000000E+00  0.00000000000E+00  0.00000000000E+00  0.91188000000E+02  0.91188000000E+02 0.  0.
    9900012    2    3    3    0    0 -0.54265155343E+01  0.18750931361E+02  0.38763110447E+02  0.47787271558E+02  0.20000002342E+02 0.  0.
        -12    1    3    3    0    0  0.54265155343E+01 -0.18750931361E+02 -0.38763110447E+02  0.43400728442E+02  0.00000000000E+00 0.  1.
         11    1    4    4    0    0  0.20250844470E+01  0.36646593487E+01  0.23241817483E+02  0.23615943245E+02  0.51100000000E-03 0.  1.
        -11    1    4    4    0    0 -0.45769304244E+01  0.14952493284E+02  0.12754853862E+02  0.20179485742E+02  0.51100000000E-03 0. -1.
        -12    1    4    4    0    0 -0.28746695568E+01  0.13377872861E+00  0.27664391015E+01  0.39918425710E+01  0.00000000000E+00 0.  1.
</event>
<event>
 8    1  0.5331800E-011  0.9118800E+02  0.7816164E-02  0.1184000E+00
        -11   -1    0    0    0    0  0.00000000000E+00  0.00000000000E+00  0.45593999997E+02  0.45594000000E+02  0.51100000000E-03 0. -1.
         11   -1    0    0    0    0 -0.00000000000E+00 -0.00000000000E+00 -0.45593999997E+02  0.45594000000E+02  0.51100000000E-03 0.  1.
         23    2    1    2    0    0  0.00000000000E+00  0.00000000000E+00  0.00000000000E+00  0.91188000000E+02  0.91188000000E+02 0.  0.
    9900012    2    3    3    0    0 -0.94754949509E+01 -0.28426885244E+02 -0.31396663968E+02  0.47787270542E+02  0.19999997707E+02 0.  0.
         12    1    3    3    0    0  0.94754949509E+01  0.28426885244E+02  0.31396663968E+02  0.43400729458E+02  0.00000000000E+00 0. -1.
         11    1    4    4    0    0 -0.67053157362E+01 -0.20441640439E+02 -0.10896352105E+02  0.24115397828E+02  0.51100000000E-03 0. -1.
        -11    1    4    4    0    0 -0.52618638740E+01 -0.72461707560E+01 -0.13456703125E+02  0.16164066979E+02  0.51100000000E-03 0.  1.
         12    1    4    4    0    0  0.24916846593E+01 -0.73907404878E+00 -0.70436087377E+01  0.75078057340E+01  0.00000000000E+00 0. -1.
</event>
<event>
 8    1  0.7479503E-011  0.9118800E+02  0.7816164E-02  0.1184000E+00
        -11   -1    0    0    0    0  0.00000000000E+00  0.00000000000E+00  0.45593999997E+02  0.45594000000E+02  0.51100000000E-03 0. -1.
         11   -1    0    0    0    0 -0.00000000000E+00 -0.00000000000E+00 -0.45593999997E+02  0.45594000000E+02  0.51100000000E-03 0.  1.
         23    2    1    2    0    0  0.44408920985E-15  0.00000000000E+00  0.00000000000E+00  0.91188000000E+02  0.91188000000E+02 0.  0.
    9900012    2    3    3    0    0 -0.31065616197E+01  0.17459725467E+02  0.39612253943E+02  0.47787269581E+02  0.19999993325E+02 0.  0.
        -12    1    3    3    0    0  0.31065616197E+01 -0.17459725467E+02 -0.39612253943E+02  0.43400730419E+02  0.00000000000E+00 0.  1.
         11    1    4    4    0    0  0.15620227809E+01  0.10931353871E+02  0.19265049949E+02  0.22205327343E+02  0.51100000000E-03 0. -1.
        -11    1    4    4    0    0 -0.73221141825E+00 -0.41033851765E+01  0.53852989563E+01  0.68099448292E+01  0.51100000000E-03 0.  1.
        -12    1    4    4    0    0 -0.39363729823E+01  0.10631756772E+02  0.14961905038E+02  0.18771997408E+02  0.00000000000E+00 0.  1.
</event>
<event>
 8    1  0.5331800E-011  0.9118800E+02  0.7816164E-02  0.1184000E+00
        -11   -1    0    0    0    0  0.00000000000E+00  0.00000000000E+00  0.45593999997E+02  0.45594000000E+02  0.51100000000E-03 0. -1.
         11   -1    0    0    0    0 -0.00000000000E+00 -0.00000000000E+00 -0.45593999997E+02  0.45594000000E+02  0.51100000000E-03 0.  1.
         23    2    1    2    0    0 -0.17763568394E-14  0.00000000000E+00 -0.35527136788E-14  0.91188000000E+02  0.91188000000E+02 0.  0.
    9900012    2    3    3    0    0 -0.11632835000E+02 -0.31590708429E+02 -0.27392116899E+02  0.47787265244E+02  0.19999973553E+02 0.  0.
         12    1    3    3    0    0  0.11632835000E+02  0.31590708429E+02  0.27392116899E+02  0.43400734756E+02  0.00000000000E+00 0. -1.
         11    1    4    4    0    0 -0.14620999551E+02 -0.16255582569E+02 -0.13079455084E+02  0.25477239608E+02  0.51100000000E-03 0. -1.
        -11    1    4    4    0    0  0.33041668269E+01 -0.71893147430E+01 -0.32160244857E+01  0.85408769250E+01  0.51100000000E-03 0.  1.
         12    1    4    4    0    0 -0.31600227624E+00 -0.81458111168E+01 -0.11096637330E+02  0.13769148711E+02  0.00000000000E+00 0. -1.
</event>
<event>
 8    1  0.5331800E-011  0.9118800E+02  0.7816164E-02  0.1184000E+00
        -11   -1    0    0    0    0  0.00000000000E+00  0.00000000000E+00  0.45593999997E+02  0.45594000000E+02  0.51100000000E-03 0. -1.
         11   -1    0    0    0    0 -0.00000000000E+00 -0.00000000000E+00 -0.45593999997E+02  0.45594000000E+02  0.51100000000E-03 0.  1.
         23    2    1    2    0    0  0.00000000000E+00  0.00000000000E+00  0.00000000000E+00  0.91188000000E+02  0.91188000000E+02 0.  0.
    9900012    2    3    3    0    0  0.11308195546E+02  0.90852362233E+01  0.40904859280E+02  0.47787259033E+02  0.19999945236E+02 0.  0.
        -12    1    3    3    0    0 -0.11308195546E+02 -0.90852362233E+01 -0.40904859280E+02  0.43400740967E+02  0.00000000000E+00 0.  1.
         11    1    4    4    0    0  0.21908845137E+01  0.19473552601E+01  0.10340059440E+02  0.10747511198E+02  0.51100000000E-03 0. -1.
        -11    1    4    4    0    0  0.43454597484E+01 -0.19489325253E+01  0.24830143487E+02  0.25282748748E+02  0.51100000000E-03 0.  1.
        -12    1    4    4    0    0  0.47718512838E+01  0.90868134885E+01  0.57346563529E+01  0.11756999087E+02  0.00000000000E+00 0.  1.
</event>
<event>
 8    1  0.5331800E-011  0.9118800E+02  0.7816164E-02  0.1184000E+00
        -11   -1    0    0    0    0  0.00000000000E+00  0.00000000000E+00  0.45593999997E+02  0.45594000000E+02  0.51100000000E-03 0. -1.
         11   -1    0    0    0    0 -0.00000000000E+00 -0.00000000000E+00 -0.45593999997E+02  0.45594000000E+02  0.51100000000E-03 0.  1.
         23    2    1    2    0    0  0.88817841970E-15  0.88817841970E-15  0.00000000000E+00  0.91188000000E+02  0.91188000000E+02 0.  0.
    9900012    2    3    3    0    0  0.34157120561E+01  0.45989397099E+01  0.43020994050E+02  0.47787271154E+02  0.20000000498E+02 0.  0.
        -12    1    3    3    0    0 -0.34157120561E+01 -0.45989397099E+01 -0.43020994050E+02  0.43400728846E+02  0.00000000000E+00 0.  1.
         11    1    4    4    0    0  0.26559457769E+01  0.33368775842E+01  0.10503975906E+02  0.11336768061E+02  0.51100000000E-03 0. -1.
        -11    1    4    4    0    0 -0.40564726392E+01  0.73022951813E+01  0.20813314910E+02  0.22427049806E+02  0.51100000000E-03 0.  1.
        -12    1    4    4    0    0  0.48162389184E+01 -0.60402330556E+01  0.11703703234E+02  0.14023453287E+02  0.00000000000E+00 0.  1.
</event>
<event>
 8    1  0.5331800E-011  0.9118800E+02  0.7816164E-02  0.1184000E+00
        -11   -1    0    0    0    0  0.00000000000E+00  0.00000000000E+00  0.45593999997E+02  0.45594000000E+02  0.51100000000E-03 0. -1.
         11   -1    0    0    0    0 -0.00000000000E+00 -0.00000000000E+00 -0.45593999997E+02  0.45594000000E+02  0.51100000000E-03 0.  1.
         23    2    1    2    0    0  0.35527136788E-14 -0.35527136788E-14  0.00000000000E+00  0.91188000000E+02  0.91188000000E+02 0.  0.
    9900012    2    3    3    0    0 -0.23282138592E+02  0.22743072763E+02  0.28710930110E+02  0.47787275997E+02  0.20000022583E+02 0.  0.
        -12    1    3    3    0    0  0.23282138592E+02 -0.22743072763E+02 -0.28710930110E+02  0.43400724003E+02  0.00000000000E+00 0.  1.
         11    1    4    4    0    0 -0.67758578151E+01  0.11530381934E+02  0.73068071726E+01  0.15239796193E+02  0.51100000000E-03 0. -1.
        -11    1    4    4    0    0 -0.84148880350E+01 -0.20427045538E+01  0.51881221071E+01  0.10094532867E+02  0.51100000000E-03 0.  1.
        -12    1    4    4    0    0 -0.80913927422E+01  0.13255395383E+02  0.16216000831E+02  0.22452946938E+02  0.00000000000E+00 0.  1.
</event>
<event>
 8    1  0.5331800E-011  0.9118800E+02  0.7816164E-02  0.1184000E+00
        -11   -1    0    0    0    0  0.00000000000E+00  0.00000000000E+00  0.45593999997E+02  0.45594000000E+02  0.51100000000E-03 0. -1.
         11   -1    0    0    0    0 -0.00000000000E+00 -0.00000000000E+00 -0.45593999997E+02  0.45594000000E+02  0.51100000000E-03 0.  1.
         23    2    1    2    0    0  0.00000000000E+00  0.00000000000E+00  0.00000000000E+00  0.91188000000E+02  0.91188000000E+02 0.  0.
    9900012    2    3    3    0    0 -0.97191582432E+01 -0.40391157262E+02  0.12558489476E+02  0.47787270976E+02  0.19999999687E+02 0.  0.
        -12    1    3    3    0    0  0.97191582432E+01  0.40391157262E+02 -0.12558489476E+02  0.43400729024E+02  0.00000000000E+00 0.  1.
         11    1    4    4    0    0 -0.67845738071E+01 -0.22772066218E+02  0.75564682016E+01  0.24933865596E+02  0.51100000000E-03 0. -1.
        -11    1    4    4    0    0  0.46931501942E+01 -0.49578855709E+01  0.42734439167E+01  0.80541052420E+01  0.51100000000E-03 0.  1.
        -12    1    4    4    0    0 -0.76277346303E+01 -0.12661205473E+02  0.72857735762E+00  0.14799300138E+02  0.00000000000E+00 0.  1.
</event>
<event>
 8    1  0.5331800E-011  0.9118800E+02  0.7816164E-02  0.1184000E+00
        -11   -1    0    0    0    0  0.00000000000E+00  0.00000000000E+00  0.45593999997E+02  0.45594000000E+02  0.51100000000E-03 0. -1.
         11   -1    0    0    0    0 -0.00000000000E+00 -0.00000000000E+00 -0.45593999997E+02  0.45594000000E+02  0.51100000000E-03 0.  1.
         23    2    1    2    0    0  0.00000000000E+00 -0.35527136788E-14  0.00000000000E+00  0.91188000000E+02  0.91188000000E+02 0.  0.
    9900012    2    3    3    0    0  0.19518848518E+02 -0.29737201493E+02 -0.24866377047E+02  0.47787270657E+02  0.19999998232E+02 0.  0.
         12    1    3    3    0    0 -0.19518848518E+02  0.29737201493E+02  0.24866377047E+02  0.43400729343E+02  0.00000000000E+00 0. -1.
         11    1    4    4    0    0 -0.20745307251E+01 -0.27446147922E+01 -0.55054579846E+00  0.34842056518E+01  0.51100000000E-03 0. -1.
        -11    1    4    4    0    0  0.17273059556E+02 -0.15965652329E+02 -0.22059024612E+02  0.32246879040E+02  0.51100000000E-03 0.  1.
        -12    1    4    4    0    0  0.43203196870E+01 -0.11026934372E+02 -0.22568066368E+01  0.12056185965E+02  0.00000000000E+00 0.  1.
</event>
<event>
 8    1  0.5331800E-011  0.9118800E+02  0.7816164E-02  0.1184000E+00
        -11   -1    0    0    0    0  0.00000000000E+00  0.00000000000E+00  0.45593999997E+02  0.45594000000E+02  0.51100000000E-03 0. -1.
         11   -1    0    0    0    0 -0.00000000000E+00 -0.00000000000E+00 -0.45593999997E+02  0.45594000000E+02  0.51100000000E-03 0.  1.
         23    2    1    2    0    0  0.00000000000E+00  0.00000000000E+00  0.00000000000E+00  0.91188000000E+02  0.91188000000E+02 0.  0.
    9900012    2    3    3    0    0  0.15402420466E+02 -0.35862079242E+02 -0.18981572530E+02  0.47787269828E+02  0.19999994453E+02 0.  0.
         12    1    3    3    0    0 -0.15402420466E+02  0.35862079242E+02  0.18981572530E+02  0.43400730172E+02  0.00000000000E+00 0. -1.
         11    1    4    4    0    0  0.88838568725E+01 -0.13747820708E+02 -0.16220612415E+02  0.23044169643E+02  0.51100000000E-03 0. -1.
        -11    1    4    4    0    0 -0.61447462600E+00 -0.74227722401E+01  0.20363529080E+01  0.77215192949E+01  0.51100000000E-03 0.  1.
         12    1    4    4    0    0  0.71330382194E+01 -0.14691486294E+02 -0.47973130231E+01  0.17021580890E+02  0.00000000000E+00 0. -1.
</event>
<event>
 8    1  0.5331800E-011  0.9118800E+02  0.7816164E-02  0.1184000E+00
        -11   -1    0    0    0    0  0.00000000000E+00  0.00000000000E+00  0.45593999997E+02  0.45594000000E+02  0.51100000000E-03 0. -1.
         11   -1    0    0    0    0 -0.00000000000E+00 -0.00000000000E+00 -0.45593999997E+02  0.45594000000E+02  0.51100000000E-03 0.  1.
         23    2    1    2    0    0 -0.88817841970E-15  0.00000000000E+00 -0.71054273576E-14  0.91188000000E+02  0.91188000000E+02 0.  0.
    9900012    2    3    3    0    0 -0.48547997088E+01 -0.24200716573E+02 -0.35698453657E+02  0.47787270095E+02  0.19999995669E+02 0.  0.
         12    1    3    3    0    0  0.48547997088E+01  0.24200716573E+02  0.35698453657E+02  0.43400729905E+02  0.00000000000E+00 0. -1.
         11    1    4    4    0    0 -0.49813998636E+01 -0.27181081727E+02 -0.29914992534E+02  0.40725082284E+02  0.51100000000E-03 0. -1.
        -11    1    4    4    0    0 -0.12747195503E+01  0.17988250975E+01 -0.28511609546E+01  0.36041366114E+01  0.51100000000E-03 0.  1.
         12    1    4    4    0    0  0.14013197052E+01  0.11815400566E+01 -0.29323001682E+01  0.34580511994E+01  0.00000000000E+00 0. -1.
</event>
<event>
 8    1  0.5331800E-011  0.9118800E+02  0.7816164E-02  0.1184000E+00
        -11   -1    0    0    0    0  0.00000000000E+00  0.00000000000E+00  0.45593999997E+02  0.45594000000E+02  0.51100000000E-03 0. -1.
         11   -1    0    0    0    0 -0.00000000000E+00 -0.00000000000E+00 -0.45593999997E+02  0.45594000000E+02  0.51100000000E-03 0.  1.
         23    2    1    2    0    0  0.00000000000E+00  0.00000000000E+00  0.00000000000E+00  0.91188000000E+02  0.91188000000E+02 0.  0.
    9900012    2    3    3    0    0 -0.33908632565E+02  0.21074506432E+02  0.17020375816E+02  0.47787269860E+02  0.19999994598E+02 0.  0.
        -12    1    3    3    0    0  0.33908632565E+02 -0.21074506432E+02 -0.17020375816E+02  0.43400730140E+02  0.00000000000E+00 0.  1.
         11    1    4    4    0    0 -0.26302713862E+02  0.12936074359E+02  0.77316775567E+01  0.30314247713E+02  0.51100000000E-03 0. -1.
        -11    1    4    4    0    0 -0.18854155576E+01 -0.19386987811E+01  0.13784232236E+00  0.27078304148E+01  0.51100000000E-03 0.  1.
         12    1    4    4    0    0 -0.57205031461E+01  0.10077130854E+02  0.91508559371E+01  0.14765191732E+02  0.00000000000E+00 0. -1.
</event>
<event>
 8    1  0.5331800E-011  0.9118800E+02  0.7816164E-02  0.1184000E+00
        -11   -1    0    0    0    0  0.00000000000E+00  0.00000000000E+00  0.45593999997E+02  0.45594000000E+02  0.51100000000E-03 0. -1.
         11   -1    0    0    0    0 -0.00000000000E+00 -0.00000000000E+00 -0.45593999997E+02  0.45594000000E+02  0.51100000000E-03 0.  1.
         23    2    1    2    0    0  0.00000000000E+00 -0.35527136788E-14  0.00000000000E+00  0.91188000000E+02  0.91188000000E+02 0.  0.
    9900012    2    3    3    0    0  0.32538486592E+02  0.24169806388E+02  0.15514206128E+02  0.47787271408E+02  0.20000001659E+02 0.  0.
        -12    1    3    3    0    0 -0.32538486592E+02 -0.24169806388E+02 -0.15514206128E+02  0.43400728592E+02  0.00000000000E+00 0.  1.
         11    1    4    4    0    0  0.12394693700E+02  0.33141024548E+01  0.11946455374E+02  0.17530815818E+02  0.51100000000E-03 0. -1.
        -11    1    4    4    0    0  0.36147923937E+01  0.66088229118E+00 -0.89196910580E+00  0.37814148938E+01  0.51100000000E-03 0.  1.
         12    1    4    4    0    0  0.16529000499E+02  0.20194821642E+02  0.44597198594E+01  0.26475040696E+02  0.00000000000E+00 0. -1.
</event>
<event>
 8    1  0.5331800E-011  0.9118800E+02  0.7816164E-02  0.1184000E+00
        -11   -1    0    0    0    0  0.00000000000E+00  0.00000000000E+00  0.45593999997E+02  0.45594000000E+02  0.51100000000E-03 0. -1.
         11   -1    0    0    0    0 -0.00000000000E+00 -0.00000000000E+00 -0.45593999997E+02  0.45594000000E+02  0.51100000000E-03 0.  1.
         23    2    1    2    0    0  0.35527136788E-14 -0.88817841970E-15  0.71054273576E-14  0.91188000000E+02  0.91188000000E+02 0.  0.
    9900012    2    3    3    0    0 -0.18942758846E+02  0.72720066118E+01 -0.38365512039E+02  0.47787277577E+02  0.20000029783E+02 0.  0.
         12    1    3    3    0    0  0.18942758846E+02 -0.72720066118E+01  0.38365512039E+02  0.43400722423E+02  0.00000000000E+00 0. -1.
         11    1    4    4    0    0 -0.53863485605E+01 -0.62498342977E+01 -0.75450681004E+01  0.11180395005E+02  0.51100000000E-03 0. -1.
        -11    1    4    4    0    0 -0.27242352846E+01  0.44195692191E+01 -0.11882916752E+02  0.12967565722E+02  0.51100000000E-03 0.  1.
         12    1    4    4    0    0 -0.10832175001E+02  0.91022716905E+01 -0.18937527187E+02  0.23639316850E+02  0.00000000000E+00 0. -1.
</event>
<event>
 8    1  0.5331800E-011  0.9118800E+02  0.7816164E-02  0.1184000E+00
        -11   -1    0    0    0    0  0.00000000000E+00  0.00000000000E+00  0.45593999997E+02  0.45594000000E+02  0.51100000000E-03 0. -1.
         11   -1    0    0    0    0 -0.00000000000E+00 -0.00000000000E+00 -0.45593999997E+02  0.45594000000E+02  0.51100000000E-03 0.  1.
         23    2    1    2    0    0  0.00000000000E+00 -0.71054273576E-14 -0.35527136788E-14  0.91188000000E+02  0.91188000000E+02 0.  0.
    9900012    2    3    3    0    0 -0.14876094314E+02 -0.35817388949E+02 -0.19479205279E+02  0.47787274528E+02  0.20000015885E+02 0.  0.
         12    1    3    3    0    0  0.14876094314E+02  0.35817388949E+02  0.19479205279E+02  0.43400725472E+02  0.00000000000E+00 0. -1.
         11    1    4    4    0    0 -0.24203477305E+01 -0.52884628919E+01  0.37503470743E+01  0.69203342646E+01  0.51100000000E-03 0. -1.
        -11    1    4    4    0    0 -0.90321660599E+01 -0.24797499753E+02 -0.15316272454E+02  0.30513672671E+02  0.51100000000E-03 0.  1.
         12    1    4    4    0    0 -0.34235805239E+01 -0.57314263042E+01 -0.79132798996E+01  0.10353267593E+02  0.00000000000E+00 0. -1.
</event>
<event>
 8    1  0.5331800E-011  0.9118800E+02  0.7816164E-02  0.1184000E+00
        -11   -1    0    0    0    0  0.00000000000E+00  0.00000000000E+00  0.45593999997E+02  0.45594000000E+02  0.51100000000E-03 0. -1.
         11   -1    0    0    0    0 -0.00000000000E+00 -0.00000000000E+00 -0.45593999997E+02  0.45594000000E+02  0.51100000000E-03 0.  1.
         23    2    1    2    0    0  0.00000000000E+00  0.00000000000E+00  0.00000000000E+00  0.91188000000E+02  0.91188000000E+02 0.  0.
    9900012    2    3    3    0    0  0.11554625568E+02 -0.40786279797E+02 -0.93055585486E+01  0.47787269458E+02  0.19999992765E+02 0.  0.
         12    1    3    3    0    0 -0.11554625568E+02  0.40786279797E+02  0.93055585486E+01  0.43400730542E+02  0.00000000000E+00 0. -1.
         11    1    4    4    0    0  0.87768085171E+01 -0.10909777946E+02 -0.26924297778E+01  0.14258499253E+02  0.51100000000E-03 0. -1.
        -11    1    4    4    0    0  0.10371314858E+01 -0.19145552051E+02 -0.10649252968E+02  0.21932496303E+02  0.51100000000E-03 0.  1.
        -12    1    4    4    0    0  0.17406855653E+01 -0.10730949801E+02  0.40361241977E+01  0.11596273902E+02  0.00000000000E+00 0.  1.
</event>
<event>
 8    1  0.5331800E-011  0.9118800E+02  0.7816164E-02  0.1184000E+00
        -11   -1    0    0    0    0  0.00000000000E+00  0.00000000000E+00  0.45593999997E+02  0.45594000000E+02  0.51100000000E-03 0. -1.
         11   -1    0    0    0    0 -0.00000000000E+00 -0.00000000000E+00 -0.45593999997E+02  0.45594000000E+02  0.51100000000E-03 0.  1.
         23    2    1    2    0    0  0.44408920985E-15 -0.17763568394E-14  0.00000000000E+00  0.91188000000E+02  0.91188000000E+02 0.  0.
    9900012    2    3    3    0    0  0.39452926947E+01 -0.11166684992E+02  0.41753599115E+02  0.47787271582E+02  0.20000002453E+02 0.  0.
        -12    1    3    3    0    0 -0.39452926947E+01  0.11166684992E+02 -0.41753599115E+02  0.43400728418E+02  0.00000000000E+00 0.  1.
         11    1    4    4    0    0  0.73212722949E+00 -0.58030714031E+00  0.14851288240E+02  0.14880642772E+02  0.51100000000E-03 0. -1.
        -11    1    4    4    0    0 -0.95702668699E+00 -0.13602200134E+02  0.21377994836E+02  0.25356545744E+02  0.51100000000E-03 0.  1.
        -12    1    4    4    0    0  0.41701921522E+01  0.30158222824E+01  0.55243160380E+01  0.75500830666E+01  0.00000000000E+00 0.  1.
</event>
<event>
 8    1  0.5331800E-011  0.9118800E+02  0.7816164E-02  0.1184000E+00
        -11   -1    0    0    0    0  0.00000000000E+00  0.00000000000E+00  0.45593999997E+02  0.45594000000E+02  0.51100000000E-03 0. -1.
         11   -1    0    0    0    0 -0.00000000000E+00 -0.00000000000E+00 -0.45593999997E+02  0.45594000000E+02  0.51100000000E-03 0.  1.
         23    2    1    2    0    0 -0.11102230246E-14 -0.27755575616E-15  0.00000000000E+00  0.91188000000E+02  0.91188000000E+02 0.  0.
    9900012    2    3    3    0    0  0.15916496097E+01 -0.18013541101E+00 -0.43371161402E+02  0.47787269146E+02  0.19999991345E+02 0.  0.
         12    1    3    3    0    0 -0.15916496097E+01  0.18013541101E+00  0.43371161402E+02  0.43400730854E+02  0.00000000000E+00 0. -1.
         11    1    4    4    0    0 -0.27700678466E+01  0.15150284803E+01 -0.21506532774E+01  0.38201959311E+01  0.51100000000E-03 0. -1.
        -11    1    4    4    0    0 -0.33796033484E+01 -0.12812405553E+01 -0.23046868616E+01  0.42865928130E+01  0.51100000000E-03 0.  1.
        -12    1    4    4    0    0  0.77413208048E+01 -0.41392333599E+00 -0.38915821263E+02  0.39680480402E+02  0.00000000000E+00 0.  1.
</event>
<event>
 8    1  0.5331800E-011  0.9118800E+02  0.7816164E-02  0.1184000E+00
        -11   -1    0    0    0    0  0.00000000000E+00  0.00000000000E+00  0.45593999997E+02  0.45594000000E+02  0.51100000000E-03 0. -1.
         11   -1    0    0    0    0 -0.00000000000E+00 -0.00000000000E+00 -0.45593999997E+02  0.45594000000E+02  0.51100000000E-03 0.  1.
         23    2    1    2    0    0  0.00000000000E+00  0.00000000000E+00  0.35527136788E-14  0.91188000000E+02  0.91188000000E+02 0.  0.
    9900012    2    3    3    0    0  0.13771483956E+02 -0.27239516962E+02  0.30854144638E+02  0.47787270790E+02  0.19999998838E+02 0.  0.
        -12    1    3    3    0    0 -0.13771483956E+02  0.27239516962E+02 -0.30854144638E+02  0.43400729210E+02  0.00000000000E+00 0.  1.
         11    1    4    4    0    0  0.44658732448E+01 -0.80737770739E+01  0.11708136442E+02  0.14906721949E+02  0.51100000000E-03 0. -1.
        -11    1    4    4    0    0  0.11424248531E+02 -0.19432782386E+02  0.12237653158E+02  0.25649690853E+02  0.51100000000E-03 0.  1.
        -12    1    4    4    0    0 -0.21186378196E+01  0.26704249791E+00  0.69083550376E+01  0.72308579873E+01  0.00000000000E+00 0.  1.
</event>
<event>
 8    1  0.5331800E-011  0.9118800E+02  0.7816164E-02  0.1184000E+00
        -11   -1    0    0    0    0  0.00000000000E+00  0.00000000000E+00  0.45593999997E+02  0.45594000000E+02  0.51100000000E-03 0.  1.
         11   -1    0    0    0    0 -0.00000000000E+00 -0.00000000000E+00 -0.45593999997E+02  0.45594000000E+02  0.51100000000E-03 0. -1.
         23    2    1    2    0    0 -0.17763568394E-14  0.71054273576E-14  0.55511151231E-16  0.91188000000E+02  0.91188000000E+02 0.  0.
    9900012    2    3    3    0    0 -0.10385060967E+02  0.42137626284E+02 -0.44062880873E+00  0.47787271966E+02  0.20000004200E+02 0.  0.
         12    1    3    3    0    0  0.10385060967E+02 -0.42137626284E+02  0.44062880873E+00  0.43400728034E+02  0.00000000000E+00 0. -1.
         11    1    4    4    0    0 -0.89916759549E+01  0.12594623334E+02 -0.28207040190E+00  0.15477543002E+02  0.51100000000E-03 0. -1.
        -11    1    4    4    0    0  0.54120694628E+01  0.75645666443E+01 -0.89047254638E-01  0.93016715735E+01  0.51100000000E-03 0.  1.
        -12    1    4    4    0    0 -0.68054544754E+01  0.21978436306E+02 -0.69511152185E-01  0.23008057391E+02  0.00000000000E+00 0.  1.
</event>
<event>
 8    1  0.5331800E-011  0.9118800E+02  0.7816164E-02  0.1184000E+00
        -11   -1    0    0    0    0  0.00000000000E+00  0.00000000000E+00  0.45593999997E+02  0.45594000000E+02  0.51100000000E-03 0.  1.
         11   -1    0    0    0    0 -0.00000000000E+00 -0.00000000000E+00 -0.45593999997E+02  0.45594000000E+02  0.51100000000E-03 0. -1.
         23    2    1    2    0    0 -0.71054273576E-14 -0.88817841970E-15  0.17763568394E-14  0.91188000000E+02  0.91188000000E+02 0.  0.
    9900012    2    3    3    0    0  0.40611064244E+02  0.44520005043E+01 -0.14647325917E+02  0.47787274153E+02  0.20000014175E+02 0.  0.
         12    1    3    3    0    0 -0.40611064244E+02 -0.44520005043E+01  0.14647325917E+02  0.43400725847E+02  0.00000000000E+00 0. -1.
         11    1    4    4    0    0  0.58708310340E+01  0.53015582619E+01 -0.81655725041E+01  0.11368806077E+02  0.51100000000E-03 0. -1.
        -11    1    4    4    0    0  0.18258710733E+02 -0.45157572138E+01 -0.17868841947E+01  0.18893531598E+02  0.51100000000E-03 0.  1.
        -12    1    4    4    0    0  0.16481522477E+02  0.36661994563E+01 -0.46948692178E+01  0.17524936478E+02  0.00000000000E+00 0.  1.
</event>
<event>
 8    1  0.5331800E-011  0.9118800E+02  0.7816164E-02  0.1184000E+00
        -11   -1    0    0    0    0  0.00000000000E+00  0.00000000000E+00  0.45593999997E+02  0.45594000000E+02  0.51100000000E-03 0. -1.
         11   -1    0    0    0    0 -0.00000000000E+00 -0.00000000000E+00 -0.45593999997E+02  0.45594000000E+02  0.51100000000E-03 0.  1.
         23    2    1    2    0    0 -0.35527136788E-14  0.71054273576E-14  0.00000000000E+00  0.91188000000E+02  0.91188000000E+02 0.  0.
    9900012    2    3    3    0    0  0.22692637485E+02 -0.34621361288E+02 -0.13039532057E+02  0.47787264410E+02  0.19999969752E+02 0.  0.
         12    1    3    3    0    0 -0.22692637485E+02  0.34621361288E+02  0.13039532057E+02  0.43400735590E+02  0.00000000000E+00 0. -1.
         11    1    4    4    0    0  0.77213309472E+01 -0.37529419327E+01 -0.58316520056E+01  0.10378424260E+02  0.51100000000E-03 0.  1.
        -11    1    4    4    0    0  0.16555382418E+02 -0.30673800065E+02 -0.59144397260E+01  0.35354537120E+02  0.51100000000E-03 0. -1.
         12    1    4    4    0    0 -0.15840758804E+01 -0.19461929033E+00 -0.12934403256E+01  0.20543030299E+01  0.00000000000E+00 0. -1.
</event>
<event>
 8    1  0.5331800E-011  0.9118800E+02  0.7816164E-02  0.1184000E+00
        -11   -1    0    0    0    0  0.00000000000E+00  0.00000000000E+00  0.45593999997E+02  0.45594000000E+02  0.51100000000E-03 0. -1.
         11   -1    0    0    0    0 -0.00000000000E+00 -0.00000000000E+00 -0.45593999997E+02  0.45594000000E+02  0.51100000000E-03 0.  1.
         23    2    1    2    0    0  0.00000000000E+00  0.00000000000E+00  0.00000000000E+00  0.91188000000E+02  0.91188000000E+02 0.  0.
    9900012    2    3    3    0    0  0.31392210644E+02  0.28649810749E+02  0.87943832210E+01  0.47787265890E+02  0.19999976497E+02 0.  0.
        -12    1    3    3    0    0 -0.31392210644E+02 -0.28649810749E+02 -0.87943832210E+01  0.43400734110E+02  0.00000000000E+00 0.  1.
         11    1    4    4    0    0  0.11993761108E+02  0.10644090153E+02  0.76733246446E+00  0.16054150868E+02  0.51100000000E-03 0. -1.
        -11    1    4    4    0    0  0.95873090004E+01  0.18407311361E+02  0.67859858230E+01  0.21835640803E+02  0.51100000000E-03 0.  1.
        -12    1    4    4    0    0  0.98111405352E+01 -0.40159076546E+00  0.12410649336E+01  0.98974742189E+01  0.00000000000E+00 0.  1.
</event>
<event>
 8    1  0.5331800E-011  0.9118800E+02  0.7816164E-02  0.1184000E+00
        -11   -1    0    0    0    0  0.00000000000E+00  0.00000000000E+00  0.45593999997E+02  0.45594000000E+02  0.51100000000E-03 0. -1.
         11   -1    0    0    0    0 -0.00000000000E+00 -0.00000000000E+00 -0.45593999997E+02  0.45594000000E+02  0.51100000000E-03 0.  1.
         23    2    1    2    0    0  0.22204460493E-15  0.88817841970E-15  0.71054273576E-14  0.91188000000E+02  0.91188000000E+02 0.  0.
    9900012    2    3    3    0    0 -0.10337909828E+01  0.50362259113E+01  0.43095140359E+02  0.47787269386E+02  0.19999992440E+02 0.  0.
        -12    1    3    3    0    0  0.10337909828E+01 -0.50362259113E+01 -0.43095140359E+02  0.43400730614E+02  0.00000000000E+00 0.  1.
         11    1    4    4    0    0 -0.50445575563E+00  0.74151937722E+01  0.11518916164E+02  0.13708574111E+02  0.51100000000E-03 0. -1.
        -11    1    4    4    0    0  0.44504398952E+01 -0.36832146519E+01  0.25350541522E+02  0.26000431557E+02  0.51100000000E-03 0.  1.
        -12    1    4    4    0    0 -0.49797751224E+01  0.13042467911E+01  0.62256826733E+01  0.80782637187E+01  0.00000000000E+00 0.  1.
</event>
<event>
 8    1  0.5331800E-011  0.9118800E+02  0.7816164E-02  0.1184000E+00
        -11   -1    0    0    0    0  0.00000000000E+00  0.00000000000E+00  0.45593999997E+02  0.45594000000E+02  0.51100000000E-03 0.  1.
         11   -1    0    0    0    0 -0.00000000000E+00 -0.00000000000E+00 -0.45593999997E+02  0.45594000000E+02  0.51100000000E-03 0. -1.
         23    2    1    2    0    0  0.71054273576E-14  0.00000000000E+00  0.00000000000E+00  0.91188000000E+02  0.91188000000E+02 0.  0.
    9900012    2    3    3    0    0  0.35872688419E+02  0.16425994332E+02 -0.18082043858E+02  0.47787269888E+02  0.19999994726E+02 0.  0.
         12    1    3    3    0    0 -0.35872688419E+02 -0.16425994332E+02  0.18082043858E+02  0.43400730112E+02  0.00000000000E+00 0. -1.
         11    1    4    4    0    0  0.73481279453E+01  0.13048986553E+02 -0.78161680435E+01  0.16892706044E+02  0.51100000000E-03 0. -1.
        -11    1    4    4    0    0  0.96582526850E+01 -0.11789815681E+01 -0.33418054178E+01  0.10287832919E+02  0.51100000000E-03 0.  1.
         12    1    4    4    0    0  0.18866307789E+02  0.45559893471E+01 -0.69240703968E+01  0.20606730924E+02  0.00000000000E+00 0. -1.
</event>
<event>
 8    1  0.5331800E-011  0.9118800E+02  0.7816164E-02  0.1184000E+00
        -11   -1    0    0    0    0  0.00000000000E+00  0.00000000000E+00  0.45593999997E+02  0.45594000000E+02  0.51100000000E-03 0. -1.
         11   -1    0    0    0    0 -0.00000000000E+00 -0.00000000000E+00 -0.45593999997E+02  0.45594000000E+02  0.51100000000E-03 0.  1.
         23    2    1    2    0    0  0.00000000000E+00 -0.35527136788E-14  0.00000000000E+00  0.91188000000E+02  0.91188000000E+02 0.  0.
    9900012    2    3    3    0    0 -0.28672032524E+02  0.15901141048E+02 -0.28437503570E+02  0.47787270225E+02  0.19999996263E+02 0.  0.
         12    1    3    3    0    0  0.28672032524E+02 -0.15901141048E+02  0.28437503570E+02  0.43400729775E+02  0.00000000000E+00 0. -1.
         11    1    4    4    0    0 -0.11608930377E+01  0.85306890207E+00 -0.27654082722E+01  0.31181536796E+01  0.51100000000E-03 0. -1.
        -11    1    4    4    0    0 -0.22726139946E+02  0.29005475410E+01 -0.12396597493E+02  0.26049304070E+02  0.51100000000E-03 0.  1.
        -12    1    4    4    0    0 -0.47849995408E+01  0.12147524605E+02 -0.13275497805E+02  0.18619812475E+02  0.00000000000E+00 0.  1.
</event>
<event>
 8    1  0.5331800E-011  0.9118800E+02  0.7816164E-02  0.1184000E+00
        -11   -1    0    0    0    0  0.00000000000E+00  0.00000000000E+00  0.45593999997E+02  0.45594000000E+02  0.51100000000E-03 0. -1.
         11   -1    0    0    0    0 -0.00000000000E+00 -0.00000000000E+00 -0.45593999997E+02  0.45594000000E+02  0.51100000000E-03 0.  1.
         23    2    1    2    0    0  0.00000000000E+00  0.11102230246E-14  0.00000000000E+00  0.91188000000E+02  0.91188000000E+02 0.  0.
    9900012    2    3    3    0    0  0.14876772564E+02  0.19547600803E+01  0.40724485110E+02  0.47787272629E+02  0.20000007224E+02 0.  0.
        -12    1    3    3    0    0 -0.14876772564E+02 -0.19547600803E+01 -0.40724485110E+02  0.43400727371E+02  0.00000000000E+00 0.  1.
         11    1    4    4    0    0  0.10574055337E+02 -0.36045120781E+01  0.29527664473E+02  0.31570336126E+02  0.51100000000E-03 0. -1.
        -11    1    4    4    0    0  0.17205356366E+01 -0.55720623492E+00 -0.11886880627E+01  0.21641860448E+01  0.51100000000E-03 0.  1.
         12    1    4    4    0    0  0.25821815909E+01  0.61164783933E+01  0.12385508699E+02  0.14052750458E+02  0.00000000000E+00 0. -1.
</event>
<event>
 8    1  0.5331800E-011  0.9118800E+02  0.7816164E-02  0.1184000E+00
        -11   -1    0    0    0    0  0.00000000000E+00  0.00000000000E+00  0.45593999997E+02  0.45594000000E+02  0.51100000000E-03 0. -1.
         11   -1    0    0    0    0 -0.00000000000E+00 -0.00000000000E+00 -0.45593999997E+02  0.45594000000E+02  0.51100000000E-03 0.  1.
         23    2    1    2    0    0  0.00000000000E+00 -0.35527136788E-14  0.35527136788E-14  0.91188000000E+02  0.91188000000E+02 0.  0.
    9900012    2    3    3    0    0  0.16600299291E+02 -0.26339906082E+02  0.30236710851E+02  0.47787317148E+02  0.20000210201E+02 0.  0.
        -12    1    3    3    0    0 -0.16600299291E+02  0.26339906082E+02 -0.30236710851E+02  0.43400682852E+02  0.00000000000E+00 0.  1.
         11    1    4    4    0    0 -0.16912348362E+01 -0.52562883660E+01 -0.64024550408E+00  0.55586650578E+01  0.51100000000E-03 0. -1.
        -11    1    4    4    0    0  0.49842893272E+01 -0.19745943688E+01  0.41441719449E+01  0.67761585274E+01  0.51100000000E-03 0.  1.
         12    1    4    4    0    0  0.13307244800E+02 -0.19109023347E+02  0.26732784410E+02  0.35452493562E+02  0.00000000000E+00 0. -1.
</event>
<event>
 8    1  0.5331800E-011  0.9118800E+02  0.7816164E-02  0.1184000E+00
        -11   -1    0    0    0    0  0.00000000000E+00  0.00000000000E+00  0.45593999997E+02  0.45594000000E+02  0.51100000000E-03 0.  1.
         11   -1    0    0    0    0 -0.00000000000E+00 -0.00000000000E+00 -0.45593999997E+02  0.45594000000E+02  0.51100000000E-03 0. -1.
         23    2    1    2    0    0  0.88817841970E-15 -0.71054273576E-14 -0.17763568394E-14  0.91188000000E+02  0.91188000000E+02 0.  0.
    9900012    2    3    3    0    0 -0.42409154836E+01  0.41992014921E+02  0.10114777499E+02  0.47787269533E+02  0.19999993108E+02 0.  0.
        -12    1    3    3    0    0  0.42409154836E+01 -0.41992014921E+02 -0.10114777499E+02  0.43400730467E+02  0.00000000000E+00 0.  1.
         11    1    4    4    0    0  0.12947063644E+01  0.31786907966E+02  0.10575538110E+02  0.33525002449E+02  0.51100000000E-03 0. -1.
        -11    1    4    4    0    0 -0.19956698646E+01  0.40013586382E+01  0.38662865554E+01  0.59111539609E+01  0.51100000000E-03 0.  1.
         12    1    4    4    0    0 -0.35399519834E+01  0.62037483163E+01 -0.43270471664E+01  0.83511131232E+01  0.00000000000E+00 0. -1.
</event>
<event>
 8    1  0.5331800E-011  0.9118800E+02  0.7816164E-02  0.1184000E+00
        -11   -1    0    0    0    0  0.00000000000E+00  0.00000000000E+00  0.45593999997E+02  0.45594000000E+02  0.51100000000E-03 0.  1.
         11   -1    0    0    0    0 -0.00000000000E+00 -0.00000000000E+00 -0.45593999997E+02  0.45594000000E+02  0.51100000000E-03 0. -1.
         23    2    1    2    0    0  0.00000000000E+00  0.35527136788E-14  0.00000000000E+00  0.91188000000E+02  0.91188000000E+02 0.  0.
    9900012    2    3    3    0    0 -0.33197716295E+02 -0.25586206725E+02 -0.11264140090E+02  0.47787271968E+02  0.20000004211E+02 0.  0.
         12    1    3    3    0    0  0.33197716295E+02  0.25586206725E+02  0.11264140090E+02  0.43400728032E+02  0.00000000000E+00 0. -1.
         11    1    4    4    0    0 -0.46119871985E+01  0.30015424456E+00 -0.50330032684E+01  0.68331281746E+01  0.51100000000E-03 0. -1.
        -11    1    4    4    0    0 -0.22330539969E+02 -0.15515362219E+02  0.30173143126E+00  0.27193207281E+02  0.51100000000E-03 0.  1.
        -12    1    4    4    0    0 -0.62551891266E+01 -0.10370998750E+02 -0.65328682526E+01  0.13760936512E+02  0.00000000000E+00 0.  1.
</event>
<event>
 8    1  0.5331800E-011  0.9118800E+02  0.7816164E-02  0.1184000E+00
        -11   -1    0    0    0    0  0.00000000000E+00  0.00000000000E+00  0.45593999997E+02  0.45594000000E+02  0.51100000000E-03 0. -1.
         11   -1    0    0    0    0 -0.00000000000E+00 -0.00000000000E+00 -0.45593999997E+02  0.45594000000E+02  0.51100000000E-03 0.  1.
         23    2    1    2    0    0  0.35527136788E-14 -0.17763568394E-14  0.00000000000E+00  0.91188000000E+02  0.91188000000E+02 0.  0.
    9900012    2    3    3    0    0  0.12288629000E+02 -0.85199698729E+01  0.40743382498E+02  0.47787268362E+02  0.19999987770E+02 0.  0.
        -12    1    3    3    0    0 -0.12288629000E+02  0.85199698729E+01 -0.40743382498E+02  0.43400731638E+02  0.00000000000E+00 0.  1.
         11    1    4    4    0    0  0.13249221313E+02 -0.11058756328E+02  0.19061993359E+02  0.25713761841E+02  0.51100000000E-03 0. -1.
        -11    1    4    4    0    0 -0.16227449224E+01  0.18384772453E+01  0.19878459122E+02  0.20029139696E+02  0.51100000000E-03 0.  1.
        -12    1    4    4    0    0  0.66215260918E+00  0.70030920991E+00  0.18029300177E+01  0.20443668252E+01  0.00000000000E+00 0.  1.
</event>
<event>
 8    1  0.5331800E-011  0.9118800E+02  0.7816164E-02  0.1184000E+00
        -11   -1    0    0    0    0  0.00000000000E+00  0.00000000000E+00  0.45593999997E+02  0.45594000000E+02  0.51100000000E-03 0.  1.
         11   -1    0    0    0    0 -0.00000000000E+00 -0.00000000000E+00 -0.45593999997E+02  0.45594000000E+02  0.51100000000E-03 0. -1.
         23    2    1    2    0    0  0.00000000000E+00  0.35527136788E-14 -0.88817841970E-15  0.91188000000E+02  0.91188000000E+02 0.  0.
    9900012    2    3    3    0    0 -0.34148349385E+02 -0.26286079940E+02  0.51532040425E+01  0.47787271018E+02  0.19999999877E+02 0.  0.
        -12    1    3    3    0    0  0.34148349385E+02  0.26286079940E+02 -0.51532040425E+01  0.43400728982E+02  0.00000000000E+00 0.  1.
         11    1    4    4    0    0 -0.32332988237E+02 -0.17027654464E+02  0.88985927454E+01  0.37610478566E+02  0.51100000000E-03 0. -1.
        -11    1    4    4    0    0 -0.15355393744E+01 -0.76834027098E+01 -0.33946934909E+01  0.85391160274E+01  0.51100000000E-03 0.  1.
         12    1    4    4    0    0 -0.27982177352E+00 -0.15750227656E+01 -0.35069521207E+00  0.16376764237E+01  0.00000000000E+00 0. -1.
</event>
<event>
 8    1  0.5331800E-011  0.9118800E+02  0.7816164E-02  0.1184000E+00
        -11   -1    0    0    0    0  0.00000000000E+00  0.00000000000E+00  0.45593999997E+02  0.45594000000E+02  0.51100000000E-03 0. -1.
         11   -1    0    0    0    0 -0.00000000000E+00 -0.00000000000E+00 -0.45593999997E+02  0.45594000000E+02  0.51100000000E-03 0.  1.
         23    2    1    2    0    0  0.00000000000E+00  0.00000000000E+00  0.00000000000E+00  0.91188000000E+02  0.91188000000E+02 0.  0.
    9900012    2    3    3    0    0  0.35020539779E+02  0.22788607087E+02 -0.11741570660E+02  0.47787270733E+02  0.19999998579E+02 0.  0.
         12    1    3    3    0    0 -0.35020539779E+02 -0.22788607087E+02  0.11741570660E+02  0.43400729267E+02  0.00000000000E+00 0. -1.
         11    1    4    4    0    0  0.85848538398E+01 -0.69331831331E+00 -0.64048097246E+01  0.10733219163E+02  0.51100000000E-03 0. -1.
        -11    1    4    4    0    0  0.10968048755E+02  0.64089673868E+01 -0.59066736528E+01  0.14009345108E+02  0.51100000000E-03 0.  1.
         12    1    4    4    0    0  0.15467637183E+02  0.17072958014E+02  0.56991271736E+00  0.23044706461E+02  0.00000000000E+00 0. -1.
</event>
<event>
 8    1  0.5331800E-011  0.9118800E+02  0.7816164E-02  0.1184000E+00
        -11   -1    0    0    0    0  0.00000000000E+00  0.00000000000E+00  0.45593999997E+02  0.45594000000E+02  0.51100000000E-03 0.  1.
         11   -1    0    0    0    0 -0.00000000000E+00 -0.00000000000E+00 -0.45593999997E+02  0.45594000000E+02  0.51100000000E-03 0. -1.
         23    2    1    2    0    0  0.22204460493E-15  0.00000000000E+00  0.00000000000E+00  0.91188000000E+02  0.91188000000E+02 0.  0.
    9900012    2    3    3    0    0 -0.13178570706E+01  0.42173320578E+02 -0.10163539070E+02  0.47787271408E+02  0.20000001660E+02 0.  0.
         12    1    3    3    0    0  0.13178570706E+01 -0.42173320578E+02  0.10163539070E+02  0.43400728592E+02  0.00000000000E+00 0. -1.
         11    1    4    4    0    0 -0.43392064235E+01  0.55582271245E+01 -0.41851084574E+01  0.81998618412E+01  0.51100000000E-03 0. -1.
        -11    1    4    4    0    0  0.59420455026E+01  0.35505621606E+02 -0.52612994200E+01  0.36381840830E+02  0.51100000000E-03 0.  1.
        -12    1    4    4    0    0 -0.29206961496E+01  0.11094718483E+01 -0.71713119214E+00  0.32055687370E+01  0.00000000000E+00 0.  1.
</event>
<event>
 8    1  0.5331800E-011  0.9118800E+02  0.7816164E-02  0.1184000E+00
        -11   -1    0    0    0    0  0.00000000000E+00  0.00000000000E+00  0.45593999997E+02  0.45594000000E+02  0.51100000000E-03 0. -1.
         11   -1    0    0    0    0 -0.00000000000E+00 -0.00000000000E+00 -0.45593999997E+02  0.45594000000E+02  0.51100000000E-03 0.  1.
         23    2    1    2    0    0 -0.71054273576E-14  0.00000000000E+00  0.35527136788E-14  0.91188000000E+02  0.91188000000E+02 0.  0.
    9900012    2    3    3    0    0 -0.32103315952E+02  0.51636381544E+01  0.28746086242E+02  0.47787268113E+02  0.19999986634E+02 0.  0.
        -12    1    3    3    0    0  0.32103315952E+02 -0.51636381544E+01 -0.28746086242E+02  0.43400731887E+02  0.00000000000E+00 0.  1.
         11    1    4    4    0    0 -0.19885906643E+02  0.30543895775E+01  0.14596417487E+02  0.24856266462E+02  0.51100000000E-03 0. -1.
        -11    1    4    4    0    0 -0.23032105589E+01 -0.52217801659E+01  0.41727169161E+01  0.70698892285E+01  0.51100000000E-03 0.  1.
        -12    1    4    4    0    0 -0.99141987504E+01  0.73310287428E+01  0.99769518386E+01  0.15861112423E+02  0.00000000000E+00 0.  1.
</event>
<event>
 8    1  0.5331800E-011  0.9118800E+02  0.7816164E-02  0.1184000E+00
        -11   -1    0    0    0    0  0.00000000000E+00  0.00000000000E+00  0.45593999997E+02  0.45594000000E+02  0.51100000000E-03 0. -1.
         11   -1    0    0    0    0 -0.00000000000E+00 -0.00000000000E+00 -0.45593999997E+02  0.45594000000E+02  0.51100000000E-03 0.  1.
         23    2    1    2    0    0 -0.71054273576E-14  0.00000000000E+00  0.00000000000E+00  0.91188000000E+02  0.91188000000E+02 0.  0.
    9900012    2    3    3    0    0 -0.36352338656E+02 -0.93666145994E+01 -0.21780673095E+02  0.47787265960E+02  0.19999976816E+02 0.  0.
         12    1    3    3    0    0  0.36352338656E+02  0.93666145994E+01  0.21780673095E+02  0.43400734040E+02  0.00000000000E+00 0. -1.
         11    1    4    4    0    0 -0.87930804164E+00  0.31657436258E+01 -0.36104056638E+01  0.48816129153E+01  0.51100000000E-03 0. -1.
        -11    1    4    4    0    0 -0.30871104732E+02 -0.75726935257E+01 -0.16975288062E+02  0.36035138402E+02  0.51100000000E-03 0.  1.
        -12    1    4    4    0    0 -0.46019258823E+01 -0.49596646995E+01 -0.11949793687E+01  0.68705146422E+01  0.00000000000E+00 0.  1.
</event>
<event>
 8    1  0.5331800E-011  0.9118800E+02  0.7816164E-02  0.1184000E+00
        -11   -1    0    0    0    0  0.00000000000E+00  0.00000000000E+00  0.45593999997E+02  0.45594000000E+02  0.51100000000E-03 0. -1.
         11   -1    0    0    0    0 -0.00000000000E+00 -0.00000000000E+00 -0.45593999997E+02  0.45594000000E+02  0.51100000000E-03 0.  1.
         23    2    1    2    0    0  0.00000000000E+00 -0.17763568394E-14  0.00000000000E+00  0.91188000000E+02  0.91188000000E+02 0.  0.
    9900012    2    3    3    0    0  0.21985413780E+02  0.79960928905E+01 -0.36555805570E+02  0.47787276026E+02  0.20000022714E+02 0.  0.
         12    1    3    3    0    0 -0.21985413780E+02 -0.79960928905E+01  0.36555805570E+02  0.43400723974E+02  0.00000000000E+00 0. -1.
         11    1    4    4    0    0  0.17101516637E+02 -0.40162903466E+01 -0.21892608480E+02  0.28069178216E+02  0.51100000000E-03 0. -1.
        -11    1    4    4    0    0  0.53211667571E+00  0.42566462097E+01 -0.47364618059E+01  0.63903251725E+01  0.51100000000E-03 0.  1.
         12    1    4    4    0    0  0.43517804674E+01  0.77557370274E+01 -0.99267352840E+01  0.13327772637E+02  0.00000000000E+00 0. -1.
</event>
<event>
 8    1  0.5331800E-011  0.9118800E+02  0.7816164E-02  0.1184000E+00
        -11   -1    0    0    0    0  0.00000000000E+00  0.00000000000E+00  0.45593999997E+02  0.45594000000E+02  0.51100000000E-03 0. -1.
         11   -1    0    0    0    0 -0.00000000000E+00 -0.00000000000E+00 -0.45593999997E+02  0.45594000000E+02  0.51100000000E-03 0.  1.
         23    2    1    2    0    0  0.00000000000E+00 -0.35527136788E-14  0.35527136788E-14  0.91188000000E+02  0.91188000000E+02 0.  0.
    9900012    2    3    3    0    0 -0.16129303047E+02  0.26531617952E+02 -0.30323951391E+02  0.47787271942E+02  0.20000004094E+02 0.  0.
         12    1    3    3    0    0  0.16129303047E+02 -0.26531617952E+02  0.30323951391E+02  0.43400728058E+02  0.00000000000E+00 0. -1.
         11    1    4    4    0    0 -0.74936178592E+01  0.17447140679E+01 -0.12069981013E+02  0.14313726898E+02  0.51100000000E-03 0. -1.
        -11    1    4    4    0    0 -0.79282839558E+01  0.24110581084E+02 -0.19415061177E+02  0.31955005985E+02  0.51100000000E-03 0.  1.
        -12    1    4    4    0    0 -0.70740123194E+00  0.67632280016E+00  0.11610907987E+01  0.15185390597E+01  0.00000000000E+00 0.  1.
</event>
<event>
 8    1  0.5331800E-011  0.9118800E+02  0.7816164E-02  0.1184000E+00
        -11   -1    0    0    0    0  0.00000000000E+00  0.00000000000E+00  0.45593999997E+02  0.45594000000E+02  0.51100000000E-03 0. -1.
         11   -1    0    0    0    0 -0.00000000000E+00 -0.00000000000E+00 -0.45593999997E+02  0.45594000000E+02  0.51100000000E-03 0.  1.
         23    2    1    2    0    0  0.71054273576E-14  0.00000000000E+00 -0.35527136788E-14  0.91188000000E+02  0.91188000000E+02 0.  0.
    9900012    2    3    3    0    0 -0.34890895827E+02  0.19901250148E+02  0.16437424615E+02  0.47787270778E+02  0.19999998783E+02 0.  0.
        -12    1    3    3    0    0  0.34890895827E+02 -0.19901250148E+02 -0.16437424615E+02  0.43400729222E+02  0.00000000000E+00 0.  1.
         11    1    4    4    0    0 -0.20124838283E+02  0.38794256872E+01  0.74112086717E+01  0.21794152285E+02  0.51100000000E-03 0. -1.
        -11    1    4    4    0    0 -0.15066827873E+01  0.93601794794E+01  0.43836314852E+01  0.10445059989E+02  0.51100000000E-03 0.  1.
         12    1    4    4    0    0 -0.13259374757E+02  0.66616449812E+01  0.46425844582E+01  0.15548058504E+02  0.00000000000E+00 0. -1.
</event>
<event>
 8    1  0.5331800E-011  0.9118800E+02  0.7816164E-02  0.1184000E+00
        -11   -1    0    0    0    0  0.00000000000E+00  0.00000000000E+00  0.45593999997E+02  0.45594000000E+02  0.51100000000E-03 0. -1.
         11   -1    0    0    0    0 -0.00000000000E+00 -0.00000000000E+00 -0.45593999997E+02  0.45594000000E+02  0.51100000000E-03 0.  1.
         23    2    1    2    0    0  0.00000000000E+00  0.00000000000E+00  0.00000000000E+00  0.91188000000E+02  0.91188000000E+02 0.  0.
    9900012    2    3    3    0    0  0.32637718483E+02  0.87490599918E+01  0.27237044554E+02  0.47787270576E+02  0.19999997865E+02 0.  0.
        -12    1    3    3    0    0 -0.32637718483E+02 -0.87490599918E+01 -0.27237044554E+02  0.43400729424E+02  0.00000000000E+00 0.  1.
         11    1    4    4    0    0  0.79690981628E+01  0.33448768579E+01  0.68669982206E+01  0.11038586483E+02  0.51100000000E-03 0. -1.
        -11    1    4    4    0    0  0.24281141039E+02  0.83129008104E+01  0.12902896692E+02  0.28725648354E+02  0.51100000000E-03 0.  1.
        -12    1    4    4    0    0  0.38747928122E+00 -0.29087176765E+01  0.74671496410E+01  0.80230357394E+01  0.00000000000E+00 0.  1.
</event>
<event>
 8    1  0.5331800E-011  0.9118800E+02  0.7816164E-02  0.1184000E+00
        -11   -1    0    0    0    0  0.00000000000E+00  0.00000000000E+00  0.45593999997E+02  0.45594000000E+02  0.51100000000E-03 0. -1.
         11   -1    0    0    0    0 -0.00000000000E+00 -0.00000000000E+00 -0.45593999997E+02  0.45594000000E+02  0.51100000000E-03 0.  1.
         23    2    1    2    0    0  0.00000000000E+00  0.17763568394E-14  0.00000000000E+00  0.91188000000E+02  0.91188000000E+02 0.  0.
    9900012    2    3    3    0    0  0.15716415016E+02 -0.14897494700E+02  0.37612264361E+02  0.47787268673E+02  0.19999989188E+02 0.  0.
        -12    1    3    3    0    0 -0.15716415016E+02  0.14897494700E+02 -0.37612264361E+02  0.43400731327E+02  0.00000000000E+00 0.  1.
         11    1    4    4    0    0 -0.10567828321E+01 -0.63177211659E+00  0.67321186923E+01  0.68437817257E+01  0.51100000000E-03 0. -1.
        -11    1    4    4    0    0 -0.94171193737E+00 -0.76073033628E+01  0.63009338465E+01  0.99226837814E+01  0.51100000000E-03 0.  1.
        -12    1    4    4    0    0  0.17714909786E+02 -0.66584192211E+01  0.24579211823E+02  0.31020803166E+02  0.00000000000E+00 0.  1.
</event>
<event>
 8    1  0.5331800E-011  0.9118800E+02  0.7816164E-02  0.1184000E+00
        -11   -1    0    0    0    0  0.00000000000E+00  0.00000000000E+00  0.45593999997E+02  0.45594000000E+02  0.51100000000E-03 0. -1.
         11   -1    0    0    0    0 -0.00000000000E+00 -0.00000000000E+00 -0.45593999997E+02  0.45594000000E+02  0.51100000000E-03 0.  1.
         23    2    1    2    0    0  0.88817841970E-15  0.00000000000E+00 -0.71054273576E-14  0.91188000000E+02  0.91188000000E+02 0.  0.
    9900012    2    3    3    0    0  0.34844851154E+01  0.25400292638E+02 -0.35018663080E+02  0.47787271129E+02  0.20000000386E+02 0.  0.
         12    1    3    3    0    0 -0.34844851154E+01 -0.25400292638E+02  0.35018663080E+02  0.43400728871E+02  0.00000000000E+00 0. -1.
         11    1    4    4    0    0 -0.33224275551E+01  0.30121100187E+01  0.36926520852E+00  0.44997431793E+01  0.51100000000E-03 0. -1.
        -11    1    4    4    0    0  0.38100257821E+01  0.21366091452E+02 -0.29811010795E+02  0.36874415592E+02  0.51100000000E-03 0.  1.
         12    1    4    4    0    0  0.29968868884E+01  0.10220911667E+01 -0.55769174940E+01  0.64131123575E+01  0.00000000000E+00 0. -1.
</event>
<event>
 8    1  0.5331800E-011  0.9118800E+02  0.7816164E-02  0.1184000E+00
        -11   -1    0    0    0    0  0.00000000000E+00  0.00000000000E+00  0.45593999997E+02  0.45594000000E+02  0.51100000000E-03 0. -1.
         11   -1    0    0    0    0 -0.00000000000E+00 -0.00000000000E+00 -0.45593999997E+02  0.45594000000E+02  0.51100000000E-03 0.  1.
         23    2    1    2    0    0  0.00000000000E+00  0.35527136788E-14  0.00000000000E+00  0.91188000000E+02  0.91188000000E+02 0.  0.
    9900012    2    3    3    0    0  0.27628824710E+02  0.21096619997E+02  0.25984687672E+02  0.47787270472E+02  0.19999997388E+02 0.  0.
        -12    1    3    3    0    0 -0.27628824710E+02 -0.21096619997E+02 -0.25984687672E+02  0.43400729528E+02  0.00000000000E+00 0.  1.
         11    1    4    4    0    0  0.17892961836E+02  0.48995236477E+01  0.60041836968E+01  0.19499067602E+02  0.51100000000E-03 0. -1.
        -11    1    4    4    0    0  0.96696917958E+01  0.15456012833E+02  0.16055875731E+02  0.24293670325E+02  0.51100000000E-03 0.  1.
        -12    1    4    4    0    0  0.66171078564E-01  0.74108351697E+00  0.39246282446E+01  0.39945325445E+01  0.00000000000E+00 0.  1.
</event>
<event>
 8    1  0.5331800E-011  0.9118800E+02  0.7816164E-02  0.1184000E+00
        -11   -1    0    0    0    0  0.00000000000E+00  0.00000000000E+00  0.45593999997E+02  0.45594000000E+02  0.51100000000E-03 0. -1.
         11   -1    0    0    0    0 -0.00000000000E+00 -0.00000000000E+00 -0.45593999997E+02  0.45594000000E+02  0.51100000000E-03 0.  1.
         23    2    1    2    0    0 -0.35527136788E-14 -0.17763568394E-14  0.00000000000E+00  0.91188000000E+02  0.91188000000E+02 0.  0.
    9900012    2    3    3    0    0 -0.18462527713E+02 -0.13392529733E+02 -0.36924228197E+02  0.47787269474E+02  0.19999992842E+02 0.  0.
         12    1    3    3    0    0  0.18462527713E+02  0.13392529733E+02  0.36924228197E+02  0.43400730526E+02  0.00000000000E+00 0. -1.
         11    1    4    4    0    0 -0.10171719067E+02 -0.10605921155E+02 -0.84138778656E+01  0.16933480839E+02  0.51100000000E-03 0. -1.
        -11    1    4    4    0    0 -0.12502730623E+01 -0.26319103236E+01 -0.22950860453E+01  0.37091178059E+01  0.51100000000E-03 0.  1.
         12    1    4    4    0    0 -0.70405355842E+01 -0.15469825444E+00 -0.26215264286E+02  0.27144670830E+02  0.00000000000E+00 0. -1.
</event>
<event>
 8    1  0.5331800E-011  0.9118800E+02  0.7816164E-02  0.1184000E+00
        -11   -1    0    0    0    0  0.00000000000E+00  0.00000000000E+00  0.45593999997E+02  0.45594000000E+02  0.51100000000E-03 0. -1.
         11   -1    0    0    0    0 -0.00000000000E+00 -0.00000000000E+00 -0.45593999997E+02  0.45594000000E+02  0.51100000000E-03 0.  1.
         23    2    1    2    0    0 -0.88817841970E-15  0.00000000000E+00  0.00000000000E+00  0.91188000000E+02  0.91188000000E+02 0.  0.
    9900012    2    3    3    0    0 -0.39221855103E+01 -0.36040863656E+02  0.23859922190E+02  0.47787270983E+02  0.19999999721E+02 0.  0.
        -12    1    3    3    0    0  0.39221855103E+01  0.36040863656E+02 -0.23859922190E+02  0.43400729017E+02  0.00000000000E+00 0.  1.
         11    1    4    4    0    0 -0.93830758687E+01 -0.17096328747E+02  0.79451740981E+01  0.21058308600E+02  0.51100000000E-03 0. -1.
        -11    1    4    4    0    0  0.59365183836E+01 -0.57389721087E+01  0.58870868824E+01  0.10140800935E+02  0.51100000000E-03 0.  1.
        -12    1    4    4    0    0 -0.47562802523E+00 -0.13205562800E+02  0.10027661210E+02  0.16588161448E+02  0.00000000000E+00 0.  1.
</event>
<event>
 8    1  0.5331800E-011  0.9118800E+02  0.7816164E-02  0.1184000E+00
        -11   -1    0    0    0    0  0.00000000000E+00  0.00000000000E+00  0.45593999997E+02  0.45594000000E+02  0.51100000000E-03 0. -1.
         11   -1    0    0    0    0 -0.00000000000E+00 -0.00000000000E+00 -0.45593999997E+02  0.45594000000E+02  0.51100000000E-03 0.  1.
         23    2    1    2    0    0  0.00000000000E+00 -0.17763568394E-14  0.00000000000E+00  0.91188000000E+02  0.91188000000E+02 0.  0.
    9900012    2    3    3    0    0 -0.25282413319E+02 -0.73598681799E+01  0.34500075315E+02  0.47787270979E+02  0.19999999701E+02 0.  0.
        -12    1    3    3    0    0  0.25282413319E+02  0.73598681799E+01 -0.34500075315E+02  0.43400729021E+02  0.00000000000E+00 0.  1.
         11    1    4    4    0    0 -0.84804107513E+01  0.17514047862E+01  0.20724109369E+02  0.22460487409E+02  0.51100000000E-03 0. -1.
        -11    1    4    4    0    0 -0.92542120730E+01  0.23617563423E-01  0.75361606933E+01  0.11934601675E+02  0.51100000000E-03 0.  1.
         12    1    4    4    0    0 -0.75477904942E+01 -0.91348905296E+01  0.62398052526E+01  0.13392181896E+02  0.00000000000E+00 0. -1.
</event>
<event>
 8    1  0.5331800E-011  0.9118800E+02  0.7816164E-02  0.1184000E+00
        -11   -1    0    0    0    0  0.00000000000E+00  0.00000000000E+00  0.45593999997E+02  0.45594000000E+02  0.51100000000E-03 0.  1.
         11   -1    0    0    0    0 -0.00000000000E+00 -0.00000000000E+00 -0.45593999997E+02  0.45594000000E+02  0.51100000000E-03 0. -1.
         23    2    1    2    0    0 -0.35527136788E-14  0.00000000000E+00  0.35527136788E-14  0.91188000000E+02  0.91188000000E+02 0.  0.
    9900012    2    3    3    0    0  0.19833117061E+02  0.33948633067E+02 -0.18378272861E+02  0.47787272669E+02  0.20000007406E+02 0.  0.
         12    1    3    3    0    0 -0.19833117061E+02 -0.33948633067E+02  0.18378272861E+02  0.43400727331E+02  0.00000000000E+00 0. -1.
         11    1    4    4    0    0  0.15594604979E+01  0.10576549384E+02  0.13707563657E+01  0.10778417657E+02  0.51100000000E-03 0. -1.
        -11    1    4    4    0    0  0.19489109438E+02  0.21986567534E+02 -0.17932559061E+02  0.34421086754E+02  0.51100000000E-03 0.  1.
        -12    1    4    4    0    0 -0.12154528746E+01  0.13855161499E+01 -0.18164701656E+01  0.25877682575E+01  0.00000000000E+00 0.  1.
</event>
<event>
 8    1  0.5331800E-011  0.9118800E+02  0.7816164E-02  0.1184000E+00
        -11   -1    0    0    0    0  0.00000000000E+00  0.00000000000E+00  0.45593999997E+02  0.45594000000E+02  0.51100000000E-03 0. -1.
         11   -1    0    0    0    0 -0.00000000000E+00 -0.00000000000E+00 -0.45593999997E+02  0.45594000000E+02  0.51100000000E-03 0.  1.
         23    2    1    2    0    0  0.35527136788E-14  0.00000000000E+00  0.00000000000E+00  0.91188000000E+02  0.91188000000E+02 0.  0.
    9900012    2    3    3    0    0 -0.20757064128E+02 -0.16883295829E+02  0.34171949458E+02  0.47787268220E+02  0.19999987123E+02 0.  0.
        -12    1    3    3    0    0  0.20757064128E+02  0.16883295829E+02 -0.34171949458E+02  0.43400731780E+02  0.00000000000E+00 0.  1.
         11    1    4    4    0    0 -0.65408852249E+00 -0.93964126725E+01  0.17750181296E+02  0.20094510176E+02  0.51100000000E-03 0. -1.
        -11    1    4    4    0    0 -0.14955232803E+02 -0.78469394159E+01  0.14236847894E+02  0.22088940323E+02  0.51100000000E-03 0.  1.
         12    1    4    4    0    0 -0.51477428030E+01  0.36005625936E+00  0.21849202673E+01  0.56038177210E+01  0.00000000000E+00 0. -1.
</event>
<event>
 8    1  0.5331800E-011  0.9118800E+02  0.7816164E-02  0.1184000E+00
        -11   -1    0    0    0    0  0.00000000000E+00  0.00000000000E+00  0.45593999997E+02  0.45594000000E+02  0.51100000000E-03 0. -1.
         11   -1    0    0    0    0 -0.00000000000E+00 -0.00000000000E+00 -0.45593999997E+02  0.45594000000E+02  0.51100000000E-03 0.  1.
         23    2    1    2    0    0 -0.88817841970E-15  0.71054273576E-14  0.00000000000E+00  0.91188000000E+02  0.91188000000E+02 0.  0.
    9900012    2    3    3    0    0 -0.42536226223E+01  0.39305770233E+02  0.17904918856E+02  0.47787274219E+02  0.20000014476E+02 0.  0.
        -12    1    3    3    0    0  0.42536226223E+01 -0.39305770233E+02 -0.17904918856E+02  0.43400725781E+02  0.00000000000E+00 0.  1.
         11    1    4    4    0    0  0.38151541985E+01  0.20348039901E+02  0.47738339899E+01  0.21245884792E+02  0.51100000000E-03 0. -1.
        -11    1    4    4    0    0 -0.67628653633E+01  0.48184334107E+01  0.21127674919E+01  0.85683974693E+01  0.51100000000E-03 0.  1.
         12    1    4    4    0    0 -0.13059114575E+01  0.14139296922E+02  0.11018317374E+02  0.17972991958E+02  0.00000000000E+00 0. -1.
</event>
<event>
 8    1  0.5331800E-011  0.9118800E+02  0.7816164E-02  0.1184000E+00
        -11   -1    0    0    0    0  0.00000000000E+00  0.00000000000E+00  0.45593999997E+02  0.45594000000E+02  0.51100000000E-03 0. -1.
         11   -1    0    0    0    0 -0.00000000000E+00 -0.00000000000E+00 -0.45593999997E+02  0.45594000000E+02  0.51100000000E-03 0.  1.
         23    2    1    2    0    0  0.00000000000E+00  0.88817841970E-15  0.35527136788E-14  0.91188000000E+02  0.91188000000E+02 0.  0.
    9900012    2    3    3    0    0  0.37362971718E+02 -0.67301087535E+01 -0.21031800742E+02  0.47787278095E+02  0.20000032147E+02 0.  0.
         12    1    3    3    0    0 -0.37362971718E+02  0.67301087535E+01  0.21031800742E+02  0.43400721905E+02  0.00000000000E+00 0. -1.
         11    1    4    4    0    0  0.53232621298E+01 -0.48102932392E+01 -0.92270564948E+00  0.72337698834E+01  0.51100000000E-03 0. -1.
        -11    1    4    4    0    0  0.23913584037E+02  0.50675048179E+01 -0.12925418978E+02  0.27651501995E+02  0.51100000000E-03 0.  1.
        -12    1    4    4    0    0  0.81261255508E+01 -0.69873203322E+01 -0.71836761146E+01  0.12902006217E+02  0.00000000000E+00 0.  1.
</event>
<event>
 8    1  0.5331800E-011  0.9118800E+02  0.7816164E-02  0.1184000E+00
        -11   -1    0    0    0    0  0.00000000000E+00  0.00000000000E+00  0.45593999997E+02  0.45594000000E+02  0.51100000000E-03 0. -1.
         11   -1    0    0    0    0 -0.00000000000E+00 -0.00000000000E+00 -0.45593999997E+02  0.45594000000E+02  0.51100000000E-03 0.  1.
         23    2    1    2    0    0 -0.35527136788E-14  0.17763568394E-14  0.00000000000E+00  0.91188000000E+02  0.91188000000E+02 0.  0.
    9900012    2    3    3    0    0  0.18861784962E+02 -0.10758756609E+02  0.37577992714E+02  0.47787270604E+02  0.19999997991E+02 0.  0.
        -12    1    3    3    0    0 -0.18861784962E+02  0.10758756609E+02 -0.37577992714E+02  0.43400729396E+02  0.00000000000E+00 0.  1.
         11    1    4    4    0    0  0.15323150151E+02 -0.44528305785E+01  0.14322037713E+02  0.21441720902E+02  0.51100000000E-03 0. -1.
        -11    1    4    4    0    0  0.39568756587E+01 -0.67493548860E+01  0.24080828995E+02  0.25319893003E+02  0.51100000000E-03 0.  1.
        -12    1    4    4    0    0 -0.41824084815E+00  0.44342885537E+00 -0.82487399425E+00  0.10256566985E+01  0.00000000000E+00 0.  1.
</event>
<event>
 8    1  0.5331800E-011  0.9118800E+02  0.7816164E-02  0.1184000E+00
        -11   -1    0    0    0    0  0.00000000000E+00  0.00000000000E+00  0.45593999997E+02  0.45594000000E+02  0.51100000000E-03 0.  1.
         11   -1    0    0    0    0 -0.00000000000E+00 -0.00000000000E+00 -0.45593999997E+02  0.45594000000E+02  0.51100000000E-03 0. -1.
         23    2    1    2    0    0  0.00000000000E+00  0.71054273576E-14  0.88817841970E-15  0.91188000000E+02  0.91188000000E+02 0.  0.
    9900012    2    3    3    0    0  0.11662548563E+02 -0.41253349076E+02  0.67653182016E+01  0.47787269829E+02  0.19999994461E+02 0.  0.
        -12    1    3    3    0    0 -0.11662548563E+02  0.41253349076E+02 -0.67653182016E+01  0.43400730171E+02  0.00000000000E+00 0.  1.
         11    1    4    4    0    0  0.10879861748E+02 -0.10556901588E+02  0.44930325152E+01  0.15811606631E+02  0.51100000000E-03 0. -1.
        -11    1    4    4    0    0 -0.13698394401E+01 -0.17913159439E+02  0.51658189239E+01  0.18693405966E+02  0.51100000000E-03 0.  1.
         12    1    4    4    0    0  0.21525262553E+01 -0.12783288049E+02 -0.28935332375E+01  0.13282257233E+02  0.00000000000E+00 0. -1.
</event>
<event>
 8    1  0.5331800E-011  0.9118800E+02  0.7816164E-02  0.1184000E+00
        -11   -1    0    0    0    0  0.00000000000E+00  0.00000000000E+00  0.45593999997E+02  0.45594000000E+02  0.51100000000E-03 0. -1.
         11   -1    0    0    0    0 -0.00000000000E+00 -0.00000000000E+00 -0.45593999997E+02  0.45594000000E+02  0.51100000000E-03 0.  1.
         23    2    1    2    0    0  0.00000000000E+00  0.00000000000E+00  0.00000000000E+00  0.91188000000E+02  0.91188000000E+02 0.  0.
    9900012    2    3    3    0    0  0.16586845063E+02  0.38322864338E+02 -0.11826156458E+02  0.47787270319E+02  0.19999996695E+02 0.  0.
         12    1    3    3    0    0 -0.16586845063E+02 -0.38322864338E+02  0.11826156458E+02  0.43400729681E+02  0.00000000000E+00 0. -1.
         11    1    4    4    0    0  0.38634921865E+01  0.28936882331E+02 -0.60762275700E+01  0.29819293631E+02  0.51100000000E-03 0. -1.
        -11    1    4    4    0    0  0.69373565779E+01  0.44219189507E+01 -0.62445170824E+01  0.10328324034E+02  0.51100000000E-03 0.  1.
         12    1    4    4    0    0  0.57859962990E+01  0.49640630565E+01  0.49458819439E+00  0.76396526546E+01  0.00000000000E+00 0. -1.
</event>
<event>
 8    1  0.5331800E-011  0.9118800E+02  0.7816164E-02  0.1184000E+00
        -11   -1    0    0    0    0  0.00000000000E+00  0.00000000000E+00  0.45593999997E+02  0.45594000000E+02  0.51100000000E-03 0. -1.
         11   -1    0    0    0    0 -0.00000000000E+00 -0.00000000000E+00 -0.45593999997E+02  0.45594000000E+02  0.51100000000E-03 0.  1.
         23    2    1    2    0    0  0.00000000000E+00 -0.88817841970E-15  0.00000000000E+00  0.91188000000E+02  0.91188000000E+02 0.  0.
    9900012    2    3    3    0    0  0.52292199407E+01  0.67241187102E+01  0.42556607611E+02  0.47787269995E+02  0.19999995217E+02 0.  0.
        -12    1    3    3    0    0 -0.52292199407E+01 -0.67241187102E+01 -0.42556607611E+02  0.43400730005E+02  0.00000000000E+00 0.  1.
         11    1    4    4    0    0  0.43687153874E+01 -0.11981020649E+01  0.18478341283E+02  0.19025514961E+02  0.51100000000E-03 0. -1.
        -11    1    4    4    0    0 -0.16558776233E+01  0.83464717536E+01  0.57804404550E+01  0.10286836907E+02  0.51100000000E-03 0.  1.
        -12    1    4    4    0    0  0.25163821765E+01 -0.42425097844E+00  0.18297825872E+02  0.18474918127E+02  0.00000000000E+00 0.  1.
</event>
<event>
 8    1  0.5331800E-011  0.9118800E+02  0.7816164E-02  0.1184000E+00
        -11   -1    0    0    0    0  0.00000000000E+00  0.00000000000E+00  0.45593999997E+02  0.45594000000E+02  0.51100000000E-03 0. -1.
         11   -1    0    0    0    0 -0.00000000000E+00 -0.00000000000E+00 -0.45593999997E+02  0.45594000000E+02  0.51100000000E-03 0.  1.
         23    2    1    2    0    0 -0.35527136788E-14  0.00000000000E+00  0.00000000000E+00  0.91188000000E+02  0.91188000000E+02 0.  0.
    9900012    2    3    3    0    0 -0.20668872946E+02  0.16442754015E+02 -0.34439177877E+02  0.47787269115E+02  0.19999991204E+02 0.  0.
         12    1    3    3    0    0  0.20668872946E+02 -0.16442754015E+02  0.34439177877E+02  0.43400730885E+02  0.00000000000E+00 0. -1.
         11    1    4    4    0    0 -0.18474419386E+02  0.12136254267E+02 -0.35101480296E+02  0.41481402562E+02  0.51100000000E-03 0. -1.
        -11    1    4    4    0    0 -0.67342835846E-01  0.39788163211E+01 -0.20692046538E+00  0.39847623160E+01  0.51100000000E-03 0.  1.
         12    1    4    4    0    0 -0.21271107239E+01  0.32768342746E+00  0.86922288368E+00  0.23211042376E+01  0.00000000000E+00 0. -1.
</event>
<event>
 8    1  0.5331800E-011  0.9118800E+02  0.7816164E-02  0.1184000E+00
        -11   -1    0    0    0    0  0.00000000000E+00  0.00000000000E+00  0.45593999997E+02  0.45594000000E+02  0.51100000000E-03 0. -1.
         11   -1    0    0    0    0 -0.00000000000E+00 -0.00000000000E+00 -0.45593999997E+02  0.45594000000E+02  0.51100000000E-03 0.  1.
         23    2    1    2    0    0  0.35527136788E-14  0.17763568394E-14  0.71054273576E-14  0.91188000000E+02  0.91188000000E+02 0.  0.
    9900012    2    3    3    0    0 -0.21721355792E+02 -0.11603823348E+02 -0.35737344169E+02  0.47787265191E+02  0.19999973311E+02 0.  0.
         12    1    3    3    0    0  0.21721355792E+02  0.11603823348E+02  0.35737344169E+02  0.43400734809E+02  0.00000000000E+00 0. -1.
         11    1    4    4    0    0 -0.12057088448E+02 -0.95853902925E+00 -0.55661036518E+01  0.13314416586E+02  0.51100000000E-03 0. -1.
        -11    1    4    4    0    0 -0.20586588559E+01 -0.83627240632E+01 -0.17771709015E+02  0.19748591636E+02  0.51100000000E-03 0.  1.
         12    1    4    4    0    0 -0.76056084882E+01 -0.22825602558E+01 -0.12399531502E+02  0.14724256968E+02  0.00000000000E+00 0. -1.
</event>
<event>
 8    1  0.5331800E-011  0.9118800E+02  0.7816164E-02  0.1184000E+00
        -11   -1    0    0    0    0  0.00000000000E+00  0.00000000000E+00  0.45593999997E+02  0.45594000000E+02  0.51100000000E-03 0. -1.
         11   -1    0    0    0    0 -0.00000000000E+00 -0.00000000000E+00 -0.45593999997E+02  0.45594000000E+02  0.51100000000E-03 0.  1.
         23    2    1    2    0    0 -0.71054273576E-14 -0.33306690739E-15  0.35527136788E-14  0.91188000000E+02  0.91188000000E+02 0.  0.
    9900012    2    3    3    0    0  0.36422433782E+02  0.45833601099E+00 -0.23597022590E+02  0.47787271554E+02  0.20000002325E+02 0.  0.
         12    1    3    3    0    0 -0.36422433782E+02 -0.45833601099E+00  0.23597022590E+02  0.43400728446E+02  0.00000000000E+00 0. -1.
         11    1    4    4    0    0  0.21535230640E+02 -0.33429865427E+01 -0.68295567947E+01  0.22838225938E+02  0.51100000000E-03 0. -1.
        -11    1    4    4    0    0  0.26708058742E+01  0.48679116394E+01 -0.23702578449E+01  0.60372088136E+01  0.51100000000E-03 0.  1.
        -12    1    4    4    0    0  0.12216397268E+02 -0.10665890857E+01 -0.14397207950E+02  0.18911836803E+02  0.00000000000E+00 0.  1.
</event>
<event>
 8    1  0.5331800E-011  0.9118800E+02  0.7816164E-02  0.1184000E+00
        -11   -1    0    0    0    0  0.00000000000E+00  0.00000000000E+00  0.45593999997E+02  0.45594000000E+02  0.51100000000E-03 0. -1.
         11   -1    0    0    0    0 -0.00000000000E+00 -0.00000000000E+00 -0.45593999997E+02  0.45594000000E+02  0.51100000000E-03 0.  1.
         23    2    1    2    0    0  0.00000000000E+00  0.00000000000E+00  0.00000000000E+00  0.91188000000E+02  0.91188000000E+02 0.  0.
    9900012    2    3    3    0    0 -0.21445438733E+02  0.12149328362E+02  0.35722691288E+02  0.47787266194E+02  0.19999977883E+02 0.  0.
        -12    1    3    3    0    0  0.21445438733E+02 -0.12149328362E+02 -0.35722691288E+02  0.43400733806E+02  0.00000000000E+00 0.  1.
         11    1    4    4    0    0 -0.16093083943E+02  0.81009678868E+00  0.20043793202E+02  0.25717644795E+02  0.51100000000E-03 0. -1.
        -11    1    4    4    0    0 -0.14850770409E+01 -0.13040426416E+01  0.38559119347E+01  0.43329018150E+01  0.51100000000E-03 0.  1.
         12    1    4    4    0    0 -0.38672777485E+01  0.12643274215E+02  0.11822986151E+02  0.17736719583E+02  0.00000000000E+00 0. -1.
</event>
<event>
 8    1  0.5331800E-011  0.9118800E+02  0.7816164E-02  0.1184000E+00
        -11   -1    0    0    0    0  0.00000000000E+00  0.00000000000E+00  0.45593999997E+02  0.45594000000E+02  0.51100000000E-03 0.  1.
         11   -1    0    0    0    0 -0.00000000000E+00 -0.00000000000E+00 -0.45593999997E+02  0.45594000000E+02  0.51100000000E-03 0. -1.
         23    2    1    2    0    0 -0.88817841970E-15  0.00000000000E+00 -0.44408920985E-15  0.91188000000E+02  0.91188000000E+02 0.  0.
    9900012    2    3    3    0    0  0.50109609835E+01  0.42963352446E+02 -0.35586554725E+01  0.47787269451E+02  0.19999992735E+02 0.  0.
         12    1    3    3    0    0 -0.50109609835E+01 -0.42963352446E+02  0.35586554725E+01  0.43400730549E+02  0.00000000000E+00 0. -1.
         11    1    4    4    0    0  0.10048611874E+01 -0.17151748677E+01 -0.56570721126E-01  0.19886606901E+01  0.51100000000E-03 0. -1.
        -11    1    4    4    0    0  0.24652694069E+01  0.26976518911E+02 -0.62970286121E+01  0.27811197303E+02  0.51100000000E-03 0.  1.
        -12    1    4    4    0    0  0.15408303892E+01  0.17702008403E+02  0.27949438608E+01  0.17987411458E+02  0.00000000000E+00 0.  1.
</event>
<event>
 8    1  0.5331800E-011  0.9118800E+02  0.7816164E-02  0.1184000E+00
        -11   -1    0    0    0    0  0.00000000000E+00  0.00000000000E+00  0.45593999997E+02  0.45594000000E+02  0.51100000000E-03 0. -1.
         11   -1    0    0    0    0 -0.00000000000E+00 -0.00000000000E+00 -0.45593999997E+02  0.45594000000E+02  0.51100000000E-03 0.  1.
         23    2    1    2    0    0  0.00000000000E+00 -0.88817841970E-15  0.00000000000E+00  0.91188000000E+02  0.91188000000E+02 0.  0.
    9900012    2    3    3    0    0  0.27954665822E+02 -0.34199567707E+01 -0.33022170350E+02  0.47787272125E+02  0.20000004926E+02 0.  0.
         12    1    3    3    0    0 -0.27954665822E+02  0.34199567707E+01  0.33022170350E+02  0.43400727875E+02  0.00000000000E+00 0. -1.
         11    1    4    4    0    0  0.28028887356E+01  0.13334274888E+01 -0.14347742836E+02  0.14679643690E+02  0.51100000000E-03 0. -1.
        -11    1    4    4    0    0  0.13316475688E+02 -0.68835712349E+01 -0.78181228793E+01  0.16906659141E+02  0.51100000000E-03 0.  1.
         12    1    4    4    0    0  0.11835301398E+02  0.21301869754E+01 -0.10856304635E+02  0.16200969293E+02  0.00000000000E+00 0. -1.
</event>
<event>
 8    1  0.5331800E-011  0.9118800E+02  0.7816164E-02  0.1184000E+00
        -11   -1    0    0    0    0  0.00000000000E+00  0.00000000000E+00  0.45593999997E+02  0.45594000000E+02  0.51100000000E-03 0. -1.
         11   -1    0    0    0    0 -0.00000000000E+00 -0.00000000000E+00 -0.45593999997E+02  0.45594000000E+02  0.51100000000E-03 0.  1.
         23    2    1    2    0    0  0.00000000000E+00  0.00000000000E+00 -0.35527136788E-14  0.91188000000E+02  0.91188000000E+02 0.  0.
    9900012    2    3    3    0    0  0.27531228683E+02 -0.16125236920E+02  0.29421602247E+02  0.47787279991E+02  0.20000040789E+02 0.  0.
        -12    1    3    3    0    0 -0.27531228683E+02  0.16125236920E+02 -0.29421602247E+02  0.43400720009E+02  0.00000000000E+00 0.  1.
         11    1    4    4    0    0  0.10373574760E+02 -0.39536609052E+00  0.32483926561E+01  0.10877473178E+02  0.51100000000E-03 0. -1.
        -11    1    4    4    0    0  0.20229837906E+01 -0.39768343879E+01  0.12765159209E+02  0.13522461501E+02  0.51100000000E-03 0.  1.
         12    1    4    4    0    0  0.15134670133E+02 -0.11753036441E+02  0.13408050383E+02  0.23387345311E+02  0.00000000000E+00 0. -1.
</event>
<event>
 8    1  0.5331800E-011  0.9118800E+02  0.7816164E-02  0.1184000E+00
        -11   -1    0    0    0    0  0.00000000000E+00  0.00000000000E+00  0.45593999997E+02  0.45594000000E+02  0.51100000000E-03 0. -1.
         11   -1    0    0    0    0 -0.00000000000E+00 -0.00000000000E+00 -0.45593999997E+02  0.45594000000E+02  0.51100000000E-03 0.  1.
         23    2    1    2    0    0  0.00000000000E+00  0.00000000000E+00 -0.35527136788E-14  0.91188000000E+02  0.91188000000E+02 0.  0.
    9900012    2    3    3    0    0  0.30689613968E+02  0.21151430292E+02 -0.22234846439E+02  0.47787264925E+02  0.19999972098E+02 0.  0.
         12    1    3    3    0    0 -0.30689613968E+02 -0.21151430292E+02  0.22234846439E+02  0.43400735075E+02  0.00000000000E+00 0. -1.
         11    1    4    4    0    0  0.76644835705E+01 -0.19531047942E+01 -0.25203094196E+01  0.83012581318E+01  0.51100000000E-03 0. -1.
        -11    1    4    4    0    0  0.20757682830E+02  0.16061435957E+02 -0.12209397004E+02  0.28946856426E+02  0.51100000000E-03 0.  1.
         12    1    4    4    0    0  0.22674475673E+01  0.70430991290E+01 -0.75051400148E+01  0.10539150367E+02  0.00000000000E+00 0. -1.
</event>
<event>
 8    1  0.5331800E-011  0.9118800E+02  0.7816164E-02  0.1184000E+00
        -11   -1    0    0    0    0  0.00000000000E+00  0.00000000000E+00  0.45593999997E+02  0.45594000000E+02  0.51100000000E-03 0. -1.
         11   -1    0    0    0    0 -0.00000000000E+00 -0.00000000000E+00 -0.45593999997E+02  0.45594000000E+02  0.51100000000E-03 0.  1.
         23    2    1    2    0    0  0.71054273576E-14  0.00000000000E+00 -0.17763568394E-14  0.91188000000E+02  0.91188000000E+02 0.  0.
    9900012    2    3    3    0    0  0.40356084785E+02 -0.56544338088E+01 -0.14934429074E+02  0.47787269907E+02  0.19999994812E+02 0.  0.
         12    1    3    3    0    0 -0.40356084785E+02  0.56544338088E+01  0.14934429074E+02  0.43400730093E+02  0.00000000000E+00 0. -1.
         11    1    4    4    0    0  0.41791980357E+01  0.24426265133E+01  0.15727824133E+01  0.50897706516E+01  0.51100000000E-03 0. -1.
        -11    1    4    4    0    0  0.29939894387E+02 -0.11454276937E+02 -0.15269146308E+02  0.35506965025E+02  0.51100000000E-03 0.  1.
        -12    1    4    4    0    0  0.62369923623E+01  0.33572166148E+01 -0.12380651791E+01  0.71905342301E+01  0.00000000000E+00 0.  1.
</event>
<event>
 8    1  0.5331800E-011  0.9118800E+02  0.7816164E-02  0.1184000E+00
        -11   -1    0    0    0    0  0.00000000000E+00  0.00000000000E+00  0.45593999997E+02  0.45594000000E+02  0.51100000000E-03 0. -1.
         11   -1    0    0    0    0 -0.00000000000E+00 -0.00000000000E+00 -0.45593999997E+02  0.45594000000E+02  0.51100000000E-03 0.  1.
         23    2    1    2    0    0  0.22204460493E-15 -0.17763568394E-14  0.00000000000E+00  0.91188000000E+02  0.91188000000E+02 0.  0.
    9900012    2    3    3    0    0  0.11613197477E+01 -0.95831133065E+01 -0.42313576083E+02  0.47787269071E+02  0.19999991002E+02 0.  0.
         12    1    3    3    0    0 -0.11613197477E+01  0.95831133065E+01  0.42313576083E+02  0.43400730929E+02  0.00000000000E+00 0. -1.
         11    1    4    4    0    0  0.72363853402E+01 -0.89506570077E+01 -0.28810427261E+02  0.31024510518E+02  0.51100000000E-03 0. -1.
        -11    1    4    4    0    0 -0.63630631021E+01 -0.30123408327E+01 -0.12060491953E+02  0.13964892973E+02  0.51100000000E-03 0.  1.
         12    1    4    4    0    0  0.28799750953E+00  0.23798845339E+01 -0.14426568687E+01  0.27978655795E+01  0.00000000000E+00 0. -1.
</event>
<event>
 8    1  0.5331800E-011  0.9118800E+02  0.7816164E-02  0.1184000E+00
        -11   -1    0    0    0    0  0.00000000000E+00  0.00000000000E+00  0.45593999997E+02  0.45594000000E+02  0.51100000000E-03 0.  1.
         11   -1    0    0    0    0 -0.00000000000E+00 -0.00000000000E+00 -0.45593999997E+02  0.45594000000E+02  0.51100000000E-03 0. -1.
         23    2    1    2    0    0  0.00000000000E+00  0.00000000000E+00  0.00000000000E+00  0.91188000000E+02  0.91188000000E+02 0.  0.
    9900012    2    3    3    0    0 -0.16185908866E+02  0.33047620464E+02 -0.23010756069E+02  0.47787265456E+02  0.19999974519E+02 0.  0.
         12    1    3    3    0    0  0.16185908866E+02 -0.33047620464E+02  0.23010756069E+02  0.43400734544E+02  0.00000000000E+00 0. -1.
         11    1    4    4    0    0 -0.12423744476E+02  0.14482134513E+02 -0.29119296248E+01  0.19301838805E+02  0.51100000000E-03 0. -1.
        -11    1    4    4    0    0 -0.28656974549E+00  0.12410473756E+02 -0.16211546636E+02  0.20418526530E+02  0.51100000000E-03 0.  1.
        -12    1    4    4    0    0 -0.34755946443E+01  0.61550121946E+01 -0.38872798077E+01  0.80669001203E+01  0.00000000000E+00 0.  1.
</event>
<event>
 8    1  0.5331800E-011  0.9118800E+02  0.7816164E-02  0.1184000E+00
        -11   -1    0    0    0    0  0.00000000000E+00  0.00000000000E+00  0.45593999997E+02  0.45594000000E+02  0.51100000000E-03 0. -1.
         11   -1    0    0    0    0 -0.00000000000E+00 -0.00000000000E+00 -0.45593999997E+02  0.45594000000E+02  0.51100000000E-03 0.  1.
         23    2    1    2    0    0  0.88817841970E-15  0.00000000000E+00  0.00000000000E+00  0.91188000000E+02  0.91188000000E+02 0.  0.
    9900012    2    3    3    0    0 -0.65716467015E+01  0.43217760473E+01 -0.42682009123E+02  0.47787329598E+02  0.20000266967E+02 0.  0.
         12    1    3    3    0    0  0.65716467015E+01 -0.43217760473E+01  0.42682009123E+02  0.43400670402E+02  0.00000000000E+00 0. -1.
         11    1    4    4    0    0 -0.11253009603E+02  0.44949367544E+01 -0.15118251622E+02  0.19375144230E+02  0.51100000000E-03 0. -1.
        -11    1    4    4    0    0 -0.38521957625E+00 -0.14652503339E+01 -0.40503969800E+01  0.43244732187E+01  0.51100000000E-03 0.  1.
         12    1    4    4    0    0  0.50665824775E+01  0.12920896268E+01 -0.23513360521E+02  0.24087712149E+02  0.00000000000E+00 0. -1.
</event>
<event>
 8    1  0.5331800E-011  0.9118800E+02  0.7816164E-02  0.1184000E+00
        -11   -1    0    0    0    0  0.00000000000E+00  0.00000000000E+00  0.45593999997E+02  0.45594000000E+02  0.51100000000E-03 0. -1.
         11   -1    0    0    0    0 -0.00000000000E+00 -0.00000000000E+00 -0.45593999997E+02  0.45594000000E+02  0.51100000000E-03 0.  1.
         23    2    1    2    0    0  0.35527136788E-14  0.00000000000E+00  0.35527136788E-14  0.91188000000E+02  0.91188000000E+02 0.  0.
    9900012    2    3    3    0    0 -0.23649454263E+02 -0.25680571004E+02  0.25784399407E+02  0.47787266518E+02  0.19999979362E+02 0.  0.
        -12    1    3    3    0    0  0.23649454263E+02  0.25680571004E+02 -0.25784399407E+02  0.43400733482E+02  0.00000000000E+00 0.  1.
         11    1    4    4    0    0 -0.13920397521E+02 -0.17231022309E+02  0.94613918019E+01  0.24087414392E+02  0.51100000000E-03 0. -1.
        -11    1    4    4    0    0 -0.74066095036E+01 -0.35099520129E+01  0.16296413847E+02  0.18241456412E+02  0.51100000000E-03 0.  1.
         12    1    4    4    0    0 -0.23224472376E+01 -0.49395966820E+01  0.26593757216E-01  0.54583957149E+01  0.00000000000E+00 0. -1.
</event>
<event>
 8    1  0.5331800E-011  0.9118800E+02  0.7816164E-02  0.1184000E+00
        -11   -1    0    0    0    0  0.00000000000E+00  0.00000000000E+00  0.45593999997E+02  0.45594000000E+02  0.51100000000E-03 0.  1.
         11   -1    0    0    0    0 -0.00000000000E+00 -0.00000000000E+00 -0.45593999997E+02  0.45594000000E+02  0.51100000000E-03 0. -1.
         23    2    1    2    0    0 -0.17763568394E-14 -0.71054273576E-14 -0.35527136788E-14  0.91188000000E+02  0.91188000000E+02 0.  0.
    9900012    2    3    3    0    0  0.11074185201E+02  0.34304409687E+02  0.24170124829E+02  0.47787250743E+02  0.19999907437E+02 0.  0.
        -12    1    3    3    0    0 -0.11074185201E+02 -0.34304409687E+02 -0.24170124829E+02  0.43400749257E+02  0.00000000000E+00 0.  1.
         11    1    4    4    0    0  0.12319943681E+02  0.18093215162E+02  0.11656425001E+02  0.24799550223E+02  0.51100000000E-03 0. -1.
        -11    1    4    4    0    0 -0.28330921054E+01 -0.11788048969E+00  0.23992519879E+01  0.37143932277E+01  0.51100000000E-03 0.  1.
        -12    1    4    4    0    0  0.15873336256E+01  0.16329075014E+02  0.10114447840E+02  0.19273307292E+02  0.00000000000E+00 0.  1.
</event>
<event>
 8    1  0.5331800E-011  0.9118800E+02  0.7816164E-02  0.1184000E+00
        -11   -1    0    0    0    0  0.00000000000E+00  0.00000000000E+00  0.45593999997E+02  0.45594000000E+02  0.51100000000E-03 0.  1.
         11   -1    0    0    0    0 -0.00000000000E+00 -0.00000000000E+00 -0.45593999997E+02  0.45594000000E+02  0.51100000000E-03 0. -1.
         23    2    1    2    0    0  0.71054273576E-14  0.35527136788E-14 -0.17763568394E-14  0.91188000000E+02  0.91188000000E+02 0.  0.
    9900012    2    3    3    0    0  0.35921241582E+02  0.21442311039E+02 -0.11554889808E+02  0.47787265237E+02  0.19999973522E+02 0.  0.
         12    1    3    3    0    0 -0.35921241582E+02 -0.21442311039E+02  0.11554889808E+02  0.43400734763E+02  0.00000000000E+00 0. -1.
         11    1    4    4    0    0  0.41317888050E+01  0.24711537958E+00 -0.58502377969E+01  0.71664515125E+01  0.51100000000E-03 0. -1.
        -11    1    4    4    0    0  0.20338368999E+02  0.77252502042E+01  0.83078419637E+00  0.21771976183E+02  0.51100000000E-03 0.  1.
        -12    1    4    4    0    0  0.11451083777E+02  0.13469945455E+02 -0.65354362076E+01  0.18848837542E+02  0.00000000000E+00 0.  1.
</event>
<event>
 8    1  0.5331800E-011  0.9118800E+02  0.7816164E-02  0.1184000E+00
        -11   -1    0    0    0    0  0.00000000000E+00  0.00000000000E+00  0.45593999997E+02  0.45594000000E+02  0.51100000000E-03 0.  1.
         11   -1    0    0    0    0 -0.00000000000E+00 -0.00000000000E+00 -0.45593999997E+02  0.45594000000E+02  0.51100000000E-03 0. -1.
         23    2    1    2    0    0  0.00000000000E+00  0.00000000000E+00  0.00000000000E+00  0.91188000000E+02  0.91188000000E+02 0.  0.
    9900012    2    3    3    0    0  0.82076309498E+01 -0.39036372819E+02  0.17100281283E+02  0.47787271566E+02  0.20000002376E+02 0.  0.
        -12    1    3    3    0    0 -0.82076309498E+01  0.39036372819E+02 -0.17100281283E+02  0.43400728434E+02  0.00000000000E+00 0.  1.
         11    1    4    4    0    0  0.13571977329E+01 -0.11462930361E+02 -0.31876389338E+01  0.11975049076E+02  0.51100000000E-03 0. -1.
        -11    1    4    4    0    0  0.84861547774E+01 -0.24622903540E+02  0.17000428724E+02  0.31101716652E+02  0.51100000000E-03 0.  1.
         12    1    4    4    0    0 -0.16357215604E+01 -0.29505389189E+01  0.32874914923E+01  0.47105058377E+01  0.00000000000E+00 0. -1.
</event>
<event>
 8    1  0.5331800E-011  0.9118800E+02  0.7816164E-02  0.1184000E+00
        -11   -1    0    0    0    0  0.00000000000E+00  0.00000000000E+00  0.45593999997E+02  0.45594000000E+02  0.51100000000E-03 0.  1.
         11   -1    0    0    0    0 -0.00000000000E+00 -0.00000000000E+00 -0.45593999997E+02  0.45594000000E+02  0.51100000000E-03 0. -1.
         23    2    1    2    0    0  0.00000000000E+00  0.17763568394E-14  0.00000000000E+00  0.91188000000E+02  0.91188000000E+02 0.  0.
    9900012    2    3    3    0    0 -0.14960012278E+02 -0.14345035022E+02 -0.38131888059E+02  0.47787275535E+02  0.20000020475E+02 0.  0.
         12    1    3    3    0    0  0.14960012278E+02  0.14345035022E+02  0.38131888059E+02  0.43400724465E+02  0.00000000000E+00 0. -1.
         11    1    4    4    0    0 -0.10067632163E+01 -0.38627823703E+01 -0.24279332761E+02  0.24605297385E+02  0.51100000000E-03 0. -1.
        -11    1    4    4    0    0 -0.11477638407E+02 -0.10803847170E+02 -0.10261489551E+02  0.18808441327E+02  0.51100000000E-03 0.  1.
        -12    1    4    4    0    0 -0.24756106543E+01  0.32159451875E+00 -0.35910657464E+01  0.43735368229E+01  0.00000000000E+00 0.  1.
</event>
<event>
 8    1  0.5331800E-011  0.9118800E+02  0.7816164E-02  0.1184000E+00
        -11   -1    0    0    0    0  0.00000000000E+00  0.00000000000E+00  0.45593999997E+02  0.45594000000E+02  0.51100000000E-03 0.  1.
         11   -1    0    0    0    0 -0.00000000000E+00 -0.00000000000E+00 -0.45593999997E+02  0.45594000000E+02  0.51100000000E-03 0. -1.
         23    2    1    2    0    0 -0.71054273576E-14  0.00000000000E+00  0.00000000000E+00  0.91188000000E+02  0.91188000000E+02 0.  0.
    9900012    2    3    3    0    0 -0.38985437294E+02  0.18904017697E+02 -0.25294606006E+01  0.47787258336E+02  0.19999942057E+02 0.  0.
        -12    1    3    3    0    0  0.38985437294E+02 -0.18904017697E+02  0.25294606006E+01  0.43400741664E+02  0.00000000000E+00 0.  1.
         11    1    4    4    0    0 -0.15827453489E+02  0.11394288736E+02  0.60782398027E+01  0.20427508392E+02  0.51100000000E-03 0. -1.
        -11    1    4    4    0    0 -0.99034363675E+01 -0.51309735200E+00 -0.61597000194E+01  0.11674040662E+02  0.51100000000E-03 0.  1.
         12    1    4    4    0    0 -0.13254547437E+02  0.80228263122E+01 -0.24480003839E+01  0.15685709282E+02  0.00000000000E+00 0. -1.
</event>
<event>
 8    1  0.5331800E-011  0.9118800E+02  0.7816164E-02  0.1184000E+00
        -11   -1    0    0    0    0  0.00000000000E+00  0.00000000000E+00  0.45593999997E+02  0.45594000000E+02  0.51100000000E-03 0. -1.
         11   -1    0    0    0    0 -0.00000000000E+00 -0.00000000000E+00 -0.45593999997E+02  0.45594000000E+02  0.51100000000E-03 0.  1.
         23    2    1    2    0    0  0.00000000000E+00  0.00000000000E+00  0.00000000000E+00  0.91188000000E+02  0.91188000000E+02 0.  0.
    9900012    2    3    3    0    0  0.21136815320E+02  0.24990611245E+02  0.28501375887E+02  0.47787262222E+02  0.19999959773E+02 0.  0.
        -12    1    3    3    0    0 -0.21136815320E+02 -0.24990611245E+02 -0.28501375887E+02  0.43400737778E+02  0.00000000000E+00 0.  1.
         11    1    4    4    0    0  0.16799014389E+02  0.15058059047E+02  0.19176422902E+02  0.29608904442E+02  0.51100000000E-03 0. -1.
        -11    1    4    4    0    0 -0.15307716869E+01 -0.11495711378E+01 -0.78638003677E+00  0.20695819824E+01  0.51100000000E-03 0.  1.
        -12    1    4    4    0    0  0.58685726181E+01  0.11082123335E+02  0.10111333022E+02  0.16108775797E+02  0.00000000000E+00 0.  1.
</event>
<event>
 8    1  0.5331800E-011  0.9118800E+02  0.7816164E-02  0.1184000E+00
        -11   -1    0    0    0    0  0.00000000000E+00  0.00000000000E+00  0.45593999997E+02  0.45594000000E+02  0.51100000000E-03 0. -1.
         11   -1    0    0    0    0 -0.00000000000E+00 -0.00000000000E+00 -0.45593999997E+02  0.45594000000E+02  0.51100000000E-03 0.  1.
         23    2    1    2    0    0 -0.17763568394E-14  0.71054273576E-14  0.00000000000E+00  0.91188000000E+02  0.91188000000E+02 0.  0.
    9900012    2    3    3    0    0  0.11181285012E+02 -0.30865562661E+02  0.28388714920E+02  0.47787271576E+02  0.20000002425E+02 0.  0.
        -12    1    3    3    0    0 -0.11181285012E+02  0.30865562661E+02 -0.28388714920E+02  0.43400728424E+02  0.00000000000E+00 0.  1.
         11    1    4    4    0    0  0.72678276414E+01 -0.18975016174E+02  0.69107569925E+01  0.21462318605E+02  0.51100000000E-03 0. -1.
        -11    1    4    4    0    0  0.61362935912E+01 -0.11215203384E+02  0.19233768812E+02  0.23094864125E+02  0.51100000000E-03 0.  1.
        -12    1    4    4    0    0 -0.22228362209E+01 -0.67534310361E+00  0.22441891156E+01  0.32300888469E+01  0.00000000000E+00 0.  1.
</event>
<event>
 8    1  0.5331800E-011  0.9118800E+02  0.7816164E-02  0.1184000E+00
        -11   -1    0    0    0    0  0.00000000000E+00  0.00000000000E+00  0.45593999997E+02  0.45594000000E+02  0.51100000000E-03 0. -1.
         11   -1    0    0    0    0 -0.00000000000E+00 -0.00000000000E+00 -0.45593999997E+02  0.45594000000E+02  0.51100000000E-03 0.  1.
         23    2    1    2    0    0  0.00000000000E+00  0.00000000000E+00  0.00000000000E+00  0.91188000000E+02  0.91188000000E+02 0.  0.
    9900012    2    3    3    0    0  0.18489569559E+02  0.18942465579E+02 -0.34393917244E+02  0.47787277333E+02  0.20000028672E+02 0.  0.
         12    1    3    3    0    0 -0.18489569559E+02 -0.18942465579E+02  0.34393917244E+02  0.43400722667E+02  0.00000000000E+00 0. -1.
         11    1    4    4    0    0  0.16995690206E+01 -0.86949085851E+00 -0.37855672941E+00  0.19462411637E+01  0.51100000000E-03 0. -1.
        -11    1    4    4    0    0  0.11648931404E+02  0.35776657165E+01 -0.21479875897E+02  0.24695796477E+02  0.51100000000E-03 0.  1.
        -12    1    4    4    0    0  0.51410691336E+01  0.16234290721E+02 -0.12535484617E+02  0.21145239692E+02  0.00000000000E+00 0.  1.
</event>
<event>
 8    1  0.5331800E-011  0.9118800E+02  0.7816164E-02  0.1184000E+00
        -11   -1    0    0    0    0  0.00000000000E+00  0.00000000000E+00  0.45593999997E+02  0.45594000000E+02  0.51100000000E-03 0. -1.
         11   -1    0    0    0    0 -0.00000000000E+00 -0.00000000000E+00 -0.45593999997E+02  0.45594000000E+02  0.51100000000E-03 0.  1.
         23    2    1    2    0    0  0.00000000000E+00  0.00000000000E+00  0.00000000000E+00  0.91188000000E+02  0.91188000000E+02 0.  0.
    9900012    2    3    3    0    0  0.79221734962E+00 -0.63538585546E+01  0.42925798124E+02  0.47787271073E+02  0.20000000128E+02 0.  0.
        -12    1    3    3    0    0 -0.79221734962E+00  0.63538585546E+01 -0.42925798124E+02  0.43400728927E+02  0.00000000000E+00 0.  1.
         11    1    4    4    0    0  0.29975149494E+01 -0.17906975188E+01  0.51022491430E+01  0.61826078683E+01  0.51100000000E-03 0. -1.
        -11    1    4    4    0    0  0.26157560396E+01 -0.45448443344E+01  0.22504184653E+01  0.57063274716E+01  0.51100000000E-03 0.  1.
        -12    1    4    4    0    0 -0.48210536394E+01 -0.18316701416E-01  0.35573130516E+02  0.35898335733E+02  0.00000000000E+00 0.  1.
</event>
<event>
 8    1  0.5331800E-011  0.9118800E+02  0.7816164E-02  0.1184000E+00
        -11   -1    0    0    0    0  0.00000000000E+00  0.00000000000E+00  0.45593999997E+02  0.45594000000E+02  0.51100000000E-03 0. -1.
         11   -1    0    0    0    0 -0.00000000000E+00 -0.00000000000E+00 -0.45593999997E+02  0.45594000000E+02  0.51100000000E-03 0.  1.
         23    2    1    2    0    0  0.35527136788E-14 -0.44408920985E-15 -0.35527136788E-14  0.91188000000E+02  0.91188000000E+02 0.  0.
    9900012    2    3    3    0    0  0.30787001293E+02 -0.13307804418E+01 -0.30561624023E+02  0.47787270880E+02  0.19999999250E+02 0.  0.
         12    1    3    3    0    0 -0.30787001293E+02  0.13307804418E+01  0.30561624023E+02  0.43400729120E+02  0.00000000000E+00 0. -1.
         11    1    4    4    0    0  0.10732403257E+01 -0.26910513791E+01  0.12542420654E+01  0.31570121541E+01  0.51100000000E-03 0. -1.
        -11    1    4    4    0    0  0.25835693614E+02  0.15229642082E+01 -0.21627623409E+02  0.33727682682E+02  0.51100000000E-03 0.  1.
         12    1    4    4    0    0  0.38780673529E+01 -0.16269327086E+00 -0.10188242679E+02  0.10902576044E+02  0.00000000000E+00 0. -1.
</event>
<event>
 8    1  0.5331800E-011  0.9118800E+02  0.7816164E-02  0.1184000E+00
        -11   -1    0    0    0    0  0.00000000000E+00  0.00000000000E+00  0.45593999997E+02  0.45594000000E+02  0.51100000000E-03 0. -1.
         11   -1    0    0    0    0 -0.00000000000E+00 -0.00000000000E+00 -0.45593999997E+02  0.45594000000E+02  0.51100000000E-03 0.  1.
         23    2    1    2    0    0  0.00000000000E+00 -0.88817841970E-15  0.00000000000E+00  0.91188000000E+02  0.91188000000E+02 0.  0.
    9900012    2    3    3    0    0  0.30945499447E+02  0.36888841878E+01 -0.30205817841E+02  0.47787271503E+02  0.20000002091E+02 0.  0.
         12    1    3    3    0    0 -0.30945499447E+02 -0.36888841878E+01  0.30205817841E+02  0.43400728497E+02  0.00000000000E+00 0. -1.
         11    1    4    4    0    0  0.53447384225E+01 -0.29271830879E+01 -0.73534925316E+01  0.95503132047E+01  0.51100000000E-03 0. -1.
        -11    1    4    4    0    0  0.22440822997E+02 -0.22956643980E+00 -0.13371420134E+02  0.26123516497E+02  0.51100000000E-03 0.  1.
        -12    1    4    4    0    0  0.31599380276E+01  0.68456337155E+01 -0.94809051763E+01  0.12113441801E+02  0.00000000000E+00 0.  1.
</event>
<event>
 8    1  0.5331800E-011  0.9118800E+02  0.7816164E-02  0.1184000E+00
        -11   -1    0    0    0    0  0.00000000000E+00  0.00000000000E+00  0.45593999997E+02  0.45594000000E+02  0.51100000000E-03 0.  1.
         11   -1    0    0    0    0 -0.00000000000E+00 -0.00000000000E+00 -0.45593999997E+02  0.45594000000E+02  0.51100000000E-03 0. -1.
         23    2    1    2    0    0  0.88817841970E-15  0.00000000000E+00  0.00000000000E+00  0.91188000000E+02  0.91188000000E+02 0.  0.
    9900012    2    3    3    0    0 -0.60069231511E+01  0.41711718605E+02 -0.10376544060E+02  0.47787271189E+02  0.20000000659E+02 0.  0.
         12    1    3    3    0    0  0.60069231511E+01 -0.41711718605E+02  0.10376544060E+02  0.43400728811E+02  0.00000000000E+00 0. -1.
         11    1    4    4    0    0 -0.11226371445E+02  0.27884355536E+02 -0.35663203724E+01  0.30270238532E+02  0.51100000000E-03 0.  1.
        -11    1    4    4    0    0  0.38584279972E+01  0.27332540965E+01 -0.34243333414E+01  0.58381678341E+01  0.51100000000E-03 0. -1.
         12    1    4    4    0    0  0.13610202968E+01  0.11094108972E+02 -0.33858903458E+01  0.11678864823E+02  0.00000000000E+00 0. -1.
</event>
<event>
 8    1  0.5331800E-011  0.9118800E+02  0.7816164E-02  0.1184000E+00
        -11   -1    0    0    0    0  0.00000000000E+00  0.00000000000E+00  0.45593999997E+02  0.45594000000E+02  0.51100000000E-03 0.  1.
         11   -1    0    0    0    0 -0.00000000000E+00 -0.00000000000E+00 -0.45593999997E+02  0.45594000000E+02  0.51100000000E-03 0. -1.
         23    2    1    2    0    0  0.00000000000E+00 -0.35527136788E-14  0.00000000000E+00  0.91188000000E+02  0.91188000000E+02 0.  0.
    9900012    2    3    3    0    0 -0.30853357963E+02  0.29101273993E+02 -0.92091948005E+01  0.47787272881E+02  0.20000008372E+02 0.  0.
         12    1    3    3    0    0  0.30853357963E+02 -0.29101273993E+02  0.92091948005E+01  0.43400727119E+02  0.00000000000E+00 0. -1.
         11    1    4    4    0    0 -0.83103885249E+01  0.18524935050E+01 -0.73113571421E+01  0.11222755149E+02  0.51100000000E-03 0. -1.
        -11    1    4    4    0    0 -0.23291592784E+02  0.26027895214E+02 -0.11449356664E+01  0.34946537763E+02  0.51100000000E-03 0.  1.
         12    1    4    4    0    0  0.74862334623E+00  0.12208852748E+01 -0.75290199199E+00  0.16179799684E+01  0.00000000000E+00 0. -1.
</event>
<event>
 8    1  0.5331800E-011  0.9118800E+02  0.7816164E-02  0.1184000E+00
        -11   -1    0    0    0    0  0.00000000000E+00  0.00000000000E+00  0.45593999997E+02  0.45594000000E+02  0.51100000000E-03 0. -1.
         11   -1    0    0    0    0 -0.00000000000E+00 -0.00000000000E+00 -0.45593999997E+02  0.45594000000E+02  0.51100000000E-03 0.  1.
         23    2    1    2    0    0  0.00000000000E+00  0.00000000000E+00 -0.35527136788E-14  0.91188000000E+02  0.91188000000E+02 0.  0.
    9900012    2    3    3    0    0 -0.30568073607E+02 -0.21888701140E+02  0.21681811933E+02  0.47787270394E+02  0.19999997036E+02 0.  0.
        -12    1    3    3    0    0  0.30568073607E+02  0.21888701140E+02 -0.21681811933E+02  0.43400729606E+02  0.00000000000E+00 0.  1.
         11    1    4    4    0    0 -0.16098594020E+02 -0.70978295475E+01  0.11693693801E+01  0.17632678149E+02  0.51100000000E-03 0. -1.
        -11    1    4    4    0    0 -0.15145347377E+02 -0.14944709345E+02  0.19150214763E+02  0.28626152559E+02  0.51100000000E-03 0.  1.
        -12    1    4    4    0    0  0.67586779010E+00  0.15383775286E+00  0.13622277902E+01  0.15284396868E+01  0.00000000000E+00 0.  1.
</event>
<event>
 8    1  0.5331800E-011  0.9118800E+02  0.7816164E-02  0.1184000E+00
        -11   -1    0    0    0    0  0.00000000000E+00  0.00000000000E+00  0.45593999997E+02  0.45594000000E+02  0.51100000000E-03 0. -1.
         11   -1    0    0    0    0 -0.00000000000E+00 -0.00000000000E+00 -0.45593999997E+02  0.45594000000E+02  0.51100000000E-03 0.  1.
         23    2    1    2    0    0  0.00000000000E+00  0.00000000000E+00  0.35527136788E-14  0.91188000000E+02  0.91188000000E+02 0.  0.
    9900012    2    3    3    0    0  0.16171002365E+02  0.27719162381E+02  0.29219341256E+02  0.47787272079E+02  0.20000004719E+02 0.  0.
        -12    1    3    3    0    0 -0.16171002365E+02 -0.27719162381E+02 -0.29219341256E+02  0.43400727921E+02  0.00000000000E+00 0.  1.
         11    1    4    4    0    0  0.15227335638E+02  0.21944300484E+02  0.23343477952E+02  0.35473117110E+02  0.51100000000E-03 0. -1.
        -11    1    4    4    0    0  0.42452497609E+01  0.60024327221E+01  0.30391931719E+01  0.79553780245E+01  0.51100000000E-03 0.  1.
         12    1    4    4    0    0 -0.33015830343E+01 -0.22757082488E+00  0.28366701321E+01  0.43587769444E+01  0.00000000000E+00 0. -1.
</event>
<event>
 8    1  0.5331800E-011  0.9118800E+02  0.7816164E-02  0.1184000E+00
        -11   -1    0    0    0    0  0.00000000000E+00  0.00000000000E+00  0.45593999997E+02  0.45594000000E+02  0.51100000000E-03 0. -1.
         11   -1    0    0    0    0 -0.00000000000E+00 -0.00000000000E+00 -0.45593999997E+02  0.45594000000E+02  0.51100000000E-03 0.  1.
         23    2    1    2    0    0 -0.35527136788E-14 -0.35527136788E-14  0.35527136788E-14  0.91188000000E+02  0.91188000000E+02 0.  0.
    9900012    2    3    3    0    0  0.25379037127E+02  0.19039542343E+02 -0.29614582799E+02  0.47787271751E+02  0.20000003224E+02 0.  0.
         12    1    3    3    0    0 -0.25379037127E+02 -0.19039542343E+02  0.29614582799E+02  0.43400728249E+02  0.00000000000E+00 0. -1.
         11    1    4    4    0    0  0.20636499790E+02  0.20408822397E+02 -0.19506386127E+02  0.34969762012E+02  0.51100000000E-03 0. -1.
        -11    1    4    4    0    0 -0.23638028197E+00 -0.81126978044E+00 -0.67116064796E+01  0.67645913471E+01  0.51100000000E-03 0.  1.
        -12    1    4    4    0    0  0.49789176189E+01 -0.55801027354E+00 -0.33965901929E+01  0.60529183919E+01  0.00000000000E+00 0.  1.
</event>
<event>
 8    1  0.5331800E-011  0.9118800E+02  0.7816164E-02  0.1184000E+00
        -11   -1    0    0    0    0  0.00000000000E+00  0.00000000000E+00  0.45593999997E+02  0.45594000000E+02  0.51100000000E-03 0. -1.
         11   -1    0    0    0    0 -0.00000000000E+00 -0.00000000000E+00 -0.45593999997E+02  0.45594000000E+02  0.51100000000E-03 0.  1.
         23    2    1    2    0    0  0.00000000000E+00  0.00000000000E+00  0.00000000000E+00  0.91188000000E+02  0.91188000000E+02 0.  0.
    9900012    2    3    3    0    0  0.21893731333E+02 -0.20234113089E+02  0.31541526563E+02  0.47787277632E+02  0.20000030034E+02 0.  0.
        -12    1    3    3    0    0 -0.21893731333E+02  0.20234113089E+02 -0.31541526563E+02  0.43400722368E+02  0.00000000000E+00 0.  1.
         11    1    4    4    0    0  0.15445800781E+02 -0.16183155964E+02  0.30837924056E+02  0.38097832734E+02  0.51100000000E-03 0. -1.
        -11    1    4    4    0    0  0.70508050470E+01 -0.41121994167E+01 -0.66830205835E+00  0.81896681102E+01  0.51100000000E-03 0.  1.
         12    1    4    4    0    0 -0.60287449470E+00  0.61242291857E-01  0.13719045659E+01  0.14997767876E+01  0.00000000000E+00 0. -1.
</event>
<event>
 8    1  0.5331800E-011  0.9118800E+02  0.7816164E-02  0.1184000E+00
        -11   -1    0    0    0    0  0.00000000000E+00  0.00000000000E+00  0.45593999997E+02  0.45594000000E+02  0.51100000000E-03 0. -1.
         11   -1    0    0    0    0 -0.00000000000E+00 -0.00000000000E+00 -0.45593999997E+02  0.45594000000E+02  0.51100000000E-03 0.  1.
         23    2    1    2    0    0  0.00000000000E+00 -0.71054273576E-14  0.17763568394E-14  0.91188000000E+02  0.91188000000E+02 0.  0.
    9900012    2    3    3    0    0 -0.12910646755E+02  0.40528247633E+02 -0.86255577915E+01  0.47787263796E+02  0.19999966952E+02 0.  0.
         12    1    3    3    0    0  0.12910646755E+02 -0.40528247633E+02  0.86255577915E+01  0.43400736204E+02  0.00000000000E+00 0. -1.
         11    1    4    4    0    0 -0.38359688250E+01  0.18342910100E+02  0.31325072271E+01  0.18999726565E+02  0.51100000000E-03 0. -1.
        -11    1    4    4    0    0 -0.11122963784E+02  0.18577307209E+02 -0.11756949024E+02  0.24638638702E+02  0.51100000000E-03 0.  1.
         12    1    4    4    0    0  0.20482858537E+01  0.36080303238E+01 -0.11159947118E-02  0.41488985287E+01  0.00000000000E+00 0. -1.
</event>
<event>
 8    1  0.5331800E-011  0.9118800E+02  0.7816164E-02  0.1184000E+00
        -11   -1    0    0    0    0  0.00000000000E+00  0.00000000000E+00  0.45593999997E+02  0.45594000000E+02  0.51100000000E-03 0. -1.
         11   -1    0    0    0    0 -0.00000000000E+00 -0.00000000000E+00 -0.45593999997E+02  0.45594000000E+02  0.51100000000E-03 0.  1.
         23    2    1    2    0    0  0.35527136788E-14  0.00000000000E+00  0.00000000000E+00  0.91188000000E+02  0.91188000000E+02 0.  0.
    9900012    2    3    3    0    0 -0.21595089481E+02 -0.24574780219E+01 -0.37566422171E+02  0.47787272326E+02  0.20000005841E+02 0.  0.
         12    1    3    3    0    0  0.21595089481E+02  0.24574780219E+01  0.37566422171E+02  0.43400727674E+02  0.00000000000E+00 0. -1.
         11    1    4    4    0    0 -0.25588804754E+01  0.95256854083E+00  0.17284201032E+01  0.32315155000E+01  0.51100000000E-03 0. -1.
        -11    1    4    4    0    0 -0.18420394219E+02 -0.15505065697E+01 -0.31546097186E+02  0.36563249880E+02  0.51100000000E-03 0.  1.
         12    1    4    4    0    0 -0.61581478604E+00 -0.18595399930E+01 -0.77487450884E+01  0.79925069460E+01  0.00000000000E+00 0. -1.
</event>
<event>
 8    1  0.5331800E-011  0.9118800E+02  0.7816164E-02  0.1184000E+00
        -11   -1    0    0    0    0  0.00000000000E+00  0.00000000000E+00  0.45593999997E+02  0.45594000000E+02  0.51100000000E-03 0.  1.
         11   -1    0    0    0    0 -0.00000000000E+00 -0.00000000000E+00 -0.45593999997E+02  0.45594000000E+02  0.51100000000E-03 0. -1.
         23    2    1    2    0    0  0.00000000000E+00  0.00000000000E+00 -0.17763568394E-14  0.91188000000E+02  0.91188000000E+02 0.  0.
    9900012    2    3    3    0    0 -0.29746107463E+01 -0.40838675601E+02  0.14386724443E+02  0.47787267585E+02  0.19999984228E+02 0.  0.
        -12    1    3    3    0    0  0.29746107463E+01  0.40838675601E+02 -0.14386724443E+02  0.43400732415E+02  0.00000000000E+00 0.  1.
         11    1    4    4    0    0 -0.51588380455E+01 -0.32321703002E+02  0.51018028322E+01  0.33126039415E+02  0.51100000000E-03 0. -1.
        -11    1    4    4    0    0  0.41529002403E+01 -0.49348827463E+01  0.81993289206E+01  0.10432096776E+02  0.51100000000E-03 0.  1.
        -12    1    4    4    0    0 -0.19686729411E+01 -0.35820898529E+01  0.10855926904E+01  0.42291313946E+01  0.00000000000E+00 0.  1.
</event>
<event>
 8    1  0.5331800E-011  0.9118800E+02  0.7816164E-02  0.1184000E+00
        -11   -1    0    0    0    0  0.00000000000E+00  0.00000000000E+00  0.45593999997E+02  0.45594000000E+02  0.51100000000E-03 0. -1.
         11   -1    0    0    0    0 -0.00000000000E+00 -0.00000000000E+00 -0.45593999997E+02  0.45594000000E+02  0.51100000000E-03 0.  1.
         23    2    1    2    0    0  0.35527136788E-14  0.00000000000E+00  0.00000000000E+00  0.91188000000E+02  0.91188000000E+02 0.  0.
    9900012    2    3    3    0    0  0.27666566013E+02  0.21669679452E+02 -0.25467808586E+02  0.47787272394E+02  0.20000006154E+02 0.  0.
         12    1    3    3    0    0 -0.27666566013E+02 -0.21669679452E+02  0.25467808586E+02  0.43400727606E+02  0.00000000000E+00 0. -1.
         11    1    4    4    0    0  0.70001518552E+00  0.80052688593E+01 -0.68308971111E+01  0.10546824469E+02  0.51100000000E-03 0. -1.
        -11    1    4    4    0    0  0.24697332809E+02  0.14532806546E+02 -0.19500701829E+02  0.34661766921E+02  0.51100000000E-03 0.  1.
        -12    1    4    4    0    0  0.22692180192E+01 -0.86839595333E+00  0.86379035397E+00  0.25786810051E+01  0.00000000000E+00 0.  1.
</event>
<event>
 8    1  0.5331800E-011  0.9118800E+02  0.7816164E-02  0.1184000E+00
        -11   -1    0    0    0    0  0.00000000000E+00  0.00000000000E+00  0.45593999997E+02  0.45594000000E+02  0.51100000000E-03 0. -1.
         11   -1    0    0    0    0 -0.00000000000E+00 -0.00000000000E+00 -0.45593999997E+02  0.45594000000E+02  0.51100000000E-03 0.  1.
         23    2    1    2    0    0  0.00000000000E+00  0.44408920985E-15  0.00000000000E+00  0.91188000000E+02  0.91188000000E+02 0.  0.
    9900012    2    3    3    0    0  0.26152925529E+02 -0.30133075353E+01  0.34504599552E+02  0.47787275049E+02  0.20000018261E+02 0.  0.
        -12    1    3    3    0    0 -0.26152925529E+02  0.30133075353E+01 -0.34504599552E+02  0.43400724951E+02  0.00000000000E+00 0.  1.
         11    1    4    4    0    0  0.10809654314E+02  0.91211961064E+00  0.61467899385E+01  0.12468504938E+02  0.51100000000E-03 0. -1.
        -11    1    4    4    0    0  0.26910591413E+01 -0.62333472990E+01  0.16431956254E+02  0.17779358943E+02  0.51100000000E-03 0.  1.
        -12    1    4    4    0    0  0.12652212073E+02  0.23079201531E+01  0.11925853359E+02  0.17539411168E+02  0.00000000000E+00 0.  1.
</event>
<event>
 8    1  0.5331800E-011  0.9118800E+02  0.7816164E-02  0.1184000E+00
        -11   -1    0    0    0    0  0.00000000000E+00  0.00000000000E+00  0.45593999997E+02  0.45594000000E+02  0.51100000000E-03 0. -1.
         11   -1    0    0    0    0 -0.00000000000E+00 -0.00000000000E+00 -0.45593999997E+02  0.45594000000E+02  0.51100000000E-03 0.  1.
         23    2    1    2    0    0  0.00000000000E+00 -0.14016565686E-14  0.35527136788E-14  0.91188000000E+02  0.91188000000E+02 0.  0.
    9900012    2    3    3    0    0 -0.32704244082E+02 -0.86068786113E-01 -0.28531525285E+02  0.47787275076E+02  0.20000018382E+02 0.  0.
         12    1    3    3    0    0  0.32704244082E+02  0.86068786113E-01  0.28531525285E+02  0.43400724924E+02  0.00000000000E+00 0. -1.
         11    1    4    4    0    0 -0.15907189712E+02  0.81090366788E+01 -0.10354951181E+02  0.20640256166E+02  0.51100000000E-03 0. -1.
        -11    1    4    4    0    0 -0.46709658446E+01  0.11270495378E+01 -0.34564907099E+01  0.59190785491E+01  0.51100000000E-03 0.  1.
         12    1    4    4    0    0 -0.12126088526E+02 -0.93221550027E+01 -0.14720083394E+02  0.21227940361E+02  0.00000000000E+00 0. -1.
</event>
<event>
 8    1  0.5331800E-011  0.9118800E+02  0.7816164E-02  0.1184000E+00
        -11   -1    0    0    0    0  0.00000000000E+00  0.00000000000E+00  0.45593999997E+02  0.45594000000E+02  0.51100000000E-03 0.  1.
         11   -1    0    0    0    0 -0.00000000000E+00 -0.00000000000E+00 -0.45593999997E+02  0.45594000000E+02  0.51100000000E-03 0. -1.
         23    2    1    2    0    0  0.17763568394E-14 -0.71054273576E-14 -0.17763568394E-14  0.91188000000E+02  0.91188000000E+02 0.  0.
    9900012    2    3    3    0    0 -0.15031331260E+02  0.39568590075E+02  0.95921336911E+01  0.47787271104E+02  0.20000000273E+02 0.  0.
         12    1    3    3    0    0  0.15031331260E+02 -0.39568590075E+02 -0.95921336911E+01  0.43400728896E+02  0.00000000000E+00 0. -1.
         11    1    4    4    0    0 -0.87553721486E+01  0.27389201470E+02 -0.12457153538E+01  0.28781534109E+02  0.51100000000E-03 0. -1.
        -11    1    4    4    0    0 -0.69389073574E+01  0.55069747804E+01  0.54196712628E+01  0.10384991257E+02  0.51100000000E-03 0.  1.
         12    1    4    4    0    0  0.66294824604E+00  0.66724138240E+01  0.54181777821E+01  0.86207457389E+01  0.00000000000E+00 0. -1.
</event>
<event>
 8    1  0.5433960E-011  0.9118800E+02  0.7816164E-02  0.1184000E+00
        -11   -1    0    0    0    0  0.00000000000E+00  0.00000000000E+00  0.45593999997E+02  0.45594000000E+02  0.51100000000E-03 0. -1.
         11   -1    0    0    0    0 -0.00000000000E+00 -0.00000000000E+00 -0.45593999997E+02  0.45594000000E+02  0.51100000000E-03 0.  1.
         23    2    1    2    0    0 -0.88817841970E-15 -0.71054273576E-14  0.00000000000E+00  0.91188000000E+02  0.91188000000E+02 0.  0.
    9900012    2    3    3    0    0  0.23840641530E+01  0.19225168003E+02  0.38837248532E+02  0.47787277424E+02  0.20000029085E+02 0.  0.
        -12    1    3    3    0    0 -0.23840641530E+01 -0.19225168003E+02 -0.38837248532E+02  0.43400722576E+02  0.00000000000E+00 0.  1.
         11    1    4    4    0    0 -0.27701453949E+01  0.14256420948E+02  0.19673761679E+02  0.24453550716E+02  0.51100000000E-03 0. -1.
        -11    1    4    4    0    0  0.11237378267E+01 -0.35449605941E+01  0.38324128703E+01  0.53401236864E+01  0.51100000000E-03 0.  1.
        -12    1    4    4    0    0  0.40304717212E+01  0.85137076499E+01  0.15331073982E+02  0.17993603021E+02  0.00000000000E+00 0.  1.
</event>
<event>
 8    1  0.5331800E-011  0.9118800E+02  0.7816164E-02  0.1184000E+00
        -11   -1    0    0    0    0  0.00000000000E+00  0.00000000000E+00  0.45593999997E+02  0.45594000000E+02  0.51100000000E-03 0. -1.
         11   -1    0    0    0    0 -0.00000000000E+00 -0.00000000000E+00 -0.45593999997E+02  0.45594000000E+02  0.51100000000E-03 0.  1.
         23    2    1    2    0    0  0.00000000000E+00  0.00000000000E+00  0.00000000000E+00  0.91188000000E+02  0.91188000000E+02 0.  0.
    9900012    2    3    3    0    0  0.38747055430E+02 -0.61752341478E+01  0.18551433995E+02  0.47787268157E+02  0.19999986833E+02 0.  0.
        -12    1    3    3    0    0 -0.38747055430E+02  0.61752341478E+01 -0.18551433995E+02  0.43400731843E+02  0.00000000000E+00 0.  1.
         11    1    4    4    0    0  0.23382093132E+02  0.25993590612E+01  0.63748876773E+01  0.24374538763E+02  0.51100000000E-03 0. -1.
        -11    1    4    4    0    0  0.15793154144E+02 -0.85320684362E+01  0.13197142675E+02  0.22279687715E+02  0.51100000000E-03 0.  1.
         12    1    4    4    0    0 -0.42819184626E+00 -0.24252477275E+00 -0.10205963568E+01  0.11330416789E+01  0.00000000000E+00 0. -1.
</event>
<event>
 8    1  0.5331800E-011  0.9118800E+02  0.7816164E-02  0.1184000E+00
        -11   -1    0    0    0    0  0.00000000000E+00  0.00000000000E+00  0.45593999997E+02  0.45594000000E+02  0.51100000000E-03 0. -1.
         11   -1    0    0    0    0 -0.00000000000E+00 -0.00000000000E+00 -0.45593999997E+02  0.45594000000E+02  0.51100000000E-03 0.  1.
         23    2    1    2    0    0 -0.35527136788E-14  0.00000000000E+00  0.00000000000E+00  0.91188000000E+02  0.91188000000E+02 0.  0.
    9900012    2    3    3    0    0  0.22936855321E+02 -0.35693418314E+02 -0.91380570292E+01  0.47787268103E+02  0.19999986589E+02 0.  0.
         12    1    3    3    0    0 -0.22936855321E+02  0.35693418314E+02  0.91380570292E+01  0.43400731897E+02  0.00000000000E+00 0. -1.
         11    1    4    4    0    0  0.17899179662E+02 -0.30081825536E+02 -0.36951484629E+01  0.35198735525E+02  0.51100000000E-03 0. -1.
        -11    1    4    4    0    0  0.97442738482E+00  0.17377256521E+01 -0.34081970024E+01  0.39477849788E+01  0.51100000000E-03 0.  1.
        -12    1    4    4    0    0  0.40632482742E+01 -0.73493184298E+01 -0.20347115639E+01  0.86407475989E+01  0.00000000000E+00 0.  1.
</event>
<event>
 8    1  0.5331800E-011  0.9118800E+02  0.7816164E-02  0.1184000E+00
        -11   -1    0    0    0    0  0.00000000000E+00  0.00000000000E+00  0.45593999997E+02  0.45594000000E+02  0.51100000000E-03 0. -1.
         11   -1    0    0    0    0 -0.00000000000E+00 -0.00000000000E+00 -0.45593999997E+02  0.45594000000E+02  0.51100000000E-03 0.  1.
         23    2    1    2    0    0  0.00000000000E+00  0.00000000000E+00  0.35527136788E-14  0.91188000000E+02  0.91188000000E+02 0.  0.
    9900012    2    3    3    0    0  0.16145683362E+02  0.28039832958E+02 -0.28925902305E+02  0.47787272498E+02  0.20000006627E+02 0.  0.
         12    1    3    3    0    0 -0.16145683362E+02 -0.28039832958E+02  0.28925902305E+02  0.43400727502E+02  0.00000000000E+00 0. -1.
         11    1    4    4    0    0  0.39277889300E+01  0.12528041079E+02 -0.29815714162E+01  0.13463621635E+02  0.51100000000E-03 0. -1.
        -11    1    4    4    0    0  0.64087985438E+01  0.24539513376E+01 -0.34697525390E+01  0.76898477804E+01  0.51100000000E-03 0.  1.
         12    1    4    4    0    0  0.58090958880E+01  0.13057840541E+02 -0.22474578350E+02  0.26633803083E+02  0.00000000000E+00 0. -1.
</event>
<event>
 8    1  0.5331800E-011  0.9118800E+02  0.7816164E-02  0.1184000E+00
        -11   -1    0    0    0    0  0.00000000000E+00  0.00000000000E+00  0.45593999997E+02  0.45594000000E+02  0.51100000000E-03 0. -1.
         11   -1    0    0    0    0 -0.00000000000E+00 -0.00000000000E+00 -0.45593999997E+02  0.45594000000E+02  0.51100000000E-03 0.  1.
         23    2    1    2    0    0  0.00000000000E+00  0.00000000000E+00  0.00000000000E+00  0.91188000000E+02  0.91188000000E+02 0.  0.
    9900012    2    3    3    0    0  0.19732809529E+02  0.14308572206E+02 -0.35909658042E+02  0.47787279371E+02  0.20000037962E+02 0.  0.
         12    1    3    3    0    0 -0.19732809529E+02 -0.14308572206E+02  0.35909658042E+02  0.43400720629E+02  0.00000000000E+00 0. -1.
         11    1    4    4    0    0  0.13748973959E+02  0.13856642310E+02 -0.21418011843E+02  0.28978820759E+02  0.51100000000E-03 0. -1.
        -11    1    4    4    0    0  0.42408486261E+01 -0.75872057186E+00 -0.15758573773E+02  0.16336863273E+02  0.51100000000E-03 0.  1.
         12    1    4    4    0    0  0.17429869443E+01  0.12106504682E+01  0.12669275737E+01  0.24715953392E+01  0.00000000000E+00 0. -1.
</event>
<event>
 8    1  0.5331800E-011  0.9118800E+02  0.7816164E-02  0.1184000E+00
        -11   -1    0    0    0    0  0.00000000000E+00  0.00000000000E+00  0.45593999997E+02  0.45594000000E+02  0.51100000000E-03 0. -1.
         11   -1    0    0    0    0 -0.00000000000E+00 -0.00000000000E+00 -0.45593999997E+02  0.45594000000E+02  0.51100000000E-03 0.  1.
         23    2    1    2    0    0 -0.35527136788E-14  0.00000000000E+00  0.35527136788E-14  0.91188000000E+02  0.91188000000E+02 0.  0.
    9900012    2    3    3    0    0  0.21888695637E+02  0.19997138819E+02  0.31695786548E+02  0.47787269101E+02  0.19999991140E+02 0.  0.
        -12    1    3    3    0    0 -0.21888695637E+02 -0.19997138819E+02 -0.31695786548E+02  0.43400730899E+02  0.00000000000E+00 0.  1.
         11    1    4    4    0    0  0.52959020673E+01  0.69075552004E+01  0.54931079011E+01  0.10292479401E+02  0.51100000000E-03 0. -1.
        -11    1    4    4    0    0 -0.12472231528E+01  0.79727939120E+01  0.59616931858E+01  0.10033084982E+02  0.51100000000E-03 0.  1.
        -12    1    4    4    0    0  0.17840016722E+02  0.51167897066E+01  0.20240985461E+02  0.27461704718E+02  0.00000000000E+00 0.  1.
</event>
<event>
 8    1  0.5331800E-011  0.9118800E+02  0.7816164E-02  0.1184000E+00
        -11   -1    0    0    0    0  0.00000000000E+00  0.00000000000E+00  0.45593999997E+02  0.45594000000E+02  0.51100000000E-03 0. -1.
         11   -1    0    0    0    0 -0.00000000000E+00 -0.00000000000E+00 -0.45593999997E+02  0.45594000000E+02  0.51100000000E-03 0.  1.
         23    2    1    2    0    0 -0.17763568394E-14 -0.35527136788E-14  0.71054273576E-14  0.91188000000E+02  0.91188000000E+02 0.  0.
    9900012    2    3    3    0    0  0.10052405180E+02 -0.10830866811E+02  0.40807658984E+02  0.47787267776E+02  0.19999985099E+02 0.  0.
        -12    1    3    3    0    0 -0.10052405180E+02  0.10830866811E+02 -0.40807658984E+02  0.43400732224E+02  0.00000000000E+00 0.  1.
         11    1    4    4    0    0  0.25350037353E+01  0.47847253426E+01  0.65333195413E+01  0.84855232621E+01  0.51100000000E-03 0. -1.
        -11    1    4    4    0    0  0.11668112346E+01 -0.11623392351E+02  0.19474437976E+02  0.22709434888E+02  0.51100000000E-03 0.  1.
         12    1    4    4    0    0  0.63505902102E+01 -0.39921998025E+01  0.14799901467E+02  0.16592309626E+02  0.00000000000E+00 0. -1.
</event>
<event>
 8    1  0.5331800E-011  0.9118800E+02  0.7816164E-02  0.1184000E+00
        -11   -1    0    0    0    0  0.00000000000E+00  0.00000000000E+00  0.45593999997E+02  0.45594000000E+02  0.51100000000E-03 0. -1.
         11   -1    0    0    0    0 -0.00000000000E+00 -0.00000000000E+00 -0.45593999997E+02  0.45594000000E+02  0.51100000000E-03 0.  1.
         23    2    1    2    0    0 -0.35527136788E-14  0.00000000000E+00 -0.35527136788E-14  0.91188000000E+02  0.91188000000E+02 0.  0.
    9900012    2    3    3    0    0  0.31200643477E+02 -0.18732794514E+02  0.23647950873E+02  0.47787270465E+02  0.19999997358E+02 0.  0.
        -12    1    3    3    0    0 -0.31200643477E+02  0.18732794514E+02 -0.23647950873E+02  0.43400729535E+02  0.00000000000E+00 0.  1.
         11    1    4    4    0    0  0.19251823986E+02 -0.16820283677E+02  0.13755172382E+02  0.29030319276E+02  0.51100000000E-03 0. -1.
        -11    1    4    4    0    0  0.57270262689E+01  0.21975951120E+01 -0.28389893213E+00  0.61407534575E+01  0.51100000000E-03 0.  1.
        -12    1    4    4    0    0  0.62217932216E+01 -0.41101059489E+01  0.10176677424E+02  0.12616197731E+02  0.00000000000E+00 0.  1.
</event>
<event>
 8    1  0.5331800E-011  0.9118800E+02  0.7816164E-02  0.1184000E+00
        -11   -1    0    0    0    0  0.00000000000E+00  0.00000000000E+00  0.45593999997E+02  0.45594000000E+02  0.51100000000E-03 0. -1.
         11   -1    0    0    0    0 -0.00000000000E+00 -0.00000000000E+00 -0.45593999997E+02  0.45594000000E+02  0.51100000000E-03 0.  1.
         23    2    1    2    0    0  0.88817841970E-15  0.00000000000E+00  0.00000000000E+00  0.91188000000E+02  0.91188000000E+02 0.  0.
    9900012    2    3    3    0    0  0.27693829620E+01  0.15955466759E+02  0.40266322821E+02  0.47787272413E+02  0.20000006242E+02 0.  0.
        -12    1    3    3    0    0 -0.27693829620E+01 -0.15955466759E+02 -0.40266322821E+02  0.43400727587E+02  0.00000000000E+00 0.  1.
         11    1    4    4    0    0  0.43652328534E+01  0.14254356120E+02  0.30295102863E+02  0.33764407058E+02  0.51100000000E-03 0. -1.
        -11    1    4    4    0    0 -0.54648923094E+01  0.22852816086E+00  0.71964998128E+01  0.90391859639E+01  0.51100000000E-03 0.  1.
        -12    1    4    4    0    0  0.38690424180E+01  0.14725824781E+01  0.27747201457E+01  0.49836793912E+01  0.00000000000E+00 0.  1.
</event>
<event>
 8    1  0.5331800E-011  0.9118800E+02  0.7816164E-02  0.1184000E+00
        -11   -1    0    0    0    0  0.00000000000E+00  0.00000000000E+00  0.45593999997E+02  0.45594000000E+02  0.51100000000E-03 0. -1.
         11   -1    0    0    0    0 -0.00000000000E+00 -0.00000000000E+00 -0.45593999997E+02  0.45594000000E+02  0.51100000000E-03 0.  1.
         23    2    1    2    0    0 -0.71054273576E-14  0.00000000000E+00 -0.35527136788E-14  0.91188000000E+02  0.91188000000E+02 0.  0.
    9900012    2    3    3    0    0  0.38299792388E+02  0.43416782439E+01  0.19947425661E+02  0.47787262018E+02  0.19999958843E+02 0.  0.
        -12    1    3    3    0    0 -0.38299792388E+02 -0.43416782439E+01 -0.19947425661E+02  0.43400737982E+02  0.00000000000E+00 0.  1.
         11    1    4    4    0    0  0.15860327139E+02  0.16813984220E+01 -0.48671628471E+00  0.15956627795E+02  0.51100000000E-03 0. -1.
        -11    1    4    4    0    0  0.16442161898E+01  0.19233334441E+01 -0.18448521685E+00  0.25370639472E+01  0.51100000000E-03 0.  1.
         12    1    4    4    0    0  0.20795249060E+02  0.73694637778E+00  0.20618627162E+02  0.29293570275E+02  0.00000000000E+00 0. -1.
</event>
<event>
 8    1  0.5331800E-011  0.9118800E+02  0.7816164E-02  0.1184000E+00
        -11   -1    0    0    0    0  0.00000000000E+00  0.00000000000E+00  0.45593999997E+02  0.45594000000E+02  0.51100000000E-03 0. -1.
         11   -1    0    0    0    0 -0.00000000000E+00 -0.00000000000E+00 -0.45593999997E+02  0.45594000000E+02  0.51100000000E-03 0.  1.
         23    2    1    2    0    0  0.35527136788E-14  0.00000000000E+00  0.00000000000E+00  0.91188000000E+02  0.91188000000E+02 0.  0.
    9900012    2    3    3    0    0  0.29018308119E+02  0.17461701602E+02 -0.27141295896E+02  0.47787272220E+02  0.20000005359E+02 0.  0.
         12    1    3    3    0    0 -0.29018308119E+02 -0.17461701602E+02  0.27141295896E+02  0.43400727780E+02  0.00000000000E+00 0. -1.
         11    1    4    4    0    0  0.15494608120E+02  0.11549568903E+02 -0.55749374001E+01  0.20113561343E+02  0.51100000000E-03 0.  1.
        -11    1    4    4    0    0  0.76442678908E+01 -0.15324442898E+01 -0.10869291994E+02  0.13376274735E+02  0.51100000000E-03 0. -1.
        -12    1    4    4    0    0  0.58794321079E+01  0.74445769897E+01 -0.10697066502E+02  0.14297436141E+02  0.00000000000E+00 0.  1.
</event>
<event>
 8    1  0.5832763E-011  0.9118800E+02  0.7816164E-02  0.1184000E+00
        -11   -1    0    0    0    0  0.00000000000E+00  0.00000000000E+00  0.45593999997E+02  0.45594000000E+02  0.51100000000E-03 0. -1.
         11   -1    0    0    0    0 -0.00000000000E+00 -0.00000000000E+00 -0.45593999997E+02  0.45594000000E+02  0.51100000000E-03 0.  1.
         23    2    1    2    0    0  0.00000000000E+00  0.00000000000E+00  0.00000000000E+00  0.91188000000E+02  0.91188000000E+02 0.  0.
    9900012    2    3    3    0    0 -0.55179369803E+01 -0.48929627664E+00 -0.43045761379E+02  0.47787255627E+02  0.19999929707E+02 0.  0.
         12    1    3    3    0    0  0.55179369803E+01  0.48929627664E+00  0.43045761379E+02  0.43400744373E+02  0.00000000000E+00 0. -1.
         11    1    4    4    0    0  0.29677789724E+01 -0.76095211916E+01 -0.13257177904E+02  0.15571297025E+02  0.51100000000E-03 0. -1.
        -11    1    4    4    0    0 -0.63080422614E+01  0.34105503211E+01 -0.12604080533E+02  0.14501244671E+02  0.51100000000E-03 0.  1.
        -12    1    4    4    0    0 -0.21776736912E+01  0.37096745939E+01 -0.17184502942E+02  0.17714713931E+02  0.00000000000E+00 0.  1.
</event>
<event>
 8    1  0.5331800E-011  0.9118800E+02  0.7816164E-02  0.1184000E+00
        -11   -1    0    0    0    0  0.00000000000E+00  0.00000000000E+00  0.45593999997E+02  0.45594000000E+02  0.51100000000E-03 0. -1.
         11   -1    0    0    0    0 -0.00000000000E+00 -0.00000000000E+00 -0.45593999997E+02  0.45594000000E+02  0.51100000000E-03 0.  1.
         23    2    1    2    0    0  0.35527136788E-14 -0.88817841970E-15  0.00000000000E+00  0.91188000000E+02  0.91188000000E+02 0.  0.
    9900012    2    3    3    0    0  0.29656864235E+02  0.49028220602E+01  0.31305846709E+02  0.47787270760E+02  0.19999998704E+02 0.  0.
        -12    1    3    3    0    0 -0.29656864235E+02 -0.49028220602E+01 -0.31305846709E+02  0.43400729240E+02  0.00000000000E+00 0.  1.
         11    1    4    4    0    0 -0.21744826937E+01  0.84800445652E-01  0.50349767112E+01  0.54851214065E+01  0.51100000000E-03 0. -1.
        -11    1    4    4    0    0  0.15047166613E+02 -0.61540474627E+00  0.86473562022E+01  0.17365849119E+02  0.51100000000E-03 0.  1.
         12    1    4    4    0    0  0.16784180315E+02  0.54334263608E+01  0.17623513795E+02  0.24936300234E+02  0.00000000000E+00 0. -1.
</event>
<event>
 8    1  0.5331800E-011  0.9118800E+02  0.7816164E-02  0.1184000E+00
        -11   -1    0    0    0    0  0.00000000000E+00  0.00000000000E+00  0.45593999997E+02  0.45594000000E+02  0.51100000000E-03 0.  1.
         11   -1    0    0    0    0 -0.00000000000E+00 -0.00000000000E+00 -0.45593999997E+02  0.45594000000E+02  0.51100000000E-03 0. -1.
         23    2    1    2    0    0  0.00000000000E+00  0.17763568394E-14  0.00000000000E+00  0.91188000000E+02  0.91188000000E+02 0.  0.
    9900012    2    3    3    0    0  0.37227528852E+02  0.10489340726E+02 -0.19690310222E+02  0.47787268555E+02  0.19999988651E+02 0.  0.
        -12    1    3    3    0    0 -0.37227528852E+02 -0.10489340726E+02  0.19690310222E+02  0.43400731445E+02  0.00000000000E+00 0.  1.
         11    1    4    4    0    0  0.23549475843E+02  0.35179287985E+01 -0.12072105129E+02  0.26696242395E+02  0.51100000000E-03 0. -1.
        -11    1    4    4    0    0  0.19742830781E+01  0.98930372319E+00 -0.76340744644E+01  0.79470503156E+01  0.51100000000E-03 0.  1.
         12    1    4    4    0    0  0.11703769931E+02  0.59821082044E+01  0.15869371555E-01  0.13143975845E+02  0.00000000000E+00 0. -1.
</event>
<event>
 8    1  0.5331800E-011  0.9118800E+02  0.7816164E-02  0.1184000E+00
        -11   -1    0    0    0    0  0.00000000000E+00  0.00000000000E+00  0.45593999997E+02  0.45594000000E+02  0.51100000000E-03 0. -1.
         11   -1    0    0    0    0 -0.00000000000E+00 -0.00000000000E+00 -0.45593999997E+02  0.45594000000E+02  0.51100000000E-03 0.  1.
         23    2    1    2    0    0  0.00000000000E+00 -0.17763568394E-14  0.00000000000E+00  0.91188000000E+02  0.91188000000E+02 0.  0.
    9900012    2    3    3    0    0  0.31969125527E+02  0.90368541593E+01  0.27927289289E+02  0.47787271814E+02  0.20000003509E+02 0.  0.
        -12    1    3    3    0    0 -0.31969125527E+02 -0.90368541593E+01 -0.27927289289E+02  0.43400728186E+02  0.00000000000E+00 0.  1.
         11    1    4    4    0    0  0.28998284108E+01  0.42744834634E+01  0.75587523525E+01  0.91550505777E+01  0.51100000000E-03 0. -1.
        -11    1    4    4    0    0  0.19344740065E+02 -0.37683564359E+01  0.14261294439E+02  0.24327021966E+02  0.51100000000E-03 0.  1.
        -12    1    4    4    0    0  0.97245570508E+01  0.85307271318E+01  0.61072424978E+01  0.14305199270E+02  0.00000000000E+00 0.  1.
</event>
<event>
 8    1  0.5331800E-011  0.9118800E+02  0.7816164E-02  0.1184000E+00
        -11   -1    0    0    0    0  0.00000000000E+00  0.00000000000E+00  0.45593999997E+02  0.45594000000E+02  0.51100000000E-03 0. -1.
         11   -1    0    0    0    0 -0.00000000000E+00 -0.00000000000E+00 -0.45593999997E+02  0.45594000000E+02  0.51100000000E-03 0.  1.
         23    2    1    2    0    0  0.00000000000E+00  0.00000000000E+00  0.00000000000E+00  0.91188000000E+02  0.91188000000E+02 0.  0.
    9900012    2    3    3    0    0  0.77823276732E+01  0.27994344939E+02  0.32239338995E+02  0.47787274760E+02  0.20000016939E+02 0.  0.
        -12    1    3    3    0    0 -0.77823276732E+01 -0.27994344939E+02 -0.32239338995E+02  0.43400725240E+02  0.00000000000E+00 0.  1.
         11    1    4    4    0    0 -0.54243393493E+01  0.67124576148E+01  0.12473383635E+02  0.15167921551E+02  0.51100000000E-03 0. -1.
        -11    1    4    4    0    0  0.79338203513E+01  0.80333767163E+01  0.59406584576E+01  0.12758215784E+02  0.51100000000E-03 0.  1.
        -12    1    4    4    0    0  0.52728466711E+01  0.13248510608E+02  0.13825296902E+02  0.19861137424E+02  0.00000000000E+00 0.  1.
</event>
<event>
 8    1  0.5331800E-011  0.9118800E+02  0.7816164E-02  0.1184000E+00
        -11   -1    0    0    0    0  0.00000000000E+00  0.00000000000E+00  0.45593999997E+02  0.45594000000E+02  0.51100000000E-03 0. -1.
         11   -1    0    0    0    0 -0.00000000000E+00 -0.00000000000E+00 -0.45593999997E+02  0.45594000000E+02  0.51100000000E-03 0.  1.
         23    2    1    2    0    0  0.35527136788E-14  0.00000000000E+00  0.00000000000E+00  0.91188000000E+02  0.91188000000E+02 0.  0.
    9900012    2    3    3    0    0  0.19213287631E+02  0.17679227098E+02  0.34668683382E+02  0.47787273050E+02  0.20000009145E+02 0.  0.
        -12    1    3    3    0    0 -0.19213287631E+02 -0.17679227098E+02 -0.34668683382E+02  0.43400726950E+02  0.00000000000E+00 0.  1.
         11    1    4    4    0    0  0.59799828495E+01  0.15968797259E+02  0.20570187335E+02  0.26718818986E+02  0.51100000000E-03 0. -1.
        -11    1    4    4    0    0  0.37547324306E+01 -0.31711789471E+01  0.54614224731E+01  0.73472122080E+01  0.51100000000E-03 0.  1.
         12    1    4    4    0    0  0.94785723505E+01  0.48816087866E+01  0.86370735736E+01  0.13721241856E+02  0.00000000000E+00 0. -1.
</event>
<event>
 8    1  0.5331800E-011  0.9118800E+02  0.7816164E-02  0.1184000E+00
        -11   -1    0    0    0    0  0.00000000000E+00  0.00000000000E+00  0.45593999997E+02  0.45594000000E+02  0.51100000000E-03 0. -1.
         11   -1    0    0    0    0 -0.00000000000E+00 -0.00000000000E+00 -0.45593999997E+02  0.45594000000E+02  0.51100000000E-03 0.  1.
         23    2    1    2    0    0  0.00000000000E+00  0.17763568394E-14  0.00000000000E+00  0.91188000000E+02  0.91188000000E+02 0.  0.
    9900012    2    3    3    0    0  0.37088626966E+02  0.96469265038E+01  0.20371402835E+02  0.47787268501E+02  0.19999988401E+02 0.  0.
        -12    1    3    3    0    0 -0.37088626966E+02 -0.96469265038E+01 -0.20371402835E+02  0.43400731499E+02  0.00000000000E+00 0.  1.
         11    1    4    4    0    0  0.13119852844E+02 -0.39165331943E+01  0.23173881780E+01  0.13886686399E+02  0.51100000000E-03 0. -1.
        -11    1    4    4    0    0  0.30416607963E+00  0.73587129313E+00 -0.72724946250E+00  0.10783856480E+01  0.51100000000E-03 0.  1.
         12    1    4    4    0    0  0.23664608042E+02  0.12827588405E+02  0.18781264120E+02  0.32822196453E+02  0.00000000000E+00 0. -1.
</event>
<event>
 8    1  0.5331800E-011  0.9118800E+02  0.7816164E-02  0.1184000E+00
        -11   -1    0    0    0    0  0.00000000000E+00  0.00000000000E+00  0.45593999997E+02  0.45594000000E+02  0.51100000000E-03 0. -1.
         11   -1    0    0    0    0 -0.00000000000E+00 -0.00000000000E+00 -0.45593999997E+02  0.45594000000E+02  0.51100000000E-03 0.  1.
         23    2    1    2    0    0 -0.35527136788E-14  0.22204460493E-15 -0.71054273576E-14  0.91188000000E+02  0.91188000000E+02 0.  0.
    9900012    2    3    3    0    0 -0.30832389900E+02  0.59728618342E+00  0.30538984380E+02  0.47787278984E+02  0.20000036200E+02 0.  0.
        -12    1    3    3    0    0  0.30832389900E+02 -0.59728618342E+00 -0.30538984380E+02  0.43400721016E+02  0.00000000000E+00 0.  1.
         11    1    4    4    0    0 -0.30152700863E+01 -0.47290981036E+01  0.92693379553E+00  0.56846661370E+01  0.51100000000E-03 0. -1.
        -11    1    4    4    0    0 -0.13529521136E+02  0.26757154381E+01  0.76580847576E+01  0.15775096123E+02  0.51100000000E-03 0.  1.
         12    1    4    4    0    0 -0.14287598678E+02  0.26506688490E+01  0.21953965827E+02  0.26327516724E+02  0.00000000000E+00 0. -1.
</event>
<event>
 8    1  0.5331800E-011  0.9118800E+02  0.7816164E-02  0.1184000E+00
        -11   -1    0    0    0    0  0.00000000000E+00  0.00000000000E+00  0.45593999997E+02  0.45594000000E+02  0.51100000000E-03 0. -1.
         11   -1    0    0    0    0 -0.00000000000E+00 -0.00000000000E+00 -0.45593999997E+02  0.45594000000E+02  0.51100000000E-03 0.  1.
         23    2    1    2    0    0  0.00000000000E+00  0.35527136788E-14  0.00000000000E+00  0.91188000000E+02  0.91188000000E+02 0.  0.
    9900012    2    3    3    0    0 -0.23341549698E+02  0.24761083511E+02 -0.26938511928E+02  0.47787278533E+02  0.20000034144E+02 0.  0.
         12    1    3    3    0    0  0.23341549698E+02 -0.24761083511E+02  0.26938511928E+02  0.43400721467E+02  0.00000000000E+00 0. -1.
         11    1    4    4    0    0 -0.64312917352E+01  0.27927263575E+01 -0.10326073163E+02  0.12481531201E+02  0.51100000000E-03 0. -1.
        -11    1    4    4    0    0 -0.12791497214E+02  0.87118986868E+01 -0.28087329796E+01  0.15729226329E+02  0.51100000000E-03 0.  1.
        -12    1    4    4    0    0 -0.41187607493E+01  0.13256458466E+02 -0.13803705786E+02  0.19576521004E+02  0.00000000000E+00 0.  1.
</event>
<event>
 8    1  0.5331800E-011  0.9118800E+02  0.7816164E-02  0.1184000E+00
        -11   -1    0    0    0    0  0.00000000000E+00  0.00000000000E+00  0.45593999997E+02  0.45594000000E+02  0.51100000000E-03 0. -1.
         11   -1    0    0    0    0 -0.00000000000E+00 -0.00000000000E+00 -0.45593999997E+02  0.45594000000E+02  0.51100000000E-03 0.  1.
         23    2    1    2    0    0  0.00000000000E+00  0.35527136788E-14  0.00000000000E+00  0.91188000000E+02  0.91188000000E+02 0.  0.
    9900012    2    3    3    0    0  0.74648163746E+01  0.30604699769E+02 -0.29853863908E+02  0.47787258973E+02  0.19999944960E+02 0.  0.
         12    1    3    3    0    0 -0.74648163746E+01 -0.30604699769E+02  0.29853863908E+02  0.43400741027E+02  0.00000000000E+00 0. -1.
         11    1    4    4    0    0  0.48658699978E+01  0.68781587016E+01 -0.11661936370E+02  0.14387026035E+02  0.51100000000E-03 0. -1.
        -11    1    4    4    0    0 -0.69867960818E+00  0.14876932808E+02 -0.25233475162E+01  0.15105580621E+02  0.51100000000E-03 0.  1.
        -12    1    4    4    0    0  0.32976259850E+01  0.88496082597E+01 -0.15668580022E+02  0.18294652317E+02  0.00000000000E+00 0.  1.
</event>
<event>
 8    1  0.5331800E-011  0.9118800E+02  0.7816164E-02  0.1184000E+00
        -11   -1    0    0    0    0  0.00000000000E+00  0.00000000000E+00  0.45593999997E+02  0.45594000000E+02  0.51100000000E-03 0. -1.
         11   -1    0    0    0    0 -0.00000000000E+00 -0.00000000000E+00 -0.45593999997E+02  0.45594000000E+02  0.51100000000E-03 0.  1.
         23    2    1    2    0    0  0.44408920985E-15  0.00000000000E+00  0.00000000000E+00  0.91188000000E+02  0.91188000000E+02 0.  0.
    9900012    2    3    3    0    0 -0.15030052048E+01 -0.20129702657E+02  0.38420820053E+02  0.47787269969E+02  0.19999995098E+02 0.  0.
        -12    1    3    3    0    0  0.15030052048E+01  0.20129702657E+02 -0.38420820053E+02  0.43400730031E+02  0.00000000000E+00 0.  1.
         11    1    4    4    0    0 -0.55134830928E+01 -0.11047841575E+02  0.19183782387E+02  0.22813829276E+02  0.51100000000E-03 0. -1.
        -11    1    4    4    0    0  0.32236016257E+01 -0.64718588326E+01  0.19717771715E+01  0.74942958085E+01  0.51100000000E-03 0.  1.
        -12    1    4    4    0    0  0.78687626230E+00 -0.26100022491E+01  0.17265260494E+02  0.17479144885E+02  0.00000000000E+00 0.  1.
</event>
<event>
 8    1  0.5331800E-011  0.9118800E+02  0.7816164E-02  0.1184000E+00
        -11   -1    0    0    0    0  0.00000000000E+00  0.00000000000E+00  0.45593999997E+02  0.45594000000E+02  0.51100000000E-03 0. -1.
         11   -1    0    0    0    0 -0.00000000000E+00 -0.00000000000E+00 -0.45593999997E+02  0.45594000000E+02  0.51100000000E-03 0.  1.
         23    2    1    2    0    0  0.71054273576E-14 -0.11102230246E-14 -0.35527136788E-14  0.91188000000E+02  0.91188000000E+02 0.  0.
    9900012    2    3    3    0    0 -0.35573164387E+02  0.14961148678E+01  0.24818027522E+02  0.47787275648E+02  0.20000020989E+02 0.  0.
        -12    1    3    3    0    0  0.35573164387E+02 -0.14961148678E+01 -0.24818027522E+02  0.43400724352E+02  0.00000000000E+00 0.  1.
         11    1    4    4    0    0 -0.16205870187E+02  0.13167466674E+01  0.74944634413E+01  0.17903380486E+02  0.51100000000E-03 0. -1.
        -11    1    4    4    0    0 -0.36232750539E+00 -0.43318587255E+01  0.10795868941E+01  0.44790388882E+01  0.51100000000E-03 0.  1.
        -12    1    4    4    0    0 -0.19004966695E+02  0.45112269260E+01  0.16243977186E+02  0.25404856273E+02  0.00000000000E+00 0.  1.
</event>
<event>
 8    1  0.5331800E-011  0.9118800E+02  0.7816164E-02  0.1184000E+00
        -11   -1    0    0    0    0  0.00000000000E+00  0.00000000000E+00  0.45593999997E+02  0.45594000000E+02  0.51100000000E-03 0. -1.
         11   -1    0    0    0    0 -0.00000000000E+00 -0.00000000000E+00 -0.45593999997E+02  0.45594000000E+02  0.51100000000E-03 0.  1.
         23    2    1    2    0    0  0.00000000000E+00 -0.71054273576E-14  0.00000000000E+00  0.91188000000E+02  0.91188000000E+02 0.  0.
    9900012    2    3    3    0    0 -0.24279519024E+02 -0.34699607417E+02 -0.94902910232E+01  0.47787269330E+02  0.19999992184E+02 0.  0.
         12    1    3    3    0    0  0.24279519024E+02  0.34699607417E+02  0.94902910232E+01  0.43400730670E+02  0.00000000000E+00 0. -1.
         11    1    4    4    0    0 -0.17705696286E+01 -0.14297439389E+02 -0.72765275100E+01  0.16139998227E+02  0.51100000000E-03 0. -1.
        -11    1    4    4    0    0 -0.14069947513E+02 -0.72858868336E+01 -0.25427313809E+01  0.16047213251E+02  0.51100000000E-03 0.  1.
        -12    1    4    4    0    0 -0.84390018828E+01 -0.13116281194E+02  0.32896786768E+00  0.15600057853E+02  0.00000000000E+00 0.  1.
</event>
<event>
 8    1  0.5331800E-011  0.9118800E+02  0.7816164E-02  0.1184000E+00
        -11   -1    0    0    0    0  0.00000000000E+00  0.00000000000E+00  0.45593999997E+02  0.45594000000E+02  0.51100000000E-03 0. -1.
         11   -1    0    0    0    0 -0.00000000000E+00 -0.00000000000E+00 -0.45593999997E+02  0.45594000000E+02  0.51100000000E-03 0.  1.
         23    2    1    2    0    0  0.00000000000E+00  0.44408920985E-15  0.00000000000E+00  0.91188000000E+02  0.91188000000E+02 0.  0.
    9900012    2    3    3    0    0  0.32219745626E+02 -0.31389190758E+01 -0.28907760017E+02  0.47787269472E+02  0.19999992832E+02 0.  0.
         12    1    3    3    0    0 -0.32219745626E+02  0.31389190758E+01  0.28907760017E+02  0.43400730528E+02  0.00000000000E+00 0. -1.
         11    1    4    4    0    0  0.82508175979E+01 -0.50236711341E+01 -0.33811036655E+01  0.10234506581E+02  0.51100000000E-03 0. -1.
        -11    1    4    4    0    0  0.25224671083E+02  0.28659677635E+00 -0.24850806111E+02  0.35410856154E+02  0.51100000000E-03 0.  1.
        -12    1    4    4    0    0 -0.12557430547E+01  0.15981552819E+01 -0.67585024037E+00  0.21419067374E+01  0.00000000000E+00 0.  1.
</event>
<event>
 8    1  0.6764309E-011  0.9118800E+02  0.7816164E-02  0.1184000E+00
        -11   -1    0    0    0    0  0.00000000000E+00  0.00000000000E+00  0.45593999997E+02  0.45594000000E+02  0.51100000000E-03 0. -1.
         11   -1    0    0    0    0 -0.00000000000E+00 -0.00000000000E+00 -0.45593999997E+02  0.45594000000E+02  0.51100000000E-03 0.  1.
         23    2    1    2    0    0  0.00000000000E+00 -0.88817841970E-15  0.00000000000E+00  0.91188000000E+02  0.91188000000E+02 0.  0.
    9900012    2    3    3    0    0  0.32053787198E+02 -0.49411241298E+00 -0.29256358545E+02  0.47787263416E+02  0.19999965217E+02 0.  0.
         12    1    3    3    0    0 -0.32053787198E+02  0.49411241298E+00  0.29256358545E+02  0.43400736584E+02  0.00000000000E+00 0. -1.
         11    1    4    4    0    0 -0.34310160633E+00 -0.47617479237E+00  0.16033535189E+01  0.17073968235E+01  0.51100000000E-03 0. -1.
        -11    1    4    4    0    0  0.20988892501E+02 -0.46246364682E+01 -0.23008754368E+02  0.31485292577E+02  0.51100000000E-03 0.  1.
        -12    1    4    4    0    0  0.11407996303E+02  0.46066988476E+01 -0.78509576959E+01  0.14594574015E+02  0.00000000000E+00 0.  1.
</event>
<event>
 8    1  0.5331800E-011  0.9118800E+02  0.7816164E-02  0.1184000E+00
        -11   -1    0    0    0    0  0.00000000000E+00  0.00000000000E+00  0.45593999997E+02  0.45594000000E+02  0.51100000000E-03 0. -1.
         11   -1    0    0    0    0 -0.00000000000E+00 -0.00000000000E+00 -0.45593999997E+02  0.45594000000E+02  0.51100000000E-03 0.  1.
         23    2    1    2    0    0  0.00000000000E+00  0.00000000000E+00  0.00000000000E+00  0.91188000000E+02  0.91188000000E+02 0.  0.
    9900012    2    3    3    0    0  0.31902781932E+01 -0.18610501615E+02 -0.39078058571E+02  0.47787270663E+02  0.19999998260E+02 0.  0.
         12    1    3    3    0    0 -0.31902781932E+01  0.18610501615E+02  0.39078058571E+02  0.43400729337E+02  0.00000000000E+00 0. -1.
         11    1    4    4    0    0  0.44297632123E+01  0.22843961946E+01 -0.59326914523E+01  0.77484254026E+01  0.51100000000E-03 0.  1.
        -11    1    4    4    0    0  0.21894282466E+00 -0.15188971711E+02 -0.29304606169E+02  0.33007767882E+02  0.51100000000E-03 0. -1.
         12    1    4    4    0    0 -0.14584278438E+01 -0.57059260986E+01 -0.38407609502E+01  0.70310773779E+01  0.00000000000E+00 0. -1.
</event>
<event>
 8    1  0.5331800E-011  0.9118800E+02  0.7816164E-02  0.1184000E+00
        -11   -1    0    0    0    0  0.00000000000E+00  0.00000000000E+00  0.45593999997E+02  0.45594000000E+02  0.51100000000E-03 0. -1.
         11   -1    0    0    0    0 -0.00000000000E+00 -0.00000000000E+00 -0.45593999997E+02  0.45594000000E+02  0.51100000000E-03 0.  1.
         23    2    1    2    0    0  0.00000000000E+00  0.00000000000E+00  0.00000000000E+00  0.91188000000E+02  0.91188000000E+02 0.  0.
    9900012    2    3    3    0    0  0.29014986231E+02  0.46702136827E+01 -0.31936539882E+02  0.47787275335E+02  0.20000019562E+02 0.  0.
         12    1    3    3    0    0 -0.29014986231E+02 -0.46702136827E+01  0.31936539882E+02  0.43400724665E+02  0.00000000000E+00 0. -1.
         11    1    4    4    0    0  0.56549503607E+01  0.42318687206E+01  0.32550378415E+00  0.70705819721E+01  0.51100000000E-03 0. -1.
        -11    1    4    4    0    0  0.70215335329E+01  0.38478648156E+01 -0.84841685295E+01  0.11665723839E+02  0.51100000000E-03 0.  1.
         12    1    4    4    0    0  0.16338502338E+02 -0.34095198535E+01 -0.23777875136E+02  0.29050969524E+02  0.00000000000E+00 0. -1.
</event>
<event>
 8    1  0.5331800E-011  0.9118800E+02  0.7816164E-02  0.1184000E+00
        -11   -1    0    0    0    0  0.00000000000E+00  0.00000000000E+00  0.45593999997E+02  0.45594000000E+02  0.51100000000E-03 0. -1.
         11   -1    0    0    0    0 -0.00000000000E+00 -0.00000000000E+00 -0.45593999997E+02  0.45594000000E+02  0.51100000000E-03 0.  1.
         23    2    1    2    0    0  0.35527136788E-14  0.71054273576E-14  0.35527136788E-14  0.91188000000E+02  0.91188000000E+02 0.  0.
    9900012    2    3    3    0    0 -0.24226317917E+02  0.30889812248E+02  0.18507523515E+02  0.47787269509E+02  0.19999992998E+02 0.  0.
        -12    1    3    3    0    0  0.24226317917E+02 -0.30889812248E+02 -0.18507523515E+02  0.43400730491E+02  0.00000000000E+00 0.  1.
         11    1    4    4    0    0 -0.39594321232E+01  0.51077329146E+01  0.12030430213E+02  0.13656401050E+02  0.51100000000E-03 0. -1.
        -11    1    4    4    0    0 -0.41191611021E+01  0.22675412664E+01  0.25135061023E+01  0.53316924862E+01  0.51100000000E-03 0.  1.
         12    1    4    4    0    0 -0.16147724692E+02  0.23514538067E+02  0.39635871997E+01  0.28799175973E+02  0.00000000000E+00 0. -1.
</event>
<event>
 8    1  0.5331800E-011  0.9118800E+02  0.7816164E-02  0.1184000E+00
        -11   -1    0    0    0    0  0.00000000000E+00  0.00000000000E+00  0.45593999997E+02  0.45594000000E+02  0.51100000000E-03 0. -1.
         11   -1    0    0    0    0 -0.00000000000E+00 -0.00000000000E+00 -0.45593999997E+02  0.45594000000E+02  0.51100000000E-03 0.  1.
         23    2    1    2    0    0  0.00000000000E+00  0.35527136788E-14  0.00000000000E+00  0.91188000000E+02  0.91188000000E+02 0.  0.
    9900012    2    3    3    0    0  0.15253100158E+02  0.24957649411E+02 -0.32063729681E+02  0.47787261646E+02  0.19999957151E+02 0.  0.
         12    1    3    3    0    0 -0.15253100158E+02 -0.24957649411E+02  0.32063729681E+02  0.43400738354E+02  0.00000000000E+00 0. -1.
         11    1    4    4    0    0  0.13824690592E+01  0.16024885821E+00 -0.30386650064E+01  0.33422126920E+01  0.51100000000E-03 0. -1.
        -11    1    4    4    0    0  0.30823489955E+01  0.21163519499E+02 -0.23553560799E+02  0.31814551066E+02  0.51100000000E-03 0.  1.
        -12    1    4    4    0    0  0.10788282104E+02  0.36338810536E+01 -0.54715038755E+01  0.12630497889E+02  0.00000000000E+00 0.  1.
</event>
<event>
 8    1  0.5331800E-011  0.9118800E+02  0.7816164E-02  0.1184000E+00
        -11   -1    0    0    0    0  0.00000000000E+00  0.00000000000E+00  0.45593999997E+02  0.45594000000E+02  0.51100000000E-03 0.  1.
         11   -1    0    0    0    0 -0.00000000000E+00 -0.00000000000E+00 -0.45593999997E+02  0.45594000000E+02  0.51100000000E-03 0. -1.
         23    2    1    2    0    0  0.00000000000E+00 -0.71054273576E-14  0.00000000000E+00  0.91188000000E+02  0.91188000000E+02 0.  0.
    9900012    2    3    3    0    0 -0.15959536575E+02  0.36687161356E+02  0.16821681006E+02  0.47787267657E+02  0.19999984556E+02 0.  0.
        -12    1    3    3    0    0  0.15959536575E+02 -0.36687161356E+02 -0.16821681006E+02  0.43400732343E+02  0.00000000000E+00 0.  1.
         11    1    4    4    0    0 -0.16128594788E+02  0.26721451387E+02  0.11542106368E+02  0.33277436105E+02  0.51100000000E-03 0. -1.
        -11    1    4    4    0    0  0.98787979612E+00  0.88886014312E+01  0.76576387573E+01  0.11773808793E+02  0.51100000000E-03 0.  1.
         12    1    4    4    0    0 -0.81882158272E+00  0.10771085380E+01 -0.23780641189E+01  0.27360227595E+01  0.00000000000E+00 0. -1.
</event>
<event>
 8    1  0.7422473E-011  0.9118800E+02  0.7816164E-02  0.1184000E+00
        -11   -1    0    0    0    0  0.00000000000E+00  0.00000000000E+00  0.45593999997E+02  0.45594000000E+02  0.51100000000E-03 0. -1.
         11   -1    0    0    0    0 -0.00000000000E+00 -0.00000000000E+00 -0.45593999997E+02  0.45594000000E+02  0.51100000000E-03 0.  1.
         23    2    1    2    0    0  0.17763568394E-14 -0.22204460493E-15  0.00000000000E+00  0.91188000000E+02  0.91188000000E+02 0.  0.
    9900012    2    3    3    0    0 -0.10499258787E+02  0.11135866474E+01 -0.42096894478E+02  0.47787273796E+02  0.20000012548E+02 0.  0.
         12    1    3    3    0    0  0.10499258787E+02 -0.11135866474E+01  0.42096894478E+02  0.43400726204E+02  0.00000000000E+00 0. -1.
         11    1    4    4    0    0  0.17200793598E+01  0.27156638718E+01 -0.18240205108E+01  0.36960187167E+01  0.51100000000E-03 0. -1.
        -11    1    4    4    0    0 -0.14328631567E+02  0.27837756693E+00 -0.27508326850E+02  0.31017659857E+02  0.51100000000E-03 0.  1.
        -12    1    4    4    0    0  0.21092934194E+01 -0.18804547914E+01 -0.12764547117E+02  0.13073595223E+02  0.00000000000E+00 0.  1.
</event>
<event>
 8    1  0.5331800E-011  0.9118800E+02  0.7816164E-02  0.1184000E+00
        -11   -1    0    0    0    0  0.00000000000E+00  0.00000000000E+00  0.45593999997E+02  0.45594000000E+02  0.51100000000E-03 0.  1.
         11   -1    0    0    0    0 -0.00000000000E+00 -0.00000000000E+00 -0.45593999997E+02  0.45594000000E+02  0.51100000000E-03 0. -1.
         23    2    1    2    0    0 -0.35527136788E-14  0.00000000000E+00 -0.14210854715E-13  0.91188000000E+02  0.91188000000E+02 0.  0.
    9900012    2    3    3    0    0 -0.22055591510E+02  0.21930348249E+01 -0.37314420337E+02  0.47787257107E+02  0.19999936453E+02 0.  0.
         12    1    3    3    0    0  0.22055591510E+02 -0.21930348249E+01  0.37314420337E+02  0.43400742893E+02  0.00000000000E+00 0. -1.
         11    1    4    4    0    0  0.80572957921E+00  0.29657189084E+01 -0.79921540279E+00  0.31754423817E+01  0.51100000000E-03 0. -1.
        -11    1    4    4    0    0 -0.23512982339E+02  0.59157859959E+00 -0.36023189510E+02  0.43021860565E+02  0.51100000000E-03 0.  1.
         12    1    4    4    0    0  0.65166125026E+00 -0.13642626831E+01 -0.49201542391E+00  0.15899541600E+01  0.00000000000E+00 0. -1.
</event>
<event>
 8    1  0.5331800E-011  0.9118800E+02  0.7816164E-02  0.1184000E+00
        -11   -1    0    0    0    0  0.00000000000E+00  0.00000000000E+00  0.45593999997E+02  0.45594000000E+02  0.51100000000E-03 0. -1.
         11   -1    0    0    0    0 -0.00000000000E+00 -0.00000000000E+00 -0.45593999997E+02  0.45594000000E+02  0.51100000000E-03 0.  1.
         23    2    1    2    0    0  0.00000000000E+00  0.00000000000E+00  0.35527136788E-14  0.91188000000E+02  0.91188000000E+02 0.  0.
    9900012    2    3    3    0    0  0.15291256303E+02 -0.32915630773E+02 -0.23798357869E+02  0.47787272981E+02  0.20000008831E+02 0.  0.
         12    1    3    3    0    0 -0.15291256303E+02  0.32915630773E+02  0.23798357869E+02  0.43400727019E+02  0.00000000000E+00 0. -1.
         11    1    4    4    0    0  0.13197762705E+02 -0.16328252436E+02 -0.66042910172E+01  0.22009303217E+02  0.51100000000E-03 0. -1.
        -11    1    4    4    0    0  0.29112956071E+01 -0.14988930274E+01 -0.58961427531E+00  0.33271560941E+01  0.51100000000E-03 0.  1.
         12    1    4    4    0    0 -0.81780200873E+00 -0.15088485309E+02 -0.16604452577E+02  0.22450813670E+02  0.00000000000E+00 0. -1.
</event>
<event>
 8    1  0.5331800E-011  0.9118800E+02  0.7816164E-02  0.1184000E+00
        -11   -1    0    0    0    0  0.00000000000E+00  0.00000000000E+00  0.45593999997E+02  0.45594000000E+02  0.51100000000E-03 0. -1.
         11   -1    0    0    0    0 -0.00000000000E+00 -0.00000000000E+00 -0.45593999997E+02  0.45594000000E+02  0.51100000000E-03 0.  1.
         23    2    1    2    0    0  0.00000000000E+00  0.00000000000E+00  0.17763568394E-14  0.91188000000E+02  0.91188000000E+02 0.  0.
    9900012    2    3    3    0    0 -0.32812652948E+02  0.28131506618E+02 -0.39461848304E+01  0.47787259997E+02  0.19999949631E+02 0.  0.
         12    1    3    3    0    0  0.32812652948E+02 -0.28131506618E+02  0.39461848304E+01  0.43400740003E+02  0.00000000000E+00 0. -1.
         11    1    4    4    0    0 -0.17204913708E+02  0.13943563533E+02 -0.98331979776E+01  0.24230637681E+02  0.51100000000E-03 0.  1.
        -11    1    4    4    0    0 -0.10415269252E+02  0.40546323157E+01  0.11906645840E+01  0.11239909218E+02  0.51100000000E-03 0. -1.
         12    1    4    4    0    0 -0.51924699876E+01  0.10133310770E+02  0.46963485632E+01  0.12316713099E+02  0.00000000000E+00 0. -1.
</event>
<event>
 8    1  0.5331800E-011  0.9118800E+02  0.7816164E-02  0.1184000E+00
        -11   -1    0    0    0    0  0.00000000000E+00  0.00000000000E+00  0.45593999997E+02  0.45594000000E+02  0.51100000000E-03 0. -1.
         11   -1    0    0    0    0 -0.00000000000E+00 -0.00000000000E+00 -0.45593999997E+02  0.45594000000E+02  0.51100000000E-03 0.  1.
         23    2    1    2    0    0  0.00000000000E+00  0.88817841970E-15  0.00000000000E+00  0.91188000000E+02  0.91188000000E+02 0.  0.
    9900012    2    3    3    0    0 -0.33706879100E+02 -0.63154012558E+01  0.26600476075E+02  0.47787270523E+02  0.19999997622E+02 0.  0.
        -12    1    3    3    0    0  0.33706879100E+02  0.63154012558E+01 -0.26600476075E+02  0.43400729477E+02  0.00000000000E+00 0.  1.
         11    1    4    4    0    0 -0.15685314821E+02 -0.23927352891E+01  0.84992636395E+01  0.17999771273E+02  0.51100000000E-03 0. -1.
        -11    1    4    4    0    0 -0.11931816324E+02 -0.60689287813E+01  0.19027302872E+02  0.23264530776E+02  0.51100000000E-03 0.  1.
        -12    1    4    4    0    0 -0.60897479549E+01  0.21462628146E+01 -0.92609043634E+00  0.65229684745E+01  0.00000000000E+00 0.  1.
</event>
<event>
 8    1  0.5331800E-011  0.9118800E+02  0.7816164E-02  0.1184000E+00
        -11   -1    0    0    0    0  0.00000000000E+00  0.00000000000E+00  0.45593999997E+02  0.45594000000E+02  0.51100000000E-03 0. -1.
         11   -1    0    0    0    0 -0.00000000000E+00 -0.00000000000E+00 -0.45593999997E+02  0.45594000000E+02  0.51100000000E-03 0.  1.
         23    2    1    2    0    0  0.00000000000E+00  0.00000000000E+00  0.00000000000E+00  0.91188000000E+02  0.91188000000E+02 0.  0.
    9900012    2    3    3    0    0 -0.30283184902E+02 -0.26209446705E+02  0.16721749940E+02  0.47787270680E+02  0.19999998340E+02 0.  0.
        -12    1    3    3    0    0  0.30283184902E+02  0.26209446705E+02 -0.16721749940E+02  0.43400729320E+02  0.00000000000E+00 0.  1.
         11    1    4    4    0    0 -0.71575421585E+01  0.16841781778E+01  0.46884604849E+01  0.87205807068E+01  0.51100000000E-03 0. -1.
        -11    1    4    4    0    0 -0.12155550236E+02 -0.15530868221E+02  0.10816953565E+02  0.22493815904E+02  0.51100000000E-03 0.  1.
         12    1    4    4    0    0 -0.10970092508E+02 -0.12362756662E+02  0.12163358894E+01  0.16572874069E+02  0.00000000000E+00 0. -1.
</event>
<event>
 8    1  0.5331800E-011  0.9118800E+02  0.7816164E-02  0.1184000E+00
        -11   -1    0    0    0    0  0.00000000000E+00  0.00000000000E+00  0.45593999997E+02  0.45594000000E+02  0.51100000000E-03 0. -1.
         11   -1    0    0    0    0 -0.00000000000E+00 -0.00000000000E+00 -0.45593999997E+02  0.45594000000E+02  0.51100000000E-03 0.  1.
         23    2    1    2    0    0  0.00000000000E+00  0.17763568394E-14  0.71054273576E-14  0.91188000000E+02  0.91188000000E+02 0.  0.
    9900012    2    3    3    0    0  0.12628235569E+02 -0.15731487416E+02 -0.38427494772E+02  0.47787258251E+02  0.19999941668E+02 0.  0.
         12    1    3    3    0    0 -0.12628235569E+02  0.15731487416E+02  0.38427494772E+02  0.43400741749E+02  0.00000000000E+00 0. -1.
         11    1    4    4    0    0  0.11783321044E+02 -0.14049224225E+02 -0.31595626175E+02  0.36530958785E+02  0.51100000000E-03 0.  1.
        -11    1    4    4    0    0 -0.39025531622E+01 -0.41876810740E+00 -0.39109207346E+01  0.55408112371E+01  0.51100000000E-03 0. -1.
        -12    1    4    4    0    0  0.47474676872E+01 -0.12634950842E+01 -0.29209478631E+01  0.57154882282E+01  0.00000000000E+00 0.  1.
</event>
<event>
 8    1  0.5331800E-011  0.9118800E+02  0.7816164E-02  0.1184000E+00
        -11   -1    0    0    0    0  0.00000000000E+00  0.00000000000E+00  0.45593999997E+02  0.45594000000E+02  0.51100000000E-03 0. -1.
         11   -1    0    0    0    0 -0.00000000000E+00 -0.00000000000E+00 -0.45593999997E+02  0.45594000000E+02  0.51100000000E-03 0.  1.
         23    2    1    2    0    0  0.00000000000E+00  0.00000000000E+00  0.35527136788E-14  0.91188000000E+02  0.91188000000E+02 0.  0.
    9900012    2    3    3    0    0  0.18660042317E+02  0.30695171292E+02  0.24356368008E+02  0.47787269793E+02  0.19999994295E+02 0.  0.
        -12    1    3    3    0    0 -0.18660042317E+02 -0.30695171292E+02 -0.24356368008E+02  0.43400730207E+02  0.00000000000E+00 0.  1.
         11    1    4    4    0    0  0.14994314517E+02  0.18795758109E+02  0.65715195827E+01  0.24925787061E+02  0.51100000000E-03 0. -1.
        -11    1    4    4    0    0  0.14550362881E+01  0.18693277782E+01  0.91238512848E+01  0.94263555773E+01  0.51100000000E-03 0.  1.
         12    1    4    4    0    0  0.22106915121E+01  0.10030085405E+02  0.86609971407E+01  0.13435127155E+02  0.00000000000E+00 0. -1.
</event>
<event>
 8    1  0.5331800E-011  0.9118800E+02  0.7816164E-02  0.1184000E+00
        -11   -1    0    0    0    0  0.00000000000E+00  0.00000000000E+00  0.45593999997E+02  0.45594000000E+02  0.51100000000E-03 0.  1.
         11   -1    0    0    0    0 -0.00000000000E+00 -0.00000000000E+00 -0.45593999997E+02  0.45594000000E+02  0.51100000000E-03 0. -1.
         23    2    1    2    0    0  0.35527136788E-14 -0.35527136788E-14  0.00000000000E+00  0.91188000000E+02  0.91188000000E+02 0.  0.
    9900012    2    3    3    0    0 -0.24045721571E+02  0.28511935650E+02 -0.22192268647E+02  0.47787262816E+02  0.19999962484E+02 0.  0.
         12    1    3    3    0    0  0.24045721571E+02 -0.28511935650E+02  0.22192268647E+02  0.43400737184E+02  0.00000000000E+00 0. -1.
         11    1    4    4    0    0 -0.45871584631E-01  0.42522727038E+01  0.23628589006E+01  0.48648771613E+01  0.51100000000E-03 0. -1.
        -11    1    4    4    0    0 -0.78214750772E+01  0.65380495894E+01 -0.28967470862E+01  0.10597769046E+02  0.51100000000E-03 0.  1.
         12    1    4    4    0    0 -0.16178374909E+02  0.17721613357E+02 -0.21658380462E+02  0.32324616609E+02  0.00000000000E+00 0. -1.
</event>
<event>
 8    1  0.5331800E-011  0.9118800E+02  0.7816164E-02  0.1184000E+00
        -11   -1    0    0    0    0  0.00000000000E+00  0.00000000000E+00  0.45593999997E+02  0.45594000000E+02  0.51100000000E-03 0. -1.
         11   -1    0    0    0    0 -0.00000000000E+00 -0.00000000000E+00 -0.45593999997E+02  0.45594000000E+02  0.51100000000E-03 0.  1.
         23    2    1    2    0    0  0.88817841970E-15  0.00000000000E+00 -0.35527136788E-14  0.91188000000E+02  0.91188000000E+02 0.  0.
    9900012    2    3    3    0    0 -0.64867595964E+01 -0.34125668739E+02  0.26018908514E+02  0.47787275154E+02  0.20000018735E+02 0.  0.
        -12    1    3    3    0    0  0.64867595964E+01  0.34125668739E+02 -0.26018908514E+02  0.43400724846E+02  0.00000000000E+00 0.  1.
         11    1    4    4    0    0 -0.48462673307E+01 -0.24099879370E+00  0.13431883745E+01  0.50347336304E+01  0.51100000000E-03 0. -1.
        -11    1    4    4    0    0  0.24919212900E+01 -0.38501580836E+01  0.35731850421E+01  0.58138662343E+01  0.51100000000E-03 0.  1.
         12    1    4    4    0    0 -0.41324135557E+01 -0.30034511861E+02  0.21102535097E+02  0.36938675289E+02  0.00000000000E+00 0. -1.
</event>
<event>
 8    1  0.5331800E-011  0.9118800E+02  0.7816164E-02  0.1184000E+00
        -11   -1    0    0    0    0  0.00000000000E+00  0.00000000000E+00  0.45593999997E+02  0.45594000000E+02  0.51100000000E-03 0. -1.
         11   -1    0    0    0    0 -0.00000000000E+00 -0.00000000000E+00 -0.45593999997E+02  0.45594000000E+02  0.51100000000E-03 0.  1.
         23    2    1    2    0    0  0.88817841970E-15  0.00000000000E+00  0.00000000000E+00  0.91188000000E+02  0.91188000000E+02 0.  0.
    9900012    2    3    3    0    0 -0.38689018311E+01  0.89419889520E+01  0.42292974618E+02  0.47787271091E+02  0.20000000210E+02 0.  0.
        -12    1    3    3    0    0  0.38689018311E+01 -0.89419889520E+01 -0.42292974618E+02  0.43400728909E+02  0.00000000000E+00 0.  1.
         11    1    4    4    0    0 -0.11388122664E+02  0.19755576637E+01  0.24251708941E+02  0.26865173603E+02  0.51100000000E-03 0. -1.
        -11    1    4    4    0    0  0.67806728017E+01  0.63299561390E+01  0.14217236640E+02  0.16975738166E+02  0.51100000000E-03 0.  1.
         12    1    4    4    0    0  0.73854803136E+00  0.63647514934E+00  0.38240290380E+01  0.39463593215E+01  0.00000000000E+00 0. -1.
</event>
<event>
 8    1  0.5331800E-011  0.9118800E+02  0.7816164E-02  0.1184000E+00
        -11   -1    0    0    0    0  0.00000000000E+00  0.00000000000E+00  0.45593999997E+02  0.45594000000E+02  0.51100000000E-03 0. -1.
         11   -1    0    0    0    0 -0.00000000000E+00 -0.00000000000E+00 -0.45593999997E+02  0.45594000000E+02  0.51100000000E-03 0.  1.
         23    2    1    2    0    0 -0.35527136788E-14  0.35527136788E-14  0.49960036108E-15  0.91188000000E+02  0.91188000000E+02 0.  0.
    9900012    2    3    3    0    0  0.29827874847E+02 -0.31524544022E+02 -0.35255587058E+00  0.47787270866E+02  0.19999999188E+02 0.  0.
         12    1    3    3    0    0 -0.29827874847E+02  0.31524544022E+02  0.35255587058E+00  0.43400729134E+02  0.00000000000E+00 0. -1.
         11    1    4    4    0    0  0.26526518125E+01 -0.29635800657E+01  0.62106498345E+01  0.73750620385E+01  0.51100000000E-03 0. -1.
        -11    1    4    4    0    0  0.12884005525E+02 -0.17800876560E+02 -0.31172773884E+01  0.22194283572E+02  0.51100000000E-03 0.  1.
         12    1    4    4    0    0  0.14291217509E+02 -0.10760087396E+02 -0.34459283167E+01  0.18217925256E+02  0.00000000000E+00 0. -1.
</event>
<event>
 8    1  0.5331800E-011  0.9118800E+02  0.7816164E-02  0.1184000E+00
        -11   -1    0    0    0    0  0.00000000000E+00  0.00000000000E+00  0.45593999997E+02  0.45594000000E+02  0.51100000000E-03 0. -1.
         11   -1    0    0    0    0 -0.00000000000E+00 -0.00000000000E+00 -0.45593999997E+02  0.45594000000E+02  0.51100000000E-03 0.  1.
         23    2    1    2    0    0  0.00000000000E+00  0.00000000000E+00  0.00000000000E+00  0.91188000000E+02  0.91188000000E+02 0.  0.
    9900012    2    3    3    0    0 -0.19083410212E+02 -0.10754915366E+02 -0.37467034751E+02  0.47787269097E+02  0.19999991122E+02 0.  0.
         12    1    3    3    0    0  0.19083410212E+02  0.10754915366E+02  0.37467034751E+02  0.43400730903E+02  0.00000000000E+00 0. -1.
         11    1    4    4    0    0 -0.60998215855E+01 -0.10069747855E+01 -0.33820093821E+01  0.70469716414E+01  0.51100000000E-03 0. -1.
        -11    1    4    4    0    0 -0.12176414761E+02 -0.21673788674E+01 -0.29133381685E+02  0.31649905786E+02  0.51100000000E-03 0.  1.
        -12    1    4    4    0    0 -0.80717386495E+00 -0.75805617132E+01 -0.49516436837E+01  0.90903916696E+01  0.00000000000E+00 0.  1.
</event>
<event>
 8    1  0.5331800E-011  0.9118800E+02  0.7816164E-02  0.1184000E+00
        -11   -1    0    0    0    0  0.00000000000E+00  0.00000000000E+00  0.45593999997E+02  0.45594000000E+02  0.51100000000E-03 0. -1.
         11   -1    0    0    0    0 -0.00000000000E+00 -0.00000000000E+00 -0.45593999997E+02  0.45594000000E+02  0.51100000000E-03 0.  1.
         23    2    1    2    0    0 -0.35527136788E-14 -0.35527136788E-14  0.35527136788E-14  0.91188000000E+02  0.91188000000E+02 0.  0.
    9900012    2    3    3    0    0  0.24217701569E+02  0.22173433161E+02 -0.28380714182E+02  0.47787272530E+02  0.20000006774E+02 0.  0.
         12    1    3    3    0    0 -0.24217701569E+02 -0.22173433161E+02  0.28380714182E+02  0.43400727470E+02  0.00000000000E+00 0. -1.
         11    1    4    4    0    0 -0.39203327947E+00  0.50100487488E+01  0.79706602326E+00  0.50881817051E+01  0.51100000000E-03 0. -1.
        -11    1    4    4    0    0  0.22497226700E+02  0.17301553690E+02 -0.24228588511E+02  0.37316128829E+02  0.51100000000E-03 0.  1.
        -12    1    4    4    0    0  0.21125081483E+01 -0.13816927740E+00 -0.49491916941E+01  0.53829619961E+01  0.00000000000E+00 0.  1.
</event>
<event>
 8    1  0.5331800E-011  0.9118800E+02  0.7816164E-02  0.1184000E+00
        -11   -1    0    0    0    0  0.00000000000E+00  0.00000000000E+00  0.45593999997E+02  0.45594000000E+02  0.51100000000E-03 0. -1.
         11   -1    0    0    0    0 -0.00000000000E+00 -0.00000000000E+00 -0.45593999997E+02  0.45594000000E+02  0.51100000000E-03 0.  1.
         23    2    1    2    0    0  0.00000000000E+00  0.35527136788E-14  0.71054273576E-14  0.91188000000E+02  0.91188000000E+02 0.  0.
    9900012    2    3    3    0    0  0.21756396435E+02 -0.18408084961E+02  0.32732649788E+02  0.47787254155E+02  0.19999922993E+02 0.  0.
        -12    1    3    3    0    0 -0.21756396435E+02  0.18408084961E+02 -0.32732649788E+02  0.43400745845E+02  0.00000000000E+00 0.  1.
         11    1    4    4    0    0  0.43256870914E+01  0.23104399710E+00 -0.81413220932E+00  0.44076934622E+01  0.51100000000E-03 0. -1.
        -11    1    4    4    0    0  0.34936027335E+01  0.40370857094E+00  0.71785780108E+01  0.79937615168E+01  0.51100000000E-03 0.  1.
         12    1    4    4    0    0  0.13937106610E+02 -0.19042837529E+02  0.26368203987E+02  0.35385799176E+02  0.00000000000E+00 0. -1.
</event>
<event>
 8    1  0.5331800E-011  0.9118800E+02  0.7816164E-02  0.1184000E+00
        -11   -1    0    0    0    0  0.00000000000E+00  0.00000000000E+00  0.45593999997E+02  0.45594000000E+02  0.51100000000E-03 0.  1.
         11   -1    0    0    0    0 -0.00000000000E+00 -0.00000000000E+00 -0.45593999997E+02  0.45594000000E+02  0.51100000000E-03 0. -1.
         23    2    1    2    0    0  0.22204460493E-15  0.00000000000E+00  0.00000000000E+00  0.91188000000E+02  0.91188000000E+02 0.  0.
    9900012    2    3    3    0    0 -0.40919417724E+00  0.40451820020E+02 -0.15719608590E+02  0.47787271008E+02  0.19999999834E+02 0.  0.
         12    1    3    3    0    0  0.40919417724E+00 -0.40451820020E+02  0.15719608590E+02  0.43400728992E+02  0.00000000000E+00 0. -1.
         11    1    4    4    0    0 -0.33124901249E-01  0.11575055357E+02 -0.11747363099E+02  0.16491923593E+02  0.51100000000E-03 0. -1.
        -11    1    4    4    0    0 -0.17464729540E+01  0.26580688827E+02 -0.15957745644E+00  0.26638480653E+02  0.51100000000E-03 0.  1.
         12    1    4    4    0    0  0.13704036780E+01  0.22960758357E+01 -0.38126680355E+01  0.46568667613E+01  0.00000000000E+00 0. -1.
</event>
<event>
 8    1  0.5331800E-011  0.9118800E+02  0.7816164E-02  0.1184000E+00
        -11   -1    0    0    0    0  0.00000000000E+00  0.00000000000E+00  0.45593999997E+02  0.45594000000E+02  0.51100000000E-03 0. -1.
         11   -1    0    0    0    0 -0.00000000000E+00 -0.00000000000E+00 -0.45593999997E+02  0.45594000000E+02  0.51100000000E-03 0.  1.
         23    2    1    2    0    0  0.00000000000E+00  0.88817841970E-15  0.71054273576E-14  0.91188000000E+02  0.91188000000E+02 0.  0.
    9900012    2    3    3    0    0  0.41918182969E+01  0.50603542203E+01  0.42900452910E+02  0.47787223678E+02  0.19999784038E+02 0.  0.
        -12    1    3    3    0    0 -0.41918182969E+01 -0.50603542203E+01 -0.42900452910E+02  0.43400776322E+02  0.00000000000E+00 0.  1.
         11    1    4    4    0    0  0.29556104764E+00 -0.30537149792E+01  0.33876765088E+02  0.34015404520E+02  0.51100000000E-03 0. -1.
        -11    1    4    4    0    0  0.77573441292E+00  0.27527891959E+01  0.47147091225E-01  0.28603907681E+01  0.51100000000E-03 0.  1.
         12    1    4    4    0    0  0.31205228364E+01  0.53612800036E+01  0.89765407300E+01  0.10911428391E+02  0.00000000000E+00 0. -1.
</event>
<event>
 8    1  0.5331800E-011  0.9118800E+02  0.7816164E-02  0.1184000E+00
        -11   -1    0    0    0    0  0.00000000000E+00  0.00000000000E+00  0.45593999997E+02  0.45594000000E+02  0.51100000000E-03 0. -1.
         11   -1    0    0    0    0 -0.00000000000E+00 -0.00000000000E+00 -0.45593999997E+02  0.45594000000E+02  0.51100000000E-03 0.  1.
         23    2    1    2    0    0  0.00000000000E+00  0.00000000000E+00 -0.71054273576E-14  0.91188000000E+02  0.91188000000E+02 0.  0.
    9900012    2    3    3    0    0  0.67041460728E+01 -0.26212980863E+02  0.33934605733E+02  0.47787269516E+02  0.19999993030E+02 0.  0.
        -12    1    3    3    0    0 -0.67041460728E+01  0.26212980863E+02 -0.33934605733E+02  0.43400730484E+02  0.00000000000E+00 0.  1.
         11    1    4    4    0    0 -0.74941032390E+00 -0.18464907471E+02  0.19429186136E+02  0.26814318897E+02  0.51100000000E-03 0. -1.
        -11    1    4    4    0    0  0.57113497152E+01  0.48511326498E+00  0.23642013146E+01  0.62003466489E+01  0.51100000000E-03 0.  1.
        -12    1    4    4    0    0  0.17422066815E+01 -0.82331866567E+01  0.12141218283E+02  0.14772603970E+02  0.00000000000E+00 0.  1.
</event>
<event>
 8    1  0.5331800E-011  0.9118800E+02  0.7816164E-02  0.1184000E+00
        -11   -1    0    0    0    0  0.00000000000E+00  0.00000000000E+00  0.45593999997E+02  0.45594000000E+02  0.51100000000E-03 0. -1.
         11   -1    0    0    0    0 -0.00000000000E+00 -0.00000000000E+00 -0.45593999997E+02  0.45594000000E+02  0.51100000000E-03 0.  1.
         23    2    1    2    0    0  0.00000000000E+00  0.00000000000E+00  0.00000000000E+00  0.91188000000E+02  0.91188000000E+02 0.  0.
    9900012    2    3    3    0    0 -0.22614778486E+02  0.15263700505E+02 -0.33752251113E+02  0.47787271731E+02  0.20000003132E+02 0.  0.
         12    1    3    3    0    0  0.22614778486E+02 -0.15263700505E+02  0.33752251113E+02  0.43400728269E+02  0.00000000000E+00 0. -1.
         11    1    4    4    0    0 -0.17699975997E+01  0.12307810952E+02 -0.94996099967E+01  0.15647929329E+02  0.51100000000E-03 0. -1.
        -11    1    4    4    0    0 -0.11573031937E+01  0.33559379576E+00 -0.17601252898E+01  0.21330764578E+01  0.51100000000E-03 0.  1.
         12    1    4    4    0    0 -0.19687477692E+02  0.26202957568E+01 -0.22492515826E+02  0.30006265945E+02  0.00000000000E+00 0. -1.
</event>
<event>
 8    1  0.5331800E-011  0.9118800E+02  0.7816164E-02  0.1184000E+00
        -11   -1    0    0    0    0  0.00000000000E+00  0.00000000000E+00  0.45593999997E+02  0.45594000000E+02  0.51100000000E-03 0. -1.
         11   -1    0    0    0    0 -0.00000000000E+00 -0.00000000000E+00 -0.45593999997E+02  0.45594000000E+02  0.51100000000E-03 0.  1.
         23    2    1    2    0    0  0.00000000000E+00  0.71054273576E-14 -0.35527136788E-14  0.91188000000E+02  0.91188000000E+02 0.  0.
    9900012    2    3    3    0    0 -0.17062329267E+01 -0.37600134349E+02  0.21608843647E+02  0.47787268927E+02  0.19999990347E+02 0.  0.
        -12    1    3    3    0    0  0.17062329267E+01  0.37600134349E+02 -0.21608843647E+02  0.43400731073E+02  0.00000000000E+00 0.  1.
         11    1    4    4    0    0 -0.60627063520E+01 -0.20052590012E+02  0.11087761139E+02  0.23702346336E+02  0.51100000000E-03 0. -1.
        -11    1    4    4    0    0  0.97295962035E+00  0.17076335206E+01  0.18462798964E+01  0.26965556513E+01  0.51100000000E-03 0.  1.
        -12    1    4    4    0    0  0.33835138050E+01 -0.19255177858E+02  0.86748026109E+01  0.21388366940E+02  0.00000000000E+00 0.  1.
</event>
<event>
 8    1  0.5331800E-011  0.9118800E+02  0.7816164E-02  0.1184000E+00
        -11   -1    0    0    0    0  0.00000000000E+00  0.00000000000E+00  0.45593999997E+02  0.45594000000E+02  0.51100000000E-03 0. -1.
         11   -1    0    0    0    0 -0.00000000000E+00 -0.00000000000E+00 -0.45593999997E+02  0.45594000000E+02  0.51100000000E-03 0.  1.
         23    2    1    2    0    0  0.00000000000E+00 -0.88817841970E-15  0.00000000000E+00  0.91188000000E+02  0.91188000000E+02 0.  0.
    9900012    2    3    3    0    0  0.67284397473E+01 -0.75390091062E+01 -0.42208010909E+02  0.47787254101E+02  0.19999922747E+02 0.  0.
         12    1    3    3    0    0 -0.67284397473E+01  0.75390091062E+01  0.42208010909E+02  0.43400745899E+02  0.00000000000E+00 0. -1.
         11    1    4    4    0    0  0.10456978943E+02 -0.73064409355E+01 -0.26823127208E+02  0.29702064596E+02  0.51100000000E-03 0. -1.
        -11    1    4    4    0    0  0.12501516596E+01 -0.18791315471E+01 -0.11059878581E+02  0.11287822156E+02  0.51100000000E-03 0.  1.
         12    1    4    4    0    0 -0.49786908555E+01  0.16465633764E+01 -0.43250051193E+01  0.67973673484E+01  0.00000000000E+00 0. -1.
</event>
<event>
 8    1  0.5331800E-011  0.9118800E+02  0.7816164E-02  0.1184000E+00
        -11   -1    0    0    0    0  0.00000000000E+00  0.00000000000E+00  0.45593999997E+02  0.45594000000E+02  0.51100000000E-03 0. -1.
         11   -1    0    0    0    0 -0.00000000000E+00 -0.00000000000E+00 -0.45593999997E+02  0.45594000000E+02  0.51100000000E-03 0.  1.
         23    2    1    2    0    0  0.00000000000E+00 -0.17763568394E-14  0.00000000000E+00  0.91188000000E+02  0.91188000000E+02 0.  0.
    9900012    2    3    3    0    0 -0.20780037481E+02  0.79927094773E+01  0.37254932829E+02  0.47787269792E+02  0.19999994290E+02 0.  0.
        -12    1    3    3    0    0  0.20780037481E+02 -0.79927094773E+01 -0.37254932829E+02  0.43400730208E+02  0.00000000000E+00 0.  1.
         11    1    4    4    0    0 -0.35272419742E+00  0.18705360127E+01  0.63851467132E+01  0.66628385951E+01  0.51100000000E-03 0. -1.
        -11    1    4    4    0    0 -0.15288592313E+02  0.69734145986E+01  0.31672584944E+02  0.35854179720E+02  0.51100000000E-03 0.  1.
        -12    1    4    4    0    0 -0.51387209696E+01 -0.85124113396E+00 -0.80279882826E+00  0.52702514770E+01  0.00000000000E+00 0.  1.
</event>
<event>
 8    1  0.5331800E-011  0.9118800E+02  0.7816164E-02  0.1184000E+00
        -11   -1    0    0    0    0  0.00000000000E+00  0.00000000000E+00  0.45593999997E+02  0.45594000000E+02  0.51100000000E-03 0. -1.
         11   -1    0    0    0    0 -0.00000000000E+00 -0.00000000000E+00 -0.45593999997E+02  0.45594000000E+02  0.51100000000E-03 0.  1.
         23    2    1    2    0    0 -0.35527136788E-14  0.00000000000E+00  0.00000000000E+00  0.91188000000E+02  0.91188000000E+02 0.  0.
    9900012    2    3    3    0    0  0.25537357436E+02  0.92253884410E+01 -0.33857924279E+02  0.47787268979E+02  0.19999990581E+02 0.  0.
         12    1    3    3    0    0 -0.25537357436E+02 -0.92253884410E+01  0.33857924279E+02  0.43400731021E+02  0.00000000000E+00 0. -1.
         11    1    4    4    0    0  0.20635583150E+02  0.98025566840E+01 -0.28176812178E+02  0.36274648920E+02  0.51100000000E-03 0.  1.
        -11    1    4    4    0    0  0.39170140945E+01 -0.42425441652E+00  0.15347318123E+01  0.42282849033E+01  0.51100000000E-03 0. -1.
        -12    1    4    4    0    0  0.98476019130E+00 -0.15291382653E+00 -0.72158439133E+01  0.72843351552E+01  0.00000000000E+00 0.  1.
</event>
<event>
 8    1  0.5331800E-011  0.9118800E+02  0.7816164E-02  0.1184000E+00
        -11   -1    0    0    0    0  0.00000000000E+00  0.00000000000E+00  0.45593999997E+02  0.45594000000E+02  0.51100000000E-03 0. -1.
         11   -1    0    0    0    0 -0.00000000000E+00 -0.00000000000E+00 -0.45593999997E+02  0.45594000000E+02  0.51100000000E-03 0.  1.
         23    2    1    2    0    0  0.00000000000E+00  0.35527136788E-14  0.00000000000E+00  0.91188000000E+02  0.91188000000E+02 0.  0.
    9900012    2    3    3    0    0  0.22924314874E+02  0.30574995590E+02 -0.20573496664E+02  0.47787270366E+02  0.19999996908E+02 0.  0.
         12    1    3    3    0    0 -0.22924314874E+02 -0.30574995590E+02  0.20573496664E+02  0.43400729634E+02  0.00000000000E+00 0. -1.
         11    1    4    4    0    0  0.61259878019E+01  0.17461711439E+02 -0.86680598387E+01  0.20434636149E+02  0.51100000000E-03 0. -1.
        -11    1    4    4    0    0  0.81673309437E+01  0.35972172403E+01  0.11949584495E+01  0.90040653359E+01  0.51100000000E-03 0.  1.
        -12    1    4    4    0    0  0.86309961284E+01  0.95160669101E+01 -0.13100395275E+02  0.18348568881E+02  0.00000000000E+00 0.  1.
</event>
<event>
 8    1  0.5331800E-011  0.9118800E+02  0.7816164E-02  0.1184000E+00
        -11   -1    0    0    0    0  0.00000000000E+00  0.00000000000E+00  0.45593999997E+02  0.45594000000E+02  0.51100000000E-03 0. -1.
         11   -1    0    0    0    0 -0.00000000000E+00 -0.00000000000E+00 -0.45593999997E+02  0.45594000000E+02  0.51100000000E-03 0.  1.
         23    2    1    2    0    0  0.00000000000E+00  0.00000000000E+00 -0.35527136788E-14  0.91188000000E+02  0.91188000000E+02 0.  0.
    9900012    2    3    3    0    0 -0.33608714802E+02  0.99899140590E+01 -0.25578880207E+02  0.47787271824E+02  0.20000003553E+02 0.  0.
         12    1    3    3    0    0  0.33608714802E+02 -0.99899140590E+01  0.25578880207E+02  0.43400728176E+02  0.00000000000E+00 0. -1.
         11    1    4    4    0    0 -0.53835500993E+01 -0.35321929445E+01 -0.11513608192E+01  0.65409961524E+01  0.51100000000E-03 0. -1.
        -11    1    4    4    0    0 -0.27393944066E+02  0.15223371719E+02 -0.23128125491E+02  0.38949831925E+02  0.51100000000E-03 0.  1.
        -12    1    4    4    0    0 -0.83122063709E+00 -0.17012647157E+01 -0.12993938975E+01  0.22964437466E+01  0.00000000000E+00 0.  1.
</event>
<event>
 8    1  0.5565674E-011  0.9118800E+02  0.7816164E-02  0.1184000E+00
        -11   -1    0    0    0    0  0.00000000000E+00  0.00000000000E+00  0.45593999997E+02  0.45594000000E+02  0.51100000000E-03 0. -1.
         11   -1    0    0    0    0 -0.00000000000E+00 -0.00000000000E+00 -0.45593999997E+02  0.45594000000E+02  0.51100000000E-03 0.  1.
         23    2    1    2    0    0  0.00000000000E+00 -0.17763568394E-14  0.71054273576E-14  0.91188000000E+02  0.91188000000E+02 0.  0.
    9900012    2    3    3    0    0 -0.19443024866E+02  0.10730581062E+02 -0.37288690769E+02  0.47787273679E+02  0.20000012014E+02 0.  0.
         12    1    3    3    0    0  0.19443024866E+02 -0.10730581062E+02  0.37288690769E+02  0.43400726321E+02  0.00000000000E+00 0. -1.
         11    1    4    4    0    0  0.28133832162E+01 -0.28692326341E+00 -0.61474464815E+00  0.28940216523E+01  0.51100000000E-03 0. -1.
        -11    1    4    4    0    0 -0.15406670627E+02  0.39167026792E+01 -0.24768877024E+02  0.29431332437E+02  0.51100000000E-03 0.  1.
        -12    1    4    4    0    0 -0.68497374546E+01  0.71008016461E+01 -0.11905069097E+02  0.15461919590E+02  0.00000000000E+00 0.  1.
</event>
<event>
 8    1  0.5331800E-011  0.9118800E+02  0.7816164E-02  0.1184000E+00
        -11   -1    0    0    0    0  0.00000000000E+00  0.00000000000E+00  0.45593999997E+02  0.45594000000E+02  0.51100000000E-03 0. -1.
         11   -1    0    0    0    0 -0.00000000000E+00 -0.00000000000E+00 -0.45593999997E+02  0.45594000000E+02  0.51100000000E-03 0.  1.
         23    2    1    2    0    0  0.00000000000E+00  0.00000000000E+00  0.00000000000E+00  0.91188000000E+02  0.91188000000E+02 0.  0.
    9900012    2    3    3    0    0 -0.63525575296E+01  0.22002902435E+02 -0.36866502603E+02  0.47787288982E+02  0.20000081784E+02 0.  0.
         12    1    3    3    0    0  0.63525575296E+01 -0.22002902435E+02  0.36866502603E+02  0.43400711018E+02  0.00000000000E+00 0. -1.
         11    1    4    4    0    0  0.51666418849E+00  0.83340574185E+01 -0.66790194013E+01  0.10692649595E+02  0.51100000000E-03 0. -1.
        -11    1    4    4    0    0 -0.28806519722E+01  0.16402829202E+02 -0.24573917475E+02  0.29685491101E+02  0.51100000000E-03 0.  1.
        -12    1    4    4    0    0 -0.39885697459E+01 -0.27339841859E+01 -0.56135657270E+01  0.74091482856E+01  0.00000000000E+00 0.  1.
</event>
<event>
 8    1  0.5331800E-011  0.9118800E+02  0.7816164E-02  0.1184000E+00
        -11   -1    0    0    0    0  0.00000000000E+00  0.00000000000E+00  0.45593999997E+02  0.45594000000E+02  0.51100000000E-03 0.  1.
         11   -1    0    0    0    0 -0.00000000000E+00 -0.00000000000E+00 -0.45593999997E+02  0.45594000000E+02  0.51100000000E-03 0. -1.
         23    2    1    2    0    0 -0.44408920985E-15 -0.71054273576E-14  0.00000000000E+00  0.91188000000E+02  0.91188000000E+02 0.  0.
    9900012    2    3    3    0    0  0.39294202512E+01  0.32749879841E+02  0.28206883355E+02  0.47787271415E+02  0.20000001690E+02 0.  0.
        -12    1    3    3    0    0 -0.39294202512E+01 -0.32749879841E+02 -0.28206883355E+02  0.43400728585E+02  0.00000000000E+00 0.  1.
         11    1    4    4    0    0 -0.38490831228E+01  0.83363106478E+01  0.23751952840E+00  0.91850929168E+01  0.51100000000E-03 0. -1.
        -11    1    4    4    0    0  0.83625609972E+01  0.22729337689E+02  0.23312933457E+02  0.33616187840E+02  0.51100000000E-03 0.  1.
         12    1    4    4    0    0 -0.58405762320E+00  0.16842315039E+01  0.46564303688E+01  0.49859906584E+01  0.00000000000E+00 0. -1.
</event>
<event>
 8    1  0.5331800E-011  0.9118800E+02  0.7816164E-02  0.1184000E+00
        -11   -1    0    0    0    0  0.00000000000E+00  0.00000000000E+00  0.45593999997E+02  0.45594000000E+02  0.51100000000E-03 0. -1.
         11   -1    0    0    0    0 -0.00000000000E+00 -0.00000000000E+00 -0.45593999997E+02  0.45594000000E+02  0.51100000000E-03 0.  1.
         23    2    1    2    0    0  0.00000000000E+00  0.15543122345E-14  0.00000000000E+00  0.91188000000E+02  0.91188000000E+02 0.  0.
    9900012    2    3    3    0    0  0.18947260637E+02  0.23349811853E+00  0.39045743187E+02  0.47787271112E+02  0.20000000309E+02 0.  0.
        -12    1    3    3    0    0 -0.18947260637E+02 -0.23349811853E+00 -0.39045743187E+02  0.43400728888E+02  0.00000000000E+00 0.  1.
         11    1    4    4    0    0  0.81940011520E+01  0.37131335908E+01  0.16122653066E+02  0.18462636813E+02  0.51100000000E-03 0. -1.
        -11    1    4    4    0    0  0.11033137341E+02 -0.80398451973E+01  0.18228485936E+02  0.22773821159E+02  0.51100000000E-03 0.  1.
        -12    1    4    4    0    0 -0.27987785648E+00  0.45602097251E+01  0.46946041847E+01  0.65508131406E+01  0.00000000000E+00 0.  1.
</event>
<event>
 8    1  0.5331800E-011  0.9118800E+02  0.7816164E-02  0.1184000E+00
        -11   -1    0    0    0    0  0.00000000000E+00  0.00000000000E+00  0.45593999997E+02  0.45594000000E+02  0.51100000000E-03 0. -1.
         11   -1    0    0    0    0 -0.00000000000E+00 -0.00000000000E+00 -0.45593999997E+02  0.45594000000E+02  0.51100000000E-03 0.  1.
         23    2    1    2    0    0 -0.35527136788E-14  0.00000000000E+00 -0.35527136788E-14  0.91188000000E+02  0.91188000000E+02 0.  0.
    9900012    2    3    3    0    0 -0.27935234758E+02  0.13219543778E+02 -0.30471119346E+02  0.47787276585E+02  0.20000025264E+02 0.  0.
         12    1    3    3    0    0  0.27935234758E+02 -0.13219543778E+02  0.30471119346E+02  0.43400723415E+02  0.00000000000E+00 0. -1.
         11    1    4    4    0    0  0.94663275145E+00 -0.22814966847E+01 -0.44825843383E+01  0.51180956712E+01  0.51100000000E-03 0. -1.
        -11    1    4    4    0    0 -0.18714801213E+02  0.76872027324E+01 -0.11310633210E+02  0.23179027032E+02  0.51100000000E-03 0.  1.
         12    1    4    4    0    0 -0.10167066297E+02  0.78138377304E+01 -0.14677901798E+02  0.19490153882E+02  0.00000000000E+00 0. -1.
</event>
<event>
 8    1  0.5331800E-011  0.9118800E+02  0.7816164E-02  0.1184000E+00
        -11   -1    0    0    0    0  0.00000000000E+00  0.00000000000E+00  0.45593999997E+02  0.45594000000E+02  0.51100000000E-03 0. -1.
         11   -1    0    0    0    0 -0.00000000000E+00 -0.00000000000E+00 -0.45593999997E+02  0.45594000000E+02  0.51100000000E-03 0.  1.
         23    2    1    2    0    0  0.00000000000E+00  0.00000000000E+00  0.00000000000E+00  0.91188000000E+02  0.91188000000E+02 0.  0.
    9900012    2    3    3    0    0 -0.27917684407E+02  0.57250049605E+01  0.32733018335E+02  0.47787271046E+02  0.20000000006E+02 0.  0.
        -12    1    3    3    0    0  0.27917684407E+02 -0.57250049605E+01 -0.32733018335E+02  0.43400728954E+02  0.00000000000E+00 0.  1.
         11    1    4    4    0    0 -0.13935327679E+02  0.30886835361E+01  0.19419870206E+02  0.24101134467E+02  0.51100000000E-03 0. -1.
        -11    1    4    4    0    0 -0.15210321530E+02 -0.63770734496E+00  0.76681102798E+01  0.17045834307E+02  0.51100000000E-03 0.  1.
        -12    1    4    4    0    0  0.12279648023E+01  0.32740287694E+01  0.56450378488E+01  0.66403022712E+01  0.00000000000E+00 0.  1.
</event>
<event>
 8    1  0.5334680E-011  0.9118800E+02  0.7816164E-02  0.1184000E+00
        -11   -1    0    0    0    0  0.00000000000E+00  0.00000000000E+00  0.45593999997E+02  0.45594000000E+02  0.51100000000E-03 0. -1.
         11   -1    0    0    0    0 -0.00000000000E+00 -0.00000000000E+00 -0.45593999997E+02  0.45594000000E+02  0.51100000000E-03 0.  1.
         23    2    1    2    0    0  0.00000000000E+00  0.00000000000E+00  0.00000000000E+00  0.91188000000E+02  0.91188000000E+02 0.  0.
    9900012    2    3    3    0    0  0.25630678174E+02  0.26190847506E+02 -0.23253629426E+02  0.47787269151E+02  0.19999991366E+02 0.  0.
         12    1    3    3    0    0 -0.25630678174E+02 -0.26190847506E+02  0.23253629426E+02  0.43400730849E+02  0.00000000000E+00 0. -1.
         11    1    4    4    0    0  0.23337947232E+01  0.25676651564E+01  0.29669720725E+01  0.45653505567E+01  0.51100000000E-03 0. -1.
        -11    1    4    4    0    0  0.23904474556E+02  0.21958650381E+02 -0.25616332514E+02  0.41349760847E+02  0.51100000000E-03 0.  1.
        -12    1    4    4    0    0 -0.60759110460E+00  0.16645319685E+01 -0.60426898442E+00  0.18721577471E+01  0.00000000000E+00 0.  1.
</event>
<event>
 8    1  0.5331800E-011  0.9118800E+02  0.7816164E-02  0.1184000E+00
        -11   -1    0    0    0    0  0.00000000000E+00  0.00000000000E+00  0.45593999997E+02  0.45594000000E+02  0.51100000000E-03 0. -1.
         11   -1    0    0    0    0 -0.00000000000E+00 -0.00000000000E+00 -0.45593999997E+02  0.45594000000E+02  0.51100000000E-03 0.  1.
         23    2    1    2    0    0 -0.17763568394E-14 -0.88817841970E-15  0.00000000000E+00  0.91188000000E+02  0.91188000000E+02 0.  0.
    9900012    2    3    3    0    0 -0.14049245187E+02 -0.53279222052E+01  0.40716721089E+02  0.47787315425E+02  0.20000202349E+02 0.  0.
        -12    1    3    3    0    0  0.14049245187E+02  0.53279222052E+01 -0.40716721089E+02  0.43400684575E+02  0.00000000000E+00 0.  1.
         11    1    4    4    0    0 -0.19461207887E+01  0.21981684280E+01  0.23392275302E+02  0.23575790011E+02  0.51100000000E-03 0. -1.
        -11    1    4    4    0    0 -0.93093086362E+01 -0.81330400295E+01  0.17408854746E+02  0.21351294838E+02  0.51100000000E-03 0.  1.
         12    1    4    4    0    0 -0.27938157618E+01  0.60694939631E+00 -0.84408959469E-01  0.28602305769E+01  0.00000000000E+00 0. -1.
</event>
<event>
 8    1  0.5331800E-011  0.9118800E+02  0.7816164E-02  0.1184000E+00
        -11   -1    0    0    0    0  0.00000000000E+00  0.00000000000E+00  0.45593999997E+02  0.45594000000E+02  0.51100000000E-03 0. -1.
         11   -1    0    0    0    0 -0.00000000000E+00 -0.00000000000E+00 -0.45593999997E+02  0.45594000000E+02  0.51100000000E-03 0.  1.
         23    2    1    2    0    0  0.00000000000E+00  0.00000000000E+00  0.00000000000E+00  0.91188000000E+02  0.91188000000E+02 0.  0.
    9900012    2    3    3    0    0 -0.13903052246E+02  0.27240357606E+02 -0.30794344261E+02  0.47787267486E+02  0.19999983775E+02 0.  0.
         12    1    3    3    0    0  0.13903052246E+02 -0.27240357606E+02  0.30794344261E+02  0.43400732514E+02  0.00000000000E+00 0. -1.
         11    1    4    4    0    0 -0.34958840053E+01  0.11357511412E+02 -0.25863020494E+01  0.12161547146E+02  0.51100000000E-03 0. -1.
        -11    1    4    4    0    0  0.39449707670E+00 -0.65652466011E+00  0.39690982671E+00  0.86266461880E+00  0.51100000000E-03 0.  1.
        -12    1    4    4    0    0 -0.10801665318E+02  0.16539370855E+02 -0.28604952038E+02  0.34763055721E+02  0.00000000000E+00 0.  1.
</event>
<event>
 8    1  0.5331800E-011  0.9118800E+02  0.7816164E-02  0.1184000E+00
        -11   -1    0    0    0    0  0.00000000000E+00  0.00000000000E+00  0.45593999997E+02  0.45594000000E+02  0.51100000000E-03 0. -1.
         11   -1    0    0    0    0 -0.00000000000E+00 -0.00000000000E+00 -0.45593999997E+02  0.45594000000E+02  0.51100000000E-03 0.  1.
         23    2    1    2    0    0 -0.71054273576E-14  0.00000000000E+00  0.35527136788E-14  0.91188000000E+02  0.91188000000E+02 0.  0.
    9900012    2    3    3    0    0  0.35188467479E+02  0.35436224868E+01 -0.25156270886E+02  0.47787268799E+02  0.19999989763E+02 0.  0.
         12    1    3    3    0    0 -0.35188467479E+02 -0.35436224868E+01  0.25156270886E+02  0.43400731201E+02  0.00000000000E+00 0. -1.
         11    1    4    4    0    0  0.13930403951E+02 -0.79548401421E+01 -0.10036670221E+02  0.18922747827E+02  0.51100000000E-03 0. -1.
        -11    1    4    4    0    0  0.11404547840E+02  0.58404426643E+01 -0.10625548935E+02  0.16645623219E+02  0.51100000000E-03 0.  1.
        -12    1    4    4    0    0  0.98535156884E+01  0.56580199647E+01 -0.44940517310E+01  0.12218897753E+02  0.00000000000E+00 0.  1.
</event>
<event>
 8    1  0.5331800E-011  0.9118800E+02  0.7816164E-02  0.1184000E+00
        -11   -1    0    0    0    0  0.00000000000E+00  0.00000000000E+00  0.45593999997E+02  0.45594000000E+02  0.51100000000E-03 0. -1.
         11   -1    0    0    0    0 -0.00000000000E+00 -0.00000000000E+00 -0.45593999997E+02  0.45594000000E+02  0.51100000000E-03 0.  1.
         23    2    1    2    0    0  0.17763568394E-14 -0.88817841970E-15  0.71054273576E-14  0.91188000000E+02  0.91188000000E+02 0.  0.
    9900012    2    3    3    0    0  0.80293438952E+01  0.69346869794E+01 -0.42083998693E+02  0.47787271977E+02  0.20000004253E+02 0.  0.
         12    1    3    3    0    0 -0.80293438952E+01 -0.69346869794E+01  0.42083998693E+02  0.43400728023E+02  0.00000000000E+00 0. -1.
         11    1    4    4    0    0  0.44039843034E+01  0.47327617367E+00  0.45786321072E+00  0.44529436401E+01  0.51100000000E-03 0. -1.
        -11    1    4    4    0    0  0.53355903611E+00  0.36819488837E+01 -0.26615430654E+02  0.26874199188E+02  0.51100000000E-03 0.  1.
         12    1    4    4    0    0  0.30918005557E+01  0.27794619221E+01 -0.15926431250E+02  0.16460129149E+02  0.00000000000E+00 0. -1.
</event>
<event>
 8    1  0.5331800E-011  0.9118800E+02  0.7816164E-02  0.1184000E+00
        -11   -1    0    0    0    0  0.00000000000E+00  0.00000000000E+00  0.45593999997E+02  0.45594000000E+02  0.51100000000E-03 0.  1.
         11   -1    0    0    0    0 -0.00000000000E+00 -0.00000000000E+00 -0.45593999997E+02  0.45594000000E+02  0.51100000000E-03 0. -1.
         23    2    1    2    0    0  0.00000000000E+00  0.00000000000E+00  0.44408920985E-15  0.91188000000E+02  0.91188000000E+02 0.  0.
    9900012    2    3    3    0    0 -0.39892192640E+02  0.16626806531E+02 -0.39731336628E+01  0.47787268207E+02  0.19999987065E+02 0.  0.
         12    1    3    3    0    0  0.39892192640E+02 -0.16626806531E+02  0.39731336628E+01  0.43400731793E+02  0.00000000000E+00 0. -1.
         11    1    4    4    0    0 -0.14326292350E+02 -0.41785651245E+00 -0.66053641237E+01  0.15781257618E+02  0.51100000000E-03 0. -1.
        -11    1    4    4    0    0 -0.18230407630E+02  0.14353360117E+02 -0.13385879283E+01  0.23241310783E+02  0.51100000000E-03 0.  1.
         12    1    4    4    0    0 -0.73354926599E+01  0.26913029261E+01  0.39708183892E+01  0.87646998057E+01  0.00000000000E+00 0. -1.
</event>
<event>
 8    1  0.5331800E-011  0.9118800E+02  0.7816164E-02  0.1184000E+00
        -11   -1    0    0    0    0  0.00000000000E+00  0.00000000000E+00  0.45593999997E+02  0.45594000000E+02  0.51100000000E-03 0. -1.
         11   -1    0    0    0    0 -0.00000000000E+00 -0.00000000000E+00 -0.45593999997E+02  0.45594000000E+02  0.51100000000E-03 0.  1.
         23    2    1    2    0    0 -0.35527136788E-14  0.00000000000E+00  0.00000000000E+00  0.91188000000E+02  0.91188000000E+02 0.  0.
    9900012    2    3    3    0    0 -0.16766228784E+02  0.23150075153E+02  0.32658710472E+02  0.47787265249E+02  0.19999973575E+02 0.  0.
        -12    1    3    3    0    0  0.16766228784E+02 -0.23150075153E+02 -0.32658710472E+02  0.43400734751E+02  0.00000000000E+00 0.  1.
         11    1    4    4    0    0 -0.11978296654E+02  0.40286487108E+01  0.17229958171E+02  0.21367757486E+02  0.51100000000E-03 0. -1.
        -11    1    4    4    0    0 -0.44789474857E+01  0.77080409476E+01  0.26877857667E+01  0.93112329161E+01  0.51100000000E-03 0.  1.
         12    1    4    4    0    0 -0.30898464400E+00  0.11413385495E+02  0.12740966535E+02  0.17108274846E+02  0.00000000000E+00 0. -1.
</event>
<event>
 8    1  0.5331800E-011  0.9118800E+02  0.7816164E-02  0.1184000E+00
        -11   -1    0    0    0    0  0.00000000000E+00  0.00000000000E+00  0.45593999997E+02  0.45594000000E+02  0.51100000000E-03 0. -1.
         11   -1    0    0    0    0 -0.00000000000E+00 -0.00000000000E+00 -0.45593999997E+02  0.45594000000E+02  0.51100000000E-03 0.  1.
         23    2    1    2    0    0  0.17763568394E-14  0.17763568394E-14  0.00000000000E+00  0.91188000000E+02  0.91188000000E+02 0.  0.
    9900012    2    3    3    0    0 -0.94739437482E+01 -0.84542921620E+01  0.41501704913E+02  0.47787283683E+02  0.20000057626E+02 0.  0.
        -12    1    3    3    0    0  0.94739437482E+01  0.84542921620E+01 -0.41501704913E+02  0.43400716317E+02  0.00000000000E+00 0.  1.
         11    1    4    4    0    0 -0.25758725908E+01 -0.40622635129E+01  0.34993437555E+02  0.35322482595E+02  0.51100000000E-03 0. -1.
        -11    1    4    4    0    0  0.13047696334E+00 -0.26186005362E+00 -0.12061465818E+01  0.12411223806E+01  0.51100000000E-03 0.  1.
         12    1    4    4    0    0 -0.70285481207E+01 -0.41301685955E+01  0.77144139396E+01  0.11223678708E+02  0.00000000000E+00 0. -1.
</event>
<event>
 8    1  0.5331800E-011  0.9118800E+02  0.7816164E-02  0.1184000E+00
        -11   -1    0    0    0    0  0.00000000000E+00  0.00000000000E+00  0.45593999997E+02  0.45594000000E+02  0.51100000000E-03 0. -1.
         11   -1    0    0    0    0 -0.00000000000E+00 -0.00000000000E+00 -0.45593999997E+02  0.45594000000E+02  0.51100000000E-03 0.  1.
         23    2    1    2    0    0  0.13322676296E-14  0.00000000000E+00  0.00000000000E+00  0.91188000000E+02  0.91188000000E+02 0.  0.
    9900012    2    3    3    0    0  0.39594641388E+01  0.65448209104E+01  0.42721312539E+02  0.47787279014E+02  0.20000036337E+02 0.  0.
        -12    1    3    3    0    0 -0.39594641388E+01 -0.65448209104E+01 -0.42721312539E+02  0.43400720986E+02  0.00000000000E+00 0.  1.
         11    1    4    4    0    0 -0.58972537864E+01 -0.15696909763E+01  0.13663311974E+02  0.14964211517E+02  0.51100000000E-03 0. -1.
        -11    1    4    4    0    0  0.37079284407E+01  0.73300787098E+00  0.23765520077E+01  0.44647545920E+01  0.51100000000E-03 0.  1.
         12    1    4    4    0    0  0.61487894844E+01  0.73815040157E+01  0.26681448558E+02  0.28358312905E+02  0.00000000000E+00 0. -1.
</event>
<event>
 8    1  0.5331800E-011  0.9118800E+02  0.7816164E-02  0.1184000E+00
        -11   -1    0    0    0    0  0.00000000000E+00  0.00000000000E+00  0.45593999997E+02  0.45594000000E+02  0.51100000000E-03 0. -1.
         11   -1    0    0    0    0 -0.00000000000E+00 -0.00000000000E+00 -0.45593999997E+02  0.45594000000E+02  0.51100000000E-03 0.  1.
         23    2    1    2    0    0  0.00000000000E+00  0.17763568394E-14 -0.71054273576E-14  0.91188000000E+02  0.91188000000E+02 0.  0.
    9900012    2    3    3    0    0  0.16752871371E+02 -0.10981607984E+02  0.38501551742E+02  0.47787263835E+02  0.19999967131E+02 0.  0.
        -12    1    3    3    0    0 -0.16752871371E+02  0.10981607984E+02 -0.38501551742E+02  0.43400736165E+02  0.00000000000E+00 0.  1.
         11    1    4    4    0    0  0.18788082447E+01 -0.69896501342E+01  0.14698426331E+02  0.16383798897E+02  0.51100000000E-03 0.  1.
        -11    1    4    4    0    0  0.15524478396E+02  0.61334346632E+00  0.15880780654E+02  0.22216768759E+02  0.51100000000E-03 0. -1.
         12    1    4    4    0    0 -0.65041526984E+00 -0.46053013161E+01  0.79223447574E+01  0.91866961793E+01  0.00000000000E+00 0. -1.
</event>
<event>
 8    1  0.5331800E-011  0.9118800E+02  0.7816164E-02  0.1184000E+00
        -11   -1    0    0    0    0  0.00000000000E+00  0.00000000000E+00  0.45593999997E+02  0.45594000000E+02  0.51100000000E-03 0. -1.
         11   -1    0    0    0    0 -0.00000000000E+00 -0.00000000000E+00 -0.45593999997E+02  0.45594000000E+02  0.51100000000E-03 0.  1.
         23    2    1    2    0    0  0.00000000000E+00 -0.88817841970E-15  0.00000000000E+00  0.91188000000E+02  0.91188000000E+02 0.  0.
    9900012    2    3    3    0    0 -0.19473334521E+02  0.76587726015E+01  0.38023095811E+02  0.47787269935E+02  0.19999994942E+02 0.  0.
        -12    1    3    3    0    0  0.19473334521E+02 -0.76587726015E+01 -0.38023095811E+02  0.43400730065E+02  0.00000000000E+00 0.  1.
         11    1    4    4    0    0 -0.13476068293E+02  0.12800027223E+01  0.36414167876E+02  0.38848866727E+02  0.51100000000E-03 0. -1.
        -11    1    4    4    0    0 -0.20999220505E+01  0.26403408330E+01  0.33861853380E+00  0.33905361089E+01  0.51100000000E-03 0.  1.
         12    1    4    4    0    0 -0.38973441779E+01  0.37384290462E+01  0.12703094003E+01  0.55478670988E+01  0.00000000000E+00 0. -1.
</event>
<event>
 8    1  0.5331800E-011  0.9118800E+02  0.7816164E-02  0.1184000E+00
        -11   -1    0    0    0    0  0.00000000000E+00  0.00000000000E+00  0.45593999997E+02  0.45594000000E+02  0.51100000000E-03 0. -1.
         11   -1    0    0    0    0 -0.00000000000E+00 -0.00000000000E+00 -0.45593999997E+02  0.45594000000E+02  0.51100000000E-03 0.  1.
         23    2    1    2    0    0  0.00000000000E+00  0.00000000000E+00  0.00000000000E+00  0.91188000000E+02  0.91188000000E+02 0.  0.
    9900012    2    3    3    0    0  0.38423699997E+02 -0.55598429136E+01  0.19399252405E+02  0.47787267650E+02  0.19999984521E+02 0.  0.
        -12    1    3    3    0    0 -0.38423699997E+02  0.55598429136E+01 -0.19399252405E+02  0.43400732350E+02  0.00000000000E+00 0.  1.
         11    1    4    4    0    0  0.24256584219E+02  0.18915255233E+01  0.19888863018E+02  0.31424936264E+02  0.51100000000E-03 0. -1.
        -11    1    4    4    0    0  0.50456834223E+01 -0.24173863853E+01  0.14157114809E+01  0.57712145509E+01  0.51100000000E-03 0.  1.
         12    1    4    4    0    0  0.91214323558E+01 -0.50339820516E+01 -0.19053220947E+01  0.10591116835E+02  0.00000000000E+00 0. -1.
</event>
<event>
 8    1  0.5331800E-011  0.9118800E+02  0.7816164E-02  0.1184000E+00
        -11   -1    0    0    0    0  0.00000000000E+00  0.00000000000E+00  0.45593999997E+02  0.45594000000E+02  0.51100000000E-03 0. -1.
         11   -1    0    0    0    0 -0.00000000000E+00 -0.00000000000E+00 -0.45593999997E+02  0.45594000000E+02  0.51100000000E-03 0.  1.
         23    2    1    2    0    0 -0.71054273576E-14  0.00000000000E+00 -0.71054273576E-14  0.91188000000E+02  0.91188000000E+02 0.  0.
    9900012    2    3    3    0    0 -0.22788057848E+02  0.83965538464E+01 -0.35969797574E+02  0.47787262282E+02  0.19999960048E+02 0.  0.
         12    1    3    3    0    0  0.22788057848E+02 -0.83965538464E+01  0.35969797574E+02  0.43400737718E+02  0.00000000000E+00 0. -1.
         11    1    4    4    0    0  0.38998642348E+00 -0.23031713309E+01  0.92490258806E+00  0.25123957986E+01  0.51100000000E-03 0. -1.
        -11    1    4    4    0    0 -0.10280676817E+02  0.80896919569E+01 -0.18518184115E+02  0.22672859876E+02  0.51100000000E-03 0.  1.
         12    1    4    4    0    0 -0.12897367454E+02  0.26100332205E+01 -0.18376516047E+02  0.22602006607E+02  0.00000000000E+00 0. -1.
</event>
<event>
 8    1  0.5331800E-011  0.9118800E+02  0.7816164E-02  0.1184000E+00
        -11   -1    0    0    0    0  0.00000000000E+00  0.00000000000E+00  0.45593999997E+02  0.45594000000E+02  0.51100000000E-03 0. -1.
         11   -1    0    0    0    0 -0.00000000000E+00 -0.00000000000E+00 -0.45593999997E+02  0.45594000000E+02  0.51100000000E-03 0.  1.
         23    2    1    2    0    0  0.88817841970E-15 -0.88817841970E-15  0.00000000000E+00  0.91188000000E+02  0.91188000000E+02 0.  0.
    9900012    2    3    3    0    0 -0.79039413619E+01  0.70000324812E+01 -0.42096919709E+02  0.47787269675E+02  0.19999993754E+02 0.  0.
         12    1    3    3    0    0  0.79039413619E+01 -0.70000324812E+01  0.42096919709E+02  0.43400730325E+02  0.00000000000E+00 0. -1.
         11    1    4    4    0    0 -0.11867403018E+00  0.50703468064E+01 -0.14170448260E+02  0.15050717737E+02  0.51100000000E-03 0. -1.
        -11    1    4    4    0    0  0.39954999573E+01  0.28732134415E+01 -0.54560312391E+01  0.73476290415E+01  0.51100000000E-03 0.  1.
        -12    1    4    4    0    0 -0.11780767289E+02 -0.94352776669E+00 -0.22470440210E+02  0.25388922896E+02  0.00000000000E+00 0.  1.
</event>
<event>
 8    1  0.5331800E-011  0.9118800E+02  0.7816164E-02  0.1184000E+00
        -11   -1    0    0    0    0  0.00000000000E+00  0.00000000000E+00  0.45593999997E+02  0.45594000000E+02  0.51100000000E-03 0. -1.
         11   -1    0    0    0    0 -0.00000000000E+00 -0.00000000000E+00 -0.45593999997E+02  0.45594000000E+02  0.51100000000E-03 0.  1.
         23    2    1    2    0    0  0.44408920985E-15  0.00000000000E+00  0.00000000000E+00  0.91188000000E+02  0.91188000000E+02 0.  0.
    9900012    2    3    3    0    0 -0.28773119219E+01  0.61906415852E+01 -0.42860475797E+02  0.47787270137E+02  0.19999995861E+02 0.  0.
         12    1    3    3    0    0  0.28773119219E+01 -0.61906415852E+01  0.42860475797E+02  0.43400729863E+02  0.00000000000E+00 0. -1.
         11    1    4    4    0    0  0.20918271801E+01  0.11932295197E+02 -0.27252499873E+02  0.29823718064E+02  0.51100000000E-03 0. -1.
        -11    1    4    4    0    0 -0.56027329904E+01 -0.39205262488E+01 -0.13309305017E+02  0.14963246417E+02  0.51100000000E-03 0.  1.
         12    1    4    4    0    0  0.63359388843E+00 -0.18211273629E+01 -0.22986709072E+01  0.30003056556E+01  0.00000000000E+00 0. -1.
</event>
<event>
 8    1  0.5331800E-011  0.9118800E+02  0.7816164E-02  0.1184000E+00
        -11   -1    0    0    0    0  0.00000000000E+00  0.00000000000E+00  0.45593999997E+02  0.45594000000E+02  0.51100000000E-03 0. -1.
         11   -1    0    0    0    0 -0.00000000000E+00 -0.00000000000E+00 -0.45593999997E+02  0.45594000000E+02  0.51100000000E-03 0.  1.
         23    2    1    2    0    0  0.00000000000E+00  0.00000000000E+00  0.00000000000E+00  0.91188000000E+02  0.91188000000E+02 0.  0.
    9900012    2    3    3    0    0 -0.20752224274E+02 -0.11044019594E+02 -0.36482846311E+02  0.47787271250E+02  0.20000000935E+02 0.  0.
         12    1    3    3    0    0  0.20752224274E+02  0.11044019594E+02  0.36482846311E+02  0.43400728750E+02  0.00000000000E+00 0. -1.
         11    1    4    4    0    0 -0.33703663803E+01 -0.74663375498E+01 -0.22624109488E+02  0.24061502371E+02  0.51100000000E-03 0. -1.
        -11    1    4    4    0    0 -0.14459771521E+02 -0.55851987168E+01 -0.12557782059E+02  0.19949369104E+02  0.51100000000E-03 0.  1.
         12    1    4    4    0    0 -0.29220863730E+01  0.20075166724E+01 -0.13009547639E+01  0.37763997748E+01  0.00000000000E+00 0. -1.
</event>
<event>
 8    1  0.5331800E-011  0.9118800E+02  0.7816164E-02  0.1184000E+00
        -11   -1    0    0    0    0  0.00000000000E+00  0.00000000000E+00  0.45593999997E+02  0.45594000000E+02  0.51100000000E-03 0. -1.
         11   -1    0    0    0    0 -0.00000000000E+00 -0.00000000000E+00 -0.45593999997E+02  0.45594000000E+02  0.51100000000E-03 0.  1.
         23    2    1    2    0    0  0.00000000000E+00  0.35527136788E-14  0.35527136788E-14  0.91188000000E+02  0.91188000000E+02 0.  0.
    9900012    2    3    3    0    0  0.16812357510E+02  0.25520810215E+02  0.30816494129E+02  0.47787269252E+02  0.19999991829E+02 0.  0.
        -12    1    3    3    0    0 -0.16812357510E+02 -0.25520810215E+02 -0.30816494129E+02  0.43400730748E+02  0.00000000000E+00 0.  1.
         11    1    4    4    0    0  0.11069220192E+02  0.17001061465E+02  0.64634241908E+01  0.21291772569E+02  0.51100000000E-03 0. -1.
        -11    1    4    4    0    0  0.31911024065E+01  0.56621139171E+01  0.17083665966E+02  0.18278246953E+02  0.51100000000E-03 0.  1.
         12    1    4    4    0    0  0.25520349110E+01  0.28576348331E+01  0.72694039722E+01  0.82172497308E+01  0.00000000000E+00 0. -1.
</event>
<event>
 8    1  0.5331800E-011  0.9118800E+02  0.7816164E-02  0.1184000E+00
        -11   -1    0    0    0    0  0.00000000000E+00  0.00000000000E+00  0.45593999997E+02  0.45594000000E+02  0.51100000000E-03 0. -1.
         11   -1    0    0    0    0 -0.00000000000E+00 -0.00000000000E+00 -0.45593999997E+02  0.45594000000E+02  0.51100000000E-03 0.  1.
         23    2    1    2    0    0 -0.35527136788E-14  0.17763568394E-14  0.00000000000E+00  0.91188000000E+02  0.91188000000E+02 0.  0.
    9900012    2    3    3    0    0 -0.30169203248E+02 -0.14403717340E+02  0.27676238703E+02  0.47787284723E+02  0.20000062365E+02 0.  0.
        -12    1    3    3    0    0  0.30169203248E+02  0.14403717340E+02 -0.27676238703E+02  0.43400715277E+02  0.00000000000E+00 0.  1.
         11    1    4    4    0    0 -0.10527969506E+02 -0.13378773948E+02  0.12737881747E+02  0.21262252137E+02  0.51100000000E-03 0. -1.
        -11    1    4    4    0    0 -0.17995854265E+02 -0.11320673771E+01  0.16360608673E+02  0.24347522742E+02  0.51100000000E-03 0.  1.
        -12    1    4    4    0    0 -0.16453794766E+01  0.10712398516E+00 -0.14222517172E+01  0.21775098433E+01  0.00000000000E+00 0.  1.
</event>
<event>
 8    1  0.5331800E-011  0.9118800E+02  0.7816164E-02  0.1184000E+00
        -11   -1    0    0    0    0  0.00000000000E+00  0.00000000000E+00  0.45593999997E+02  0.45594000000E+02  0.51100000000E-03 0. -1.
         11   -1    0    0    0    0 -0.00000000000E+00 -0.00000000000E+00 -0.45593999997E+02  0.45594000000E+02  0.51100000000E-03 0.  1.
         23    2    1    2    0    0 -0.17763568394E-14 -0.71054273576E-14 -0.35527136788E-14  0.91188000000E+02  0.91188000000E+02 0.  0.
    9900012    2    3    3    0    0 -0.31488563198E+01 -0.29442418161E+02 -0.31730932569E+02  0.47787269995E+02  0.19999995215E+02 0.  0.
         12    1    3    3    0    0  0.31488563198E+01  0.29442418161E+02  0.31730932569E+02  0.43400730005E+02  0.00000000000E+00 0. -1.
         11    1    4    4    0    0  0.32998512327E+01 -0.38101993398E+01 -0.36158915275E+01  0.62033304737E+01  0.51100000000E-03 0. -1.
        -11    1    4    4    0    0  0.29607161504E+01 -0.24738404385E+01 -0.99847524719E+01  0.10704251904E+02  0.51100000000E-03 0.  1.
        -12    1    4    4    0    0 -0.94094237028E+01 -0.23158378383E+02 -0.18130288569E+02  0.30879687617E+02  0.00000000000E+00 0.  1.
</event>
<event>
 8    1  0.5331800E-011  0.9118800E+02  0.7816164E-02  0.1184000E+00
        -11   -1    0    0    0    0  0.00000000000E+00  0.00000000000E+00  0.45593999997E+02  0.45594000000E+02  0.51100000000E-03 0. -1.
         11   -1    0    0    0    0 -0.00000000000E+00 -0.00000000000E+00 -0.45593999997E+02  0.45594000000E+02  0.51100000000E-03 0.  1.
         23    2    1    2    0    0  0.00000000000E+00  0.00000000000E+00  0.00000000000E+00  0.91188000000E+02  0.91188000000E+02 0.  0.
    9900012    2    3    3    0    0  0.39607714894E+01 -0.28950079079E+02  0.32090946547E+02  0.47787266829E+02  0.19999980781E+02 0.  0.
        -12    1    3    3    0    0 -0.39607714894E+01  0.28950079079E+02 -0.32090946547E+02  0.43400733171E+02  0.00000000000E+00 0.  1.
         11    1    4    4    0    0 -0.92150368870E+00 -0.18632290359E+02  0.14917868583E+02  0.23886276738E+02  0.51100000000E-03 0. -1.
        -11    1    4    4    0    0  0.17471074234E+01  0.26246894908E+01  0.21019464907E+01  0.37894008211E+01  0.51100000000E-03 0.  1.
        -12    1    4    4    0    0  0.31351677547E+01 -0.12942478210E+02  0.15071131474E+02  0.20111589270E+02  0.00000000000E+00 0.  1.
</event>
<event>
 8    1  0.5331800E-011  0.9118800E+02  0.7816164E-02  0.1184000E+00
        -11   -1    0    0    0    0  0.00000000000E+00  0.00000000000E+00  0.45593999997E+02  0.45594000000E+02  0.51100000000E-03 0. -1.
         11   -1    0    0    0    0 -0.00000000000E+00 -0.00000000000E+00 -0.45593999997E+02  0.45594000000E+02  0.51100000000E-03 0.  1.
         23    2    1    2    0    0  0.00000000000E+00  0.00000000000E+00  0.00000000000E+00  0.91188000000E+02  0.91188000000E+02 0.  0.
    9900012    2    3    3    0    0 -0.12796152038E+02  0.40211724256E+01  0.41276045409E+02  0.47787271213E+02  0.20000000769E+02 0.  0.
        -12    1    3    3    0    0  0.12796152038E+02 -0.40211724256E+01 -0.41276045409E+02  0.43400728787E+02  0.00000000000E+00 0.  1.
         11    1    4    4    0    0 -0.10375549613E+02 -0.10138048259E+01  0.11964491996E+02  0.15869117775E+02  0.51100000000E-03 0. -1.
        -11    1    4    4    0    0  0.55017290836E+00  0.82355161586E+01  0.18480729134E+02  0.20240152326E+02  0.51100000000E-03 0.  1.
        -12    1    4    4    0    0 -0.29707753331E+01 -0.32005389071E+01  0.10830824280E+02  0.11678001111E+02  0.00000000000E+00 0.  1.
</event>
<event>
 8    1  0.5331800E-011  0.9118800E+02  0.7816164E-02  0.1184000E+00
        -11   -1    0    0    0    0  0.00000000000E+00  0.00000000000E+00  0.45593999997E+02  0.45594000000E+02  0.51100000000E-03 0. -1.
         11   -1    0    0    0    0 -0.00000000000E+00 -0.00000000000E+00 -0.45593999997E+02  0.45594000000E+02  0.51100000000E-03 0.  1.
         23    2    1    2    0    0 -0.88817841970E-15 -0.35527136788E-14  0.00000000000E+00  0.91188000000E+02  0.91188000000E+02 0.  0.
    9900012    2    3    3    0    0 -0.50802728037E+01 -0.25515182367E+02  0.34738873046E+02  0.47787274160E+02  0.20000014204E+02 0.  0.
        -12    1    3    3    0    0  0.50802728037E+01  0.25515182367E+02 -0.34738873046E+02  0.43400725840E+02  0.00000000000E+00 0.  1.
         11    1    4    4    0    0  0.34271065032E+01 -0.16950598850E+02  0.10720785948E+02  0.20347066421E+02  0.51100000000E-03 0. -1.
        -11    1    4    4    0    0  0.89450977572E-01  0.60560907873E+00  0.19447489842E+01  0.20388263061E+01  0.51100000000E-03 0.  1.
         12    1    4    4    0    0 -0.85968302844E+01 -0.91701925958E+01  0.22073338114E+02  0.25401381432E+02  0.00000000000E+00 0. -1.
</event>
<event>
 8    1  0.5331800E-011  0.9118800E+02  0.7816164E-02  0.1184000E+00
        -11   -1    0    0    0    0  0.00000000000E+00  0.00000000000E+00  0.45593999997E+02  0.45594000000E+02  0.51100000000E-03 0.  1.
         11   -1    0    0    0    0 -0.00000000000E+00 -0.00000000000E+00 -0.45593999997E+02  0.45594000000E+02  0.51100000000E-03 0. -1.
         23    2    1    2    0    0 -0.35527136788E-14  0.71054273576E-14  0.17763568394E-14  0.91188000000E+02  0.91188000000E+02 0.  0.
    9900012    2    3    3    0    0  0.17437789471E+02 -0.38530191545E+02 -0.97453072732E+01  0.47787272172E+02  0.20000005140E+02 0.  0.
        -12    1    3    3    0    0 -0.17437789471E+02  0.38530191545E+02  0.97453072732E+01  0.43400727828E+02  0.00000000000E+00 0.  1.
         11    1    4    4    0    0  0.34496905836E+01  0.10669449617E+01 -0.24852326773E+00  0.36194613894E+01  0.51100000000E-03 0. -1.
        -11    1    4    4    0    0  0.59448494896E+01 -0.17830229565E+02 -0.92801171999E+01  0.20961366781E+02  0.51100000000E-03 0.  1.
         12    1    4    4    0    0  0.80432493982E+01 -0.21766906942E+02 -0.21666680557E+00  0.23206444002E+02  0.00000000000E+00 0. -1.
</event>
<event>
 8    1  0.5331800E-011  0.9118800E+02  0.7816164E-02  0.1184000E+00
        -11   -1    0    0    0    0  0.00000000000E+00  0.00000000000E+00  0.45593999997E+02  0.45594000000E+02  0.51100000000E-03 0. -1.
         11   -1    0    0    0    0 -0.00000000000E+00 -0.00000000000E+00 -0.45593999997E+02  0.45594000000E+02  0.51100000000E-03 0.  1.
         23    2    1    2    0    0  0.17763568394E-14  0.00000000000E+00 -0.35527136788E-14  0.91188000000E+02  0.91188000000E+02 0.  0.
    9900012    2    3    3    0    0  0.11642014274E+02  0.35156487746E+02 -0.22629808268E+02  0.47787270176E+02  0.19999996040E+02 0.  0.
         12    1    3    3    0    0 -0.11642014274E+02 -0.35156487746E+02  0.22629808268E+02  0.43400729824E+02  0.00000000000E+00 0. -1.
         11    1    4    4    0    0  0.38277605419E+00  0.23253256944E+02 -0.13736816501E+02  0.27010379558E+02  0.51100000000E-03 0. -1.
        -11    1    4    4    0    0  0.11965570845E+02  0.12424518798E+02 -0.68618775714E+01  0.18564183717E+02  0.51100000000E-03 0.  1.
        -12    1    4    4    0    0 -0.70633262495E+00 -0.52128799631E+00 -0.20311141959E+01  0.22127069008E+01  0.00000000000E+00 0.  1.
</event>
<event>
 8    1  0.5331800E-011  0.9118800E+02  0.7816164E-02  0.1184000E+00
        -11   -1    0    0    0    0  0.00000000000E+00  0.00000000000E+00  0.45593999997E+02  0.45594000000E+02  0.51100000000E-03 0. -1.
         11   -1    0    0    0    0 -0.00000000000E+00 -0.00000000000E+00 -0.45593999997E+02  0.45594000000E+02  0.51100000000E-03 0.  1.
         23    2    1    2    0    0 -0.20816681712E-16 -0.71054273576E-14  0.00000000000E+00  0.91188000000E+02  0.91188000000E+02 0.  0.
    9900012    2    3    3    0    0  0.52841083703E-01  0.34702344183E+02 -0.26064665901E+02  0.47787282351E+02  0.20000051549E+02 0.  0.
         12    1    3    3    0    0 -0.52841083703E-01 -0.34702344183E+02  0.26064665901E+02  0.43400717649E+02  0.00000000000E+00 0. -1.
         11    1    4    4    0    0  0.10090989019E+01  0.32529017129E+02 -0.17268232889E+02  0.36842191891E+02  0.51100000000E-03 0. -1.
        -11    1    4    4    0    0  0.35997130538E+00 -0.65001036171E-01 -0.82917985395E+01  0.82998631167E+01  0.51100000000E-03 0.  1.
        -12    1    4    4    0    0 -0.13162291236E+01  0.22383280897E+01 -0.50463447254E+00  0.26452273426E+01  0.00000000000E+00 0.  1.
</event>
<event>
 8    1  0.5331800E-011  0.9118800E+02  0.7816164E-02  0.1184000E+00
        -11   -1    0    0    0    0  0.00000000000E+00  0.00000000000E+00  0.45593999997E+02  0.45594000000E+02  0.51100000000E-03 0. -1.
         11   -1    0    0    0    0 -0.00000000000E+00 -0.00000000000E+00 -0.45593999997E+02  0.45594000000E+02  0.51100000000E-03 0.  1.
         23    2    1    2    0    0  0.00000000000E+00 -0.35527136788E-14 -0.35527136788E-14  0.91188000000E+02  0.91188000000E+02 0.  0.
    9900012    2    3    3    0    0  0.21880134194E+02 -0.19710691107E+02 -0.31880589717E+02  0.47787267092E+02  0.19999981981E+02 0.  0.
         12    1    3    3    0    0 -0.21880134194E+02  0.19710691107E+02  0.31880589717E+02  0.43400732908E+02  0.00000000000E+00 0. -1.
         11    1    4    4    0    0  0.57335370155E-01  0.10057745915E+01 -0.44992956628E+00  0.11033162508E+01  0.51100000000E-03 0. -1.
        -11    1    4    4    0    0 -0.16919916306E+01 -0.69905972492E+01 -0.80516010648E+01  0.10796275540E+02  0.51100000000E-03 0.  1.
        -12    1    4    4    0    0  0.23514790454E+02 -0.13725868449E+02 -0.23379059086E+02  0.35887675301E+02  0.00000000000E+00 0.  1.
</event>
<event>
 8    1 -0.5331800E-011  0.9118800E+02  0.7816164E-02  0.1184000E+00
        -11   -1    0    0    0    0  0.00000000000E+00  0.00000000000E+00  0.45593999997E+02  0.45594000000E+02  0.51100000000E-03 0. -1.
         11   -1    0    0    0    0 -0.00000000000E+00 -0.00000000000E+00 -0.45593999997E+02  0.45594000000E+02  0.51100000000E-03 0.  1.
         23    2    1    2    0    0 -0.11102230246E-15  0.00000000000E+00  0.71054273576E-14  0.91188000000E+02  0.91188000000E+02 0.  0.
    9900012    2    3    3    0    0 -0.42758898552E+00  0.88964019318E+01 -0.42476987799E+02  0.47787270833E+02  0.19999999038E+02 0.  0.
         12    1    3    3    0    0  0.42758898552E+00 -0.88964019318E+01  0.42476987799E+02  0.43400729167E+02  0.00000000000E+00 0. -1.
         11    1    4    4    0    0  0.34473160315E+01  0.64907858171E-01 -0.14990992671E+02  0.15382394559E+02  0.51100000000E-03 0. -1.
        -11    1    4    4    0    0  0.20326781828E+01  0.15597350891E+01  0.73814433007E+00  0.26663479623E+01  0.51100000000E-03 0.  1.
        -12    1    4    4    0    0 -0.59075831998E+01  0.72717589845E+01 -0.28224139459E+02  0.29738528312E+02  0.00000000000E+00 0.  1.
</event>
<event>
 8    1  0.5331800E-011  0.9118800E+02  0.7816164E-02  0.1184000E+00
        -11   -1    0    0    0    0  0.00000000000E+00  0.00000000000E+00  0.45593999997E+02  0.45594000000E+02  0.51100000000E-03 0. -1.
         11   -1    0    0    0    0 -0.00000000000E+00 -0.00000000000E+00 -0.45593999997E+02  0.45594000000E+02  0.51100000000E-03 0.  1.
         23    2    1    2    0    0  0.00000000000E+00  0.17763568394E-14  0.00000000000E+00  0.91188000000E+02  0.91188000000E+02 0.  0.
    9900012    2    3    3    0    0 -0.41387847050E+02  0.13033614645E+02 -0.89037196625E+00  0.47787288526E+02  0.20000079708E+02 0.  0.
         12    1    3    3    0    0  0.41387847050E+02 -0.13033614645E+02  0.89037196625E+00  0.43400711474E+02  0.00000000000E+00 0. -1.
         11    1    4    4    0    0 -0.14573944518E+01  0.44104945063E+01  0.52692947702E+00  0.46748385334E+01  0.51100000000E-03 0. -1.
        -11    1    4    4    0    0 -0.21293906551E+02  0.57563408672E+00 -0.63383155649E+01  0.22224672220E+02  0.51100000000E-03 0.  1.
        -12    1    4    4    0    0 -0.18636546047E+02  0.80474860518E+01  0.49210141216E+01  0.20887777773E+02  0.00000000000E+00 0.  1.
</event>
<event>
 8    1  0.5331800E-011  0.9118800E+02  0.7816164E-02  0.1184000E+00
        -11   -1    0    0    0    0  0.00000000000E+00  0.00000000000E+00  0.45593999997E+02  0.45594000000E+02  0.51100000000E-03 0. -1.
         11   -1    0    0    0    0 -0.00000000000E+00 -0.00000000000E+00 -0.45593999997E+02  0.45594000000E+02  0.51100000000E-03 0.  1.
         23    2    1    2    0    0  0.00000000000E+00 -0.55511151231E-15  0.00000000000E+00  0.91188000000E+02  0.91188000000E+02 0.  0.
    9900012    2    3    3    0    0 -0.12431332499E+02 -0.75764661600E+00  0.41575368633E+02  0.47787270362E+02  0.19999996890E+02 0.  0.
        -12    1    3    3    0    0  0.12431332499E+02  0.75764661600E+00 -0.41575368633E+02  0.43400729638E+02  0.00000000000E+00 0.  1.
         11    1    4    4    0    0 -0.22247515886E+01  0.47324759056E+00  0.16131718299E+01  0.27885133183E+01  0.51100000000E-03 0.  1.
        -11    1    4    4    0    0  0.70340481295E+00  0.68628586471E+01  0.10612705464E+02  0.12657927345E+02  0.51100000000E-03 0. -1.
        -12    1    4    4    0    0 -0.10909985724E+02 -0.80937528536E+01  0.29349491339E+02  0.32340829699E+02  0.00000000000E+00 0.  1.
</event>
<event>
 8    1  0.5331800E-011  0.9118800E+02  0.7816164E-02  0.1184000E+00
        -11   -1    0    0    0    0  0.00000000000E+00  0.00000000000E+00  0.45593999997E+02  0.45594000000E+02  0.51100000000E-03 0. -1.
         11   -1    0    0    0    0 -0.00000000000E+00 -0.00000000000E+00 -0.45593999997E+02  0.45594000000E+02  0.51100000000E-03 0.  1.
         23    2    1    2    0    0  0.35527136788E-14  0.35527136788E-14  0.00000000000E+00  0.91188000000E+02  0.91188000000E+02 0.  0.
    9900012    2    3    3    0    0  0.18925877961E+02  0.20471572745E+02 -0.33261824143E+02  0.47787273133E+02  0.20000009523E+02 0.  0.
         12    1    3    3    0    0 -0.18925877961E+02 -0.20471572745E+02  0.33261824143E+02  0.43400726867E+02  0.00000000000E+00 0. -1.
         11    1    4    4    0    0  0.36116623601E+01  0.72652488903E+01 -0.42688739234E+01  0.91679458591E+01  0.51100000000E-03 0. -1.
        -11    1    4    4    0    0  0.16819224426E+02  0.96231338776E+01 -0.16226123878E+02  0.25274060067E+02  0.51100000000E-03 0.  1.
        -12    1    4    4    0    0 -0.15050088255E+01  0.35831899773E+01 -0.12766826342E+02  0.13345267207E+02  0.00000000000E+00 0.  1.
</event>
<event>
 8    1  0.5331800E-011  0.9118800E+02  0.7816164E-02  0.1184000E+00
        -11   -1    0    0    0    0  0.00000000000E+00  0.00000000000E+00  0.45593999997E+02  0.45594000000E+02  0.51100000000E-03 0. -1.
         11   -1    0    0    0    0 -0.00000000000E+00 -0.00000000000E+00 -0.45593999997E+02  0.45594000000E+02  0.51100000000E-03 0.  1.
         23    2    1    2    0    0  0.00000000000E+00 -0.88817841970E-15  0.00000000000E+00  0.91188000000E+02  0.91188000000E+02 0.  0.
    9900012    2    3    3    0    0  0.56034179707E+01 -0.79758825676E+01 -0.42291970662E+02  0.47787265235E+02  0.19999973513E+02 0.  0.
         12    1    3    3    0    0 -0.56034179707E+01  0.79758825676E+01  0.42291970662E+02  0.43400734765E+02  0.00000000000E+00 0. -1.
         11    1    4    4    0    0 -0.20552017073E+01 -0.43556308181E+01 -0.29581824273E+00  0.48252339400E+01  0.51100000000E-03 0. -1.
        -11    1    4    4    0    0  0.39727838784E+01 -0.20886344001E+00 -0.21007374024E+02  0.21380748334E+02  0.51100000000E-03 0.  1.
         12    1    4    4    0    0  0.36858357997E+01 -0.34113883095E+01 -0.20988778395E+02  0.21581282961E+02  0.00000000000E+00 0. -1.
</event>
<event>
 8    1  0.5331800E-011  0.9118800E+02  0.7816164E-02  0.1184000E+00
        -11   -1    0    0    0    0  0.00000000000E+00  0.00000000000E+00  0.45593999997E+02  0.45594000000E+02  0.51100000000E-03 0. -1.
         11   -1    0    0    0    0 -0.00000000000E+00 -0.00000000000E+00 -0.45593999997E+02  0.45594000000E+02  0.51100000000E-03 0.  1.
         23    2    1    2    0    0  0.00000000000E+00 -0.44408920985E-15  0.00000000000E+00  0.91188000000E+02  0.91188000000E+02 0.  0.
    9900012    2    3    3    0    0  0.34491407731E+02  0.18227460256E+01 -0.26280100426E+02  0.47787270873E+02  0.19999999219E+02 0.  0.
         12    1    3    3    0    0 -0.34491407731E+02 -0.18227460256E+01  0.26280100426E+02  0.43400729127E+02  0.00000000000E+00 0. -1.
         11    1    4    4    0    0  0.84766216272E+01  0.55861522333E+01  0.10529340811E+00  0.10152305056E+02  0.51100000000E-03 0. -1.
        -11    1    4    4    0    0  0.11884577925E+02  0.24163634154E+00 -0.14441986872E+02  0.18704880797E+02  0.51100000000E-03 0.  1.
         12    1    4    4    0    0  0.14130208179E+02 -0.40050425492E+01 -0.11943406962E+02  0.18930085020E+02  0.00000000000E+00 0. -1.
</event>
<event>
 8    1  0.5331800E-011  0.9118800E+02  0.7816164E-02  0.1184000E+00
        -11   -1    0    0    0    0  0.00000000000E+00  0.00000000000E+00  0.45593999997E+02  0.45594000000E+02  0.51100000000E-03 0.  1.
         11   -1    0    0    0    0 -0.00000000000E+00 -0.00000000000E+00 -0.45593999997E+02  0.45594000000E+02  0.51100000000E-03 0. -1.
         23    2    1    2    0    0  0.00000000000E+00  0.00000000000E+00  0.00000000000E+00  0.91188000000E+02  0.91188000000E+02 0.  0.
    9900012    2    3    3    0    0 -0.31452836594E+02 -0.62470532102E+01  0.29245795577E+02  0.47787272327E+02  0.20000005847E+02 0.  0.
        -12    1    3    3    0    0  0.31452836594E+02  0.62470532102E+01 -0.29245795577E+02  0.43400727673E+02  0.00000000000E+00 0.  1.
         11    1    4    4    0    0 -0.10635736884E+02 -0.63495855387E+01  0.43237827732E+01  0.13119879318E+02  0.51100000000E-03 0. -1.
        -11    1    4    4    0    0 -0.22220574446E+02  0.92279804220E-01  0.24736915034E+02  0.33251727923E+02  0.51100000000E-03 0.  1.
        -12    1    4    4    0    0  0.14034747361E+01  0.10252524234E-01  0.18509777052E+00  0.14156650853E+01  0.00000000000E+00 0.  1.
</event>
<event>
 8    1  0.5331800E-011  0.9118800E+02  0.7816164E-02  0.1184000E+00
        -11   -1    0    0    0    0  0.00000000000E+00  0.00000000000E+00  0.45593999997E+02  0.45594000000E+02  0.51100000000E-03 0. -1.
         11   -1    0    0    0    0 -0.00000000000E+00 -0.00000000000E+00 -0.45593999997E+02  0.45594000000E+02  0.51100000000E-03 0.  1.
         23    2    1    2    0    0  0.00000000000E+00  0.00000000000E+00  0.00000000000E+00  0.91188000000E+02  0.91188000000E+02 0.  0.
    9900012    2    3    3    0    0 -0.19303700754E+02  0.12694816833E+02  0.36740063175E+02  0.47787268677E+02  0.19999989206E+02 0.  0.
        -12    1    3    3    0    0  0.19303700754E+02 -0.12694816833E+02 -0.36740063175E+02  0.43400731323E+02  0.00000000000E+00 0.  1.
         11    1    4    4    0    0 -0.13607507578E+02  0.13494024770E+02  0.25559498634E+02  0.31945906430E+02  0.51100000000E-03 0. -1.
        -11    1    4    4    0    0 -0.15091863299E+01 -0.38654754044E+01  0.95320396057E+01  0.10396120564E+02  0.51100000000E-03 0.  1.
        -12    1    4    4    0    0 -0.41870068467E+01  0.30662674676E+01  0.16485249354E+01  0.54452416824E+01  0.00000000000E+00 0.  1.
</event>
<event>
 8    1  0.5331800E-011  0.9118800E+02  0.7816164E-02  0.1184000E+00
        -11   -1    0    0    0    0  0.00000000000E+00  0.00000000000E+00  0.45593999997E+02  0.45594000000E+02  0.51100000000E-03 0.  1.
         11   -1    0    0    0    0 -0.00000000000E+00 -0.00000000000E+00 -0.45593999997E+02  0.45594000000E+02  0.51100000000E-03 0. -1.
         23    2    1    2    0    0  0.00000000000E+00  0.00000000000E+00  0.00000000000E+00  0.91188000000E+02  0.91188000000E+02 0.  0.
    9900012    2    3    3    0    0  0.32603795142E+02  0.25205790927E+02 -0.13612054760E+02  0.47787223639E+02  0.19999783858E+02 0.  0.
        -12    1    3    3    0    0 -0.32603795142E+02 -0.25205790927E+02  0.13612054760E+02  0.43400776361E+02  0.00000000000E+00 0.  1.
         11    1    4    4    0    0  0.16442684063E+02  0.21729698778E+02 -0.10091315958E+02  0.29058154212E+02  0.51100000000E-03 0. -1.
        -11    1    4    4    0    0  0.10082362765E+02  0.55141303219E+01 -0.43015191377E+01  0.12270400942E+02  0.51100000000E-03 0.  1.
         12    1    4    4    0    0  0.60787483148E+01 -0.20380381724E+01  0.78078033544E+00  0.64586684850E+01  0.00000000000E+00 0. -1.
</event>
<event>
 8    1  0.5331800E-011  0.9118800E+02  0.7816164E-02  0.1184000E+00
        -11   -1    0    0    0    0  0.00000000000E+00  0.00000000000E+00  0.45593999997E+02  0.45594000000E+02  0.51100000000E-03 0.  1.
         11   -1    0    0    0    0 -0.00000000000E+00 -0.00000000000E+00 -0.45593999997E+02  0.45594000000E+02  0.51100000000E-03 0. -1.
         23    2    1    2    0    0  0.00000000000E+00  0.00000000000E+00 -0.35527136788E-14  0.91188000000E+02  0.91188000000E+02 0.  0.
    9900012    2    3    3    0    0 -0.32388988832E+02 -0.24831082120E+02 -0.14764612940E+02  0.47787273830E+02  0.20000012700E+02 0.  0.
         12    1    3    3    0    0  0.32388988832E+02  0.24831082120E+02  0.14764612940E+02  0.43400726170E+02  0.00000000000E+00 0. -1.
         11    1    4    4    0    0 -0.64083295215E+01 -0.14772457553E+02 -0.93219068610E+01  0.18606185456E+02  0.51100000000E-03 0. -1.
        -11    1    4    4    0    0 -0.16612182832E+02 -0.43615804728E+01 -0.60239605975E+01  0.18200991847E+02  0.51100000000E-03 0.  1.
        -12    1    4    4    0    0 -0.93684764781E+01 -0.56970440939E+01  0.58125451798E+00  0.10980096527E+02  0.00000000000E+00 0.  1.
</event>
<event>
 8    1  0.5331800E-011  0.9118800E+02  0.7816164E-02  0.1184000E+00
        -11   -1    0    0    0    0  0.00000000000E+00  0.00000000000E+00  0.45593999997E+02  0.45594000000E+02  0.51100000000E-03 0. -1.
         11   -1    0    0    0    0 -0.00000000000E+00 -0.00000000000E+00 -0.45593999997E+02  0.45594000000E+02  0.51100000000E-03 0.  1.
         23    2    1    2    0    0  0.71054273576E-14  0.00000000000E+00  0.00000000000E+00  0.91188000000E+02  0.91188000000E+02 0.  0.
    9900012    2    3    3    0    0 -0.35558648469E+02 -0.21551368732E+02 -0.12439640731E+02  0.47787266864E+02  0.19999980941E+02 0.  0.
         12    1    3    3    0    0  0.35558648469E+02  0.21551368732E+02  0.12439640731E+02  0.43400733136E+02  0.00000000000E+00 0. -1.
         11    1    4    4    0    0 -0.80250483174E+00  0.10470730645E+01  0.13969071813E+01  0.19213864634E+01  0.51100000000E-03 0. -1.
        -11    1    4    4    0    0 -0.19252198260E+02 -0.20344862466E+02 -0.77945134471E+01  0.29074301484E+02  0.51100000000E-03 0.  1.
        -12    1    4    4    0    0 -0.15503945377E+02 -0.22535793309E+01 -0.60420344653E+01  0.16791578917E+02  0.00000000000E+00 0.  1.
</event>
<event>
 8    1  0.5331800E-011  0.9118800E+02  0.7816164E-02  0.1184000E+00
        -11   -1    0    0    0    0  0.00000000000E+00  0.00000000000E+00  0.45593999997E+02  0.45594000000E+02  0.51100000000E-03 0. -1.
         11   -1    0    0    0    0 -0.00000000000E+00 -0.00000000000E+00 -0.45593999997E+02  0.45594000000E+02  0.51100000000E-03 0.  1.
         23    2    1    2    0    0  0.00000000000E+00 -0.88817841970E-15 -0.44408920985E-15  0.91188000000E+02  0.91188000000E+02 0.  0.
    9900012    2    3    3    0    0  0.42711658455E+02  0.74369426793E+01  0.20072751858E+01  0.47787273761E+02  0.20000012386E+02 0.  0.
        -12    1    3    3    0    0 -0.42711658455E+02 -0.74369426793E+01 -0.20072751858E+01  0.43400726239E+02  0.00000000000E+00 0.  1.
         11    1    4    4    0    0  0.10017652072E+02  0.23135139808E+01 -0.14080111400E+01  0.10377292306E+02  0.51100000000E-03 0. -1.
        -11    1    4    4    0    0  0.16704751058E+02 -0.36784645438E+01 -0.42321785132E+01  0.17620758909E+02  0.51100000000E-03 0.  1.
        -12    1    4    4    0    0  0.15989255325E+02  0.88018932423E+01  0.76474648391E+01  0.19789222546E+02  0.00000000000E+00 0.  1.
</event>
<event>
 8    1  0.5331800E-011  0.9118800E+02  0.7816164E-02  0.1184000E+00
        -11   -1    0    0    0    0  0.00000000000E+00  0.00000000000E+00  0.45593999997E+02  0.45594000000E+02  0.51100000000E-03 0. -1.
         11   -1    0    0    0    0 -0.00000000000E+00 -0.00000000000E+00 -0.45593999997E+02  0.45594000000E+02  0.51100000000E-03 0.  1.
         23    2    1    2    0    0  0.00000000000E+00  0.00000000000E+00  0.00000000000E+00  0.91188000000E+02  0.91188000000E+02 0.  0.
    9900012    2    3    3    0    0 -0.84393698588E+01 -0.22266925320E+02 -0.36284762448E+02  0.47787275205E+02  0.20000018968E+02 0.  0.
         12    1    3    3    0    0  0.84393698588E+01  0.22266925320E+02  0.36284762448E+02  0.43400724795E+02  0.00000000000E+00 0. -1.
         11    1    4    4    0    0 -0.52969891991E+01 -0.92197436472E+01 -0.12104109050E+02  0.16111214220E+02  0.51100000000E-03 0. -1.
        -11    1    4    4    0    0  0.53181592481E+01 -0.10151115506E+02 -0.12379963911E+02  0.16869839078E+02  0.51100000000E-03 0.  1.
        -12    1    4    4    0    0 -0.84605399078E+01 -0.28960661663E+01 -0.11800689488E+02  0.14806221907E+02  0.00000000000E+00 0.  1.
</event>
<event>
 8    1  0.5331800E-011  0.9118800E+02  0.7816164E-02  0.1184000E+00
        -11   -1    0    0    0    0  0.00000000000E+00  0.00000000000E+00  0.45593999997E+02  0.45594000000E+02  0.51100000000E-03 0.  1.
         11   -1    0    0    0    0 -0.00000000000E+00 -0.00000000000E+00 -0.45593999997E+02  0.45594000000E+02  0.51100000000E-03 0. -1.
         23    2    1    2    0    0 -0.35527136788E-14 -0.35527136788E-14  0.17763568394E-14  0.91188000000E+02  0.91188000000E+02 0.  0.
    9900012    2    3    3    0    0  0.27741848828E+02  0.31026399487E+02 -0.12303470743E+02  0.47787273809E+02  0.20000012606E+02 0.  0.
         12    1    3    3    0    0 -0.27741848828E+02 -0.31026399487E+02  0.12303470743E+02  0.43400726191E+02  0.00000000000E+00 0. -1.
         11    1    4    4    0    0  0.18018778492E+02  0.15303687207E+02 -0.90228645489E+01  0.25303978055E+02  0.51100000000E-03 0. -1.
        -11    1    4    4    0    0 -0.13910179167E+01  0.93030305696E+01 -0.12677567741E+01  0.94914970433E+01  0.51100000000E-03 0.  1.
        -12    1    4    4    0    0  0.11114088253E+02  0.64196817109E+01 -0.20128494205E+01  0.12991798711E+02  0.00000000000E+00 0.  1.
</event>
<event>
 8    1  0.5331800E-011  0.9118800E+02  0.7816164E-02  0.1184000E+00
        -11   -1    0    0    0    0  0.00000000000E+00  0.00000000000E+00  0.45593999997E+02  0.45594000000E+02  0.51100000000E-03 0. -1.
         11   -1    0    0    0    0 -0.00000000000E+00 -0.00000000000E+00 -0.45593999997E+02  0.45594000000E+02  0.51100000000E-03 0.  1.
         23    2    1    2    0    0  0.00000000000E+00  0.00000000000E+00  0.00000000000E+00  0.91188000000E+02  0.91188000000E+02 0.  0.
    9900012    2    3    3    0    0 -0.37803861096E+02  0.14774638660E+02 -0.15368837631E+02  0.47787273837E+02  0.20000012733E+02 0.  0.
         12    1    3    3    0    0  0.37803861096E+02 -0.14774638660E+02  0.15368837631E+02  0.43400726163E+02  0.00000000000E+00 0. -1.
         11    1    4    4    0    0 -0.85470826863E+01 -0.10087910032E+01 -0.64451313064E+01  0.10752209055E+02  0.51100000000E-03 0. -1.
        -11    1    4    4    0    0 -0.60396612132E+01  0.10267579888E+02 -0.46734991802E+01  0.12796182992E+02  0.51100000000E-03 0.  1.
        -12    1    4    4    0    0 -0.23217117197E+02  0.55158497751E+01 -0.42502071447E+01  0.24238881790E+02  0.00000000000E+00 0.  1.
</event>
<event>
 8    1  0.5331800E-011  0.9118800E+02  0.7816164E-02  0.1184000E+00
        -11   -1    0    0    0    0  0.00000000000E+00  0.00000000000E+00  0.45593999997E+02  0.45594000000E+02  0.51100000000E-03 0. -1.
         11   -1    0    0    0    0 -0.00000000000E+00 -0.00000000000E+00 -0.45593999997E+02  0.45594000000E+02  0.51100000000E-03 0.  1.
         23    2    1    2    0    0 -0.35527136788E-14  0.00000000000E+00 -0.35527136788E-14  0.91188000000E+02  0.91188000000E+02 0.  0.
    9900012    2    3    3    0    0  0.27767611640E+02  0.10303823798E+02  0.31724033075E+02  0.47787270564E+02  0.19999997809E+02 0.  0.
        -12    1    3    3    0    0 -0.27767611640E+02 -0.10303823798E+02 -0.31724033075E+02  0.43400729436E+02  0.00000000000E+00 0.  1.
         11    1    4    4    0    0  0.16496515972E+02  0.54102142385E+00  0.22229798936E+02  0.27687392517E+02  0.51100000000E-03 0. -1.
        -11    1    4    4    0    0  0.10006996255E+01  0.62676860422E+01  0.12378360470E+01  0.64666472306E+01  0.51100000000E-03 0.  1.
        -12    1    4    4    0    0  0.10270396043E+02  0.34951163319E+01  0.82563980921E+01  0.13633230817E+02  0.00000000000E+00 0.  1.
</event>
<event>
 8    1  0.5331800E-011  0.9118800E+02  0.7816164E-02  0.1184000E+00
        -11   -1    0    0    0    0  0.00000000000E+00  0.00000000000E+00  0.45593999997E+02  0.45594000000E+02  0.51100000000E-03 0. -1.
         11   -1    0    0    0    0 -0.00000000000E+00 -0.00000000000E+00 -0.45593999997E+02  0.45594000000E+02  0.51100000000E-03 0.  1.
         23    2    1    2    0    0 -0.35527136788E-14  0.00000000000E+00  0.00000000000E+00  0.91188000000E+02  0.91188000000E+02 0.  0.
    9900012    2    3    3    0    0 -0.15818034757E+02 -0.22517891707E+02  0.33561230186E+02  0.47787287540E+02  0.20000075208E+02 0.  0.
        -12    1    3    3    0    0  0.15818034757E+02  0.22517891707E+02 -0.33561230186E+02  0.43400712460E+02  0.00000000000E+00 0.  1.
         11    1    4    4    0    0 -0.31050914994E+00  0.32893130334E+01  0.16931844722E+01  0.37125287988E+01  0.51100000000E-03 0. -1.
        -11    1    4    4    0    0 -0.10209532327E+02 -0.18570115120E+02  0.19509438183E+02  0.28804546592E+02  0.51100000000E-03 0.  1.
         12    1    4    4    0    0 -0.52979932809E+01 -0.72370896206E+01  0.12358607530E+02  0.15270212149E+02  0.00000000000E+00 0. -1.
</event>
<event>
 8    1  0.5331800E-011  0.9118800E+02  0.7816164E-02  0.1184000E+00
        -11   -1    0    0    0    0  0.00000000000E+00  0.00000000000E+00  0.45593999997E+02  0.45594000000E+02  0.51100000000E-03 0. -1.
         11   -1    0    0    0    0 -0.00000000000E+00 -0.00000000000E+00 -0.45593999997E+02  0.45594000000E+02  0.51100000000E-03 0.  1.
         23    2    1    2    0    0 -0.22204460493E-15  0.35527136788E-14  0.00000000000E+00  0.91188000000E+02  0.91188000000E+02 0.  0.
    9900012    2    3    3    0    0  0.17789657916E+01 -0.27887489162E+02  0.33207626612E+02  0.47787271478E+02  0.20000001976E+02 0.  0.
        -12    1    3    3    0    0 -0.17789657916E+01  0.27887489162E+02 -0.33207626612E+02  0.43400728522E+02  0.00000000000E+00 0.  1.
         11    1    4    4    0    0 -0.34955426457E+01 -0.16909886531E+02  0.10755148510E+02  0.20342966859E+02  0.51100000000E-03 0. -1.
        -11    1    4    4    0    0  0.23122821942E+01  0.14763542010E+01  0.60063227766E+01  0.66031950016E+01  0.51100000000E-03 0.  1.
        -12    1    4    4    0    0  0.29622262432E+01 -0.12453956832E+02  0.16446155326E+02  0.20841109617E+02  0.00000000000E+00 0.  1.
</event>
<event>
 8    1  0.5331800E-011  0.9118800E+02  0.7816164E-02  0.1184000E+00
        -11   -1    0    0    0    0  0.00000000000E+00  0.00000000000E+00  0.45593999997E+02  0.45594000000E+02  0.51100000000E-03 0. -1.
         11   -1    0    0    0    0 -0.00000000000E+00 -0.00000000000E+00 -0.45593999997E+02  0.45594000000E+02  0.51100000000E-03 0.  1.
         23    2    1    2    0    0  0.00000000000E+00 -0.35527136788E-14  0.00000000000E+00  0.91188000000E+02  0.91188000000E+02 0.  0.
    9900012    2    3    3    0    0 -0.18458443535E+01  0.26686050838E+02 -0.34177049316E+02  0.47787272464E+02  0.20000006471E+02 0.  0.
         12    1    3    3    0    0  0.18458443535E+01 -0.26686050838E+02  0.34177049316E+02  0.43400727536E+02  0.00000000000E+00 0. -1.
         11    1    4    4    0    0  0.52869581703E+01  0.33599306208E+01 -0.24403603624E+01  0.67228282315E+01  0.51100000000E-03 0. -1.
        -11    1    4    4    0    0 -0.17848615564E+01  0.37178919876E+00 -0.55080859744E+01  0.58019797782E+01  0.51100000000E-03 0.  1.
         12    1    4    4    0    0 -0.53479409674E+01  0.22954331019E+02 -0.26228602980E+02  0.35262464454E+02  0.00000000000E+00 0. -1.
</event>
<event>
 8    1  0.5331800E-011  0.9118800E+02  0.7816164E-02  0.1184000E+00
        -11   -1    0    0    0    0  0.00000000000E+00  0.00000000000E+00  0.45593999997E+02  0.45594000000E+02  0.51100000000E-03 0. -1.
         11   -1    0    0    0    0 -0.00000000000E+00 -0.00000000000E+00 -0.45593999997E+02  0.45594000000E+02  0.51100000000E-03 0.  1.
         23    2    1    2    0    0 -0.22204460493E-15  0.17763568394E-14  0.00000000000E+00  0.91188000000E+02  0.91188000000E+02 0.  0.
    9900012    2    3    3    0    0  0.12974754997E+01  0.13176648532E+02  0.41331782802E+02  0.47787265227E+02  0.19999973477E+02 0.  0.
        -12    1    3    3    0    0 -0.12974754997E+01 -0.13176648532E+02 -0.41331782802E+02  0.43400734773E+02  0.00000000000E+00 0.  1.
         11    1    4    4    0    0  0.28698487810E+00  0.80378543790E+01  0.13335471680E+02  0.15573190698E+02  0.51100000000E-03 0. -1.
        -11    1    4    4    0    0 -0.26152039599E+01 -0.45494923279E+01  0.12770607188E+02  0.13806722291E+02  0.51100000000E-03 0.  1.
        -12    1    4    4    0    0  0.36256945815E+01  0.96882864805E+01  0.15225703934E+02  0.18407352238E+02  0.00000000000E+00 0.  1.
</event>
<event>
 8    1  0.5331800E-011  0.9118800E+02  0.7816164E-02  0.1184000E+00
        -11   -1    0    0    0    0  0.00000000000E+00  0.00000000000E+00  0.45593999997E+02  0.45594000000E+02  0.51100000000E-03 0. -1.
         11   -1    0    0    0    0 -0.00000000000E+00 -0.00000000000E+00 -0.45593999997E+02  0.45594000000E+02  0.51100000000E-03 0.  1.
         23    2    1    2    0    0  0.00000000000E+00  0.00000000000E+00  0.00000000000E+00  0.91188000000E+02  0.91188000000E+02 0.  0.
    9900012    2    3    3    0    0  0.24196579683E+02 -0.32124343863E+02 -0.16314878449E+02  0.47787271944E+02  0.20000004099E+02 0.  0.
         12    1    3    3    0    0 -0.24196579683E+02  0.32124343863E+02  0.16314878449E+02  0.43400728056E+02  0.00000000000E+00 0. -1.
         11    1    4    4    0    0  0.99972938070E+01 -0.72395971560E+01  0.13992432129E+01  0.12422380298E+02  0.51100000000E-03 0. -1.
        -11    1    4    4    0    0  0.13940516533E+02 -0.24278033982E+02 -0.13466171269E+02  0.31066037793E+02  0.51100000000E-03 0.  1.
        -12    1    4    4    0    0  0.25876934278E+00 -0.60671272586E+00 -0.42479503929E+01  0.42988538525E+01  0.00000000000E+00 0.  1.
</event>
<event>
 8    1  0.5331800E-011  0.9118800E+02  0.7816164E-02  0.1184000E+00
        -11   -1    0    0    0    0  0.00000000000E+00  0.00000000000E+00  0.45593999997E+02  0.45594000000E+02  0.51100000000E-03 0. -1.
         11   -1    0    0    0    0 -0.00000000000E+00 -0.00000000000E+00 -0.45593999997E+02  0.45594000000E+02  0.51100000000E-03 0.  1.
         23    2    1    2    0    0  0.00000000000E+00  0.00000000000E+00 -0.71054273576E-14  0.91188000000E+02  0.91188000000E+02 0.  0.
    9900012    2    3    3    0    0 -0.26361462472E+02  0.50744230356E+01 -0.34102005983E+02  0.47787270918E+02  0.19999999422E+02 0.  0.
         12    1    3    3    0    0  0.26361462472E+02 -0.50744230356E+01  0.34102005983E+02  0.43400729082E+02  0.00000000000E+00 0. -1.
         11    1    4    4    0    0  0.94908160435E+00 -0.16135225718E+01 -0.73371069735E+01  0.75721430245E+01  0.51100000000E-03 0. -1.
        -11    1    4    4    0    0 -0.26739204201E+02  0.71977570967E+01 -0.27589866813E+02  0.39089557423E+02  0.51100000000E-03 0.  1.
        -12    1    4    4    0    0 -0.57133987531E+00 -0.50981148935E+00  0.82496780286E+00  0.11255704703E+01  0.00000000000E+00 0.  1.
</event>
<event>
 8    1  0.5331800E-011  0.9118800E+02  0.7816164E-02  0.1184000E+00
        -11   -1    0    0    0    0  0.00000000000E+00  0.00000000000E+00  0.45593999997E+02  0.45594000000E+02  0.51100000000E-03 0. -1.
         11   -1    0    0    0    0 -0.00000000000E+00 -0.00000000000E+00 -0.45593999997E+02  0.45594000000E+02  0.51100000000E-03 0.  1.
         23    2    1    2    0    0  0.00000000000E+00  0.00000000000E+00  0.00000000000E+00  0.91188000000E+02  0.91188000000E+02 0.  0.
    9900012    2    3    3    0    0  0.16808487592E+02  0.13837052227E+02  0.37545090466E+02  0.47787273191E+02  0.20000009786E+02 0.  0.
        -12    1    3    3    0    0 -0.16808487592E+02 -0.13837052227E+02 -0.37545090466E+02  0.43400726809E+02  0.00000000000E+00 0.  1.
         11    1    4    4    0    0  0.72532070199E+01  0.54592435408E+00  0.19439609654E+01  0.75290125494E+01  0.51100000000E-03 0. -1.
        -11    1    4    4    0    0 -0.69905578258E+00  0.12501870471E+01  0.15120471581E+00  0.14403158567E+01  0.51100000000E-03 0.  1.
         12    1    4    4    0    0  0.10254336355E+02  0.12040940826E+02  0.35449924785E+02  0.38817944785E+02  0.00000000000E+00 0. -1.
</event>
<event>
 8    1  0.5331800E-011  0.9118800E+02  0.7816164E-02  0.1184000E+00
        -11   -1    0    0    0    0  0.00000000000E+00  0.00000000000E+00  0.45593999997E+02  0.45594000000E+02  0.51100000000E-03 0. -1.
         11   -1    0    0    0    0 -0.00000000000E+00 -0.00000000000E+00 -0.45593999997E+02  0.45594000000E+02  0.51100000000E-03 0.  1.
         23    2    1    2    0    0  0.00000000000E+00  0.17763568394E-14  0.71054273576E-14  0.91188000000E+02  0.91188000000E+02 0.  0.
    9900012    2    3    3    0    0  0.19463263862E+02  0.11573983043E+02  0.37024963171E+02  0.47787267040E+02  0.19999981742E+02 0.  0.
        -12    1    3    3    0    0 -0.19463263862E+02 -0.11573983043E+02 -0.37024963171E+02  0.43400732960E+02  0.00000000000E+00 0.  1.
         11    1    4    4    0    0  0.18961532703E+02  0.93031016843E+01  0.34369579090E+02  0.40340493185E+02  0.51100000000E-03 0. -1.
        -11    1    4    4    0    0 -0.67906733851E-01 -0.44899896414E+00  0.42289687290E+01  0.42532796952E+01  0.51100000000E-03 0.  1.
         12    1    4    4    0    0  0.56963789344E+00  0.27198803231E+01 -0.15735846476E+01  0.31934941592E+01  0.00000000000E+00 0. -1.
</event>
<event>
 8    1  0.5331800E-011  0.9118800E+02  0.7816164E-02  0.1184000E+00
        -11   -1    0    0    0    0  0.00000000000E+00  0.00000000000E+00  0.45593999997E+02  0.45594000000E+02  0.51100000000E-03 0. -1.
         11   -1    0    0    0    0 -0.00000000000E+00 -0.00000000000E+00 -0.45593999997E+02  0.45594000000E+02  0.51100000000E-03 0.  1.
         23    2    1    2    0    0 -0.35527136788E-14  0.00000000000E+00 -0.22204460493E-15  0.91188000000E+02  0.91188000000E+02 0.  0.
    9900012    2    3    3    0    0  0.12781806883E+02 -0.41462952944E+02 -0.10374775563E+01  0.47787223351E+02  0.19999782547E+02 0.  0.
         12    1    3    3    0    0 -0.12781806883E+02  0.41462952944E+02  0.10374775563E+01  0.43400776649E+02  0.00000000000E+00 0. -1.
         11    1    4    4    0    0 -0.28014382490E+01 -0.13197478253E+02 -0.28600539221E+01  0.13791352262E+02  0.51100000000E-03 0.  1.
        -11    1    4    4    0    0  0.17094520927E+02 -0.24365017395E+02  0.16445762541E+01  0.29809081665E+02  0.51100000000E-03 0. -1.
         12    1    4    4    0    0 -0.15112757954E+01 -0.39004572957E+01  0.17800011171E+00  0.41867894245E+01  0.00000000000E+00 0. -1.
</event>
<event>
 8    1  0.5331800E-011  0.9118800E+02  0.7816164E-02  0.1184000E+00
        -11   -1    0    0    0    0  0.00000000000E+00  0.00000000000E+00  0.45593999997E+02  0.45594000000E+02  0.51100000000E-03 0.  1.
         11   -1    0    0    0    0 -0.00000000000E+00 -0.00000000000E+00 -0.45593999997E+02  0.45594000000E+02  0.51100000000E-03 0. -1.
         23    2    1    2    0    0  0.71054273576E-14  0.00000000000E+00 -0.88817841970E-15  0.91188000000E+02  0.91188000000E+02 0.  0.
    9900012    2    3    3    0    0 -0.41681513494E+02  0.10498189411E+02  0.60052323688E+01  0.47787270007E+02  0.19999995272E+02 0.  0.
         12    1    3    3    0    0  0.41681513494E+02 -0.10498189411E+02 -0.60052323688E+01  0.43400729993E+02  0.00000000000E+00 0. -1.
         11    1    4    4    0    0 -0.44549481550E+01 -0.33522636647E+01 -0.36689449856E+01  0.66742334624E+01  0.51100000000E-03 0. -1.
        -11    1    4    4    0    0 -0.31699156373E+02  0.11280974476E+02  0.66062367149E+01  0.34289054575E+02  0.51100000000E-03 0.  1.
         12    1    4    4    0    0 -0.55274089664E+01  0.25694785999E+01  0.30679406395E+01  0.68239819699E+01  0.00000000000E+00 0. -1.
</event>
<event>
 8    1  0.5331800E-011  0.9118800E+02  0.7816164E-02  0.1184000E+00
        -11   -1    0    0    0    0  0.00000000000E+00  0.00000000000E+00  0.45593999997E+02  0.45594000000E+02  0.51100000000E-03 0. -1.
         11   -1    0    0    0    0 -0.00000000000E+00 -0.00000000000E+00 -0.45593999997E+02  0.45594000000E+02  0.51100000000E-03 0.  1.
         23    2    1    2    0    0  0.00000000000E+00  0.00000000000E+00  0.00000000000E+00  0.91188000000E+02  0.91188000000E+02 0.  0.
    9900012    2    3    3    0    0 -0.22269803317E+02 -0.15955333832E+02  0.33661645504E+02  0.47787271948E+02  0.20000004118E+02 0.  0.
        -12    1    3    3    0    0  0.22269803317E+02  0.15955333832E+02 -0.33661645504E+02  0.43400728052E+02  0.00000000000E+00 0.  1.
         11    1    4    4    0    0 -0.96890744127E+01 -0.12941814832E+02  0.21008700615E+02  0.26509134953E+02  0.51100000000E-03 0. -1.
        -11    1    4    4    0    0 -0.20256289222E+01 -0.26041206624E+01 -0.14948458220E+01  0.36220410334E+01  0.51100000000E-03 0.  1.
        -12    1    4    4    0    0 -0.10555099982E+02 -0.40939833726E+00  0.14147790710E+02  0.17656095962E+02  0.00000000000E+00 0.  1.
</event>
<event>
 8    1  0.5331800E-011  0.9118800E+02  0.7816164E-02  0.1184000E+00
        -11   -1    0    0    0    0  0.00000000000E+00  0.00000000000E+00  0.45593999997E+02  0.45594000000E+02  0.51100000000E-03 0. -1.
         11   -1    0    0    0    0 -0.00000000000E+00 -0.00000000000E+00 -0.45593999997E+02  0.45594000000E+02  0.51100000000E-03 0.  1.
         23    2    1    2    0    0 -0.71054273576E-14  0.17763568394E-14  0.00000000000E+00  0.91188000000E+02  0.91188000000E+02 0.  0.
    9900012    2    3    3    0    0  0.40797653181E+02 -0.13491259649E+02 -0.60959595918E+01  0.47787270567E+02  0.19999997824E+02 0.  0.
         12    1    3    3    0    0 -0.40797653181E+02  0.13491259649E+02  0.60959595918E+01  0.43400729433E+02  0.00000000000E+00 0. -1.
         11    1    4    4    0    0  0.48781714538E+01 -0.24686246125E+01  0.35762718015E+01  0.65330226136E+01  0.51100000000E-03 0. -1.
        -11    1    4    4    0    0  0.19113619005E+02 -0.10724198503E+02 -0.10750250954E+02  0.24411201544E+02  0.51100000000E-03 0.  1.
        -12    1    4    4    0    0  0.16805862721E+02 -0.29843653363E+00  0.10780195602E+01  0.16843046409E+02  0.00000000000E+00 0.  1.
</event>
<event>
 8    1  0.5331800E-011  0.9118800E+02  0.7816164E-02  0.1184000E+00
        -11   -1    0    0    0    0  0.00000000000E+00  0.00000000000E+00  0.45593999997E+02  0.45594000000E+02  0.51100000000E-03 0.  1.
         11   -1    0    0    0    0 -0.00000000000E+00 -0.00000000000E+00 -0.45593999997E+02  0.45594000000E+02  0.51100000000E-03 0. -1.
         23    2    1    2    0    0  0.71054273576E-14  0.00000000000E+00 -0.17763568394E-14  0.91188000000E+02  0.91188000000E+02 0.  0.
    9900012    2    3    3    0    0  0.42410216390E+02  0.37546626588E+01  0.84201626403E+01  0.47787273223E+02  0.20000009932E+02 0.  0.
        -12    1    3    3    0    0 -0.42410216390E+02 -0.37546626588E+01 -0.84201626403E+01  0.43400726777E+02  0.00000000000E+00 0.  1.
         11    1    4    4    0    0  0.31983539498E+01  0.36015737474E+01 -0.34175840969E+01  0.59059870273E+01  0.51100000000E-03 0. -1.
        -11    1    4    4    0    0  0.17418702002E+02 -0.24283935262E+01  0.89903088093E+01  0.19751808204E+02  0.51100000000E-03 0.  1.
         12    1    4    4    0    0  0.21793160438E+02  0.25814824376E+01  0.28474379279E+01  0.22129477992E+02  0.00000000000E+00 0. -1.
</event>
<event>
 8    1  0.5331800E-011  0.9118800E+02  0.7816164E-02  0.1184000E+00
        -11   -1    0    0    0    0  0.00000000000E+00  0.00000000000E+00  0.45593999997E+02  0.45594000000E+02  0.51100000000E-03 0. -1.
         11   -1    0    0    0    0 -0.00000000000E+00 -0.00000000000E+00 -0.45593999997E+02  0.45594000000E+02  0.51100000000E-03 0.  1.
         23    2    1    2    0    0  0.00000000000E+00  0.00000000000E+00  0.00000000000E+00  0.91188000000E+02  0.91188000000E+02 0.  0.
    9900012    2    3    3    0    0  0.78163241847E+01  0.26350506237E+02  0.33588379097E+02  0.47787270593E+02  0.19999997942E+02 0.  0.
        -12    1    3    3    0    0 -0.78163241847E+01 -0.26350506237E+02 -0.33588379097E+02  0.43400729407E+02  0.00000000000E+00 0.  1.
         11    1    4    4    0    0  0.49287493464E+01  0.20300042458E+02  0.19481755545E+02  0.28564367546E+02  0.51100000000E-03 0. -1.
        -11    1    4    4    0    0 -0.27803818994E+01  0.37798721008E+01  0.10488941671E+01  0.48081322611E+01  0.51100000000E-03 0.  1.
         12    1    4    4    0    0  0.56679567377E+01  0.22705916787E+01  0.13057729384E+02  0.14414770786E+02  0.00000000000E+00 0. -1.
</event>
<event>
 8    1  0.5331800E-011  0.9118800E+02  0.7816164E-02  0.1184000E+00
        -11   -1    0    0    0    0  0.00000000000E+00  0.00000000000E+00  0.45593999997E+02  0.45594000000E+02  0.51100000000E-03 0.  1.
         11   -1    0    0    0    0 -0.00000000000E+00 -0.00000000000E+00 -0.45593999997E+02  0.45594000000E+02  0.51100000000E-03 0. -1.
         23    2    1    2    0    0  0.00000000000E+00 -0.35527136788E-14  0.00000000000E+00  0.91188000000E+02  0.91188000000E+02 0.  0.
    9900012    2    3    3    0    0  0.28951851649E+02 -0.23989913458E+02  0.21677118185E+02  0.47787272881E+02  0.20000008374E+02 0.  0.
        -12    1    3    3    0    0 -0.28951851649E+02  0.23989913458E+02 -0.21677118185E+02  0.43400727119E+02  0.00000000000E+00 0.  1.
         11    1    4    4    0    0  0.25569062410E+01 -0.54537769803E+01  0.26653068716E+01  0.65867529069E+01  0.51100000000E-03 0. -1.
        -11    1    4    4    0    0  0.45296958775E+01 -0.11568209248E+02  0.11828531600E+02  0.17153884984E+02  0.51100000000E-03 0.  1.
         12    1    4    4    0    0  0.21865249531E+02 -0.69679272297E+01  0.71832797129E+01  0.24046634990E+02  0.00000000000E+00 0. -1.
</event>
<event>
 8    1  0.5331800E-011  0.9118800E+02  0.7816164E-02  0.1184000E+00
        -11   -1    0    0    0    0  0.00000000000E+00  0.00000000000E+00  0.45593999997E+02  0.45594000000E+02  0.51100000000E-03 0. -1.
         11   -1    0    0    0    0 -0.00000000000E+00 -0.00000000000E+00 -0.45593999997E+02  0.45594000000E+02  0.51100000000E-03 0.  1.
         23    2    1    2    0    0  0.35527136788E-14  0.00000000000E+00  0.35527136788E-14  0.91188000000E+02  0.91188000000E+02 0.  0.
    9900012    2    3    3    0    0 -0.31319469261E+02  0.17891059897E+02 -0.24137603164E+02  0.47787273445E+02  0.20000010944E+02 0.  0.
         12    1    3    3    0    0  0.31319469261E+02 -0.17891059897E+02  0.24137603164E+02  0.43400726555E+02  0.00000000000E+00 0. -1.
         11    1    4    4    0    0 -0.86108588310E+01  0.10906170249E+02 -0.37955827500E+00  0.13900917381E+02  0.51100000000E-03 0. -1.
        -11    1    4    4    0    0 -0.10034665595E+02  0.53849229489E+01 -0.11176493021E+02  0.15956375067E+02  0.51100000000E-03 0.  1.
         12    1    4    4    0    0 -0.12673944835E+02  0.15999666990E+01 -0.12581551868E+02  0.17929980996E+02  0.00000000000E+00 0. -1.
</event>
<event>
 8    1  0.7146042E-011  0.9118800E+02  0.7816164E-02  0.1184000E+00
        -11   -1    0    0    0    0  0.00000000000E+00  0.00000000000E+00  0.45593999997E+02  0.45594000000E+02  0.51100000000E-03 0. -1.
         11   -1    0    0    0    0 -0.00000000000E+00 -0.00000000000E+00 -0.45593999997E+02  0.45594000000E+02  0.51100000000E-03 0.  1.
         23    2    1    2    0    0  0.00000000000E+00  0.00000000000E+00  0.00000000000E+00  0.91188000000E+02  0.91188000000E+02 0.  0.
    9900012    2    3    3    0    0 -0.19548883837E+02  0.11526607995E+02 -0.36994599704E+02  0.47787286199E+02  0.20000069095E+02 0.  0.
         12    1    3    3    0    0  0.19548883837E+02 -0.11526607995E+02  0.36994599704E+02  0.43400713801E+02  0.00000000000E+00 0. -1.
         11    1    4    4    0    0 -0.82316534544E+01 -0.33087412278E+01 -0.51070970851E+01  0.10236714708E+02  0.51100000000E-03 0. -1.
        -11    1    4    4    0    0 -0.10636400236E+02  0.11841194921E+02 -0.21708416986E+02  0.26918437463E+02  0.51100000000E-03 0.  1.
        -12    1    4    4    0    0 -0.68083014674E+00  0.29941543020E+01 -0.10179085633E+02  0.10632134029E+02  0.00000000000E+00 0.  1.
</event>
<event>
 8    1  0.5331800E-011  0.9118800E+02  0.7816164E-02  0.1184000E+00
        -11   -1    0    0    0    0  0.00000000000E+00  0.00000000000E+00  0.45593999997E+02  0.45594000000E+02  0.51100000000E-03 0. -1.
         11   -1    0    0    0    0 -0.00000000000E+00 -0.00000000000E+00 -0.45593999997E+02  0.45594000000E+02  0.51100000000E-03 0.  1.
         23    2    1    2    0    0  0.00000000000E+00  0.00000000000E+00  0.00000000000E+00  0.91188000000E+02  0.91188000000E+02 0.  0.
    9900012    2    3    3    0    0  0.27612171020E+02  0.29982440133E+02  0.14907875403E+02  0.47787268972E+02  0.19999990550E+02 0.  0.
        -12    1    3    3    0    0 -0.27612171020E+02 -0.29982440133E+02 -0.14907875403E+02  0.43400731028E+02  0.00000000000E+00 0.  1.
         11    1    4    4    0    0  0.90362724411E+01  0.15884808062E+02  0.14593993069E+02  0.23387303836E+02  0.51100000000E-03 0. -1.
        -11    1    4    4    0    0 -0.87138004074E-01 -0.62147142057E+00 -0.34595837948E-01  0.62850369248E+00  0.51100000000E-03 0.  1.
         12    1    4    4    0    0  0.18663036583E+02  0.14719103491E+02  0.34847817247E+00  0.23771461443E+02  0.00000000000E+00 0. -1.
</event>
<event>
 8    1  0.5331800E-011  0.9118800E+02  0.7816164E-02  0.1184000E+00
        -11   -1    0    0    0    0  0.00000000000E+00  0.00000000000E+00  0.45593999997E+02  0.45594000000E+02  0.51100000000E-03 0. -1.
         11   -1    0    0    0    0 -0.00000000000E+00 -0.00000000000E+00 -0.45593999997E+02  0.45594000000E+02  0.51100000000E-03 0.  1.
         23    2    1    2    0    0  0.00000000000E+00  0.00000000000E+00  0.00000000000E+00  0.91188000000E+02  0.91188000000E+02 0.  0.
    9900012    2    3    3    0    0  0.37884039702E+02 -0.44817441182E+01 -0.20696298680E+02  0.47787271048E+02  0.20000000016E+02 0.  0.
         12    1    3    3    0    0 -0.37884039702E+02  0.44817441182E+01  0.20696298680E+02  0.43400728952E+02  0.00000000000E+00 0. -1.
         11    1    4    4    0    0  0.15970428327E+02 -0.18045824385E+01 -0.43836747724E+01  0.16659162749E+02  0.51100000000E-03 0. -1.
        -11    1    4    4    0    0  0.14597128011E+01  0.33466202211E+01 -0.69291803365E+01  0.78322518322E+01  0.51100000000E-03 0.  1.
        -12    1    4    4    0    0  0.20453898574E+02 -0.60237819008E+01 -0.93834435714E+01  0.23295856467E+02  0.00000000000E+00 0.  1.
</event>
<event>
 8    1  0.5331800E-011  0.9118800E+02  0.7816164E-02  0.1184000E+00
        -11   -1    0    0    0    0  0.00000000000E+00  0.00000000000E+00  0.45593999997E+02  0.45594000000E+02  0.51100000000E-03 0. -1.
         11   -1    0    0    0    0 -0.00000000000E+00 -0.00000000000E+00 -0.45593999997E+02  0.45594000000E+02  0.51100000000E-03 0.  1.
         23    2    1    2    0    0  0.00000000000E+00 -0.35527136788E-14  0.00000000000E+00  0.91188000000E+02  0.91188000000E+02 0.  0.
    9900012    2    3    3    0    0  0.11478401982E+02  0.26760584473E+02  0.32182940257E+02  0.47787259949E+02  0.19999949409E+02 0.  0.
        -12    1    3    3    0    0 -0.11478401982E+02 -0.26760584473E+02 -0.32182940257E+02  0.43400740051E+02  0.00000000000E+00 0.  1.
         11    1    4    4    0    0  0.65621746596E+01  0.54257691422E+01  0.11161449022E+02  0.14038484661E+02  0.51100000000E-03 0. -1.
        -11    1    4    4    0    0  0.83441657036E+01  0.16885418511E+02  0.98732695253E+01  0.21265556916E+02  0.51100000000E-03 0.  1.
        -12    1    4    4    0    0 -0.34279383812E+01  0.44493968204E+01  0.11148221710E+02  0.12483218372E+02  0.00000000000E+00 0.  1.
</event>
<event>
 8    1  0.5331800E-011  0.9118800E+02  0.7816164E-02  0.1184000E+00
        -11   -1    0    0    0    0  0.00000000000E+00  0.00000000000E+00  0.45593999997E+02  0.45594000000E+02  0.51100000000E-03 0. -1.
         11   -1    0    0    0    0 -0.00000000000E+00 -0.00000000000E+00 -0.45593999997E+02  0.45594000000E+02  0.51100000000E-03 0.  1.
         23    2    1    2    0    0 -0.35527136788E-14  0.35527136788E-14 -0.35527136788E-14  0.91188000000E+02  0.91188000000E+02 0.  0.
    9900012    2    3    3    0    0  0.29906837146E+02 -0.16840104712E+02  0.26563412938E+02  0.47787274871E+02  0.20000017447E+02 0.  0.
        -12    1    3    3    0    0 -0.29906837146E+02  0.16840104712E+02 -0.26563412938E+02  0.43400725129E+02  0.00000000000E+00 0.  1.
         11    1    4    4    0    0  0.28038899546E+02 -0.12437793407E+02  0.18592315024E+02  0.35868548491E+02  0.51100000000E-03 0. -1.
        -11    1    4    4    0    0 -0.21926534885E+01  0.72535515541E+00  0.18268269955E+01  0.29446844576E+01  0.51100000000E-03 0.  1.
         12    1    4    4    0    0  0.40605910883E+01 -0.51276664608E+01  0.61442709180E+01  0.89740419228E+01  0.00000000000E+00 0. -1.
</event>
<event>
 8    1  0.5331800E-011  0.9118800E+02  0.7816164E-02  0.1184000E+00
        -11   -1    0    0    0    0  0.00000000000E+00  0.00000000000E+00  0.45593999997E+02  0.45594000000E+02  0.51100000000E-03 0. -1.
         11   -1    0    0    0    0 -0.00000000000E+00 -0.00000000000E+00 -0.45593999997E+02  0.45594000000E+02  0.51100000000E-03 0.  1.
         23    2    1    2    0    0 -0.88817841970E-15  0.00000000000E+00  0.71054273576E-14  0.91188000000E+02  0.91188000000E+02 0.  0.
    9900012    2    3    3    0    0  0.68056194014E+01 -0.29201619655E+02  0.31377911980E+02  0.47787258000E+02  0.19999940527E+02 0.  0.
        -12    1    3    3    0    0 -0.68056194014E+01  0.29201619655E+02 -0.31377911980E+02  0.43400742000E+02  0.00000000000E+00 0.  1.
         11    1    4    4    0    0 -0.26314688284E+01  0.29036465259E-01  0.90419644781E+01  0.94171435794E+01  0.51100000000E-03 0. -1.
        -11    1    4    4    0    0  0.37175140039E+01 -0.10716565698E+02  0.51020925048E+01  0.12437686237E+02  0.51100000000E-03 0.  1.
         12    1    4    4    0    0  0.57195742259E+01 -0.18514090422E+02  0.17233854997E+02  0.25932428184E+02  0.00000000000E+00 0. -1.
</event>
<event>
 8    1  0.5331800E-011  0.9118800E+02  0.7816164E-02  0.1184000E+00
        -11   -1    0    0    0    0  0.00000000000E+00  0.00000000000E+00  0.45593999997E+02  0.45594000000E+02  0.51100000000E-03 0. -1.
         11   -1    0    0    0    0 -0.00000000000E+00 -0.00000000000E+00 -0.45593999997E+02  0.45594000000E+02  0.51100000000E-03 0.  1.
         23    2    1    2    0    0  0.00000000000E+00 -0.35527136788E-14 -0.71054273576E-14  0.91188000000E+02  0.91188000000E+02 0.  0.
    9900012    2    3    3    0    0 -0.34211019453E+01 -0.19984291602E+02 -0.38373764606E+02  0.47787289645E+02  0.20000084805E+02 0.  0.
         12    1    3    3    0    0  0.34211019453E+01  0.19984291602E+02  0.38373764606E+02  0.43400710355E+02  0.00000000000E+00 0. -1.
         11    1    4    4    0    0 -0.53827691698E+01 -0.18555835405E+02 -0.34788926756E+02  0.39794002772E+02  0.51100000000E-03 0. -1.
        -11    1    4    4    0    0  0.15513782539E+00 -0.38724373106E+01 -0.29937104628E+01  0.48971564265E+01  0.51100000000E-03 0.  1.
         12    1    4    4    0    0  0.18065293991E+01  0.24439811135E+01 -0.59112738669E+00  0.30961304463E+01  0.00000000000E+00 0. -1.
</event>
<event>
 8    1  0.5331800E-011  0.9118800E+02  0.7816164E-02  0.1184000E+00
        -11   -1    0    0    0    0  0.00000000000E+00  0.00000000000E+00  0.45593999997E+02  0.45594000000E+02  0.51100000000E-03 0. -1.
         11   -1    0    0    0    0 -0.00000000000E+00 -0.00000000000E+00 -0.45593999997E+02  0.45594000000E+02  0.51100000000E-03 0.  1.
         23    2    1    2    0    0 -0.17763568394E-14  0.00000000000E+00  0.00000000000E+00  0.91188000000E+02  0.91188000000E+02 0.  0.
    9900012    2    3    3    0    0  0.11070972421E+02 -0.38358626138E+02 -0.17019771535E+02  0.47787271289E+02  0.20000001115E+02 0.  0.
         12    1    3    3    0    0 -0.11070972421E+02  0.38358626138E+02  0.17019771535E+02  0.43400728711E+02  0.00000000000E+00 0. -1.
         11    1    4    4    0    0  0.12551627729E+02 -0.28647387851E+02 -0.51782417249E+01  0.31702214070E+02  0.51100000000E-03 0. -1.
        -11    1    4    4    0    0 -0.11744821965E+01 -0.95226151592E+01 -0.87901050525E+01  0.13012515322E+02  0.51100000000E-03 0.  1.
         12    1    4    4    0    0 -0.30617311079E+00 -0.18862312735E+00 -0.30514247575E+01  0.30725418969E+01  0.00000000000E+00 0. -1.
</event>
<event>
 8    1  0.5331800E-011  0.9118800E+02  0.7816164E-02  0.1184000E+00
        -11   -1    0    0    0    0  0.00000000000E+00  0.00000000000E+00  0.45593999997E+02  0.45594000000E+02  0.51100000000E-03 0. -1.
         11   -1    0    0    0    0 -0.00000000000E+00 -0.00000000000E+00 -0.45593999997E+02  0.45594000000E+02  0.51100000000E-03 0.  1.
         23    2    1    2    0    0  0.44408920985E-15  0.00000000000E+00  0.35527136788E-14  0.91188000000E+02  0.91188000000E+02 0.  0.
    9900012    2    3    3    0    0  0.39142671598E+01  0.34129220812E+02 -0.26523525923E+02  0.47787278485E+02  0.20000033924E+02 0.  0.
         12    1    3    3    0    0 -0.39142671598E+01 -0.34129220812E+02  0.26523525923E+02  0.43400721515E+02  0.00000000000E+00 0. -1.
         11    1    4    4    0    0 -0.50937553816E+01  0.29235593183E+01 -0.78510676611E+00  0.59253637754E+01  0.51100000000E-03 0. -1.
        -11    1    4    4    0    0  0.47802226174E+01  0.11322015143E+02 -0.12910389586E+02  0.17824609805E+02  0.51100000000E-03 0.  1.
         12    1    4    4    0    0  0.42277999240E+01  0.19883646351E+02 -0.12828029570E+02  0.24037304904E+02  0.00000000000E+00 0. -1.
</event>
<event>
 8    1  0.5331800E-011  0.9118800E+02  0.7816164E-02  0.1184000E+00
        -11   -1    0    0    0    0  0.00000000000E+00  0.00000000000E+00  0.45593999997E+02  0.45594000000E+02  0.51100000000E-03 0. -1.
         11   -1    0    0    0    0 -0.00000000000E+00 -0.00000000000E+00 -0.45593999997E+02  0.45594000000E+02  0.51100000000E-03 0.  1.
         23    2    1    2    0    0  0.00000000000E+00  0.35527136788E-14 -0.71054273576E-14  0.91188000000E+02  0.91188000000E+02 0.  0.
    9900012    2    3    3    0    0 -0.14356795196E+02 -0.20611291266E+02  0.35393226231E+02  0.47787270064E+02  0.19999995528E+02 0.  0.
        -12    1    3    3    0    0  0.14356795196E+02  0.20611291266E+02 -0.35393226231E+02  0.43400729936E+02  0.00000000000E+00 0.  1.
         11    1    4    4    0    0 -0.13876132411E+02 -0.51007292051E+01  0.19585924980E+02  0.24539212430E+02  0.51100000000E-03 0. -1.
        -11    1    4    4    0    0 -0.10587479945E+01  0.26793012012E+00  0.19753703287E+01  0.22571712522E+01  0.51100000000E-03 0.  1.
         12    1    4    4    0    0  0.57808520958E+00 -0.15778492181E+02  0.13831930922E+02  0.20990886381E+02  0.00000000000E+00 0. -1.
</event>
<event>
 8    1  0.5331800E-011  0.9118800E+02  0.7816164E-02  0.1184000E+00
        -11   -1    0    0    0    0  0.00000000000E+00  0.00000000000E+00  0.45593999997E+02  0.45594000000E+02  0.51100000000E-03 0. -1.
         11   -1    0    0    0    0 -0.00000000000E+00 -0.00000000000E+00 -0.45593999997E+02  0.45594000000E+02  0.51100000000E-03 0.  1.
         23    2    1    2    0    0 -0.88817841970E-15 -0.88817841970E-15  0.71054273576E-14  0.91188000000E+02  0.91188000000E+02 0.  0.
    9900012    2    3    3    0    0  0.59905399482E+01 -0.76133220164E+01 -0.42305719625E+02  0.47787272425E+02  0.20000006296E+02 0.  0.
         12    1    3    3    0    0 -0.59905399482E+01  0.76133220164E+01  0.42305719625E+02  0.43400727575E+02  0.00000000000E+00 0. -1.
         11    1    4    4    0    0 -0.31492319113E+01  0.92866513900E+00 -0.25675606274E+01  0.41680269203E+01  0.51100000000E-03 0. -1.
        -11    1    4    4    0    0  0.10189887978E+02 -0.10029078552E+02 -0.39192221037E+02  0.41718657980E+02  0.51100000000E-03 0.  1.
        -12    1    4    4    0    0 -0.10501161184E+01  0.14870913964E+01 -0.54593796105E+00  0.19005875251E+01  0.00000000000E+00 0.  1.
</event>
<event>
 8    1  0.5331800E-011  0.9118800E+02  0.7816164E-02  0.1184000E+00
        -11   -1    0    0    0    0  0.00000000000E+00  0.00000000000E+00  0.45593999997E+02  0.45594000000E+02  0.51100000000E-03 0. -1.
         11   -1    0    0    0    0 -0.00000000000E+00 -0.00000000000E+00 -0.45593999997E+02  0.45594000000E+02  0.51100000000E-03 0.  1.
         23    2    1    2    0    0  0.00000000000E+00 -0.22204460493E-15  0.00000000000E+00  0.91188000000E+02  0.91188000000E+02 0.  0.
    9900012    2    3    3    0    0  0.21844668680E+02 -0.12796122229E+01  0.37480630333E+02  0.47787255683E+02  0.19999929959E+02 0.  0.
        -12    1    3    3    0    0 -0.21844668680E+02  0.12796122229E+01 -0.37480630333E+02  0.43400744317E+02  0.00000000000E+00 0.  1.
         11    1    4    4    0    0  0.19045878005E+02 -0.48701927136E+01  0.37255254212E+02  0.42123843755E+02  0.51100000000E-03 0. -1.
        -11    1    4    4    0    0  0.24019040165E+01  0.60756619827E+00 -0.58749348000E+00  0.25462577324E+01  0.51100000000E-03 0.  1.
         12    1    4    4    0    0  0.39688665884E+00  0.29830142924E+01  0.81286960073E+00  0.31171541952E+01  0.00000000000E+00 0. -1.
</event>
<event>
 8    1  0.5331800E-011  0.9118800E+02  0.7816164E-02  0.1184000E+00
        -11   -1    0    0    0    0  0.00000000000E+00  0.00000000000E+00  0.45593999997E+02  0.45594000000E+02  0.51100000000E-03 0. -1.
         11   -1    0    0    0    0 -0.00000000000E+00 -0.00000000000E+00 -0.45593999997E+02  0.45594000000E+02  0.51100000000E-03 0.  1.
         23    2    1    2    0    0  0.35527136788E-14  0.35527136788E-14  0.00000000000E+00  0.91188000000E+02  0.91188000000E+02 0.  0.
    9900012    2    3    3    0    0 -0.27599141050E+02 -0.24482348109E+02 -0.22858826139E+02  0.47787263969E+02  0.19999967739E+02 0.  0.
         12    1    3    3    0    0  0.27599141050E+02  0.24482348109E+02  0.22858826139E+02  0.43400736031E+02  0.00000000000E+00 0. -1.
         11    1    4    4    0    0 -0.20592577903E+01 -0.14856892585E+01 -0.92133390716E+00  0.27012352081E+01  0.51100000000E-03 0. -1.
        -11    1    4    4    0    0 -0.14046962962E+02 -0.23723841541E+02 -0.17951689901E+02  0.32899863168E+02  0.51100000000E-03 0.  1.
        -12    1    4    4    0    0 -0.11492920298E+02  0.72718269025E+00 -0.39858023309E+01  0.12186165593E+02  0.00000000000E+00 0.  1.
</event>
<event>
 8    1  0.5331800E-011  0.9118800E+02  0.7816164E-02  0.1184000E+00
        -11   -1    0    0    0    0  0.00000000000E+00  0.00000000000E+00  0.45593999997E+02  0.45594000000E+02  0.51100000000E-03 0. -1.
         11   -1    0    0    0    0 -0.00000000000E+00 -0.00000000000E+00 -0.45593999997E+02  0.45594000000E+02  0.51100000000E-03 0.  1.
         23    2    1    2    0    0  0.00000000000E+00  0.00000000000E+00  0.44408920985E-15  0.91188000000E+02  0.91188000000E+02 0.  0.
    9900012    2    3    3    0    0 -0.31253330936E+02  0.29897764186E+02 -0.36022609773E+01  0.47787270950E+02  0.19999999571E+02 0.  0.
         12    1    3    3    0    0  0.31253330936E+02 -0.29897764186E+02  0.36022609773E+01  0.43400729050E+02  0.00000000000E+00 0. -1.
         11    1    4    4    0    0 -0.13807040427E+02  0.67231368452E+01  0.69652946497E+01  0.16862688522E+02  0.51100000000E-03 0. -1.
        -11    1    4    4    0    0 -0.11648717243E+02  0.15251707599E+02 -0.60923272152E+01  0.20135134697E+02  0.51100000000E-03 0.  1.
         12    1    4    4    0    0 -0.57975732665E+01  0.79229197416E+01 -0.44752284117E+01  0.10789447731E+02  0.00000000000E+00 0. -1.
</event>
<event>
 8    1  0.5331800E-011  0.9118800E+02  0.7816164E-02  0.1184000E+00
        -11   -1    0    0    0    0  0.00000000000E+00  0.00000000000E+00  0.45593999997E+02  0.45594000000E+02  0.51100000000E-03 0. -1.
         11   -1    0    0    0    0 -0.00000000000E+00 -0.00000000000E+00 -0.45593999997E+02  0.45594000000E+02  0.51100000000E-03 0.  1.
         23    2    1    2    0    0  0.44408920985E-15  0.00000000000E+00 -0.71054273576E-14  0.91188000000E+02  0.91188000000E+02 0.  0.
    9900012    2    3    3    0    0  0.20787982026E+01  0.35490874925E+01  0.43205399940E+02  0.47787262588E+02  0.19999961442E+02 0.  0.
        -12    1    3    3    0    0 -0.20787982026E+01 -0.35490874925E+01 -0.43205399940E+02  0.43400737412E+02  0.00000000000E+00 0.  1.
         11    1    4    4    0    0 -0.34742371467E+01  0.20183237739E+01  0.79427097024E+00  0.40957076608E+01  0.51100000000E-03 0. -1.
        -11    1    4    4    0    0  0.85555481389E+00  0.18310305353E+01  0.15160443379E+01  0.25264674065E+01  0.51100000000E-03 0.  1.
         12    1    4    4    0    0  0.46974805354E+01 -0.30026681667E+00  0.40895084631E+02  0.41165087520E+02  0.00000000000E+00 0. -1.
</event>
<event>
 8    1  0.5331800E-011  0.9118800E+02  0.7816164E-02  0.1184000E+00
        -11   -1    0    0    0    0  0.00000000000E+00  0.00000000000E+00  0.45593999997E+02  0.45594000000E+02  0.51100000000E-03 0. -1.
         11   -1    0    0    0    0 -0.00000000000E+00 -0.00000000000E+00 -0.45593999997E+02  0.45594000000E+02  0.51100000000E-03 0.  1.
         23    2    1    2    0    0  0.44408920985E-15  0.88817841970E-15  0.00000000000E+00  0.91188000000E+02  0.91188000000E+02 0.  0.
    9900012    2    3    3    0    0  0.18693244857E+01  0.66532978063E+01 -0.42846966106E+02  0.47787271317E+02  0.20000001244E+02 0.  0.
         12    1    3    3    0    0 -0.18693244857E+01 -0.66532978063E+01  0.42846966106E+02  0.43400728683E+02  0.00000000000E+00 0. -1.
         11    1    4    4    0    0 -0.35728938020E+01  0.10130141037E+02 -0.33631430580E+02  0.35305218462E+02  0.51100000000E-03 0. -1.
        -11    1    4    4    0    0 -0.10324797447E+01 -0.90131276355E+00 -0.22146390837E+01  0.26044204064E+01  0.51100000000E-03 0.  1.
         12    1    4    4    0    0  0.64746980325E+01 -0.25755304674E+01 -0.70008964417E+01  0.98776324485E+01  0.00000000000E+00 0. -1.
</event>
<event>
 8    1  0.5331800E-011  0.9118800E+02  0.7816164E-02  0.1184000E+00
        -11   -1    0    0    0    0  0.00000000000E+00  0.00000000000E+00  0.45593999997E+02  0.45594000000E+02  0.51100000000E-03 0. -1.
         11   -1    0    0    0    0 -0.00000000000E+00 -0.00000000000E+00 -0.45593999997E+02  0.45594000000E+02  0.51100000000E-03 0.  1.
         23    2    1    2    0    0  0.17763568394E-14  0.00000000000E+00 -0.71054273576E-14  0.91188000000E+02  0.91188000000E+02 0.  0.
    9900012    2    3    3    0    0 -0.51319226243E+01 -0.28070209388E+02  0.32700916399E+02  0.47787271685E+02  0.20000002922E+02 0.  0.
        -12    1    3    3    0    0  0.51319226243E+01  0.28070209388E+02 -0.32700916399E+02  0.43400728315E+02  0.00000000000E+00 0.  1.
         11    1    4    4    0    0  0.19320065543E+01 -0.14503640901E+00  0.10259403539E+02  0.10440739731E+02  0.51100000000E-03 0. -1.
        -11    1    4    4    0    0 -0.42941194972E+01 -0.16506381333E+02  0.83228156839E+01  0.18978128152E+02  0.51100000000E-03 0.  1.
         12    1    4    4    0    0 -0.27698096814E+01 -0.11418791646E+02  0.14118697176E+02  0.18368403803E+02  0.00000000000E+00 0. -1.
</event>
<event>
 8    1  0.5331800E-011  0.9118800E+02  0.7816164E-02  0.1184000E+00
        -11   -1    0    0    0    0  0.00000000000E+00  0.00000000000E+00  0.45593999997E+02  0.45594000000E+02  0.51100000000E-03 0. -1.
         11   -1    0    0    0    0 -0.00000000000E+00 -0.00000000000E+00 -0.45593999997E+02  0.45594000000E+02  0.51100000000E-03 0.  1.
         23    2    1    2    0    0  0.00000000000E+00  0.71054273576E-14  0.35527136788E-14  0.91188000000E+02  0.91188000000E+02 0.  0.
    9900012    2    3    3    0    0  0.10502103550E+02  0.35903721591E+02  0.22005733902E+02  0.47787265817E+02  0.19999976166E+02 0.  0.
        -12    1    3    3    0    0 -0.10502103550E+02 -0.35903721591E+02 -0.22005733902E+02  0.43400734183E+02  0.00000000000E+00 0.  1.
         11    1    4    4    0    0  0.14055111251E+02  0.17520191066E+02  0.69859543410E+01  0.23522474478E+02  0.51100000000E-03 0. -1.
        -11    1    4    4    0    0 -0.17519828776E+01  0.10704401099E+02  0.64586264260E+01  0.12624084223E+02  0.51100000000E-03 0.  1.
         12    1    4    4    0    0 -0.18010248236E+01  0.76791294261E+01  0.85611531355E+01  0.11640707116E+02  0.00000000000E+00 0. -1.
</event>
<event>
 8    1  0.5331800E-011  0.9118800E+02  0.7816164E-02  0.1184000E+00
        -11   -1    0    0    0    0  0.00000000000E+00  0.00000000000E+00  0.45593999997E+02  0.45594000000E+02  0.51100000000E-03 0. -1.
         11   -1    0    0    0    0 -0.00000000000E+00 -0.00000000000E+00 -0.45593999997E+02  0.45594000000E+02  0.51100000000E-03 0.  1.
         23    2    1    2    0    0  0.00000000000E+00  0.00000000000E+00  0.00000000000E+00  0.91188000000E+02  0.91188000000E+02 0.  0.
    9900012    2    3    3    0    0 -0.27924184539E+02 -0.12873926472E+02 -0.30628830925E+02  0.47787270181E+02  0.19999996063E+02 0.  0.
         12    1    3    3    0    0  0.27924184539E+02  0.12873926472E+02  0.30628830925E+02  0.43400729819E+02  0.00000000000E+00 0. -1.
         11    1    4    4    0    0 -0.75173428282E+00  0.12165802774E+01 -0.13813706917E+01  0.19883051206E+01  0.51100000000E-03 0. -1.
        -11    1    4    4    0    0 -0.62108642517E+01 -0.44620680912E+01 -0.19146183271E+02  0.20617012890E+02  0.51100000000E-03 0.  1.
        -12    1    4    4    0    0 -0.20961586005E+02 -0.96284386584E+01 -0.10101276963E+02  0.25181952170E+02  0.00000000000E+00 0.  1.
</event>
<event>
 8    1  0.5331800E-011  0.9118800E+02  0.7816164E-02  0.1184000E+00
        -11   -1    0    0    0    0  0.00000000000E+00  0.00000000000E+00  0.45593999997E+02  0.45594000000E+02  0.51100000000E-03 0. -1.
         11   -1    0    0    0    0 -0.00000000000E+00 -0.00000000000E+00 -0.45593999997E+02  0.45594000000E+02  0.51100000000E-03 0.  1.
         23    2    1    2    0    0  0.44408920985E-15 -0.71054273576E-14  0.17763568394E-14  0.91188000000E+02  0.91188000000E+02 0.  0.
    9900012    2    3    3    0    0 -0.34039992635E+01  0.43067525737E+02 -0.41501986513E+01  0.47787272668E+02  0.20000007402E+02 0.  0.
         12    1    3    3    0    0  0.34039992635E+01 -0.43067525737E+02  0.41501986513E+01  0.43400727332E+02  0.00000000000E+00 0. -1.
         11    1    4    4    0    0 -0.37580778755E+01  0.15636988058E+02 -0.94735678465E+01  0.18665128793E+02  0.51100000000E-03 0. -1.
        -11    1    4    4    0    0 -0.29933986395E+01  0.22329052425E+02  0.40909150117E+01  0.22897218249E+02  0.51100000000E-03 0.  1.
         12    1    4    4    0    0  0.33474772515E+01  0.51014852538E+01  0.12324541835E+01  0.62249256268E+01  0.00000000000E+00 0. -1.
</event>
<event>
 8    1  0.5331800E-011  0.9118800E+02  0.7816164E-02  0.1184000E+00
        -11   -1    0    0    0    0  0.00000000000E+00  0.00000000000E+00  0.45593999997E+02  0.45594000000E+02  0.51100000000E-03 0. -1.
         11   -1    0    0    0    0 -0.00000000000E+00 -0.00000000000E+00 -0.45593999997E+02  0.45594000000E+02  0.51100000000E-03 0.  1.
         23    2    1    2    0    0  0.00000000000E+00  0.00000000000E+00  0.00000000000E+00  0.91188000000E+02  0.91188000000E+02 0.  0.
    9900012    2    3    3    0    0  0.14125113863E+01 -0.89671781936E+01  0.42440754138E+02  0.47787273220E+02  0.20000009921E+02 0.  0.
        -12    1    3    3    0    0 -0.14125113863E+01  0.89671781936E+01 -0.42440754138E+02  0.43400726780E+02  0.00000000000E+00 0.  1.
         11    1    4    4    0    0  0.19659053066E+01 -0.12252130915E+02  0.32330571664E+02  0.34630122148E+02  0.51100000000E-03 0. -1.
        -11    1    4    4    0    0  0.18870934459E+01  0.49832102779E+01  0.75035906503E+01  0.92031179095E+01  0.51100000000E-03 0.  1.
        -12    1    4    4    0    0 -0.24404873662E+01 -0.16982575569E+01  0.26065918243E+01  0.39540331628E+01  0.00000000000E+00 0.  1.
</event>
<event>
 8    1  0.5331800E-011  0.9118800E+02  0.7816164E-02  0.1184000E+00
        -11   -1    0    0    0    0  0.00000000000E+00  0.00000000000E+00  0.45593999997E+02  0.45594000000E+02  0.51100000000E-03 0. -1.
         11   -1    0    0    0    0 -0.00000000000E+00 -0.00000000000E+00 -0.45593999997E+02  0.45594000000E+02  0.51100000000E-03 0.  1.
         23    2    1    2    0    0  0.35527136788E-14  0.88817841970E-15  0.00000000000E+00  0.91188000000E+02  0.91188000000E+02 0.  0.
    9900012    2    3    3    0    0 -0.26842159092E+02  0.45869639693E+01 -0.33794696178E+02  0.47787271516E+02  0.20000002150E+02 0.  0.
         12    1    3    3    0    0  0.26842159092E+02 -0.45869639693E+01  0.33794696178E+02  0.43400728484E+02  0.00000000000E+00 0. -1.
         11    1    4    4    0    0 -0.16794409431E+02  0.58229074530E+01 -0.87095686095E+01  0.19794317997E+02  0.51100000000E-03 0. -1.
        -11    1    4    4    0    0 -0.83474804780E+00 -0.13929531339E+01 -0.11273039733E+02  0.11389405069E+02  0.51100000000E-03 0.  1.
        -12    1    4    4    0    0 -0.92130016128E+01  0.15700965019E+00 -0.13812087836E+02  0.16603548450E+02  0.00000000000E+00 0.  1.
</event>
<event>
 8    1  0.5331800E-011  0.9118800E+02  0.7816164E-02  0.1184000E+00
        -11   -1    0    0    0    0  0.00000000000E+00  0.00000000000E+00  0.45593999997E+02  0.45594000000E+02  0.51100000000E-03 0. -1.
         11   -1    0    0    0    0 -0.00000000000E+00 -0.00000000000E+00 -0.45593999997E+02  0.45594000000E+02  0.51100000000E-03 0.  1.
         23    2    1    2    0    0  0.35527136788E-14  0.00000000000E+00  0.00000000000E+00  0.91188000000E+02  0.91188000000E+02 0.  0.
    9900012    2    3    3    0    0 -0.16103142267E+02  0.22049033424E+02 -0.33736515287E+02  0.47787268099E+02  0.19999986571E+02 0.  0.
         12    1    3    3    0    0  0.16103142267E+02 -0.22049033424E+02  0.33736515287E+02  0.43400731901E+02  0.00000000000E+00 0. -1.
         11    1    4    4    0    0 -0.57998997820E+01 -0.20414406112E+01 -0.54650750826E+01  0.82263821434E+01  0.51100000000E-03 0. -1.
        -11    1    4    4    0    0 -0.11787027130E+02  0.21203591259E+02 -0.23391063646E+02  0.33699675808E+02  0.51100000000E-03 0.  1.
         12    1    4    4    0    0  0.14837846450E+01  0.28868827765E+01 -0.48803765587E+01  0.58612101474E+01  0.00000000000E+00 0. -1.
</event>
<event>
 8    1  0.5331800E-011  0.9118800E+02  0.7816164E-02  0.1184000E+00
        -11   -1    0    0    0    0  0.00000000000E+00  0.00000000000E+00  0.45593999997E+02  0.45594000000E+02  0.51100000000E-03 0. -1.
         11   -1    0    0    0    0 -0.00000000000E+00 -0.00000000000E+00 -0.45593999997E+02  0.45594000000E+02  0.51100000000E-03 0.  1.
         23    2    1    2    0    0  0.00000000000E+00  0.00000000000E+00  0.00000000000E+00  0.91188000000E+02  0.91188000000E+02 0.  0.
    9900012    2    3    3    0    0  0.30254828615E+02 -0.12992377637E+02  0.28274841074E+02  0.47787272253E+02  0.20000005512E+02 0.  0.
        -12    1    3    3    0    0 -0.30254828615E+02  0.12992377637E+02 -0.28274841074E+02  0.43400727747E+02  0.00000000000E+00 0.  1.
         11    1    4    4    0    0  0.51778235498E+01 -0.17389735065E+01  0.29890498052E+01  0.62264198837E+01  0.51100000000E-03 0.  1.
        -11    1    4    4    0    0  0.23967055303E+02 -0.15220371026E+02  0.24187454364E+02  0.37297618999E+02  0.51100000000E-03 0. -1.
        -12    1    4    4    0    0  0.11099497618E+01  0.39669668952E+01  0.10983369042E+01  0.42632333711E+01  0.00000000000E+00 0.  1.
</event>
<event>
 8    1  0.5331800E-011  0.9118800E+02  0.7816164E-02  0.1184000E+00
        -11   -1    0    0    0    0  0.00000000000E+00  0.00000000000E+00  0.45593999997E+02  0.45594000000E+02  0.51100000000E-03 0. -1.
         11   -1    0    0    0    0 -0.00000000000E+00 -0.00000000000E+00 -0.45593999997E+02  0.45594000000E+02  0.51100000000E-03 0.  1.
         23    2    1    2    0    0  0.00000000000E+00  0.00000000000E+00 -0.35527136788E-14  0.91188000000E+02  0.91188000000E+02 0.  0.
    9900012    2    3    3    0    0  0.16127843339E+02 -0.29852954971E+02 -0.27061351903E+02  0.47787273991E+02  0.20000013433E+02 0.  0.
         12    1    3    3    0    0 -0.16127843339E+02  0.29852954971E+02  0.27061351903E+02  0.43400726009E+02  0.00000000000E+00 0. -1.
         11    1    4    4    0    0  0.67421225547E+01 -0.14007321623E+02 -0.15942777034E+02  0.22267317203E+02  0.51100000000E-03 0. -1.
        -11    1    4    4    0    0 -0.42378009999E+00 -0.10416131181E+01  0.27605218390E+01  0.29807765005E+01  0.51100000000E-03 0.  1.
        -12    1    4    4    0    0  0.98095008846E+01 -0.14804020230E+02 -0.13879096709E+02  0.22539180287E+02  0.00000000000E+00 0.  1.
</event>
<event>
 8    1  0.5331800E-011  0.9118800E+02  0.7816164E-02  0.1184000E+00
        -11   -1    0    0    0    0  0.00000000000E+00  0.00000000000E+00  0.45593999997E+02  0.45594000000E+02  0.51100000000E-03 0. -1.
         11   -1    0    0    0    0 -0.00000000000E+00 -0.00000000000E+00 -0.45593999997E+02  0.45594000000E+02  0.51100000000E-03 0.  1.
         23    2    1    2    0    0  0.17763568394E-14  0.35527136788E-14 -0.71054273576E-14  0.91188000000E+02  0.91188000000E+02 0.  0.
    9900012    2    3    3    0    0  0.12958304349E+02  0.31264276473E+02 -0.27170771965E+02  0.47787268622E+02  0.19999988954E+02 0.  0.
         12    1    3    3    0    0 -0.12958304349E+02 -0.31264276473E+02  0.27170771965E+02  0.43400731378E+02  0.00000000000E+00 0. -1.
         11    1    4    4    0    0  0.28503266693E+01  0.25929403212E+01  0.25314167234E+01  0.46103983038E+01  0.51100000000E-03 0. -1.
        -11    1    4    4    0    0  0.39327738021E+01  0.21539879028E+02 -0.21196996604E+02  0.30475330410E+02  0.51100000000E-03 0.  1.
         12    1    4    4    0    0  0.61752038772E+01  0.71314571240E+01 -0.85051920850E+01  0.12701539908E+02  0.00000000000E+00 0. -1.
</event>
<event>
 8    1  0.5331800E-011  0.9118800E+02  0.7816164E-02  0.1184000E+00
        -11   -1    0    0    0    0  0.00000000000E+00  0.00000000000E+00  0.45593999997E+02  0.45594000000E+02  0.51100000000E-03 0. -1.
         11   -1    0    0    0    0 -0.00000000000E+00 -0.00000000000E+00 -0.45593999997E+02  0.45594000000E+02  0.51100000000E-03 0.  1.
         23    2    1    2    0    0 -0.71054273576E-14  0.00000000000E+00  0.00000000000E+00  0.91188000000E+02  0.91188000000E+02 0.  0.
    9900012    2    3    3    0    0 -0.25393407008E+02 -0.22970062756E+02 -0.26667852836E+02  0.47787271004E+02  0.19999999816E+02 0.  0.
         12    1    3    3    0    0  0.25393407008E+02  0.22970062756E+02  0.26667852836E+02  0.43400728996E+02  0.00000000000E+00 0. -1.
         11    1    4    4    0    0 -0.17624747829E+02 -0.98119605545E+01 -0.78383309435E+01  0.21641297054E+02  0.51100000000E-03 0.  1.
        -11    1    4    4    0    0 -0.10116729418E+01 -0.13329994836E+01  0.11034208131E+01  0.20044718797E+01  0.51100000000E-03 0. -1.
        -12    1    4    4    0    0 -0.67569862378E+01 -0.11825102718E+02 -0.19932942705E+02  0.24141502070E+02  0.00000000000E+00 0.  1.
</event>
<event>
 8    1  0.5331800E-011  0.9118800E+02  0.7816164E-02  0.1184000E+00
        -11   -1    0    0    0    0  0.00000000000E+00  0.00000000000E+00  0.45593999997E+02  0.45594000000E+02  0.51100000000E-03 0.  1.
         11   -1    0    0    0    0 -0.00000000000E+00 -0.00000000000E+00 -0.45593999997E+02  0.45594000000E+02  0.51100000000E-03 0. -1.
         23    2    1    2    0    0 -0.71054273576E-14 -0.35527136788E-14  0.88817841970E-15  0.91188000000E+02  0.91188000000E+02 0.  0.
    9900012    2    3    3    0    0 -0.39309452452E+02 -0.17974333910E+02  0.39132207544E+01  0.47787273874E+02  0.20000012901E+02 0.  0.
         12    1    3    3    0    0  0.39309452452E+02  0.17974333910E+02 -0.39132207544E+01  0.43400726126E+02  0.00000000000E+00 0. -1.
         11    1    4    4    0    0 -0.56104927790E+01 -0.97510396067E+01 -0.40944180147E+01  0.11971827838E+02  0.51100000000E-03 0. -1.
        -11    1    4    4    0    0 -0.17938378096E+02 -0.63841116095E+01  0.42531880560E+01  0.19509789816E+02  0.51100000000E-03 0.  1.
         12    1    4    4    0    0 -0.15760581577E+02 -0.18391826938E+01  0.37544507131E+01  0.16305656220E+02  0.00000000000E+00 0. -1.
</event>
<event>
 8    1  0.5331800E-011  0.9118800E+02  0.7816164E-02  0.1184000E+00
        -11   -1    0    0    0    0  0.00000000000E+00  0.00000000000E+00  0.45593999997E+02  0.45594000000E+02  0.51100000000E-03 0. -1.
         11   -1    0    0    0    0 -0.00000000000E+00 -0.00000000000E+00 -0.45593999997E+02  0.45594000000E+02  0.51100000000E-03 0.  1.
         23    2    1    2    0    0  0.00000000000E+00  0.88817841970E-15  0.00000000000E+00  0.91188000000E+02  0.91188000000E+02 0.  0.
    9900012    2    3    3    0    0 -0.32297678792E+02 -0.32371588471E+01  0.28809788832E+02  0.47787272065E+02  0.20000004651E+02 0.  0.
        -12    1    3    3    0    0  0.32297678792E+02  0.32371588471E+01 -0.28809788832E+02  0.43400727935E+02  0.00000000000E+00 0.  1.
         11    1    4    4    0    0 -0.26917802299E+01 -0.63015465256E+01  0.39787323265E+01  0.79237289585E+01  0.51100000000E-03 0. -1.
        -11    1    4    4    0    0 -0.22594324456E+02  0.45664785074E+01  0.22773478260E+02  0.32403511167E+02  0.51100000000E-03 0.  1.
        -12    1    4    4    0    0 -0.70115741059E+01 -0.15020908289E+01  0.20575782458E+01  0.74600319395E+01  0.00000000000E+00 0.  1.
</event>
<event>
 8    1  0.5331800E-011  0.9118800E+02  0.7816164E-02  0.1184000E+00
        -11   -1    0    0    0    0  0.00000000000E+00  0.00000000000E+00  0.45593999997E+02  0.45594000000E+02  0.51100000000E-03 0. -1.
         11   -1    0    0    0    0 -0.00000000000E+00 -0.00000000000E+00 -0.45593999997E+02  0.45594000000E+02  0.51100000000E-03 0.  1.
         23    2    1    2    0    0 -0.88817841970E-15  0.00000000000E+00  0.00000000000E+00  0.91188000000E+02  0.91188000000E+02 0.  0.
    9900012    2    3    3    0    0 -0.54760022433E+01  0.26146965487E+02 -0.34204864166E+02  0.47787272617E+02  0.20000007171E+02 0.  0.
         12    1    3    3    0    0  0.54760022433E+01 -0.26146965487E+02  0.34204864166E+02  0.43400727383E+02  0.00000000000E+00 0. -1.
         11    1    4    4    0    0 -0.63621834448E+01  0.44302276607E+00 -0.75928489664E+01  0.99158964822E+01  0.51100000000E-03 0. -1.
        -11    1    4    4    0    0 -0.96649556035E+00  0.21939909910E+02 -0.18403021221E+02  0.28652485945E+02  0.51100000000E-03 0.  1.
        -12    1    4    4    0    0  0.18526767619E+01  0.37640328104E+01 -0.82089939791E+01  0.92188901897E+01  0.00000000000E+00 0.  1.
</event>
<event>
 8    1  0.5331800E-011  0.9118800E+02  0.7816164E-02  0.1184000E+00
        -11   -1    0    0    0    0  0.00000000000E+00  0.00000000000E+00  0.45593999997E+02  0.45594000000E+02  0.51100000000E-03 0. -1.
         11   -1    0    0    0    0 -0.00000000000E+00 -0.00000000000E+00 -0.45593999997E+02  0.45594000000E+02  0.51100000000E-03 0.  1.
         23    2    1    2    0    0  0.00000000000E+00  0.00000000000E+00  0.00000000000E+00  0.91188000000E+02  0.91188000000E+02 0.  0.
    9900012    2    3    3    0    0 -0.26493335245E+02 -0.34967602407E+01 -0.34197937371E+02  0.47787273450E+02  0.20000010970E+02 0.  0.
         12    1    3    3    0    0  0.26493335245E+02  0.34967602407E+01  0.34197937371E+02  0.43400726550E+02  0.00000000000E+00 0. -1.
         11    1    4    4    0    0  0.21087363352E+00  0.65952033648E+00 -0.12051385487E+01  0.13898899043E+01  0.51100000000E-03 0. -1.
        -11    1    4    4    0    0 -0.14302408616E+02 -0.86723166178E+00 -0.29964701623E+02  0.33214369279E+02  0.51100000000E-03 0.  1.
        -12    1    4    4    0    0 -0.12401800262E+02 -0.32890489154E+01 -0.30280971990E+01  0.13183014267E+02  0.00000000000E+00 0.  1.
</event>
<event>
 8    1  0.5331800E-011  0.9118800E+02  0.7816164E-02  0.1184000E+00
        -11   -1    0    0    0    0  0.00000000000E+00  0.00000000000E+00  0.45593999997E+02  0.45594000000E+02  0.51100000000E-03 0. -1.
         11   -1    0    0    0    0 -0.00000000000E+00 -0.00000000000E+00 -0.45593999997E+02  0.45594000000E+02  0.51100000000E-03 0.  1.
         23    2    1    2    0    0 -0.17763568394E-14  0.00000000000E+00  0.71054273576E-14  0.91188000000E+02  0.91188000000E+02 0.  0.
    9900012    2    3    3    0    0  0.14713168575E+02 -0.15629976375E+02 -0.37720680847E+02  0.47787271267E+02  0.20000001014E+02 0.  0.
         12    1    3    3    0    0 -0.14713168575E+02  0.15629976375E+02  0.37720680847E+02  0.43400728733E+02  0.00000000000E+00 0. -1.
         11    1    4    4    0    0  0.57428827887E+01 -0.12462362432E+02 -0.77032663647E+01  0.15736311292E+02  0.51100000000E-03 0. -1.
        -11    1    4    4    0    0  0.36158347759E+01  0.15989350269E+01 -0.12923560625E+02  0.13514779829E+02  0.51100000000E-03 0.  1.
         12    1    4    4    0    0  0.53544510101E+01 -0.47665489696E+01 -0.17093853858E+02  0.18536180146E+02  0.00000000000E+00 0. -1.
</event>
<event>
 8    1  0.5331800E-011  0.9118800E+02  0.7816164E-02  0.1184000E+00
        -11   -1    0    0    0    0  0.00000000000E+00  0.00000000000E+00  0.45593999997E+02  0.45594000000E+02  0.51100000000E-03 0. -1.
         11   -1    0    0    0    0 -0.00000000000E+00 -0.00000000000E+00 -0.45593999997E+02  0.45594000000E+02  0.51100000000E-03 0.  1.
         23    2    1    2    0    0  0.66613381478E-15  0.17763568394E-14  0.00000000000E+00  0.91188000000E+02  0.91188000000E+02 0.  0.
    9900012    2    3    3    0    0  0.12793864236E+01  0.89192535965E+01  0.42455043780E+02  0.47787301196E+02  0.20000137471E+02 0.  0.
        -12    1    3    3    0    0 -0.12793864236E+01 -0.89192535965E+01 -0.42455043780E+02  0.43400698804E+02  0.00000000000E+00 0.  1.
         11    1    4    4    0    0 -0.29151540319E+01  0.78311618713E+01  0.99659781616E+01  0.13005611876E+02  0.51100000000E-03 0. -1.
        -11    1    4    4    0    0  0.52561681232E+01 -0.40154623963E+01  0.12721244208E+02  0.14338106432E+02  0.51100000000E-03 0.  1.
        -12    1    4    4    0    0 -0.10616276677E+01  0.51035541216E+01  0.19767821410E+02  0.20443582888E+02  0.00000000000E+00 0.  1.
</event>
<event>
 8    1  0.5331800E-011  0.9118800E+02  0.7816164E-02  0.1184000E+00
        -11   -1    0    0    0    0  0.00000000000E+00  0.00000000000E+00  0.45593999997E+02  0.45594000000E+02  0.51100000000E-03 0. -1.
         11   -1    0    0    0    0 -0.00000000000E+00 -0.00000000000E+00 -0.45593999997E+02  0.45594000000E+02  0.51100000000E-03 0.  1.
         23    2    1    2    0    0  0.00000000000E+00  0.00000000000E+00  0.00000000000E+00  0.91188000000E+02  0.91188000000E+02 0.  0.
    9900012    2    3    3    0    0 -0.21421675392E+02  0.21100201584E+02  0.31297225356E+02  0.47787274217E+02  0.20000014467E+02 0.  0.
        -12    1    3    3    0    0  0.21421675392E+02 -0.21100201584E+02 -0.31297225356E+02  0.43400725783E+02  0.00000000000E+00 0.  1.
         11    1    4    4    0    0 -0.20977223496E+02  0.11638961951E+02  0.29227862833E+02  0.37812396208E+02  0.51100000000E-03 0. -1.
        -11    1    4    4    0    0  0.41776477489E+00  0.71684625269E+01  0.82639409375E+00  0.72280225419E+01  0.51100000000E-03 0.  1.
         12    1    4    4    0    0 -0.86221667015E+00  0.22927771061E+01  0.12429684290E+01  0.27468554677E+01  0.00000000000E+00 0. -1.
</event>
<event>
 8    1  0.5331800E-011  0.9118800E+02  0.7816164E-02  0.1184000E+00
        -11   -1    0    0    0    0  0.00000000000E+00  0.00000000000E+00  0.45593999997E+02  0.45594000000E+02  0.51100000000E-03 0. -1.
         11   -1    0    0    0    0 -0.00000000000E+00 -0.00000000000E+00 -0.45593999997E+02  0.45594000000E+02  0.51100000000E-03 0.  1.
         23    2    1    2    0    0  0.17763568394E-14 -0.17763568394E-14  0.71054273576E-14  0.91188000000E+02  0.91188000000E+02 0.  0.
    9900012    2    3    3    0    0  0.11287496242E+02 -0.14232623799E+02  0.39416345057E+02  0.47787269485E+02  0.19999992888E+02 0.  0.
        -12    1    3    3    0    0 -0.11287496242E+02  0.14232623799E+02 -0.39416345057E+02  0.43400730515E+02  0.00000000000E+00 0.  1.
         11    1    4    4    0    0  0.75006862500E+01 -0.12009582504E+02  0.28784560183E+02  0.32078673154E+02  0.51100000000E-03 0. -1.
        -11    1    4    4    0    0  0.35719292466E+01  0.32875180761E+01  0.85148670679E+01  0.98015006549E+01  0.51100000000E-03 0.  1.
         12    1    4    4    0    0  0.21488074512E+00 -0.55105593714E+01  0.21169178059E+01  0.59070956753E+01  0.00000000000E+00 0. -1.
</event>
<event>
 8    1  0.5331800E-011  0.9118800E+02  0.7816164E-02  0.1184000E+00
        -11   -1    0    0    0    0  0.00000000000E+00  0.00000000000E+00  0.45593999997E+02  0.45594000000E+02  0.51100000000E-03 0. -1.
         11   -1    0    0    0    0 -0.00000000000E+00 -0.00000000000E+00 -0.45593999997E+02  0.45594000000E+02  0.51100000000E-03 0.  1.
         23    2    1    2    0    0  0.00000000000E+00  0.00000000000E+00  0.00000000000E+00  0.91188000000E+02  0.91188000000E+02 0.  0.
    9900012    2    3    3    0    0 -0.94273669431E+01  0.63998682540E+01 -0.41878275485E+02  0.47787268223E+02  0.19999987136E+02 0.  0.
         12    1    3    3    0    0  0.94273669431E+01 -0.63998682540E+01  0.41878275485E+02  0.43400731777E+02  0.00000000000E+00 0. -1.
         11    1    4    4    0    0 -0.78230359893E+01  0.31310193627E+01 -0.18337312790E+02  0.20180689160E+02  0.51100000000E-03 0. -1.
        -11    1    4    4    0    0 -0.42125836124E+01  0.54667501665E+01 -0.23169544940E+02  0.24175587502E+02  0.51100000000E-03 0.  1.
         12    1    4    4    0    0  0.26082526587E+01 -0.21979012751E+01 -0.37141775553E+00  0.34309915616E+01  0.00000000000E+00 0. -1.
</event>
<event>
 8    1  0.5331800E-011  0.9118800E+02  0.7816164E-02  0.1184000E+00
        -11   -1    0    0    0    0  0.00000000000E+00  0.00000000000E+00  0.45593999997E+02  0.45594000000E+02  0.51100000000E-03 0. -1.
         11   -1    0    0    0    0 -0.00000000000E+00 -0.00000000000E+00 -0.45593999997E+02  0.45594000000E+02  0.51100000000E-03 0.  1.
         23    2    1    2    0    0 -0.17763568394E-14  0.17763568394E-14  0.00000000000E+00  0.91188000000E+02  0.91188000000E+02 0.  0.
    9900012    2    3    3    0    0 -0.76376530194E+01  0.15926578713E+02  0.39643829339E+02  0.47787275838E+02  0.20000021855E+02 0.  0.
        -12    1    3    3    0    0  0.76376530194E+01 -0.15926578713E+02 -0.39643829339E+02  0.43400724162E+02  0.00000000000E+00 0.  1.
         11    1    4    4    0    0 -0.74014755027E+01  0.16893762262E+02  0.29045037979E+02  0.34406326082E+02  0.51100000000E-03 0. -1.
        -11    1    4    4    0    0 -0.41714847543E+00  0.34769577026E+01  0.62279669690E+01  0.71449856924E+01  0.51100000000E-03 0.  1.
         12    1    4    4    0    0  0.18097095880E+00 -0.44441412514E+01  0.43708243908E+01  0.62359640638E+01  0.00000000000E+00 0. -1.
</event>
<event>
 8    1  0.5331800E-011  0.9118800E+02  0.7816164E-02  0.1184000E+00
        -11   -1    0    0    0    0  0.00000000000E+00  0.00000000000E+00  0.45593999997E+02  0.45594000000E+02  0.51100000000E-03 0. -1.
         11   -1    0    0    0    0 -0.00000000000E+00 -0.00000000000E+00 -0.45593999997E+02  0.45594000000E+02  0.51100000000E-03 0.  1.
         23    2    1    2    0    0  0.00000000000E+00  0.35527136788E-14  0.00000000000E+00  0.91188000000E+02  0.91188000000E+02 0.  0.
    9900012    2    3    3    0    0 -0.53854655117E+01  0.29465523337E+02  0.31407053860E+02  0.47787270324E+02  0.19999996713E+02 0.  0.
        -12    1    3    3    0    0  0.53854655117E+01 -0.29465523337E+02 -0.31407053860E+02  0.43400729676E+02  0.00000000000E+00 0.  1.
         11    1    4    4    0    0  0.20571838807E+01  0.85967017891E+00  0.37830773802E+01  0.43912086105E+01  0.51100000000E-03 0.  1.
        -11    1    4    4    0    0  0.87093388704E+00  0.23697516571E+02  0.21121319459E+02  0.31755959337E+02  0.51100000000E-03 0. -1.
        -12    1    4    4    0    0 -0.83135832794E+01  0.49083365873E+01  0.65026570203E+01  0.11640102376E+02  0.00000000000E+00 0.  1.
</event>
<event>
 8    1  0.5331800E-011  0.9118800E+02  0.7816164E-02  0.1184000E+00
        -11   -1    0    0    0    0  0.00000000000E+00  0.00000000000E+00  0.45593999997E+02  0.45594000000E+02  0.51100000000E-03 0. -1.
         11   -1    0    0    0    0 -0.00000000000E+00 -0.00000000000E+00 -0.45593999997E+02  0.45594000000E+02  0.51100000000E-03 0.  1.
         23    2    1    2    0    0  0.00000000000E+00  0.17763568394E-14  0.00000000000E+00  0.91188000000E+02  0.91188000000E+02 0.  0.
    9900012    2    3    3    0    0  0.57114534885E+01 -0.99423271890E+01 -0.41858724105E+02  0.47787270115E+02  0.19999995762E+02 0.  0.
         12    1    3    3    0    0 -0.57114534885E+01  0.99423271890E+01  0.41858724105E+02  0.43400729885E+02  0.00000000000E+00 0. -1.
         11    1    4    4    0    0 -0.25826192987E+01 -0.96041899050E+01 -0.17138619716E+02  0.19815213150E+02  0.51100000000E-03 0. -1.
        -11    1    4    4    0    0  0.25062545095E+01  0.47214044545E+01 -0.11444160941E+02  0.12630985377E+02  0.51100000000E-03 0.  1.
        -12    1    4    4    0    0  0.57878182778E+01 -0.50595417386E+01 -0.13275943448E+02  0.15341071587E+02  0.00000000000E+00 0.  1.
</event>
<event>
 8    1  0.5331800E-011  0.9118800E+02  0.7816164E-02  0.1184000E+00
        -11   -1    0    0    0    0  0.00000000000E+00  0.00000000000E+00  0.45593999997E+02  0.45594000000E+02  0.51100000000E-03 0. -1.
         11   -1    0    0    0    0 -0.00000000000E+00 -0.00000000000E+00 -0.45593999997E+02  0.45594000000E+02  0.51100000000E-03 0.  1.
         23    2    1    2    0    0  0.00000000000E+00 -0.35527136788E-14  0.00000000000E+00  0.91188000000E+02  0.91188000000E+02 0.  0.
    9900012    2    3    3    0    0  0.98172091594E+01 -0.22858327415E+02 -0.35563216528E+02  0.47787273074E+02  0.20000009254E+02 0.  0.
         12    1    3    3    0    0 -0.98172091594E+01  0.22858327415E+02  0.35563216528E+02  0.43400726926E+02  0.00000000000E+00 0. -1.
         11    1    4    4    0    0  0.31020287374E+01  0.48606283219E+00 -0.73392332223E+01  0.79826802464E+01  0.51100000000E-03 0. -1.
        -11    1    4    4    0    0 -0.41984904769E+00 -0.19769248593E+02 -0.22667536388E+02  0.30080170699E+02  0.51100000000E-03 0.  1.
        -12    1    4    4    0    0  0.71350294697E+01 -0.35751416542E+01 -0.55564469179E+01  0.97244221285E+01  0.00000000000E+00 0.  1.
</event>
<event>
 8    1  0.5331800E-011  0.9118800E+02  0.7816164E-02  0.1184000E+00
        -11   -1    0    0    0    0  0.00000000000E+00  0.00000000000E+00  0.45593999997E+02  0.45594000000E+02  0.51100000000E-03 0. -1.
         11   -1    0    0    0    0 -0.00000000000E+00 -0.00000000000E+00 -0.45593999997E+02  0.45594000000E+02  0.51100000000E-03 0.  1.
         23    2    1    2    0    0  0.00000000000E+00  0.88817841970E-15  0.00000000000E+00  0.91188000000E+02  0.91188000000E+02 0.  0.
    9900012    2    3    3    0    0  0.32714285690E+02 -0.58545117729E+01  0.27912778878E+02  0.47787273958E+02  0.20000013282E+02 0.  0.
        -12    1    3    3    0    0 -0.32714285690E+02  0.58545117729E+01 -0.27912778878E+02  0.43400726042E+02  0.00000000000E+00 0.  1.
         11    1    4    4    0    0  0.25697917126E+02  0.11566936108E+01  0.18402313141E+02  0.31628563260E+02  0.51100000000E-03 0. -1.
        -11    1    4    4    0    0 -0.13758474469E+00  0.35320337922E+00  0.48817555743E+01  0.48964497279E+01  0.51100000000E-03 0.  1.
         12    1    4    4    0    0  0.71539533088E+01 -0.73644087628E+01  0.46287101635E+01  0.11262260970E+02  0.00000000000E+00 0. -1.
</event>
<event>
 8    1  0.5331800E-011  0.9118800E+02  0.7816164E-02  0.1184000E+00
        -11   -1    0    0    0    0  0.00000000000E+00  0.00000000000E+00  0.45593999997E+02  0.45594000000E+02  0.51100000000E-03 0. -1.
         11   -1    0    0    0    0 -0.00000000000E+00 -0.00000000000E+00 -0.45593999997E+02  0.45594000000E+02  0.51100000000E-03 0.  1.
         23    2    1    2    0    0  0.00000000000E+00  0.00000000000E+00  0.00000000000E+00  0.91188000000E+02  0.91188000000E+02 0.  0.
    9900012    2    3    3    0    0 -0.32354351227E+01 -0.34632943730E+02  0.25956011918E+02  0.47787269747E+02  0.19999994083E+02 0.  0.
        -12    1    3    3    0    0  0.32354351227E+01  0.34632943730E+02 -0.25956011918E+02  0.43400730253E+02  0.00000000000E+00 0.  1.
         11    1    4    4    0    0 -0.64609526955E+01 -0.21900208206E+02  0.14156949687E+02  0.26866005544E+02  0.51100000000E-03 0. -1.
        -11    1    4    4    0    0 -0.58710020002E+00  0.11262861142E+01 -0.10451032495E+01  0.16448246469E+01  0.51100000000E-03 0.  1.
         12    1    4    4    0    0  0.38126177729E+01 -0.13859021637E+02  0.12844165481E+02  0.19276439555E+02  0.00000000000E+00 0. -1.
</event>
<event>
 8    1  0.5331800E-011  0.9118800E+02  0.7816164E-02  0.1184000E+00
        -11   -1    0    0    0    0  0.00000000000E+00  0.00000000000E+00  0.45593999997E+02  0.45594000000E+02  0.51100000000E-03 0. -1.
         11   -1    0    0    0    0 -0.00000000000E+00 -0.00000000000E+00 -0.45593999997E+02  0.45594000000E+02  0.51100000000E-03 0.  1.
         23    2    1    2    0    0 -0.35527136788E-14  0.00000000000E+00 -0.35527136788E-14  0.91188000000E+02  0.91188000000E+02 0.  0.
    9900012    2    3    3    0    0 -0.16346916240E+02  0.27703342562E+02 -0.29136344965E+02  0.47787268928E+02  0.19999990351E+02 0.  0.
         12    1    3    3    0    0  0.16346916240E+02 -0.27703342562E+02  0.29136344965E+02  0.43400731072E+02  0.00000000000E+00 0. -1.
         11    1    4    4    0    0  0.90257804494E+00  0.12427204410E+02 -0.49021535682E+01  0.13389591721E+02  0.51100000000E-03 0. -1.
        -11    1    4    4    0    0 -0.10438111945E+02  0.76003927964E+01 -0.18739214336E+02  0.22756939729E+02  0.51100000000E-03 0.  1.
         12    1    4    4    0    0 -0.68113823400E+01  0.76757453554E+01 -0.54949770600E+01  0.11640737478E+02  0.00000000000E+00 0. -1.
</event>
<event>
 8    1  0.5331800E-011  0.9118800E+02  0.7816164E-02  0.1184000E+00
        -11   -1    0    0    0    0  0.00000000000E+00  0.00000000000E+00  0.45593999997E+02  0.45594000000E+02  0.51100000000E-03 0. -1.
         11   -1    0    0    0    0 -0.00000000000E+00 -0.00000000000E+00 -0.45593999997E+02  0.45594000000E+02  0.51100000000E-03 0.  1.
         23    2    1    2    0    0  0.00000000000E+00  0.88817841970E-15  0.71054273576E-14  0.91188000000E+02  0.91188000000E+02 0.  0.
    9900012    2    3    3    0    0 -0.24099737257E+02 -0.49837059744E+01 -0.35748959176E+02  0.47787277157E+02  0.20000027872E+02 0.  0.
         12    1    3    3    0    0  0.24099737257E+02  0.49837059744E+01  0.35748959176E+02  0.43400722843E+02  0.00000000000E+00 0. -1.
         11    1    4    4    0    0 -0.57722662730E+01  0.39926518274E+01 -0.14243343469E+02  0.15878701458E+02  0.51100000000E-03 0. -1.
        -11    1    4    4    0    0 -0.22346059582E+01 -0.56965228081E+01 -0.20628956810E+01  0.64575053034E+01  0.51100000000E-03 0.  1.
         12    1    4    4    0    0 -0.16092865026E+02 -0.32798349938E+01 -0.19442720026E+02  0.25451070396E+02  0.00000000000E+00 0. -1.
</event>
<event>
 8    1  0.6395136E-011  0.9118800E+02  0.7816164E-02  0.1184000E+00
        -11   -1    0    0    0    0  0.00000000000E+00  0.00000000000E+00  0.45593999997E+02  0.45594000000E+02  0.51100000000E-03 0. -1.
         11   -1    0    0    0    0 -0.00000000000E+00 -0.00000000000E+00 -0.45593999997E+02  0.45594000000E+02  0.51100000000E-03 0.  1.
         23    2    1    2    0    0 -0.17763568394E-14 -0.35527136788E-14  0.71054273576E-14  0.91188000000E+02  0.91188000000E+02 0.  0.
    9900012    2    3    3    0    0 -0.95073870797E+01  0.22827273457E+02 -0.35667167229E+02  0.47787289860E+02  0.20000085785E+02 0.  0.
         12    1    3    3    0    0  0.95073870797E+01 -0.22827273457E+02  0.35667167229E+02  0.43400710140E+02  0.00000000000E+00 0. -1.
         11    1    4    4    0    0 -0.14598145961E+00 -0.17210092976E+01 -0.13098303926E+00  0.17321490718E+01  0.51100000000E-03 0. -1.
        -11    1    4    4    0    0 -0.12139968437E+02  0.20438807802E+02 -0.25513956143E+02  0.34872419709E+02  0.51100000000E-03 0.  1.
        -12    1    4    4    0    0  0.27785628168E+01  0.41094749524E+01 -0.10022228046E+02  0.11182721079E+02  0.00000000000E+00 0.  1.
</event>
<event>
 8    1  0.7445333E-011  0.9118800E+02  0.7816164E-02  0.1184000E+00
        -11   -1    0    0    0    0  0.00000000000E+00  0.00000000000E+00  0.45593999997E+02  0.45594000000E+02  0.51100000000E-03 0. -1.
         11   -1    0    0    0    0 -0.00000000000E+00 -0.00000000000E+00 -0.45593999997E+02  0.45594000000E+02  0.51100000000E-03 0.  1.
         23    2    1    2    0    0  0.00000000000E+00  0.17763568394E-14 -0.71054273576E-14  0.91188000000E+02  0.91188000000E+02 0.  0.
    9900012    2    3    3    0    0 -0.30006237374E+01 -0.11046805154E+02  0.41863920148E+02  0.47787268934E+02  0.19999990377E+02 0.  0.
        -12    1    3    3    0    0  0.30006237374E+01  0.11046805154E+02 -0.41863920148E+02  0.43400731066E+02  0.00000000000E+00 0.  1.
         11    1    4    4    0    0 -0.73204020685E+00 -0.20317266490E+01  0.15198298969E+02  0.15350963744E+02  0.51100000000E-03 0. -1.
        -11    1    4    4    0    0 -0.33128625704E+01  0.36378003204E+01  0.12393738404E+02  0.13334669155E+02  0.51100000000E-03 0.  1.
        -12    1    4    4    0    0  0.10442790398E+01 -0.12652878826E+02  0.14271882775E+02  0.19101636035E+02  0.00000000000E+00 0.  1.
</event>
<event>
 8    1  0.5331800E-011  0.9118800E+02  0.7816164E-02  0.1184000E+00
        -11   -1    0    0    0    0  0.00000000000E+00  0.00000000000E+00  0.45593999997E+02  0.45594000000E+02  0.51100000000E-03 0. -1.
         11   -1    0    0    0    0 -0.00000000000E+00 -0.00000000000E+00 -0.45593999997E+02  0.45594000000E+02  0.51100000000E-03 0.  1.
         23    2    1    2    0    0  0.00000000000E+00  0.35527136788E-14  0.00000000000E+00  0.91188000000E+02  0.91188000000E+02 0.  0.
    9900012    2    3    3    0    0 -0.19268558082E+02  0.18320188731E+02 -0.34303303759E+02  0.47787270807E+02  0.19999998918E+02 0.  0.
         12    1    3    3    0    0  0.19268558082E+02 -0.18320188731E+02  0.34303303759E+02  0.43400729193E+02  0.00000000000E+00 0. -1.
         11    1    4    4    0    0 -0.15779660866E+02  0.51133011321E+01 -0.16363461622E+02  0.23300352401E+02  0.51100000000E-03 0. -1.
        -11    1    4    4    0    0 -0.29483952835E+00 -0.18767371385E+00 -0.67076879322E+01  0.67167871358E+01  0.51100000000E-03 0.  1.
         12    1    4    4    0    0 -0.31940576875E+01  0.13394561312E+02 -0.11232154205E+02  0.17770131270E+02  0.00000000000E+00 0. -1.
</event>
<event>
 8    1  0.5331800E-011  0.9118800E+02  0.7816164E-02  0.1184000E+00
        -11   -1    0    0    0    0  0.00000000000E+00  0.00000000000E+00  0.45593999997E+02  0.45594000000E+02  0.51100000000E-03 0. -1.
         11   -1    0    0    0    0 -0.00000000000E+00 -0.00000000000E+00 -0.45593999997E+02  0.45594000000E+02  0.51100000000E-03 0.  1.
         23    2    1    2    0    0 -0.17763568394E-14  0.00000000000E+00  0.00000000000E+00  0.91188000000E+02  0.91188000000E+02 0.  0.
    9900012    2    3    3    0    0 -0.11443591428E+02 -0.20976362161E+02  0.36230635624E+02  0.47787279822E+02  0.20000040019E+02 0.  0.
        -12    1    3    3    0    0  0.11443591428E+02  0.20976362161E+02 -0.36230635624E+02  0.43400720178E+02  0.00000000000E+00 0.  1.
         11    1    4    4    0    0 -0.79100713456E+01 -0.36943091498E+01  0.16518635072E+02  0.18683748384E+02  0.51100000000E-03 0. -1.
        -11    1    4    4    0    0  0.42259295337E+01 -0.87843215024E+01  0.10800198850E+02  0.14548782772E+02  0.51100000000E-03 0.  1.
         12    1    4    4    0    0 -0.77594496165E+01 -0.84977315087E+01  0.89118017018E+01  0.14554748666E+02  0.00000000000E+00 0. -1.
</event>
<event>
 8    1  0.5331800E-011  0.9118800E+02  0.7816164E-02  0.1184000E+00
        -11   -1    0    0    0    0  0.00000000000E+00  0.00000000000E+00  0.45593999997E+02  0.45594000000E+02  0.51100000000E-03 0. -1.
         11   -1    0    0    0    0 -0.00000000000E+00 -0.00000000000E+00 -0.45593999997E+02  0.45594000000E+02  0.51100000000E-03 0.  1.
         23    2    1    2    0    0 -0.35527136788E-14 -0.88817841970E-15 -0.71054273576E-14  0.91188000000E+02  0.91188000000E+02 0.  0.
    9900012    2    3    3    0    0 -0.25275835117E+02 -0.71485881996E+01  0.34549283934E+02  0.47787272190E+02  0.20000005223E+02 0.  0.
        -12    1    3    3    0    0  0.25275835117E+02  0.71485881996E+01 -0.34549283934E+02  0.43400727810E+02  0.00000000000E+00 0.  1.
         11    1    4    4    0    0  0.95150588357E+00 -0.52585604226E+00 -0.53786049387E+00  0.12129229966E+01  0.51100000000E-03 0. -1.
        -11    1    4    4    0    0  0.23402677593E+00 -0.37219682268E+01  0.66332399582E+01  0.76097101533E+01  0.51100000000E-03 0.  1.
         12    1    4    4    0    0 -0.26461367777E+02 -0.29007639306E+01  0.28453904469E+02  0.38964639040E+02  0.00000000000E+00 0. -1.
</event>
<event>
 8    1  0.5331800E-011  0.9118800E+02  0.7816164E-02  0.1184000E+00
        -11   -1    0    0    0    0  0.00000000000E+00  0.00000000000E+00  0.45593999997E+02  0.45594000000E+02  0.51100000000E-03 0. -1.
         11   -1    0    0    0    0 -0.00000000000E+00 -0.00000000000E+00 -0.45593999997E+02  0.45594000000E+02  0.51100000000E-03 0.  1.
         23    2    1    2    0    0  0.00000000000E+00  0.00000000000E+00  0.00000000000E+00  0.91188000000E+02  0.91188000000E+02 0.  0.
    9900012    2    3    3    0    0  0.20878758968E+02  0.19963306203E+02  0.32390845957E+02  0.47787273365E+02  0.20000010582E+02 0.  0.
        -12    1    3    3    0    0 -0.20878758968E+02 -0.19963306203E+02 -0.32390845957E+02  0.43400726635E+02  0.00000000000E+00 0.  1.
         11    1    4    4    0    0  0.40443963667E+01 -0.18392772747E+01  0.11767261701E+02  0.12578097276E+02  0.51100000000E-03 0. -1.
        -11    1    4    4    0    0  0.10963736821E+01 -0.52240653865E+00  0.10492222232E+01  0.16049334495E+01  0.51100000000E-03 0.  1.
         12    1    4    4    0    0  0.15737988920E+02  0.22324990016E+02  0.19574362032E+02  0.33604242640E+02  0.00000000000E+00 0. -1.
</event>
<event>
 8    1  0.5331800E-011  0.9118800E+02  0.7816164E-02  0.1184000E+00
        -11   -1    0    0    0    0  0.00000000000E+00  0.00000000000E+00  0.45593999997E+02  0.45594000000E+02  0.51100000000E-03 0. -1.
         11   -1    0    0    0    0 -0.00000000000E+00 -0.00000000000E+00 -0.45593999997E+02  0.45594000000E+02  0.51100000000E-03 0.  1.
         23    2    1    2    0    0  0.35527136788E-14 -0.35527136788E-14 -0.35527136788E-14  0.91188000000E+02  0.91188000000E+02 0.  0.
    9900012    2    3    3    0    0 -0.27275431019E+02  0.26466549479E+02  0.20957009940E+02  0.47787266778E+02  0.19999980547E+02 0.  0.
        -12    1    3    3    0    0  0.27275431019E+02 -0.26466549479E+02 -0.20957009940E+02  0.43400733222E+02  0.00000000000E+00 0.  1.
         11    1    4    4    0    0 -0.21227289431E+02  0.11804254423E+02  0.15426784867E+02  0.28773667313E+02  0.51100000000E-03 0. -1.
        -11    1    4    4    0    0 -0.31039066623E+01  0.11940293475E+02  0.76112071971E+01  0.14496044982E+02  0.51100000000E-03 0.  1.
         12    1    4    4    0    0 -0.29442349257E+01  0.27220015810E+01 -0.20809821242E+01  0.45175544829E+01  0.00000000000E+00 0. -1.
</event>
<event>
 8    1  0.5331800E-011  0.9118800E+02  0.7816164E-02  0.1184000E+00
        -11   -1    0    0    0    0  0.00000000000E+00  0.00000000000E+00  0.45593999997E+02  0.45594000000E+02  0.51100000000E-03 0. -1.
         11   -1    0    0    0    0 -0.00000000000E+00 -0.00000000000E+00 -0.45593999997E+02  0.45594000000E+02  0.51100000000E-03 0.  1.
         23    2    1    2    0    0  0.00000000000E+00  0.00000000000E+00  0.00000000000E+00  0.91188000000E+02  0.91188000000E+02 0.  0.
    9900012    2    3    3    0    0 -0.18729111488E+02  0.23339235160E+02  0.31434429289E+02  0.47787275816E+02  0.20000021757E+02 0.  0.
        -12    1    3    3    0    0  0.18729111488E+02 -0.23339235160E+02 -0.31434429289E+02  0.43400724184E+02  0.00000000000E+00 0.  1.
         11    1    4    4    0    0 -0.12085937191E+01  0.31397481842E+00  0.12031677376E+02  0.12096302729E+02  0.51100000000E-03 0. -1.
        -11    1    4    4    0    0 -0.14685853547E+02  0.20494377607E+02  0.19524600239E+02  0.31888929469E+02  0.51100000000E-03 0.  1.
        -12    1    4    4    0    0 -0.28346642218E+01  0.25308827342E+01 -0.12184832663E+00  0.38020436188E+01  0.00000000000E+00 0.  1.
</event>
<event>
 8    1  0.5331800E-011  0.9118800E+02  0.7816164E-02  0.1184000E+00
        -11   -1    0    0    0    0  0.00000000000E+00  0.00000000000E+00  0.45593999997E+02  0.45594000000E+02  0.51100000000E-03 0. -1.
         11   -1    0    0    0    0 -0.00000000000E+00 -0.00000000000E+00 -0.45593999997E+02  0.45594000000E+02  0.51100000000E-03 0.  1.
         23    2    1    2    0    0 -0.71054273576E-14  0.00000000000E+00  0.00000000000E+00  0.91188000000E+02  0.91188000000E+02 0.  0.
    9900012    2    3    3    0    0  0.34193933420E+02 -0.50973610643E+01  0.26237624351E+02  0.47787296041E+02  0.20000113971E+02 0.  0.
        -12    1    3    3    0    0 -0.34193933420E+02  0.50973610643E+01 -0.26237624351E+02  0.43400703959E+02  0.00000000000E+00 0.  1.
         11    1    4    4    0    0  0.16769348175E+02 -0.65177429831E+01  0.23300563094E+02  0.29438210757E+02  0.51100000000E-03 0. -1.
        -11    1    4    4    0    0  0.72901281260E+01 -0.98964217976E+00 -0.51481546284E+00  0.73749844040E+01  0.51100000000E-03 0.  1.
         12    1    4    4    0    0  0.10134457119E+02  0.24100240986E+01  0.34518767196E+01  0.10974100880E+02  0.00000000000E+00 0. -1.
</event>
<event>
 8    1  0.5331800E-011  0.9118800E+02  0.7816164E-02  0.1184000E+00
        -11   -1    0    0    0    0  0.00000000000E+00  0.00000000000E+00  0.45593999997E+02  0.45594000000E+02  0.51100000000E-03 0. -1.
         11   -1    0    0    0    0 -0.00000000000E+00 -0.00000000000E+00 -0.45593999997E+02  0.45594000000E+02  0.51100000000E-03 0.  1.
         23    2    1    2    0    0  0.88817841970E-15 -0.35527136788E-14  0.35527136788E-14  0.91188000000E+02  0.91188000000E+02 0.  0.
    9900012    2    3    3    0    0 -0.69567080713E+00  0.30883535102E+02 -0.30485189820E+02  0.47787268478E+02  0.19999988297E+02 0.  0.
         12    1    3    3    0    0  0.69567080713E+00 -0.30883535102E+02  0.30485189820E+02  0.43400731522E+02  0.00000000000E+00 0. -1.
         11    1    4    4    0    0 -0.51502334024E+01  0.68531116452E+00 -0.32016249285E+01  0.61028647318E+01  0.51100000000E-03 0. -1.
        -11    1    4    4    0    0  0.48262109075E+01  0.18362436660E+02 -0.12450543122E+02  0.22704347956E+02  0.51100000000E-03 0.  1.
         12    1    4    4    0    0 -0.37164831223E+00  0.11835787278E+02 -0.14833021770E+02  0.18980055790E+02  0.00000000000E+00 0. -1.
</event>
<event>
 8    1  0.5331801E-011  0.9118800E+02  0.7816164E-02  0.1184000E+00
        -11   -1    0    0    0    0  0.00000000000E+00  0.00000000000E+00  0.45593999997E+02  0.45594000000E+02  0.51100000000E-03 0. -1.
         11   -1    0    0    0    0 -0.00000000000E+00 -0.00000000000E+00 -0.45593999997E+02  0.45594000000E+02  0.51100000000E-03 0.  1.
         23    2    1    2    0    0  0.00000000000E+00  0.00000000000E+00  0.00000000000E+00  0.91188000000E+02  0.91188000000E+02 0.  0.
    9900012    2    3    3    0    0 -0.19931149905E+02  0.82224051813E+01 -0.37666498677E+02  0.47787264913E+02  0.19999972045E+02 0.  0.
         12    1    3    3    0    0  0.19931149905E+02 -0.82224051813E+01  0.37666498677E+02  0.43400735087E+02  0.00000000000E+00 0. -1.
         11    1    4    4    0    0  0.14222117825E+01 -0.27355998992E+01 -0.47920912748E+01  0.56982744940E+01  0.51100000000E-03 0. -1.
        -11    1    4    4    0    0 -0.15197361870E+02  0.99382425835E+01 -0.16383621218E+02  0.24457136340E+02  0.51100000000E-03 0.  1.
        -12    1    4    4    0    0 -0.61559998168E+01  0.10197624970E+01 -0.16490786185E+02  0.17631854080E+02  0.00000000000E+00 0.  1.
</event>
<event>
 8    1  0.5331800E-011  0.9118800E+02  0.7816164E-02  0.1184000E+00
        -11   -1    0    0    0    0  0.00000000000E+00  0.00000000000E+00  0.45593999997E+02  0.45594000000E+02  0.51100000000E-03 0.  1.
         11   -1    0    0    0    0 -0.00000000000E+00 -0.00000000000E+00 -0.45593999997E+02  0.45594000000E+02  0.51100000000E-03 0. -1.
         23    2    1    2    0    0  0.71054273576E-14  0.00000000000E+00 -0.13322676296E-14  0.91188000000E+02  0.91188000000E+02 0.  0.
    9900012    2    3    3    0    0  0.41060072503E+02 -0.14000045244E+02 -0.13008755531E+01  0.47787273071E+02  0.20000009240E+02 0.  0.
         12    1    3    3    0    0 -0.41060072503E+02  0.14000045244E+02  0.13008755531E+01  0.43400726929E+02  0.00000000000E+00 0. -1.
         11    1    4    4    0    0  0.59997590194E+01 -0.55463676331E+01 -0.56314323871E+01  0.99233226897E+01  0.51100000000E-03 0. -1.
        -11    1    4    4    0    0  0.27900764998E+02 -0.20143913963E+01  0.27898212559E+01  0.28112160413E+02  0.51100000000E-03 0.  1.
        -12    1    4    4    0    0  0.71595484852E+01 -0.64392862147E+01  0.15407355781E+01  0.97517899685E+01  0.00000000000E+00 0.  1.
</event>
<event>
 8    1  0.5331800E-011  0.9118800E+02  0.7816164E-02  0.1184000E+00
        -11   -1    0    0    0    0  0.00000000000E+00  0.00000000000E+00  0.45593999997E+02  0.45594000000E+02  0.51100000000E-03 0. -1.
         11   -1    0    0    0    0 -0.00000000000E+00 -0.00000000000E+00 -0.45593999997E+02  0.45594000000E+02  0.51100000000E-03 0.  1.
         23    2    1    2    0    0  0.00000000000E+00  0.00000000000E+00  0.00000000000E+00  0.91188000000E+02  0.91188000000E+02 0.  0.
    9900012    2    3    3    0    0 -0.19008319145E+02  0.32446234145E+02 -0.21669079398E+02  0.47787270642E+02  0.19999998164E+02 0.  0.
         12    1    3    3    0    0  0.19008319145E+02 -0.32446234145E+02  0.21669079398E+02  0.43400729358E+02  0.00000000000E+00 0. -1.
         11    1    4    4    0    0 -0.58555241636E+01 -0.20312565719E+00 -0.80959463573E+01  0.99936365225E+01  0.51100000000E-03 0. -1.
        -11    1    4    4    0    0 -0.71618724113E+01  0.17244008610E+02 -0.60032211438E+01  0.19613437071E+02  0.51100000000E-03 0.  1.
         12    1    4    4    0    0 -0.59909225700E+01  0.15405351192E+02 -0.75699118964E+01  0.18180197048E+02  0.00000000000E+00 0. -1.
</event>
<event>
 8    1  0.5331800E-011  0.9118800E+02  0.7816164E-02  0.1184000E+00
        -11   -1    0    0    0    0  0.00000000000E+00  0.00000000000E+00  0.45593999997E+02  0.45594000000E+02  0.51100000000E-03 0. -1.
         11   -1    0    0    0    0 -0.00000000000E+00 -0.00000000000E+00 -0.45593999997E+02  0.45594000000E+02  0.51100000000E-03 0.  1.
         23    2    1    2    0    0  0.00000000000E+00 -0.17763568394E-14  0.00000000000E+00  0.91188000000E+02  0.91188000000E+02 0.  0.
    9900012    2    3    3    0    0  0.17349797301E+02 -0.96209794492E+01  0.38601093882E+02  0.47787272346E+02  0.20000005936E+02 0.  0.
        -12    1    3    3    0    0 -0.17349797301E+02  0.96209794492E+01 -0.38601093882E+02  0.43400727654E+02  0.00000000000E+00 0.  1.
         11    1    4    4    0    0  0.17398371855E+01 -0.11329953676E+02  0.18340115702E+02  0.21627638057E+02  0.51100000000E-03 0. -1.
        -11    1    4    4    0    0  0.83499603035E+01 -0.14395744120E+01  0.86507901593E+01  0.12109103278E+02  0.51100000000E-03 0.  1.
         12    1    4    4    0    0  0.72599998122E+01  0.31485486384E+01  0.11610188021E+02  0.14050531011E+02  0.00000000000E+00 0. -1.
</event>
<event>
 8    1  0.5331800E-011  0.9118800E+02  0.7816164E-02  0.1184000E+00
        -11   -1    0    0    0    0  0.00000000000E+00  0.00000000000E+00  0.45593999997E+02  0.45594000000E+02  0.51100000000E-03 0.  1.
         11   -1    0    0    0    0 -0.00000000000E+00 -0.00000000000E+00 -0.45593999997E+02  0.45594000000E+02  0.51100000000E-03 0. -1.
         23    2    1    2    0    0  0.00000000000E+00 -0.88817841970E-15  0.00000000000E+00  0.91188000000E+02  0.91188000000E+02 0.  0.
    9900012    2    3    3    0    0  0.41804809258E+02  0.52619099971E+01  0.10406417218E+02  0.47787270821E+02  0.19999998983E+02 0.  0.
        -12    1    3    3    0    0 -0.41804809258E+02 -0.52619099971E+01 -0.10406417218E+02  0.43400729179E+02  0.00000000000E+00 0.  1.
         11    1    4    4    0    0  0.30465019821E+02 -0.19855268993E+01  0.12937220249E+02  0.33157675096E+02  0.51100000000E-03 0. -1.
        -11    1    4    4    0    0  0.46666580982E+01  0.48187948406E+01  0.85508659266E+00  0.67623705062E+01  0.51100000000E-03 0.  1.
         12    1    4    4    0    0  0.66731313390E+01  0.24286420559E+01 -0.33858896237E+01  0.78672252190E+01  0.00000000000E+00 0. -1.
</event>
<event>
 8    1  0.5331800E-011  0.9118800E+02  0.7816164E-02  0.1184000E+00
        -11   -1    0    0    0    0  0.00000000000E+00  0.00000000000E+00  0.45593999997E+02  0.45594000000E+02  0.51100000000E-03 0. -1.
         11   -1    0    0    0    0 -0.00000000000E+00 -0.00000000000E+00 -0.45593999997E+02  0.45594000000E+02  0.51100000000E-03 0.  1.
         23    2    1    2    0    0  0.00000000000E+00  0.00000000000E+00  0.00000000000E+00  0.91188000000E+02  0.91188000000E+02 0.  0.
    9900012    2    3    3    0    0 -0.23988933412E+02 -0.36072587050E+02  0.26310593919E+01  0.47787274934E+02  0.20000017736E+02 0.  0.
        -12    1    3    3    0    0  0.23988933412E+02  0.36072587050E+02 -0.26310593919E+01  0.43400725066E+02  0.00000000000E+00 0.  1.
         11    1    4    4    0    0  0.29398551617E+01 -0.18173550071E+01  0.53411329005E+00  0.34972567623E+01  0.51100000000E-03 0. -1.
        -11    1    4    4    0    0 -0.11111618756E+02 -0.10816686147E+02 -0.22907263338E+01  0.15675337253E+02  0.51100000000E-03 0.  1.
         12    1    4    4    0    0 -0.15817169818E+02 -0.23438545895E+02  0.43876724357E+01  0.28614680920E+02  0.00000000000E+00 0. -1.
</event>
<event>
 8    1  0.5331800E-011  0.9118800E+02  0.7816164E-02  0.1184000E+00
        -11   -1    0    0    0    0  0.00000000000E+00  0.00000000000E+00  0.45593999997E+02  0.45594000000E+02  0.51100000000E-03 0.  1.
         11   -1    0    0    0    0 -0.00000000000E+00 -0.00000000000E+00 -0.45593999997E+02  0.45594000000E+02  0.51100000000E-03 0. -1.
         23    2    1    2    0    0  0.35527136788E-14  0.00000000000E+00  0.00000000000E+00  0.91188000000E+02  0.91188000000E+02 0.  0.
    9900012    2    3    3    0    0  0.20017552165E+02  0.36900141284E+02  0.11013642754E+02  0.47787272492E+02  0.20000006602E+02 0.  0.
        -12    1    3    3    0    0 -0.20017552165E+02 -0.36900141284E+02 -0.11013642754E+02  0.43400727508E+02  0.00000000000E+00 0.  1.
         11    1    4    4    0    0  0.88068764416E+01  0.33514246480E+02  0.96355085833E+01  0.35966773773E+02  0.51100000000E-03 0. -1.
        -11    1    4    4    0    0  0.72319781844E+01  0.25068787296E+01  0.65426080033E+00  0.76820574640E+01  0.51100000000E-03 0.  1.
         12    1    4    4    0    0  0.39786975387E+01  0.87901607528E+00  0.72387336994E+00  0.41384412550E+01  0.00000000000E+00 0. -1.
</event>
<event>
 8    1  0.5331800E-011  0.9118800E+02  0.7816164E-02  0.1184000E+00
        -11   -1    0    0    0    0  0.00000000000E+00  0.00000000000E+00  0.45593999997E+02  0.45594000000E+02  0.51100000000E-03 0. -1.
         11   -1    0    0    0    0 -0.00000000000E+00 -0.00000000000E+00 -0.45593999997E+02  0.45594000000E+02  0.51100000000E-03 0.  1.
         23    2    1    2    0    0  0.00000000000E+00  0.17763568394E-14  0.00000000000E+00  0.91188000000E+02  0.91188000000E+02 0.  0.
    9900012    2    3    3    0    0  0.11465186637E+02 -0.80833792261E+01  0.41071058405E+02  0.47787270019E+02  0.19999995325E+02 0.  0.
        -12    1    3    3    0    0 -0.11465186637E+02  0.80833792261E+01 -0.41071058405E+02  0.43400729981E+02  0.00000000000E+00 0.  1.
         11    1    4    4    0    0  0.10701678882E+02 -0.87106196863E+01  0.14571968990E+02  0.20068460497E+02  0.51100000000E-03 0. -1.
        -11    1    4    4    0    0  0.92429984996E+00 -0.76843890479E+00  0.19695392574E-01  0.12021716735E+01  0.51100000000E-03 0.  1.
         12    1    4    4    0    0 -0.16079209472E+00  0.13956793650E+01  0.26479394023E+02  0.26516637849E+02  0.00000000000E+00 0. -1.
</event>
<event>
 8    1  0.5331800E-011  0.9118800E+02  0.7816164E-02  0.1184000E+00
        -11   -1    0    0    0    0  0.00000000000E+00  0.00000000000E+00  0.45593999997E+02  0.45594000000E+02  0.51100000000E-03 0. -1.
         11   -1    0    0    0    0 -0.00000000000E+00 -0.00000000000E+00 -0.45593999997E+02  0.45594000000E+02  0.51100000000E-03 0.  1.
         23    2    1    2    0    0  0.00000000000E+00 -0.17763568394E-14  0.00000000000E+00  0.91188000000E+02  0.91188000000E+02 0.  0.
    9900012    2    3    3    0    0 -0.25386374264E+02 -0.85562978779E+01 -0.34145938142E+02  0.47787270476E+02  0.19999997408E+02 0.  0.
         12    1    3    3    0    0  0.25386374264E+02  0.85562978779E+01  0.34145938142E+02  0.43400729524E+02  0.00000000000E+00 0. -1.
         11    1    4    4    0    0 -0.92438729613E+01 -0.80244653250E+01 -0.19095079528E+02  0.22681783297E+02  0.51100000000E-03 0. -1.
        -11    1    4    4    0    0 -0.11871519622E+02  0.42525788883E+01 -0.13567412953E+02  0.18522745472E+02  0.51100000000E-03 0.  1.
         12    1    4    4    0    0 -0.42709816805E+01 -0.47844114412E+01 -0.14834456612E+01  0.65827417071E+01  0.00000000000E+00 0. -1.
</event>
<event>
 8    1  0.5331800E-011  0.9118800E+02  0.7816164E-02  0.1184000E+00
        -11   -1    0    0    0    0  0.00000000000E+00  0.00000000000E+00  0.45593999997E+02  0.45594000000E+02  0.51100000000E-03 0. -1.
         11   -1    0    0    0    0 -0.00000000000E+00 -0.00000000000E+00 -0.45593999997E+02  0.45594000000E+02  0.51100000000E-03 0.  1.
         23    2    1    2    0    0  0.00000000000E+00  0.00000000000E+00  0.00000000000E+00  0.91188000000E+02  0.91188000000E+02 0.  0.
    9900012    2    3    3    0    0 -0.28529137411E+02  0.35868919202E+01 -0.32509161724E+02  0.47787273381E+02  0.20000010653E+02 0.  0.
         12    1    3    3    0    0  0.28529137411E+02 -0.35868919202E+01  0.32509161724E+02  0.43400726619E+02  0.00000000000E+00 0. -1.
         11    1    4    4    0    0 -0.12759984777E+02 -0.49418096271E+01 -0.66567249585E+01  0.15216789456E+02  0.51100000000E-03 0. -1.
        -11    1    4    4    0    0 -0.12749869692E+01  0.46228444795E+01 -0.59600408397E+01  0.76497300558E+01  0.51100000000E-03 0.  1.
         12    1    4    4    0    0 -0.14494165665E+02  0.39058570678E+01 -0.19892395926E+02  0.24920753870E+02  0.00000000000E+00 0. -1.
</event>
<event>
 8    1  0.5331800E-011  0.9118800E+02  0.7816164E-02  0.1184000E+00
        -11   -1    0    0    0    0  0.00000000000E+00  0.00000000000E+00  0.45593999997E+02  0.45594000000E+02  0.51100000000E-03 0. -1.
         11   -1    0    0    0    0 -0.00000000000E+00 -0.00000000000E+00 -0.45593999997E+02  0.45594000000E+02  0.51100000000E-03 0.  1.
         23    2    1    2    0    0 -0.35527136788E-14  0.00000000000E+00  0.00000000000E+00  0.91188000000E+02  0.91188000000E+02 0.  0.
    9900012    2    3    3    0    0 -0.21588159634E+02  0.24582325085E+01 -0.37570364708E+02  0.47787264433E+02  0.19999969855E+02 0.  0.
         12    1    3    3    0    0  0.21588159634E+02 -0.24582325085E+01  0.37570364708E+02  0.43400735567E+02  0.00000000000E+00 0. -1.
         11    1    4    4    0    0 -0.45739451023E+01 -0.15727417458E+01 -0.35329536880E+01  0.59896788245E+01  0.51100000000E-03 0. -1.
        -11    1    4    4    0    0 -0.20445588698E+02  0.30532618404E+01 -0.28428595832E+02  0.35150100516E+02  0.51100000000E-03 0.  1.
        -12    1    4    4    0    0  0.34313741659E+01  0.97771241383E+00 -0.56088151886E+01  0.66474850922E+01  0.00000000000E+00 0.  1.
</event>
<event>
 8    1  0.5331800E-011  0.9118800E+02  0.7816164E-02  0.1184000E+00
        -11   -1    0    0    0    0  0.00000000000E+00  0.00000000000E+00  0.45593999997E+02  0.45594000000E+02  0.51100000000E-03 0. -1.
         11   -1    0    0    0    0 -0.00000000000E+00 -0.00000000000E+00 -0.45593999997E+02  0.45594000000E+02  0.51100000000E-03 0.  1.
         23    2    1    2    0    0  0.00000000000E+00  0.00000000000E+00  0.71054273576E-14  0.91188000000E+02  0.91188000000E+02 0.  0.
    9900012    2    3    3    0    0 -0.10075439347E+02  0.31017619320E+02  0.28635923545E+02  0.47787270702E+02  0.19999998440E+02 0.  0.
        -12    1    3    3    0    0  0.10075439347E+02 -0.31017619320E+02 -0.28635923545E+02  0.43400729298E+02  0.00000000000E+00 0.  1.
         11    1    4    4    0    0 -0.32644954946E+01  0.16463734661E+02  0.22301147014E+02  0.27911514617E+02  0.51100000000E-03 0. -1.
        -11    1    4    4    0    0 -0.29674858945E+01  0.97263293281E+01  0.85843132748E+01  0.13307813096E+02  0.51100000000E-03 0.  1.
        -12    1    4    4    0    0 -0.38434579575E+01  0.48275553312E+01 -0.22495367443E+01  0.65679429893E+01  0.00000000000E+00 0.  1.
</event>
<event>
 8    1  0.5331800E-011  0.9118800E+02  0.7816164E-02  0.1184000E+00
        -11   -1    0    0    0    0  0.00000000000E+00  0.00000000000E+00  0.45593999997E+02  0.45594000000E+02  0.51100000000E-03 0. -1.
         11   -1    0    0    0    0 -0.00000000000E+00 -0.00000000000E+00 -0.45593999997E+02  0.45594000000E+02  0.51100000000E-03 0.  1.
         23    2    1    2    0    0  0.00000000000E+00  0.00000000000E+00  0.00000000000E+00  0.91188000000E+02  0.91188000000E+02 0.  0.
    9900012    2    3    3    0    0 -0.30914110080E+02 -0.44912837314E+01  0.30129223103E+02  0.47787263643E+02  0.19999966252E+02 0.  0.
        -12    1    3    3    0    0  0.30914110080E+02  0.44912837314E+01 -0.30129223103E+02  0.43400736357E+02  0.00000000000E+00 0.  1.
         11    1    4    4    0    0 -0.60612417772E+01 -0.63906822052E+01  0.96794784159E+00  0.88609477041E+01  0.51100000000E-03 0. -1.
        -11    1    4    4    0    0 -0.94259313140E+01  0.35955478838E+00  0.16074422646E+02  0.18637717791E+02  0.51100000000E-03 0.  1.
         12    1    4    4    0    0 -0.15426936989E+02  0.15398436854E+01  0.13086852615E+02  0.20288598148E+02  0.00000000000E+00 0. -1.
</event>
<event>
 8    1  0.5331800E-011  0.9118800E+02  0.7816164E-02  0.1184000E+00
        -11   -1    0    0    0    0  0.00000000000E+00  0.00000000000E+00  0.45593999997E+02  0.45594000000E+02  0.51100000000E-03 0. -1.
         11   -1    0    0    0    0 -0.00000000000E+00 -0.00000000000E+00 -0.45593999997E+02  0.45594000000E+02  0.51100000000E-03 0.  1.
         23    2    1    2    0    0  0.35527136788E-14 -0.44408920985E-15  0.00000000000E+00  0.91188000000E+02  0.91188000000E+02 0.  0.
    9900012    2    3    3    0    0  0.23706907224E+02  0.95257914489E+00 -0.36341408874E+02  0.47787275857E+02  0.20000021943E+02 0.  0.
         12    1    3    3    0    0 -0.23706907224E+02 -0.95257914489E+00  0.36341408874E+02  0.43400724143E+02  0.00000000000E+00 0. -1.
         11    1    4    4    0    0  0.60940327744E+01  0.71563934280E+01 -0.12088705612E+02  0.15313001208E+02  0.51100000000E-03 0.  1.
        -11    1    4    4    0    0  0.80046836572E+01  0.27290683174E+01 -0.10186578903E+02  0.13239681429E+02  0.51100000000E-03 0. -1.
         12    1    4    4    0    0  0.96081907925E+01 -0.89328826005E+01 -0.14066124360E+02  0.19234593221E+02  0.00000000000E+00 0. -1.
</event>
<event>
 8    1  0.5331800E-011  0.9118800E+02  0.7816164E-02  0.1184000E+00
        -11   -1    0    0    0    0  0.00000000000E+00  0.00000000000E+00  0.45593999997E+02  0.45594000000E+02  0.51100000000E-03 0. -1.
         11   -1    0    0    0    0 -0.00000000000E+00 -0.00000000000E+00 -0.45593999997E+02  0.45594000000E+02  0.51100000000E-03 0.  1.
         23    2    1    2    0    0  0.00000000000E+00  0.17763568394E-14 -0.17763568394E-14  0.91188000000E+02  0.91188000000E+02 0.  0.
    9900012    2    3    3    0    0  0.39343021189E+02  0.14746573670E+02 -0.10876049298E+02  0.47787271900E+02  0.20000003900E+02 0.  0.
         12    1    3    3    0    0 -0.39343021189E+02 -0.14746573670E+02  0.10876049298E+02  0.43400728100E+02  0.00000000000E+00 0. -1.
         11    1    4    4    0    0  0.12556841561E+02  0.71750525245E+00  0.29028316532E+00  0.12580673605E+02  0.51100000000E-03 0. -1.
        -11    1    4    4    0    0  0.28044356852E+02  0.12428947962E+02 -0.84603118117E+01  0.31820458433E+02  0.51100000000E-03 0.  1.
        -12    1    4    4    0    0 -0.12581772235E+01  0.16001204549E+01 -0.27060206517E+01  0.33861398618E+01  0.00000000000E+00 0.  1.
</event>
<event>
 8    1  0.5331800E-011  0.9118800E+02  0.7816164E-02  0.1184000E+00
        -11   -1    0    0    0    0  0.00000000000E+00  0.00000000000E+00  0.45593999997E+02  0.45594000000E+02  0.51100000000E-03 0. -1.
         11   -1    0    0    0    0 -0.00000000000E+00 -0.00000000000E+00 -0.45593999997E+02  0.45594000000E+02  0.51100000000E-03 0.  1.
         23    2    1    2    0    0 -0.35527136788E-14  0.00000000000E+00  0.00000000000E+00  0.91188000000E+02  0.91188000000E+02 0.  0.
    9900012    2    3    3    0    0  0.18771157026E+02 -0.34864883073E+02  0.17768145159E+02  0.47787269704E+02  0.19999993889E+02 0.  0.
        -12    1    3    3    0    0 -0.18771157026E+02  0.34864883073E+02 -0.17768145159E+02  0.43400730296E+02  0.00000000000E+00 0.  1.
         11    1    4    4    0    0  0.11258965327E+01 -0.44419359850E+01 -0.24083328469E+01  0.51767273117E+01  0.51100000000E-03 0. -1.
        -11    1    4    4    0    0  0.15047675342E+02 -0.15302788641E+02  0.15819968571E+02  0.26662319465E+02  0.51100000000E-03 0.  1.
         12    1    4    4    0    0  0.25975851519E+01 -0.15120158447E+02  0.43565094351E+01  0.15948222928E+02  0.00000000000E+00 0. -1.
</event>
<event>
 8    1  0.5331800E-011  0.9118800E+02  0.7816164E-02  0.1184000E+00
        -11   -1    0    0    0    0  0.00000000000E+00  0.00000000000E+00  0.45593999997E+02  0.45594000000E+02  0.51100000000E-03 0. -1.
         11   -1    0    0    0    0 -0.00000000000E+00 -0.00000000000E+00 -0.45593999997E+02  0.45594000000E+02  0.51100000000E-03 0.  1.
         23    2    1    2    0    0  0.17763568394E-14  0.00000000000E+00  0.00000000000E+00  0.91188000000E+02  0.91188000000E+02 0.  0.
    9900012    2    3    3    0    0 -0.90549880774E+01 -0.33399723262E+02  0.26193300393E+02  0.47787270645E+02  0.19999998180E+02 0.  0.
        -12    1    3    3    0    0  0.90549880774E+01  0.33399723262E+02 -0.26193300393E+02  0.43400729355E+02  0.00000000000E+00 0.  1.
         11    1    4    4    0    0 -0.12037743440E+01  0.19117118894E+01  0.39742583876E+01  0.45714817086E+01  0.51100000000E-03 0. -1.
        -11    1    4    4    0    0 -0.93453754368E+01 -0.28252683276E+02  0.19063780500E+02  0.35340881166E+02  0.51100000000E-03 0.  1.
        -12    1    4    4    0    0  0.14941617034E+01 -0.70587518751E+01  0.31552615049E+01  0.78749077705E+01  0.00000000000E+00 0.  1.
</event>
<event>
 8    1  0.5331800E-011  0.9118800E+02  0.7816164E-02  0.1184000E+00
        -11   -1    0    0    0    0  0.00000000000E+00  0.00000000000E+00  0.45593999997E+02  0.45594000000E+02  0.51100000000E-03 0. -1.
         11   -1    0    0    0    0 -0.00000000000E+00 -0.00000000000E+00 -0.45593999997E+02  0.45594000000E+02  0.51100000000E-03 0.  1.
         23    2    1    2    0    0  0.44408920985E-15 -0.35527136788E-14 -0.71054273576E-14  0.91188000000E+02  0.91188000000E+02 0.  0.
    9900012    2    3    3    0    0 -0.86301999053E+00  0.31523160258E+02  0.29818939416E+02  0.47787267471E+02  0.19999983708E+02 0.  0.
        -12    1    3    3    0    0  0.86301999053E+00 -0.31523160258E+02 -0.29818939416E+02  0.43400732529E+02  0.00000000000E+00 0.  1.
         11    1    4    4    0    0 -0.63072706449E+01  0.24838584653E+02  0.19615568922E+02  0.32272395246E+02  0.51100000000E-03 0. -1.
        -11    1    4    4    0    0  0.31435493299E+01  0.85101734951E+00  0.83703773120E+01  0.89816117443E+01  0.51100000000E-03 0.  1.
        -12    1    4    4    0    0  0.23007013244E+01  0.58335582551E+01  0.18329931827E+01  0.65332604806E+01  0.00000000000E+00 0.  1.
</event>
<event>
 8    1  0.5331800E-011  0.9118800E+02  0.7816164E-02  0.1184000E+00
        -11   -1    0    0    0    0  0.00000000000E+00  0.00000000000E+00  0.45593999997E+02  0.45594000000E+02  0.51100000000E-03 0. -1.
         11   -1    0    0    0    0 -0.00000000000E+00 -0.00000000000E+00 -0.45593999997E+02  0.45594000000E+02  0.51100000000E-03 0.  1.
         23    2    1    2    0    0  0.00000000000E+00  0.35527136788E-14  0.00000000000E+00  0.91188000000E+02  0.91188000000E+02 0.  0.
    9900012    2    3    3    0    0 -0.21305138248E+02 -0.12441992958E+02  0.35705905047E+02  0.47787265447E+02  0.19999974478E+02 0.  0.
        -12    1    3    3    0    0  0.21305138248E+02  0.12441992958E+02 -0.35705905047E+02  0.43400734553E+02  0.00000000000E+00 0.  1.
         11    1    4    4    0    0 -0.10123122440E+02 -0.10442507474E+02  0.19067086818E+02  0.23980770844E+02  0.51100000000E-03 0. -1.
        -11    1    4    4    0    0  0.25982660466E+01  0.53525215946E+00  0.47065275353E+01  0.54026736923E+01  0.51100000000E-03 0.  1.
        -12    1    4    4    0    0 -0.13780281855E+02 -0.25347376436E+01  0.11932290693E+02  0.18403820911E+02  0.00000000000E+00 0.  1.
</event>
<event>
 8    1  0.5331800E-011  0.9118800E+02  0.7816164E-02  0.1184000E+00
        -11   -1    0    0    0    0  0.00000000000E+00  0.00000000000E+00  0.45593999997E+02  0.45594000000E+02  0.51100000000E-03 0. -1.
         11   -1    0    0    0    0 -0.00000000000E+00 -0.00000000000E+00 -0.45593999997E+02  0.45594000000E+02  0.51100000000E-03 0.  1.
         23    2    1    2    0    0  0.00000000000E+00  0.00000000000E+00  0.00000000000E+00  0.91188000000E+02  0.91188000000E+02 0.  0.
    9900012    2    3    3    0    0 -0.13660223315E+02  0.25632555664E+02  0.32248930914E+02  0.47787272403E+02  0.20000006194E+02 0.  0.
        -12    1    3    3    0    0  0.13660223315E+02 -0.25632555664E+02 -0.32248930914E+02  0.43400727597E+02  0.00000000000E+00 0.  1.
         11    1    4    4    0    0 -0.70897623944E+01  0.22145395283E+02  0.13184929630E+02  0.26730612276E+02  0.51100000000E-03 0.  1.
        -11    1    4    4    0    0 -0.35634488065E+01  0.37473750210E+01  0.15735731237E+02  0.16563641651E+02  0.51100000000E-03 0. -1.
         12    1    4    4    0    0 -0.30070121141E+01 -0.26021464013E+00  0.33282700469E+01  0.44930184752E+01  0.00000000000E+00 0. -1.
</event>
<event>
 8    1  0.5331800E-011  0.9118800E+02  0.7816164E-02  0.1184000E+00
        -11   -1    0    0    0    0  0.00000000000E+00  0.00000000000E+00  0.45593999997E+02  0.45594000000E+02  0.51100000000E-03 0.  1.
         11   -1    0    0    0    0 -0.00000000000E+00 -0.00000000000E+00 -0.45593999997E+02  0.45594000000E+02  0.51100000000E-03 0. -1.
         23    2    1    2    0    0 -0.35527136788E-14 -0.71054273576E-14 -0.44408920985E-15  0.91188000000E+02  0.91188000000E+02 0.  0.
    9900012    2    3    3    0    0 -0.24406245400E+02 -0.35759622866E+02  0.30344336436E+01  0.47787271555E+02  0.20000002328E+02 0.  0.
        -12    1    3    3    0    0  0.24406245400E+02  0.35759622866E+02 -0.30344336436E+01  0.43400728445E+02  0.00000000000E+00 0.  1.
         11    1    4    4    0    0 -0.14900870593E+02 -0.15887309206E+02 -0.52623306280E+01  0.22408361434E+02  0.51100000000E-03 0. -1.
        -11    1    4    4    0    0 -0.59800335047E+01 -0.69098951452E+01  0.76709423989E+01  0.11931085834E+02  0.51100000000E-03 0.  1.
        -12    1    4    4    0    0 -0.35253413019E+01 -0.12962418514E+02  0.62582187264E+00  0.13447824287E+02  0.00000000000E+00 0.  1.
</event>
<event>
 8    1  0.5331800E-011  0.9118800E+02  0.7816164E-02  0.1184000E+00
        -11   -1    0    0    0    0  0.00000000000E+00  0.00000000000E+00  0.45593999997E+02  0.45594000000E+02  0.51100000000E-03 0. -1.
         11   -1    0    0    0    0 -0.00000000000E+00 -0.00000000000E+00 -0.45593999997E+02  0.45594000000E+02  0.51100000000E-03 0.  1.
         23    2    1    2    0    0  0.00000000000E+00  0.00000000000E+00  0.00000000000E+00  0.91188000000E+02  0.91188000000E+02 0.  0.
    9900012    2    3    3    0    0  0.18610666116E+02 -0.45280047859E+01 -0.38945643369E+02  0.47787275835E+02  0.20000021841E+02 0.  0.
         12    1    3    3    0    0 -0.18610666116E+02  0.45280047859E+01  0.38945643369E+02  0.43400724165E+02  0.00000000000E+00 0. -1.
         11    1    4    4    0    0  0.10532949512E+02 -0.51211211965E+01 -0.98488326989E+01  0.15302562319E+02  0.51100000000E-03 0. -1.
        -11    1    4    4    0    0  0.31614372497E-01 -0.17326051900E+01 -0.20168615456E+02  0.20242923946E+02  0.51100000000E-03 0.  1.
        -12    1    4    4    0    0  0.80461022320E+01  0.23257216005E+01 -0.89281952146E+01  0.12241789570E+02  0.00000000000E+00 0.  1.
</event>
<event>
 8    1  0.5331800E-011  0.9118800E+02  0.7816164E-02  0.1184000E+00
        -11   -1    0    0    0    0  0.00000000000E+00  0.00000000000E+00  0.45593999997E+02  0.45594000000E+02  0.51100000000E-03 0. -1.
         11   -1    0    0    0    0 -0.00000000000E+00 -0.00000000000E+00 -0.45593999997E+02  0.45594000000E+02  0.51100000000E-03 0.  1.
         23    2    1    2    0    0 -0.35527136788E-14 -0.88817841970E-15  0.00000000000E+00  0.91188000000E+02  0.91188000000E+02 0.  0.
    9900012    2    3    3    0    0 -0.23181270409E+02 -0.62446210873E+01  0.36156004130E+02  0.47787271608E+02  0.20000002570E+02 0.  0.
        -12    1    3    3    0    0  0.23181270409E+02  0.62446210873E+01 -0.36156004130E+02  0.43400728392E+02  0.00000000000E+00 0.  1.
         11    1    4    4    0    0 -0.81890024205E+00  0.14172225156E+01  0.67794265815E+01  0.69742198345E+01  0.51100000000E-03 0. -1.
        -11    1    4    4    0    0  0.10186739757E+01 -0.38339325000E+01  0.15310702614E+01  0.42521655059E+01  0.51100000000E-03 0.  1.
        -12    1    4    4    0    0 -0.23381044143E+02 -0.38279111029E+01  0.27845507287E+02  0.36560886268E+02  0.00000000000E+00 0.  1.
</event>
<event>
 8    1  0.5331800E-011  0.9118800E+02  0.7816164E-02  0.1184000E+00
        -11   -1    0    0    0    0  0.00000000000E+00  0.00000000000E+00  0.45593999997E+02  0.45594000000E+02  0.51100000000E-03 0. -1.
         11   -1    0    0    0    0 -0.00000000000E+00 -0.00000000000E+00 -0.45593999997E+02  0.45594000000E+02  0.51100000000E-03 0.  1.
         23    2    1    2    0    0  0.17763568394E-14  0.00000000000E+00 -0.44408920985E-15  0.91188000000E+02  0.91188000000E+02 0.  0.
    9900012    2    3    3    0    0 -0.90731494834E+01 -0.42255824174E+02  0.39681790437E+01  0.47787272321E+02  0.20000005820E+02 0.  0.
         12    1    3    3    0    0  0.90731494834E+01  0.42255824174E+02 -0.39681790437E+01  0.43400727679E+02  0.00000000000E+00 0. -1.
         11    1    4    4    0    0 -0.11173730775E+02 -0.13929519516E+02 -0.26026981196E+01  0.18045991553E+02  0.51100000000E-03 0. -1.
        -11    1    4    4    0    0 -0.63038122691E+00 -0.13730666974E+02  0.66572345940E+00  0.13761242096E+02  0.51100000000E-03 0.  1.
         12    1    4    4    0    0  0.27309625186E+01 -0.14595637684E+02  0.59051537039E+01  0.15980038672E+02  0.00000000000E+00 0. -1.
</event>
<event>
 8    1  0.5331800E-011  0.9118800E+02  0.7816164E-02  0.1184000E+00
        -11   -1    0    0    0    0  0.00000000000E+00  0.00000000000E+00  0.45593999997E+02  0.45594000000E+02  0.51100000000E-03 0. -1.
         11   -1    0    0    0    0 -0.00000000000E+00 -0.00000000000E+00 -0.45593999997E+02  0.45594000000E+02  0.51100000000E-03 0.  1.
         23    2    1    2    0    0  0.00000000000E+00 -0.35527136788E-14  0.00000000000E+00  0.91188000000E+02  0.91188000000E+02 0.  0.
    9900012    2    3    3    0    0 -0.14485835216E+02 -0.26090585881E+02  0.31512930298E+02  0.47787275703E+02  0.20000021242E+02 0.  0.
        -12    1    3    3    0    0  0.14485835216E+02  0.26090585881E+02 -0.31512930298E+02  0.43400724297E+02  0.00000000000E+00 0.  1.
         11    1    4    4    0    0 -0.19573791849E+01 -0.15544936539E+02  0.19534858235E+02  0.25041706647E+02  0.51100000000E-03 0. -1.
        -11    1    4    4    0    0 -0.63160677381E+01 -0.86399060914E+01  0.20762039401E+01  0.10901894881E+02  0.51100000000E-03 0.  1.
         12    1    4    4    0    0 -0.62123882932E+01 -0.19057432498E+01  0.99018681232E+01  0.11843674175E+02  0.00000000000E+00 0. -1.
</event>
<event>
 8    1  0.5331800E-011  0.9118800E+02  0.7816164E-02  0.1184000E+00
        -11   -1    0    0    0    0  0.00000000000E+00  0.00000000000E+00  0.45593999997E+02  0.45594000000E+02  0.51100000000E-03 0. -1.
         11   -1    0    0    0    0 -0.00000000000E+00 -0.00000000000E+00 -0.45593999997E+02  0.45594000000E+02  0.51100000000E-03 0.  1.
         23    2    1    2    0    0  0.71054273576E-14  0.35527136788E-14  0.00000000000E+00  0.91188000000E+02  0.91188000000E+02 0.  0.
    9900012    2    3    3    0    0 -0.35285696091E+02 -0.17982931180E+02  0.17752662130E+02  0.47787272181E+02  0.20000005184E+02 0.  0.
        -12    1    3    3    0    0  0.35285696091E+02  0.17982931180E+02 -0.17752662130E+02  0.43400727819E+02  0.00000000000E+00 0.  1.
         11    1    4    4    0    0 -0.87838167279E+01 -0.56069543511E+01  0.78864461235E+01  0.13068642092E+02  0.51100000000E-03 0. -1.
        -11    1    4    4    0    0 -0.79761467236E+01 -0.10954809562E+01 -0.39849997354E+01  0.89832743604E+01  0.51100000000E-03 0.  1.
        -12    1    4    4    0    0 -0.18525732640E+02 -0.11280495873E+02  0.13851215742E+02  0.25735355729E+02  0.00000000000E+00 0.  1.
</event>
<event>
 8    1  0.5331800E-011  0.9118800E+02  0.7816164E-02  0.1184000E+00
        -11   -1    0    0    0    0  0.00000000000E+00  0.00000000000E+00  0.45593999997E+02  0.45594000000E+02  0.51100000000E-03 0. -1.
         11   -1    0    0    0    0 -0.00000000000E+00 -0.00000000000E+00 -0.45593999997E+02  0.45594000000E+02  0.51100000000E-03 0.  1.
         23    2    1    2    0    0 -0.35527136788E-14  0.00000000000E+00 -0.71054273576E-14  0.91188000000E+02  0.91188000000E+02 0.  0.
    9900012    2    3    3    0    0 -0.18512115188E+02 -0.14871503363E+02 -0.36328544945E+02  0.47787271909E+02  0.20000003941E+02 0.  0.
         12    1    3    3    0    0  0.18512115188E+02  0.14871503363E+02  0.36328544945E+02  0.43400728091E+02  0.00000000000E+00 0. -1.
         11    1    4    4    0    0 -0.10815188186E+01 -0.55660920359E+01 -0.87476591456E+00  0.57372710563E+01  0.51100000000E-03 0. -1.
        -11    1    4    4    0    0 -0.81123796656E+01 -0.44478811582E+01 -0.27069184119E+02  0.28606556587E+02  0.51100000000E-03 0.  1.
        -12    1    4    4    0    0 -0.93182167038E+01 -0.48575301689E+01 -0.83845949111E+01  0.13443444265E+02  0.00000000000E+00 0.  1.
</event>
<event>
 8    1  0.5331800E-011  0.9118800E+02  0.7816164E-02  0.1184000E+00
        -11   -1    0    0    0    0  0.00000000000E+00  0.00000000000E+00  0.45593999997E+02  0.45594000000E+02  0.51100000000E-03 0. -1.
         11   -1    0    0    0    0 -0.00000000000E+00 -0.00000000000E+00 -0.45593999997E+02  0.45594000000E+02  0.51100000000E-03 0.  1.
         23    2    1    2    0    0  0.00000000000E+00 -0.44408920985E-15  0.00000000000E+00  0.91188000000E+02  0.91188000000E+02 0.  0.
    9900012    2    3    3    0    0 -0.22934971938E+02 -0.39248107256E+01 -0.36636131644E+02  0.47787271678E+02  0.20000002888E+02 0.  0.
         12    1    3    3    0    0  0.22934971938E+02  0.39248107256E+01  0.36636131644E+02  0.43400728322E+02  0.00000000000E+00 0. -1.
         11    1    4    4    0    0 -0.36234760623E+01 -0.72096586813E+01 -0.40274764095E+01  0.90182771950E+01  0.51100000000E-03 0. -1.
        -11    1    4    4    0    0 -0.12098803124E+02  0.54732875381E+01 -0.18490741935E+02  0.22765004966E+02  0.51100000000E-03 0.  1.
         12    1    4    4    0    0 -0.72126927512E+01 -0.21884395823E+01 -0.14117913299E+02  0.16003989517E+02  0.00000000000E+00 0. -1.
</event>
<event>
 8    1  0.5331800E-011  0.9118800E+02  0.7816164E-02  0.1184000E+00
        -11   -1    0    0    0    0  0.00000000000E+00  0.00000000000E+00  0.45593999997E+02  0.45594000000E+02  0.51100000000E-03 0. -1.
         11   -1    0    0    0    0 -0.00000000000E+00 -0.00000000000E+00 -0.45593999997E+02  0.45594000000E+02  0.51100000000E-03 0.  1.
         23    2    1    2    0    0  0.00000000000E+00  0.00000000000E+00  0.00000000000E+00  0.91188000000E+02  0.91188000000E+02 0.  0.
    9900012    2    3    3    0    0  0.32867604908E+02 -0.12508994307E+02 -0.25433616577E+02  0.47787271399E+02  0.20000001615E+02 0.  0.
         12    1    3    3    0    0 -0.32867604908E+02  0.12508994307E+02  0.25433616577E+02  0.43400728601E+02  0.00000000000E+00 0. -1.
         11    1    4    4    0    0  0.18264156320E+01 -0.35250950335E+01 -0.94669640746E+01  0.10265743914E+02  0.51100000000E-03 0. -1.
        -11    1    4    4    0    0  0.23015250009E+02 -0.24374133812E+01 -0.13780996591E+02  0.26936194688E+02  0.51100000000E-03 0.  1.
        -12    1    4    4    0    0  0.80259392671E+01 -0.65464858924E+01 -0.21856559109E+01  0.10585332797E+02  0.00000000000E+00 0.  1.
</event>
<event>
 8    1  0.5331800E-011  0.9118800E+02  0.7816164E-02  0.1184000E+00
        -11   -1    0    0    0    0  0.00000000000E+00  0.00000000000E+00  0.45593999997E+02  0.45594000000E+02  0.51100000000E-03 0. -1.
         11   -1    0    0    0    0 -0.00000000000E+00 -0.00000000000E+00 -0.45593999997E+02  0.45594000000E+02  0.51100000000E-03 0.  1.
         23    2    1    2    0    0  0.71054273576E-14 -0.35527136788E-14  0.00000000000E+00  0.91188000000E+02  0.91188000000E+02 0.  0.
    9900012    2    3    3    0    0  0.32853211883E+02 -0.20002617572E+02 -0.20104357457E+02  0.47787269251E+02  0.19999991824E+02 0.  0.
         12    1    3    3    0    0 -0.32853211883E+02  0.20002617572E+02  0.20104357457E+02  0.43400730749E+02  0.00000000000E+00 0. -1.
         11    1    4    4    0    0  0.66567298495E+00 -0.54149364295E+01 -0.47715356078E+01  0.72479106904E+01  0.51100000000E-03 0. -1.
        -11    1    4    4    0    0  0.16050088179E+01 -0.28859897911E+01 -0.53849177621E+01  0.63168291053E+01  0.51100000000E-03 0.  1.
         12    1    4    4    0    0  0.30582530080E+02 -0.11701691351E+02 -0.99479040874E+01  0.34222529455E+02  0.00000000000E+00 0. -1.
</event>
<event>
 8    1  0.5331800E-011  0.9118800E+02  0.7816164E-02  0.1184000E+00
        -11   -1    0    0    0    0  0.00000000000E+00  0.00000000000E+00  0.45593999997E+02  0.45594000000E+02  0.51100000000E-03 0.  1.
         11   -1    0    0    0    0 -0.00000000000E+00 -0.00000000000E+00 -0.45593999997E+02  0.45594000000E+02  0.51100000000E-03 0. -1.
         23    2    1    2    0    0 -0.71054273576E-14  0.00000000000E+00  0.00000000000E+00  0.91188000000E+02  0.91188000000E+02 0.  0.
    9900012    2    3    3    0    0 -0.36057224970E+02  0.41912625149E+01 -0.23789352697E+02  0.47787268949E+02  0.19999990447E+02 0.  0.
         12    1    3    3    0    0  0.36057224970E+02 -0.41912625149E+01  0.23789352697E+02  0.43400731051E+02  0.00000000000E+00 0. -1.
         11    1    4    4    0    0 -0.55859278548E+01  0.45919614928E+01 -0.53335006910E+01  0.89852618344E+01  0.51100000000E-03 0. -1.
        -11    1    4    4    0    0 -0.18809009407E+02 -0.73026191208E+01 -0.13915007367E+02  0.24509885989E+02  0.51100000000E-03 0.  1.
        -12    1    4    4    0    0 -0.11662287708E+02  0.69019201429E+01 -0.45408446386E+01  0.14292121126E+02  0.00000000000E+00 0.  1.
</event>
<event>
 8    1  0.5331800E-011  0.9118800E+02  0.7816164E-02  0.1184000E+00
        -11   -1    0    0    0    0  0.00000000000E+00  0.00000000000E+00  0.45593999997E+02  0.45594000000E+02  0.51100000000E-03 0.  1.
         11   -1    0    0    0    0 -0.00000000000E+00 -0.00000000000E+00 -0.45593999997E+02  0.45594000000E+02  0.51100000000E-03 0. -1.
         23    2    1    2    0    0 -0.35527136788E-14  0.00000000000E+00  0.35527136788E-14  0.91188000000E+02  0.91188000000E+02 0.  0.
    9900012    2    3    3    0    0 -0.23432934389E+02 -0.32725870768E+02  0.16233876012E+02  0.47787265421E+02  0.19999974360E+02 0.  0.
        -12    1    3    3    0    0  0.23432934389E+02  0.32725870768E+02 -0.16233876012E+02  0.43400734579E+02  0.00000000000E+00 0.  1.
         11    1    4    4    0    0 -0.15845625179E+02 -0.25334879919E+02  0.18964043187E+02  0.35391735081E+02  0.51100000000E-03 0. -1.
        -11    1    4    4    0    0 -0.17103959813E+01  0.53342348455E+00 -0.17106684490E+01  0.24771721438E+01  0.51100000000E-03 0.  1.
        -12    1    4    4    0    0 -0.58769132292E+01 -0.79244143345E+01 -0.10194987263E+01  0.99183581958E+01  0.00000000000E+00 0.  1.
</event>
<event>
 8    1  0.5331800E-011  0.9118800E+02  0.7816164E-02  0.1184000E+00
        -11   -1    0    0    0    0  0.00000000000E+00  0.00000000000E+00  0.45593999997E+02  0.45594000000E+02  0.51100000000E-03 0.  1.
         11   -1    0    0    0    0 -0.00000000000E+00 -0.00000000000E+00 -0.45593999997E+02  0.45594000000E+02  0.51100000000E-03 0. -1.
         23    2    1    2    0    0  0.00000000000E+00 -0.17763568394E-14  0.00000000000E+00  0.91188000000E+02  0.91188000000E+02 0.  0.
    9900012    2    3    3    0    0 -0.37195930115E+02 -0.15835785216E+02 -0.15789678740E+02  0.47787271144E+02  0.20000000453E+02 0.  0.
        -12    1    3    3    0    0  0.37195930115E+02  0.15835785216E+02  0.15789678740E+02  0.43400728856E+02  0.00000000000E+00 0.  1.
         11    1    4    4    0    0 -0.27699276645E+02 -0.76149558554E+01 -0.77563491047E+01  0.29755645364E+02  0.51100000000E-03 0. -1.
        -11    1    4    4    0    0  0.10516050358E+01 -0.33502208448E+01  0.59271403154E+00  0.35610620670E+01  0.51100000000E-03 0.  1.
        -12    1    4    4    0    0 -0.10548258507E+02 -0.48706085155E+01 -0.86260436670E+01  0.14470563713E+02  0.00000000000E+00 0.  1.
</event>
<event>
 8    1  0.5331800E-011  0.9118800E+02  0.7816164E-02  0.1184000E+00
        -11   -1    0    0    0    0  0.00000000000E+00  0.00000000000E+00  0.45593999997E+02  0.45594000000E+02  0.51100000000E-03 0. -1.
         11   -1    0    0    0    0 -0.00000000000E+00 -0.00000000000E+00 -0.45593999997E+02  0.45594000000E+02  0.51100000000E-03 0.  1.
         23    2    1    2    0    0  0.17763568394E-14  0.00000000000E+00  0.00000000000E+00  0.91188000000E+02  0.91188000000E+02 0.  0.
    9900012    2    3    3    0    0 -0.13120550753E+02  0.17894050996E+02 -0.37299830413E+02  0.47787271182E+02  0.20000000626E+02 0.  0.
         12    1    3    3    0    0  0.13120550753E+02 -0.17894050996E+02  0.37299830413E+02  0.43400728818E+02  0.00000000000E+00 0. -1.
         11    1    4    4    0    0 -0.83923143193E+01  0.10429427280E+02 -0.10139804701E+02  0.16793437190E+02  0.51100000000E-03 0. -1.
        -11    1    4    4    0    0 -0.31680027209E+01  0.70394868169E+01 -0.28087931133E+02  0.29129409391E+02  0.51100000000E-03 0.  1.
        -12    1    4    4    0    0 -0.15602337128E+01  0.42513689873E+00  0.92790542065E+00  0.18644246005E+01  0.00000000000E+00 0.  1.
</event>
<event>
 8    1  0.5331800E-011  0.9118800E+02  0.7816164E-02  0.1184000E+00
        -11   -1    0    0    0    0  0.00000000000E+00  0.00000000000E+00  0.45593999997E+02  0.45594000000E+02  0.51100000000E-03 0. -1.
         11   -1    0    0    0    0 -0.00000000000E+00 -0.00000000000E+00 -0.45593999997E+02  0.45594000000E+02  0.51100000000E-03 0.  1.
         23    2    1    2    0    0 -0.17763568394E-14  0.00000000000E+00  0.00000000000E+00  0.91188000000E+02  0.91188000000E+02 0.  0.
    9900012    2    3    3    0    0 -0.98536333275E+01  0.27262916663E+02  0.32299575108E+02  0.47787271125E+02  0.20000000365E+02 0.  0.
        -12    1    3    3    0    0  0.98536333275E+01 -0.27262916663E+02 -0.32299575108E+02  0.43400728875E+02  0.00000000000E+00 0.  1.
         11    1    4    4    0    0 -0.84241001417E+01  0.51884892735E+01  0.18534386825E+02  0.21009744867E+02  0.51100000000E-03 0. -1.
        -11    1    4    4    0    0  0.16362573559E+01  0.11601650813E+02  0.94131467942E+01  0.15029403600E+02  0.51100000000E-03 0.  1.
         12    1    4    4    0    0 -0.30657905418E+01  0.10472776576E+02  0.43520414894E+01  0.11748122658E+02  0.00000000000E+00 0. -1.
</event>
<event>
 8    1  0.5331800E-011  0.9118800E+02  0.7816164E-02  0.1184000E+00
        -11   -1    0    0    0    0  0.00000000000E+00  0.00000000000E+00  0.45593999997E+02  0.45594000000E+02  0.51100000000E-03 0. -1.
         11   -1    0    0    0    0 -0.00000000000E+00 -0.00000000000E+00 -0.45593999997E+02  0.45594000000E+02  0.51100000000E-03 0.  1.
         23    2    1    2    0    0  0.55511151231E-16  0.00000000000E+00  0.00000000000E+00  0.91188000000E+02  0.91188000000E+02 0.  0.
    9900012    2    3    3    0    0 -0.37252605438E+00  0.16127468952E+02 -0.40291303080E+02  0.47787272651E+02  0.20000007327E+02 0.  0.
         12    1    3    3    0    0  0.37252605438E+00 -0.16127468952E+02  0.40291303080E+02  0.43400727349E+02  0.00000000000E+00 0. -1.
         11    1    4    4    0    0  0.77193362664E+01  0.11103162128E+02 -0.13815245459E+02  0.19332081342E+02  0.51100000000E-03 0. -1.
        -11    1    4    4    0    0 -0.43812709109E+01  0.10714121846E+01 -0.16449959435E+02  0.17057098948E+02  0.51100000000E-03 0.  1.
         12    1    4    4    0    0 -0.37105914099E+01  0.39528946394E+01 -0.10026098186E+02  0.11398092362E+02  0.00000000000E+00 0. -1.
</event>
<event>
 8    1  0.5331800E-011  0.9118800E+02  0.7816164E-02  0.1184000E+00
        -11   -1    0    0    0    0  0.00000000000E+00  0.00000000000E+00  0.45593999997E+02  0.45594000000E+02  0.51100000000E-03 0. -1.
         11   -1    0    0    0    0 -0.00000000000E+00 -0.00000000000E+00 -0.45593999997E+02  0.45594000000E+02  0.51100000000E-03 0.  1.
         23    2    1    2    0    0  0.00000000000E+00  0.88817841970E-15  0.00000000000E+00  0.91188000000E+02  0.91188000000E+02 0.  0.
    9900012    2    3    3    0    0 -0.50099339478E+01  0.41568367462E+01  0.42909726273E+02  0.47787270297E+02  0.19999996592E+02 0.  0.
        -12    1    3    3    0    0  0.50099339478E+01 -0.41568367462E+01 -0.42909726273E+02  0.43400729703E+02  0.00000000000E+00 0.  1.
         11    1    4    4    0    0 -0.67651187102E+01 -0.14521182145E+01  0.15126768940E+02  0.16634140113E+02  0.51100000000E-03 0. -1.
        -11    1    4    4    0    0  0.31366969755E+01  0.86678996525E+01  0.25443465897E+02  0.27061805361E+02  0.51100000000E-03 0.  1.
        -12    1    4    4    0    0 -0.13815122130E+01 -0.30589446919E+01  0.23394914366E+01  0.40913248227E+01  0.00000000000E+00 0.  1.
</event>
<event>
 8    1  0.5331800E-011  0.9118800E+02  0.7816164E-02  0.1184000E+00
        -11   -1    0    0    0    0  0.00000000000E+00  0.00000000000E+00  0.45593999997E+02  0.45594000000E+02  0.51100000000E-03 0. -1.
         11   -1    0    0    0    0 -0.00000000000E+00 -0.00000000000E+00 -0.45593999997E+02  0.45594000000E+02  0.51100000000E-03 0.  1.
         23    2    1    2    0    0  0.71054273576E-14 -0.26645352591E-14 -0.35527136788E-14  0.91188000000E+02  0.91188000000E+02 0.  0.
    9900012    2    3    3    0    0  0.41622922573E+02 -0.79469326937E+01 -0.93809173461E+01  0.47787273819E+02  0.20000012651E+02 0.  0.
         12    1    3    3    0    0 -0.41622922573E+02  0.79469326937E+01  0.93809173461E+01  0.43400726181E+02  0.00000000000E+00 0. -1.
         11    1    4    4    0    0  0.81160414939E+01  0.47791920723E+01  0.44499622806E+00  0.94291478034E+01  0.51100000000E-03 0. -1.
        -11    1    4    4    0    0  0.63648702364E+01  0.76998678845E-01 -0.47020453668E+01  0.79137053784E+01  0.51100000000E-03 0.  1.
         12    1    4    4    0    0  0.27142010843E+02 -0.12803123445E+02 -0.51238682073E+01  0.30444420637E+02  0.00000000000E+00 0. -1.
</event>
<event>
 8    1  0.5331800E-011  0.9118800E+02  0.7816164E-02  0.1184000E+00
        -11   -1    0    0    0    0  0.00000000000E+00  0.00000000000E+00  0.45593999997E+02  0.45594000000E+02  0.51100000000E-03 0. -1.
         11   -1    0    0    0    0 -0.00000000000E+00 -0.00000000000E+00 -0.45593999997E+02  0.45594000000E+02  0.51100000000E-03 0.  1.
         23    2    1    2    0    0  0.00000000000E+00 -0.71054273576E-14 -0.36082248300E-15  0.91188000000E+02  0.91188000000E+02 0.  0.
    9900012    2    3    3    0    0 -0.24396863060E+01  0.43331472916E+02  0.23423792867E+00  0.47787268649E+02  0.19999989079E+02 0.  0.
        -12    1    3    3    0    0  0.24396863060E+01 -0.43331472916E+02 -0.23423792867E+00  0.43400731351E+02  0.00000000000E+00 0.  1.
         11    1    4    4    0    0  0.25340951577E+01  0.31150962806E+02  0.69208032911E+01  0.32010961255E+02  0.51100000000E-03 0. -1.
        -11    1    4    4    0    0 -0.27025624988E+01  0.83216426783E+01 -0.71162995845E+01  0.11278089420E+02  0.51100000000E-03 0.  1.
        -12    1    4    4    0    0 -0.22712189648E+01  0.38588674323E+01  0.42973422206E+00  0.44982179747E+01  0.00000000000E+00 0.  1.
</event>
<event>
 8    1  0.5331800E-011  0.9118800E+02  0.7816164E-02  0.1184000E+00
        -11   -1    0    0    0    0  0.00000000000E+00  0.00000000000E+00  0.45593999997E+02  0.45594000000E+02  0.51100000000E-03 0.  1.
         11   -1    0    0    0    0 -0.00000000000E+00 -0.00000000000E+00 -0.45593999997E+02  0.45594000000E+02  0.51100000000E-03 0. -1.
         23    2    1    2    0    0  0.00000000000E+00  0.00000000000E+00  0.00000000000E+00  0.91188000000E+02  0.91188000000E+02 0.  0.
    9900012    2    3    3    0    0 -0.10975171635E+02  0.41908510072E+02 -0.26165098259E+01  0.47787265760E+02  0.19999975908E+02 0.  0.
        -12    1    3    3    0    0  0.10975171635E+02 -0.41908510072E+02  0.26165098259E+01  0.43400734240E+02  0.00000000000E+00 0.  1.
         11    1    4    4    0    0 -0.61865960240E+01  0.35499224436E+02  0.18775110071E+01  0.36083153324E+02  0.51100000000E-03 0. -1.
        -11    1    4    4    0    0 -0.50181869274E+01  0.82871121112E+00 -0.30673159606E+01  0.59394772306E+01  0.51100000000E-03 0.  1.
        -12    1    4    4    0    0  0.22961131678E+00  0.55805744245E+01 -0.14267048723E+01  0.57646352059E+01  0.00000000000E+00 0.  1.
</event>
<event>
 8    1  0.5331800E-011  0.9118800E+02  0.7816164E-02  0.1184000E+00
        -11   -1    0    0    0    0  0.00000000000E+00  0.00000000000E+00  0.45593999997E+02  0.45594000000E+02  0.51100000000E-03 0.  1.
         11   -1    0    0    0    0 -0.00000000000E+00 -0.00000000000E+00 -0.45593999997E+02  0.45594000000E+02  0.51100000000E-03 0. -1.
         23    2    1    2    0    0  0.00000000000E+00  0.35527136788E-14  0.17763568394E-14  0.91188000000E+02  0.91188000000E+02 0.  0.
    9900012    2    3    3    0    0 -0.31243683219E+02 -0.27253594794E+02 -0.12833437978E+02  0.47787270737E+02  0.19999998596E+02 0.  0.
         12    1    3    3    0    0  0.31243683219E+02  0.27253594794E+02  0.12833437978E+02  0.43400729263E+02  0.00000000000E+00 0. -1.
         11    1    4    4    0    0 -0.14705668362E+02 -0.13607458338E+02 -0.10013928797E+02  0.22398624391E+02  0.51100000000E-03 0. -1.
        -11    1    4    4    0    0 -0.40342894627E+01 -0.10177579581E+02  0.27183454773E+01  0.11280426410E+02  0.51100000000E-03 0.  1.
        -12    1    4    4    0    0 -0.12503725394E+02 -0.34685568737E+01 -0.55378546590E+01  0.14108219935E+02  0.00000000000E+00 0.  1.
</event>
<event>
 8    1  0.5331800E-011  0.9118800E+02  0.7816164E-02  0.1184000E+00
        -11   -1    0    0    0    0  0.00000000000E+00  0.00000000000E+00  0.45593999997E+02  0.45594000000E+02  0.51100000000E-03 0. -1.
         11   -1    0    0    0    0 -0.00000000000E+00 -0.00000000000E+00 -0.45593999997E+02  0.45594000000E+02  0.51100000000E-03 0.  1.
         23    2    1    2    0    0 -0.17763568394E-14 -0.35527136788E-14  0.00000000000E+00  0.91188000000E+02  0.91188000000E+02 0.  0.
    9900012    2    3    3    0    0  0.12131735321E+02  0.23931789077E+02  0.34113247759E+02  0.47787271861E+02  0.20000003724E+02 0.  0.
        -12    1    3    3    0    0 -0.12131735321E+02 -0.23931789077E+02 -0.34113247759E+02  0.43400728139E+02  0.00000000000E+00 0.  1.
         11    1    4    4    0    0 -0.97795988285E+00  0.12760374628E+02  0.15082960924E+02  0.19780780486E+02  0.51100000000E-03 0. -1.
        -11    1    4    4    0    0  0.13422009338E+02  0.51586066425E+01  0.14888750228E+02  0.20698706258E+02  0.51100000000E-03 0.  1.
        -12    1    4    4    0    0 -0.31231413372E+00  0.60128078065E+01  0.41415366076E+01  0.73077851165E+01  0.00000000000E+00 0.  1.
</event>
<event>
 8    1  0.5331800E-011  0.9118800E+02  0.7816164E-02  0.1184000E+00
        -11   -1    0    0    0    0  0.00000000000E+00  0.00000000000E+00  0.45593999997E+02  0.45594000000E+02  0.51100000000E-03 0. -1.
         11   -1    0    0    0    0 -0.00000000000E+00 -0.00000000000E+00 -0.45593999997E+02  0.45594000000E+02  0.51100000000E-03 0.  1.
         23    2    1    2    0    0  0.00000000000E+00  0.00000000000E+00  0.00000000000E+00  0.91188000000E+02  0.91188000000E+02 0.  0.
    9900012    2    3    3    0    0  0.19561149219E+02 -0.19040066480E+02  0.33741127801E+02  0.47787235080E+02  0.19999836025E+02 0.  0.
        -12    1    3    3    0    0 -0.19561149219E+02  0.19040066480E+02 -0.33741127801E+02  0.43400764920E+02  0.00000000000E+00 0.  1.
         11    1    4    4    0    0  0.57323035448E+01 -0.15823264926E+01  0.11942567989E+02  0.13341214018E+02  0.51100000000E-03 0. -1.
        -11    1    4    4    0    0 -0.36633887988E+00 -0.95807271379E+01  0.40942128523E+01  0.10425311305E+02  0.51100000000E-03 0.  1.
        -12    1    4    4    0    0  0.14195184554E+02 -0.78770128497E+01  0.17704346960E+02  0.24020709757E+02  0.00000000000E+00 0.  1.
</event>
<event>
 8    1  0.5331800E-011  0.9118800E+02  0.7816164E-02  0.1184000E+00
        -11   -1    0    0    0    0  0.00000000000E+00  0.00000000000E+00  0.45593999997E+02  0.45594000000E+02  0.51100000000E-03 0.  1.
         11   -1    0    0    0    0 -0.00000000000E+00 -0.00000000000E+00 -0.45593999997E+02  0.45594000000E+02  0.51100000000E-03 0. -1.
         23    2    1    2    0    0  0.00000000000E+00  0.00000000000E+00  0.00000000000E+00  0.91188000000E+02  0.91188000000E+02 0.  0.
    9900012    2    3    3    0    0  0.40347350183E+01 -0.41585776095E+02  0.11745964744E+02  0.47787267888E+02  0.19999985608E+02 0.  0.
        -12    1    3    3    0    0 -0.40347350183E+01  0.41585776095E+02 -0.11745964744E+02  0.43400732112E+02  0.00000000000E+00 0.  1.
         11    1    4    4    0    0 -0.72103996638E+00 -0.20022687146E+02 -0.31804129337E+01  0.20286520793E+02  0.51100000000E-03 0. -1.
        -11    1    4    4    0    0  0.51609478992E+01 -0.79921808030E+01  0.64802829766E+01  0.11511055769E+02  0.51100000000E-03 0.  1.
         12    1    4    4    0    0 -0.40517291449E+00 -0.13570908146E+02  0.84460947011E+01  0.15989691326E+02  0.00000000000E+00 0. -1.
</event>
<event>
 8    1  0.5331800E-011  0.9118800E+02  0.7816164E-02  0.1184000E+00
        -11   -1    0    0    0    0  0.00000000000E+00  0.00000000000E+00  0.45593999997E+02  0.45594000000E+02  0.51100000000E-03 0. -1.
         11   -1    0    0    0    0 -0.00000000000E+00 -0.00000000000E+00 -0.45593999997E+02  0.45594000000E+02  0.51100000000E-03 0.  1.
         23    2    1    2    0    0 -0.11102230246E-15  0.35527136788E-14  0.71054273576E-14  0.91188000000E+02  0.91188000000E+02 0.  0.
    9900012    2    3    3    0    0  0.53766071179E+00  0.24582778383E+02 -0.35763403130E+02  0.47787273330E+02  0.20000010419E+02 0.  0.
         12    1    3    3    0    0 -0.53766071179E+00 -0.24582778383E+02  0.35763403130E+02  0.43400726670E+02  0.00000000000E+00 0. -1.
         11    1    4    4    0    0  0.12346147994E+01  0.10745256956E+02 -0.27280723704E+01  0.11154694073E+02  0.51100000000E-03 0. -1.
        -11    1    4    4    0    0  0.19748605106E+00  0.65940105704E+01 -0.24642108448E+02  0.25509870347E+02  0.51100000000E-03 0.  1.
         12    1    4    4    0    0 -0.89444013866E+00  0.72435108565E+01 -0.83932223124E+01  0.11122708909E+02  0.00000000000E+00 0. -1.
</event>
<event>
 8    1  0.5331800E-011  0.9118800E+02  0.7816164E-02  0.1184000E+00
        -11   -1    0    0    0    0  0.00000000000E+00  0.00000000000E+00  0.45593999997E+02  0.45594000000E+02  0.51100000000E-03 0. -1.
         11   -1    0    0    0    0 -0.00000000000E+00 -0.00000000000E+00 -0.45593999997E+02  0.45594000000E+02  0.51100000000E-03 0.  1.
         23    2    1    2    0    0  0.00000000000E+00  0.35527136788E-14  0.00000000000E+00  0.91188000000E+02  0.91188000000E+02 0.  0.
    9900012    2    3    3    0    0  0.21921873794E+01  0.24694375742E+02 -0.35623100917E+02  0.47787271922E+02  0.20000004000E+02 0.  0.
         12    1    3    3    0    0 -0.21921873794E+01 -0.24694375742E+02  0.35623100917E+02  0.43400728078E+02  0.00000000000E+00 0. -1.
         11    1    4    4    0    0 -0.21788486623E+01  0.12839061535E+01 -0.12913732930E+01  0.28396200005E+01  0.51100000000E-03 0. -1.
        -11    1    4    4    0    0  0.45459304377E+01  0.98240403013E+01 -0.37036147162E+01  0.11440892169E+02  0.51100000000E-03 0.  1.
        -12    1    4    4    0    0 -0.17489439602E+00  0.13586429287E+02 -0.30628112908E+02  0.33506759753E+02  0.00000000000E+00 0.  1.
</event>
<event>
 8    1  0.5331800E-011  0.9118800E+02  0.7816164E-02  0.1184000E+00
        -11   -1    0    0    0    0  0.00000000000E+00  0.00000000000E+00  0.45593999997E+02  0.45594000000E+02  0.51100000000E-03 0. -1.
         11   -1    0    0    0    0 -0.00000000000E+00 -0.00000000000E+00 -0.45593999997E+02  0.45594000000E+02  0.51100000000E-03 0.  1.
         23    2    1    2    0    0 -0.88817841970E-15  0.00000000000E+00  0.00000000000E+00  0.91188000000E+02  0.91188000000E+02 0.  0.
    9900012    2    3    3    0    0 -0.66852834032E+01 -0.20174007855E+02 -0.37840978094E+02  0.47787271547E+02  0.20000002291E+02 0.  0.
         12    1    3    3    0    0  0.66852834032E+01  0.20174007855E+02  0.37840978094E+02  0.43400728453E+02  0.00000000000E+00 0. -1.
         11    1    4    4    0    0 -0.83415066987E+01 -0.20476524933E+02 -0.28673955276E+02  0.36208624922E+02  0.51100000000E-03 0. -1.
        -11    1    4    4    0    0 -0.19295169219E+00  0.31270026074E+01 -0.67032472443E+01  0.73992499309E+01  0.51100000000E-03 0.  1.
        -12    1    4    4    0    0  0.18491749877E+01 -0.28244855302E+01 -0.24637755746E+01  0.41793966942E+01  0.00000000000E+00 0.  1.
</event>
<event>
 8    1  0.5331800E-011  0.9118800E+02  0.7816164E-02  0.1184000E+00
        -11   -1    0    0    0    0  0.00000000000E+00  0.00000000000E+00  0.45593999997E+02  0.45594000000E+02  0.51100000000E-03 0. -1.
         11   -1    0    0    0    0 -0.00000000000E+00 -0.00000000000E+00 -0.45593999997E+02  0.45594000000E+02  0.51100000000E-03 0.  1.
         23    2    1    2    0    0  0.35527136788E-14  0.22204460493E-15 -0.14210854715E-13  0.91188000000E+02  0.91188000000E+02 0.  0.
    9900012    2    3    3    0    0  0.12122015483E+02 -0.18593062441E+01 -0.41631994531E+02  0.47787271346E+02  0.20000001375E+02 0.  0.
         12    1    3    3    0    0 -0.12122015483E+02  0.18593062441E+01  0.41631994531E+02  0.43400728654E+02  0.00000000000E+00 0. -1.
         11    1    4    4    0    0 -0.28815161529E+01 -0.52587805632E+01 -0.44179870230E+01  0.74482560340E+01  0.51100000000E-03 0. -1.
        -11    1    4    4    0    0  0.10520467062E+02  0.16174544240E+01 -0.27629032588E+02  0.29608441837E+02  0.51100000000E-03 0.  1.
         12    1    4    4    0    0  0.44830645741E+01  0.17820198952E+01 -0.95849749203E+01  0.10730573475E+02  0.00000000000E+00 0. -1.
</event>
<event>
 8    1  0.5331800E-011  0.9118800E+02  0.7816164E-02  0.1184000E+00
        -11   -1    0    0    0    0  0.00000000000E+00  0.00000000000E+00  0.45593999997E+02  0.45594000000E+02  0.51100000000E-03 0. -1.
         11   -1    0    0    0    0 -0.00000000000E+00 -0.00000000000E+00 -0.45593999997E+02  0.45594000000E+02  0.51100000000E-03 0.  1.
         23    2    1    2    0    0  0.00000000000E+00  0.17763568394E-14  0.00000000000E+00  0.91188000000E+02  0.91188000000E+02 0.  0.
    9900012    2    3    3    0    0 -0.42301333399E+01 -0.10250490286E+02 -0.41960192523E+02  0.47787258811E+02  0.19999944225E+02 0.  0.
         12    1    3    3    0    0  0.42301333399E+01  0.10250490286E+02  0.41960192523E+02  0.43400741189E+02  0.00000000000E+00 0. -1.
         11    1    4    4    0    0  0.16205078301E+01  0.51921235358E+01 -0.55876252348E+01  0.77978040796E+01  0.51100000000E-03 0. -1.
        -11    1    4    4    0    0 -0.41288700471E+01 -0.11171325556E+02 -0.28134735394E+02  0.30551749844E+02  0.51100000000E-03 0.  1.
         12    1    4    4    0    0 -0.17217711229E+01 -0.42712882659E+01 -0.82378318935E+01  0.94377048882E+01  0.00000000000E+00 0. -1.
</event>
<event>
 8    1  0.5331800E-011  0.9118800E+02  0.7816164E-02  0.1184000E+00
        -11   -1    0    0    0    0  0.00000000000E+00  0.00000000000E+00  0.45593999997E+02  0.45594000000E+02  0.51100000000E-03 0. -1.
         11   -1    0    0    0    0 -0.00000000000E+00 -0.00000000000E+00 -0.45593999997E+02  0.45594000000E+02  0.51100000000E-03 0.  1.
         23    2    1    2    0    0  0.00000000000E+00  0.35527136788E-14  0.00000000000E+00  0.91188000000E+02  0.91188000000E+02 0.  0.
    9900012    2    3    3    0    0  0.11970552365E+02  0.18709674453E+02  0.37286423432E+02  0.47787269426E+02  0.19999992620E+02 0.  0.
        -12    1    3    3    0    0 -0.11970552365E+02 -0.18709674453E+02 -0.37286423432E+02  0.43400730574E+02  0.00000000000E+00 0.  1.
         11    1    4    4    0    0 -0.32752372129E+01  0.62088785444E+01  0.16349343110E+02  0.17792649380E+02  0.51100000000E-03 0. -1.
        -11    1    4    4    0    0  0.35192710198E+01 -0.56578807821E+00  0.16964510271E+01  0.39475727997E+01  0.51100000000E-03 0.  1.
         12    1    4    4    0    0  0.11726518558E+02  0.13066583987E+02  0.19240629295E+02  0.26047047246E+02  0.00000000000E+00 0. -1.
</event>
<event>
 8    1  0.5331800E-011  0.9118800E+02  0.7816164E-02  0.1184000E+00
        -11   -1    0    0    0    0  0.00000000000E+00  0.00000000000E+00  0.45593999997E+02  0.45594000000E+02  0.51100000000E-03 0. -1.
         11   -1    0    0    0    0 -0.00000000000E+00 -0.00000000000E+00 -0.45593999997E+02  0.45594000000E+02  0.51100000000E-03 0.  1.
         23    2    1    2    0    0  0.00000000000E+00 -0.35527136788E-14 -0.66613381478E-15  0.91188000000E+02  0.91188000000E+02 0.  0.
    9900012    2    3    3    0    0  0.40159061106E+02  0.16453072691E+02 -0.41201701178E+00  0.47787267887E+02  0.19999985606E+02 0.  0.
        -12    1    3    3    0    0 -0.40159061106E+02 -0.16453072691E+02  0.41201701178E+00  0.43400732113E+02  0.00000000000E+00 0.  1.
         11    1    4    4    0    0  0.31589195080E+02  0.16328685335E+02 -0.62679240356E+01  0.36108033490E+02  0.51100000000E-03 0. -1.
        -11    1    4    4    0    0  0.87573115283E+01  0.12757437062E+01  0.56364272303E+01  0.10492251398E+02  0.51100000000E-03 0.  1.
         12    1    4    4    0    0 -0.18744550208E+00 -0.11513563501E+01  0.21947979351E+00  0.11869829995E+01  0.00000000000E+00 0. -1.
</event>
<event>
 8    1  0.5331800E-011  0.9118800E+02  0.7816164E-02  0.1184000E+00
        -11   -1    0    0    0    0  0.00000000000E+00  0.00000000000E+00  0.45593999997E+02  0.45594000000E+02  0.51100000000E-03 0. -1.
         11   -1    0    0    0    0 -0.00000000000E+00 -0.00000000000E+00 -0.45593999997E+02  0.45594000000E+02  0.51100000000E-03 0.  1.
         23    2    1    2    0    0  0.35527136788E-14  0.00000000000E+00  0.71054273576E-14  0.91188000000E+02  0.91188000000E+02 0.  0.
    9900012    2    3    3    0    0 -0.25768203821E+02  0.54820668028E+01 -0.34490142204E+02  0.47787270814E+02  0.19999998951E+02 0.  0.
         12    1    3    3    0    0  0.25768203821E+02 -0.54820668028E+01  0.34490142204E+02  0.43400729186E+02  0.00000000000E+00 0. -1.
         11    1    4    4    0    0  0.68709162606E+00 -0.35082026341E+01 -0.41193245666E+01  0.54542108293E+01  0.51100000000E-03 0. -1.
        -11    1    4    4    0    0 -0.20490250630E+02  0.62525445767E+01 -0.28211604881E+02  0.35423711477E+02  0.51100000000E-03 0.  1.
         12    1    4    4    0    0 -0.59650448175E+01  0.27377248602E+01 -0.21592127562E+01  0.69093485085E+01  0.00000000000E+00 0. -1.
</event>
<event>
 8    1  0.5331800E-011  0.9118800E+02  0.7816164E-02  0.1184000E+00
        -11   -1    0    0    0    0  0.00000000000E+00  0.00000000000E+00  0.45593999997E+02  0.45594000000E+02  0.51100000000E-03 0. -1.
         11   -1    0    0    0    0 -0.00000000000E+00 -0.00000000000E+00 -0.45593999997E+02  0.45594000000E+02  0.51100000000E-03 0.  1.
         23    2    1    2    0    0  0.35527136788E-14 -0.88817841970E-15  0.00000000000E+00  0.91188000000E+02  0.91188000000E+02 0.  0.
    9900012    2    3    3    0    0 -0.23249438610E+02  0.73712159118E+01  0.35899196800E+02  0.47787267857E+02  0.19999985466E+02 0.  0.
        -12    1    3    3    0    0  0.23249438610E+02 -0.73712159118E+01 -0.35899196800E+02  0.43400732143E+02  0.00000000000E+00 0.  1.
         11    1    4    4    0    0 -0.31589562421E+01  0.86210209281E+01  0.12089830826E+02  0.15181074272E+02  0.51100000000E-03 0. -1.
        -11    1    4    4    0    0 -0.10951448214E+02 -0.23143069390E+01  0.63454803235E+01  0.12866831599E+02  0.51100000000E-03 0.  1.
         12    1    4    4    0    0 -0.91390341538E+01  0.10645019227E+01  0.17463885650E+02  0.19739361986E+02  0.00000000000E+00 0. -1.
</event>
<event>
 8    1  0.5331800E-011  0.9118800E+02  0.7816164E-02  0.1184000E+00
        -11   -1    0    0    0    0  0.00000000000E+00  0.00000000000E+00  0.45593999997E+02  0.45594000000E+02  0.51100000000E-03 0. -1.
         11   -1    0    0    0    0 -0.00000000000E+00 -0.00000000000E+00 -0.45593999997E+02  0.45594000000E+02  0.51100000000E-03 0.  1.
         23    2    1    2    0    0  0.44408920985E-15 -0.35527136788E-14  0.00000000000E+00  0.91188000000E+02  0.91188000000E+02 0.  0.
    9900012    2    3    3    0    0  0.39877047597E+01 -0.29394069260E+02 -0.31681400626E+02  0.47787259885E+02  0.19999949119E+02 0.  0.
         12    1    3    3    0    0 -0.39877047597E+01  0.29394069260E+02  0.31681400626E+02  0.43400740115E+02  0.00000000000E+00 0. -1.
         11    1    4    4    0    0  0.80308639501E+00 -0.14928653206E+01 -0.57421195587E-01  0.16961403474E+01  0.51100000000E-03 0. -1.
        -11    1    4    4    0    0  0.78239907553E+01 -0.46493275344E+01 -0.47967386506E+01  0.10287846218E+02  0.51100000000E-03 0.  1.
        -12    1    4    4    0    0 -0.46393723906E+01 -0.23251876405E+02 -0.26827240780E+02  0.35803273319E+02  0.00000000000E+00 0.  1.
</event>
<event>
 8    1  0.5331800E-011  0.9118800E+02  0.7816164E-02  0.1184000E+00
        -11   -1    0    0    0    0  0.00000000000E+00  0.00000000000E+00  0.45593999997E+02  0.45594000000E+02  0.51100000000E-03 0.  1.
         11   -1    0    0    0    0 -0.00000000000E+00 -0.00000000000E+00 -0.45593999997E+02  0.45594000000E+02  0.51100000000E-03 0. -1.
         23    2    1    2    0    0 -0.17763568394E-14  0.00000000000E+00  0.00000000000E+00  0.91188000000E+02  0.91188000000E+02 0.  0.
    9900012    2    3    3    0    0  0.14183534610E+02 -0.39469156671E+02  0.11164074055E+02  0.47787268072E+02  0.19999986449E+02 0.  0.
         12    1    3    3    0    0 -0.14183534610E+02  0.39469156671E+02 -0.11164074055E+02  0.43400731928E+02  0.00000000000E+00 0. -1.
         11    1    4    4    0    0 -0.12350492490E+01 -0.70890887280E+01  0.55047027315E+01  0.90599270452E+01  0.51100000000E-03 0. -1.
        -11    1    4    4    0    0  0.15675874952E+02 -0.31410174290E+02  0.81534108949E+01  0.36039009614E+02  0.51100000000E-03 0.  1.
        -12    1    4    4    0    0 -0.25729109320E+00 -0.96989365291E+00 -0.24940395714E+01  0.26883314134E+01  0.00000000000E+00 0.  1.
</event>
<event>
 8    1  0.5331800E-011  0.9118800E+02  0.7816164E-02  0.1184000E+00
        -11   -1    0    0    0    0  0.00000000000E+00  0.00000000000E+00  0.45593999997E+02  0.45594000000E+02  0.51100000000E-03 0. -1.
         11   -1    0    0    0    0 -0.00000000000E+00 -0.00000000000E+00 -0.45593999997E+02  0.45594000000E+02  0.51100000000E-03 0.  1.
         23    2    1    2    0    0  0.00000000000E+00  0.00000000000E+00  0.00000000000E+00  0.91188000000E+02  0.91188000000E+02 0.  0.
    9900012    2    3    3    0    0 -0.14141642109E+02 -0.24735608314E+02 -0.32738132062E+02  0.47787289740E+02  0.20000085241E+02 0.  0.
         12    1    3    3    0    0  0.14141642109E+02  0.24735608314E+02  0.32738132062E+02  0.43400710260E+02  0.00000000000E+00 0. -1.
         11    1    4    4    0    0 -0.62887835985E+01 -0.20924668690E+02 -0.13351222622E+02  0.25605579562E+02  0.51100000000E-03 0. -1.
        -11    1    4    4    0    0 -0.71376798590E+01 -0.54254861968E+01 -0.16910307496E+02  0.19140033284E+02  0.51100000000E-03 0.  1.
         12    1    4    4    0    0 -0.71517865151E+00  0.16145465733E+01 -0.24766019435E+01  0.30416768940E+01  0.00000000000E+00 0. -1.
</event>
<event>
 8    1  0.5331800E-011  0.9118800E+02  0.7816164E-02  0.1184000E+00
        -11   -1    0    0    0    0  0.00000000000E+00  0.00000000000E+00  0.45593999997E+02  0.45594000000E+02  0.51100000000E-03 0. -1.
         11   -1    0    0    0    0 -0.00000000000E+00 -0.00000000000E+00 -0.45593999997E+02  0.45594000000E+02  0.51100000000E-03 0.  1.
         23    2    1    2    0    0  0.17763568394E-14 -0.17763568394E-14 -0.71054273576E-14  0.91188000000E+02  0.91188000000E+02 0.  0.
    9900012    2    3    3    0    0 -0.47782313487E+01  0.95356162858E+01  0.42069741179E+02  0.47787278858E+02  0.20000035624E+02 0.  0.
        -12    1    3    3    0    0  0.47782313487E+01 -0.95356162858E+01 -0.42069741179E+02  0.43400721142E+02  0.00000000000E+00 0.  1.
         11    1    4    4    0    0 -0.97820380313E+01  0.46741924694E+01  0.16492630674E+02  0.19736849042E+02  0.51100000000E-03 0. -1.
        -11    1    4    4    0    0  0.65604454780E+01  0.26416590648E+01  0.23751028452E+02  0.24781629492E+02  0.51100000000E-03 0.  1.
        -12    1    4    4    0    0 -0.15566387954E+01  0.22197647516E+01  0.18260820532E+01  0.32688003238E+01  0.00000000000E+00 0.  1.
</event>
<event>
 8    1  0.5331800E-011  0.9118800E+02  0.7816164E-02  0.1184000E+00
        -11   -1    0    0    0    0  0.00000000000E+00  0.00000000000E+00  0.45593999997E+02  0.45594000000E+02  0.51100000000E-03 0. -1.
         11   -1    0    0    0    0 -0.00000000000E+00 -0.00000000000E+00 -0.45593999997E+02  0.45594000000E+02  0.51100000000E-03 0.  1.
         23    2    1    2    0    0  0.00000000000E+00  0.00000000000E+00 -0.71054273576E-14  0.91188000000E+02  0.91188000000E+02 0.  0.
    9900012    2    3    3    0    0 -0.13736434446E+02 -0.45901476634E+01 -0.40912880091E+02  0.47787275994E+02  0.20000022568E+02 0.  0.
         12    1    3    3    0    0  0.13736434446E+02  0.45901476634E+01  0.40912880091E+02  0.43400724006E+02  0.00000000000E+00 0. -1.
         11    1    4    4    0    0  0.62697038539E+00 -0.24583764188E+01 -0.21514311767E+02  0.21663386567E+02  0.51100000000E-03 0. -1.
        -11    1    4    4    0    0 -0.11348271244E+02 -0.46144505566E+01 -0.18378363689E+02  0.22087115391E+02  0.51100000000E-03 0.  1.
        -12    1    4    4    0    0 -0.30151335881E+01  0.24826793120E+01 -0.10202046350E+01  0.40367740359E+01  0.00000000000E+00 0.  1.
</event>
<event>
 8    1  0.5331800E-011  0.9118800E+02  0.7816164E-02  0.1184000E+00
        -11   -1    0    0    0    0  0.00000000000E+00  0.00000000000E+00  0.45593999997E+02  0.45594000000E+02  0.51100000000E-03 0. -1.
         11   -1    0    0    0    0 -0.00000000000E+00 -0.00000000000E+00 -0.45593999997E+02  0.45594000000E+02  0.51100000000E-03 0.  1.
         23    2    1    2    0    0 -0.17763568394E-14  0.00000000000E+00  0.00000000000E+00  0.91188000000E+02  0.91188000000E+02 0.  0.
    9900012    2    3    3    0    0  0.89465642460E+01  0.22933429143E+02 -0.35744079209E+02  0.47787281313E+02  0.20000046818E+02 0.  0.
         12    1    3    3    0    0 -0.89465642460E+01 -0.22933429143E+02  0.35744079209E+02  0.43400718687E+02  0.00000000000E+00 0. -1.
         11    1    4    4    0    0 -0.26272702051E+01  0.89769873255E+01 -0.13668047540E+02  0.16562136758E+02  0.51100000000E-03 0.  1.
        -11    1    4    4    0    0  0.10219161868E+02  0.46447676195E+01 -0.63442251289E+01  0.12893964800E+02  0.51100000000E-03 0. -1.
         12    1    4    4    0    0  0.13546725830E+01  0.93116741980E+01 -0.15731806541E+02  0.18331179755E+02  0.00000000000E+00 0. -1.
</event>
<event>
 8    1  0.5331800E-011  0.9118800E+02  0.7816164E-02  0.1184000E+00
        -11   -1    0    0    0    0  0.00000000000E+00  0.00000000000E+00  0.45593999997E+02  0.45594000000E+02  0.51100000000E-03 0. -1.
         11   -1    0    0    0    0 -0.00000000000E+00 -0.00000000000E+00 -0.45593999997E+02  0.45594000000E+02  0.51100000000E-03 0.  1.
         23    2    1    2    0    0 -0.71054273576E-14 -0.17763568394E-14  0.00000000000E+00  0.91188000000E+02  0.91188000000E+02 0.  0.
    9900012    2    3    3    0    0  0.42004328663E+02 -0.10871609843E+02 -0.10333643601E+01  0.47787269950E+02  0.19999995010E+02 0.  0.
         12    1    3    3    0    0 -0.42004328663E+02  0.10871609843E+02  0.10333643601E+01  0.43400730050E+02  0.00000000000E+00 0. -1.
         11    1    4    4    0    0  0.69318352173E+01 -0.86353096281E+01 -0.42069829426E+01  0.11845573755E+02  0.51100000000E-03 0. -1.
        -11    1    4    4    0    0  0.35179569446E+02 -0.26734489730E+01  0.28674123203E+01  0.35397337322E+02  0.51100000000E-03 0.  1.
         12    1    4    4    0    0 -0.10707600079E+00  0.43714875837E+00  0.30620626225E+00  0.54435887237E+00  0.00000000000E+00 0. -1.
</event>
<event>
 8    1  0.5331800E-011  0.9118800E+02  0.7816164E-02  0.1184000E+00
        -11   -1    0    0    0    0  0.00000000000E+00  0.00000000000E+00  0.45593999997E+02  0.45594000000E+02  0.51100000000E-03 0. -1.
         11   -1    0    0    0    0 -0.00000000000E+00 -0.00000000000E+00 -0.45593999997E+02  0.45594000000E+02  0.51100000000E-03 0.  1.
         23    2    1    2    0    0  0.00000000000E+00  0.00000000000E+00  0.35527136788E-14  0.91188000000E+02  0.91188000000E+02 0.  0.
    9900012    2    3    3    0    0 -0.35524897326E+02  0.39058727668E+01  0.24624163666E+02  0.47787267191E+02  0.19999982432E+02 0.  0.
        -12    1    3    3    0    0  0.35524897326E+02 -0.39058727668E+01 -0.24624163666E+02  0.43400732809E+02  0.00000000000E+00 0.  1.
         11    1    4    4    0    0 -0.13676566402E+02 -0.23216367324E+01  0.88360230640E+01  0.16447302803E+02  0.51100000000E-03 0. -1.
        -11    1    4    4    0    0 -0.88111201852E+00  0.53245958451E+01  0.63358441152E+01  0.83228961435E+01  0.51100000000E-03 0.  1.
        -12    1    4    4    0    0 -0.20967218905E+02  0.90291365406E+00  0.94522964870E+01  0.23017068245E+02  0.00000000000E+00 0.  1.
</event>
<event>
 8    1  0.5331800E-011  0.9118800E+02  0.7816164E-02  0.1184000E+00
        -11   -1    0    0    0    0  0.00000000000E+00  0.00000000000E+00  0.45593999997E+02  0.45594000000E+02  0.51100000000E-03 0.  1.
         11   -1    0    0    0    0 -0.00000000000E+00 -0.00000000000E+00 -0.45593999997E+02  0.45594000000E+02  0.51100000000E-03 0. -1.
         23    2    1    2    0    0  0.00000000000E+00  0.00000000000E+00  0.22204460493E-15  0.91188000000E+02  0.91188000000E+02 0.  0.
    9900012    2    3    3    0    0  0.24198292796E+02  0.36014693279E+02 -0.10038567449E+01  0.47787271497E+02  0.20000002064E+02 0.  0.
        -12    1    3    3    0    0 -0.24198292796E+02 -0.36014693279E+02  0.10038567449E+01  0.43400728503E+02  0.00000000000E+00 0.  1.
         11    1    4    4    0    0  0.18987718772E+02  0.23640094133E+02 -0.59185800094E+01  0.30893641811E+02  0.51100000000E-03 0. -1.
        -11    1    4    4    0    0  0.43497188146E+01  0.13814258824E+02  0.44971237903E+01  0.15165023022E+02  0.51100000000E-03 0.  1.
         12    1    4    4    0    0  0.86085520939E+00 -0.14396596772E+01  0.41759947422E+00  0.17286066639E+01  0.00000000000E+00 0. -1.
</event>
<event>
 8    1  0.5331800E-011  0.9118800E+02  0.7816164E-02  0.1184000E+00
        -11   -1    0    0    0    0  0.00000000000E+00  0.00000000000E+00  0.45593999997E+02  0.45594000000E+02  0.51100000000E-03 0. -1.
         11   -1    0    0    0    0 -0.00000000000E+00 -0.00000000000E+00 -0.45593999997E+02  0.45594000000E+02  0.51100000000E-03 0.  1.
         23    2    1    2    0    0 -0.17763568394E-14  0.00000000000E+00 -0.35527136788E-14  0.91188000000E+02  0.91188000000E+02 0.  0.
    9900012    2    3    3    0    0  0.11008435784E+02  0.30542957938E+02 -0.28802235171E+02  0.47787231702E+02  0.19999820622E+02 0.  0.
         12    1    3    3    0    0 -0.11008435784E+02 -0.30542957938E+02  0.28802235171E+02  0.43400768298E+02  0.00000000000E+00 0. -1.
         11    1    4    4    0    0  0.85056498682E+01  0.20559795540E+02 -0.11342624494E+02  0.24974114659E+02  0.51100000000E-03 0. -1.
        -11    1    4    4    0    0 -0.30538941904E+01  0.76405113119E+01 -0.12691898136E+02  0.15125738375E+02  0.51100000000E-03 0.  1.
        -12    1    4    4    0    0  0.55566801063E+01  0.23426510856E+01 -0.47677125410E+01  0.76873786681E+01  0.00000000000E+00 0.  1.
</event>
<event>
 8    1  0.5331800E-011  0.9118800E+02  0.7816164E-02  0.1184000E+00
        -11   -1    0    0    0    0  0.00000000000E+00  0.00000000000E+00  0.45593999997E+02  0.45594000000E+02  0.51100000000E-03 0. -1.
         11   -1    0    0    0    0 -0.00000000000E+00 -0.00000000000E+00 -0.45593999997E+02  0.45594000000E+02  0.51100000000E-03 0.  1.
         23    2    1    2    0    0  0.00000000000E+00  0.17763568394E-14  0.00000000000E+00  0.91188000000E+02  0.91188000000E+02 0.  0.
    9900012    2    3    3    0    0  0.16125577311E+02  0.11436470704E+02  0.38636726776E+02  0.47787265424E+02  0.19999974374E+02 0.  0.
        -12    1    3    3    0    0 -0.16125577311E+02 -0.11436470704E+02 -0.38636726776E+02  0.43400734576E+02  0.00000000000E+00 0.  1.
         11    1    4    4    0    0 -0.19073105154E+00  0.48965076903E+01  0.72188534536E+01  0.87249075262E+01  0.51100000000E-03 0. -1.
        -11    1    4    4    0    0  0.12814213951E+02  0.10438888812E+02  0.28796263022E+02  0.33202398153E+02  0.51100000000E-03 0.  1.
        -12    1    4    4    0    0  0.35020944119E+01 -0.38989257981E+01  0.26216103005E+01  0.58599597453E+01  0.00000000000E+00 0.  1.
</event>
<event>
 8    1  0.5331800E-011  0.9118800E+02  0.7816164E-02  0.1184000E+00
        -11   -1    0    0    0    0  0.00000000000E+00  0.00000000000E+00  0.45593999997E+02  0.45594000000E+02  0.51100000000E-03 0. -1.
         11   -1    0    0    0    0 -0.00000000000E+00 -0.00000000000E+00 -0.45593999997E+02  0.45594000000E+02  0.51100000000E-03 0.  1.
         23    2    1    2    0    0  0.00000000000E+00  0.88817841970E-15  0.00000000000E+00  0.91188000000E+02  0.91188000000E+02 0.  0.
    9900012    2    3    3    0    0  0.14080709941E+02  0.52871299903E+01 -0.40711255741E+02  0.47787234109E+02  0.19999831594E+02 0.  0.
         12    1    3    3    0    0 -0.14080709941E+02 -0.52871299903E+01  0.40711255741E+02  0.43400765891E+02  0.00000000000E+00 0. -1.
         11    1    4    4    0    0  0.11611541059E+01  0.22290417703E+00  0.66385614677E+00  0.13559758016E+01  0.51100000000E-03 0. -1.
        -11    1    4    4    0    0  0.10286502209E+02 -0.41261693060E+01 -0.17514406167E+02  0.20726597030E+02  0.51100000000E-03 0.  1.
        -12    1    4    4    0    0  0.26330536262E+01  0.91903951193E+01 -0.23860705721E+02  0.25704661277E+02  0.00000000000E+00 0.  1.
</event>
<event>
 8    1  0.5331800E-011  0.9118800E+02  0.7816164E-02  0.1184000E+00
        -11   -1    0    0    0    0  0.00000000000E+00  0.00000000000E+00  0.45593999997E+02  0.45594000000E+02  0.51100000000E-03 0. -1.
         11   -1    0    0    0    0 -0.00000000000E+00 -0.00000000000E+00 -0.45593999997E+02  0.45594000000E+02  0.51100000000E-03 0.  1.
         23    2    1    2    0    0 -0.44408920985E-15  0.71054273576E-14  0.88817841970E-15  0.91188000000E+02  0.91188000000E+02 0.  0.
    9900012    2    3    3    0    0  0.24247401656E+01 -0.42953174552E+02 -0.57244101637E+01  0.47787269122E+02  0.19999991236E+02 0.  0.
         12    1    3    3    0    0 -0.24247401656E+01  0.42953174552E+02  0.57244101637E+01  0.43400730878E+02  0.00000000000E+00 0. -1.
         11    1    4    4    0    0  0.19401891519E+01 -0.32425195939E+02 -0.10906161778E+02  0.34265172269E+02  0.51100000000E-03 0.  1.
        -11    1    4    4    0    0  0.33856137694E+01 -0.34391971785E+01  0.18285266791E+01  0.51608107798E+01  0.51100000000E-03 0. -1.
         12    1    4    4    0    0 -0.29010627557E+01 -0.70887814347E+01  0.33532249348E+01  0.83612860736E+01  0.00000000000E+00 0. -1.
</event>
<event>
 8    1  0.5331800E-011  0.9118800E+02  0.7816164E-02  0.1184000E+00
        -11   -1    0    0    0    0  0.00000000000E+00  0.00000000000E+00  0.45593999997E+02  0.45594000000E+02  0.51100000000E-03 0.  1.
         11   -1    0    0    0    0 -0.00000000000E+00 -0.00000000000E+00 -0.45593999997E+02  0.45594000000E+02  0.51100000000E-03 0. -1.
         23    2    1    2    0    0 -0.71054273576E-14  0.00000000000E+00  0.00000000000E+00  0.91188000000E+02  0.91188000000E+02 0.  0.
    9900012    2    3    3    0    0  0.33282450385E+02  0.20033991684E+02  0.19353062352E+02  0.47787270181E+02  0.19999996061E+02 0.  0.
        -12    1    3    3    0    0 -0.33282450385E+02 -0.20033991684E+02 -0.19353062352E+02  0.43400729819E+02  0.00000000000E+00 0.  1.
         11    1    4    4    0    0  0.12939058420E+02  0.10348454189E+02  0.16142015190E+02  0.23131675070E+02  0.51100000000E-03 0. -1.
        -11    1    4    4    0    0  0.88516957198E+01  0.20993912426E+01 -0.29592864268E+01  0.95664694178E+01  0.51100000000E-03 0.  1.
         12    1    4    4    0    0  0.11491696245E+02  0.75861462532E+01  0.61703335890E+01  0.15089125693E+02  0.00000000000E+00 0. -1.
</event>
<event>
 8    1  0.5331800E-011  0.9118800E+02  0.7816164E-02  0.1184000E+00
        -11   -1    0    0    0    0  0.00000000000E+00  0.00000000000E+00  0.45593999997E+02  0.45594000000E+02  0.51100000000E-03 0. -1.
         11   -1    0    0    0    0 -0.00000000000E+00 -0.00000000000E+00 -0.45593999997E+02  0.45594000000E+02  0.51100000000E-03 0.  1.
         23    2    1    2    0    0 -0.35527136788E-14  0.17763568394E-14  0.00000000000E+00  0.91188000000E+02  0.91188000000E+02 0.  0.
    9900012    2    3    3    0    0  0.21206124973E+02  0.13776786444E+02  0.35272058433E+02  0.47787335406E+02  0.20000293448E+02 0.  0.
        -12    1    3    3    0    0 -0.21206124973E+02 -0.13776786444E+02 -0.35272058433E+02  0.43400664594E+02  0.00000000000E+00 0.  1.
         11    1    4    4    0    0  0.89766691206E+01  0.57866336877E+01  0.21714507211E+02  0.24198874800E+02  0.51100000000E-03 0. -1.
        -11    1    4    4    0    0  0.27825432268E+01  0.52989508600E+01 -0.95840167107E+00  0.60613497713E+01  0.51100000000E-03 0.  1.
        -12    1    4    4    0    0  0.94469126257E+01  0.26912018965E+01  0.14515952893E+02  0.17527110834E+02  0.00000000000E+00 0.  1.
</event>
<event>
 8    1  0.5331800E-011  0.9118800E+02  0.7816164E-02  0.1184000E+00
        -11   -1    0    0    0    0  0.00000000000E+00  0.00000000000E+00  0.45593999997E+02  0.45594000000E+02  0.51100000000E-03 0. -1.
         11   -1    0    0    0    0 -0.00000000000E+00 -0.00000000000E+00 -0.45593999997E+02  0.45594000000E+02  0.51100000000E-03 0.  1.
         23    2    1    2    0    0  0.00000000000E+00  0.00000000000E+00  0.35527136788E-14  0.91188000000E+02  0.91188000000E+02 0.  0.
    9900012    2    3    3    0    0 -0.31835076771E+02 -0.27777294198E+01 -0.29367254401E+02  0.47787268153E+02  0.19999986818E+02 0.  0.
         12    1    3    3    0    0  0.31835076771E+02  0.27777294198E+01  0.29367254401E+02  0.43400731847E+02  0.00000000000E+00 0. -1.
         11    1    4    4    0    0 -0.25024879680E+02 -0.85777665667E+01 -0.25564213052E+02  0.36787928339E+02  0.51100000000E-03 0.  1.
        -11    1    4    4    0    0 -0.32103679221E+01  0.22449731302E+01  0.97870469819E+00  0.40378496379E+01  0.51100000000E-03 0. -1.
        -12    1    4    4    0    0 -0.35998291691E+01  0.35550640167E+01 -0.47817460477E+01  0.69614901762E+01  0.00000000000E+00 0.  1.
</event>
<event>
 8    1  0.5331800E-011  0.9118800E+02  0.7816164E-02  0.1184000E+00
        -11   -1    0    0    0    0  0.00000000000E+00  0.00000000000E+00  0.45593999997E+02  0.45594000000E+02  0.51100000000E-03 0. -1.
         11   -1    0    0    0    0 -0.00000000000E+00 -0.00000000000E+00 -0.45593999997E+02  0.45594000000E+02  0.51100000000E-03 0.  1.
         23    2    1    2    0    0  0.71054273576E-14  0.88817841970E-15 -0.35527136788E-14  0.91188000000E+02  0.91188000000E+02 0.  0.
    9900012    2    3    3    0    0 -0.34600358561E+02 -0.79555450899E+01  0.24963000757E+02  0.47787229073E+02  0.19999808636E+02 0.  0.
        -12    1    3    3    0    0  0.34600358561E+02  0.79555450899E+01 -0.24963000757E+02  0.43400770927E+02  0.00000000000E+00 0.  1.
         11    1    4    4    0    0 -0.79803743240E+01  0.27401220147E+01  0.14078358412E+02  0.16413251319E+02  0.51100000000E-03 0. -1.
        -11    1    4    4    0    0 -0.21011969697E+02 -0.57105503880E+01  0.94417194931E+01  0.23733084998E+02  0.51100000000E-03 0.  1.
         12    1    4    4    0    0 -0.56080145400E+01 -0.49851167167E+01  0.14429228518E+01  0.76408927565E+01  0.00000000000E+00 0. -1.
</event>
<event>
 8    1  0.5331800E-011  0.9118800E+02  0.7816164E-02  0.1184000E+00
        -11   -1    0    0    0    0  0.00000000000E+00  0.00000000000E+00  0.45593999997E+02  0.45594000000E+02  0.51100000000E-03 0. -1.
         11   -1    0    0    0    0 -0.00000000000E+00 -0.00000000000E+00 -0.45593999997E+02  0.45594000000E+02  0.51100000000E-03 0.  1.
         23    2    1    2    0    0  0.00000000000E+00  0.00000000000E+00  0.00000000000E+00  0.91188000000E+02  0.91188000000E+02 0.  0.
    9900012    2    3    3    0    0 -0.26700196900E+02  0.27764535719E+02 -0.19996334120E+02  0.47787270324E+02  0.19999996715E+02 0.  0.
         12    1    3    3    0    0  0.26700196900E+02 -0.27764535719E+02  0.19996334120E+02  0.43400729676E+02  0.00000000000E+00 0. -1.
         11    1    4    4    0    0 -0.17380345879E+01  0.41591057895E+01  0.13776071044E+01  0.47134622935E+01  0.51100000000E-03 0. -1.
        -11    1    4    4    0    0 -0.93094081105E+01  0.10978255580E+02 -0.17385915876E+02  0.22571159608E+02  0.51100000000E-03 0.  1.
        -12    1    4    4    0    0 -0.15652754202E+02  0.12627174350E+02 -0.39880253479E+01  0.20502648422E+02  0.00000000000E+00 0.  1.
</event>
<event>
 8    1  0.5331800E-011  0.9118800E+02  0.7816164E-02  0.1184000E+00
        -11   -1    0    0    0    0  0.00000000000E+00  0.00000000000E+00  0.45593999997E+02  0.45594000000E+02  0.51100000000E-03 0.  1.
         11   -1    0    0    0    0 -0.00000000000E+00 -0.00000000000E+00 -0.45593999997E+02  0.45594000000E+02  0.51100000000E-03 0. -1.
         23    2    1    2    0    0  0.00000000000E+00  0.35527136788E-14  0.35527136788E-14  0.91188000000E+02  0.91188000000E+02 0.  0.
    9900012    2    3    3    0    0  0.17244294077E+02 -0.24934440627E+02 -0.31056901645E+02  0.47787272502E+02  0.20000006646E+02 0.  0.
         12    1    3    3    0    0 -0.17244294077E+02  0.24934440627E+02  0.31056901645E+02  0.43400727498E+02  0.00000000000E+00 0. -1.
         11    1    4    4    0    0  0.13605221739E+02 -0.71842682690E+01 -0.13881523791E+02  0.20722269957E+02  0.51100000000E-03 0. -1.
        -11    1    4    4    0    0 -0.33643385445E+01 -0.70212831239E+01 -0.42702960526E+01  0.88798997284E+01  0.51100000000E-03 0.  1.
        -12    1    4    4    0    0  0.70034108822E+01 -0.10728889234E+02 -0.12905081801E+02  0.18185102817E+02  0.00000000000E+00 0.  1.
</event>
<event>
 8    1  0.5331800E-011  0.9118800E+02  0.7816164E-02  0.1184000E+00
        -11   -1    0    0    0    0  0.00000000000E+00  0.00000000000E+00  0.45593999997E+02  0.45594000000E+02  0.51100000000E-03 0. -1.
         11   -1    0    0    0    0 -0.00000000000E+00 -0.00000000000E+00 -0.45593999997E+02  0.45594000000E+02  0.51100000000E-03 0.  1.
         23    2    1    2    0    0  0.22204460493E-15  0.44408920985E-15  0.00000000000E+00  0.91188000000E+02  0.91188000000E+02 0.  0.
    9900012    2    3    3    0    0  0.65230553139E+00 -0.23946610231E+01  0.43329694429E+02  0.47787281996E+02  0.20000049934E+02 0.  0.
        -12    1    3    3    0    0 -0.65230553139E+00  0.23946610231E+01 -0.43329694429E+02  0.43400718004E+02  0.00000000000E+00 0.  1.
         11    1    4    4    0    0  0.23768659692E+01 -0.19531698232E+00  0.43530452046E+02  0.43595732545E+02  0.51100000000E-03 0. -1.
        -11    1    4    4    0    0  0.27067729864E+00 -0.24554139040E+00 -0.11776594204E+01  0.12330607227E+01  0.51100000000E-03 0.  1.
         12    1    4    4    0    0 -0.19952377364E+01 -0.19538026504E+01  0.97690180344E+00  0.29584887283E+01  0.00000000000E+00 0. -1.
</event>
<event>
 8    1  0.5331800E-011  0.9118800E+02  0.7816164E-02  0.1184000E+00
        -11   -1    0    0    0    0  0.00000000000E+00  0.00000000000E+00  0.45593999997E+02  0.45594000000E+02  0.51100000000E-03 0. -1.
         11   -1    0    0    0    0 -0.00000000000E+00 -0.00000000000E+00 -0.45593999997E+02  0.45594000000E+02  0.51100000000E-03 0.  1.
         23    2    1    2    0    0 -0.17763568394E-14  0.00000000000E+00  0.00000000000E+00  0.91188000000E+02  0.91188000000E+02 0.  0.
    9900012    2    3    3    0    0 -0.14001681070E+02 -0.25065513631E+02 -0.32546836269E+02  0.47787267316E+02  0.19999983002E+02 0.  0.
         12    1    3    3    0    0  0.14001681070E+02  0.25065513631E+02  0.32546836269E+02  0.43400732684E+02  0.00000000000E+00 0. -1.
         11    1    4    4    0    0  0.22258580876E+01 -0.36931395693E+01 -0.80805073509E+01  0.91590569063E+01  0.51100000000E-03 0. -1.
        -11    1    4    4    0    0 -0.18105596385E+02 -0.16283094524E+02 -0.18628204858E+02  0.30658796523E+02  0.51100000000E-03 0.  1.
        -12    1    4    4    0    0  0.18780572281E+01 -0.50892795374E+01 -0.58381240602E+01  0.79694138871E+01  0.00000000000E+00 0.  1.
</event>
<event>
 8    1  0.5331800E-011  0.9118800E+02  0.7816164E-02  0.1184000E+00
        -11   -1    0    0    0    0  0.00000000000E+00  0.00000000000E+00  0.45593999997E+02  0.45594000000E+02  0.51100000000E-03 0. -1.
         11   -1    0    0    0    0 -0.00000000000E+00 -0.00000000000E+00 -0.45593999997E+02  0.45594000000E+02  0.51100000000E-03 0.  1.
         23    2    1    2    0    0  0.00000000000E+00  0.00000000000E+00  0.00000000000E+00  0.91188000000E+02  0.91188000000E+02 0.  0.
    9900012    2    3    3    0    0  0.15575510485E+02 -0.14222386016E+02  0.37930855952E+02  0.47787278531E+02  0.20000034132E+02 0.  0.
        -12    1    3    3    0    0 -0.15575510485E+02  0.14222386016E+02 -0.37930855952E+02  0.43400721469E+02  0.00000000000E+00 0.  1.
         11    1    4    4    0    0  0.14060748075E+02 -0.93631129841E+01  0.15752587142E+02  0.23097976602E+02  0.51100000000E-03 0. -1.
        -11    1    4    4    0    0 -0.72474433730E+00 -0.57440492228E+01  0.21383768535E+02  0.22153665901E+02  0.51100000000E-03 0.  1.
        -12    1    4    4    0    0  0.22395067469E+01  0.88477619106E+00  0.79450027471E+00  0.25356360275E+01  0.00000000000E+00 0.  1.
</event>
<event>
 8    1  0.5331800E-011  0.9118800E+02  0.7816164E-02  0.1184000E+00
        -11   -1    0    0    0    0  0.00000000000E+00  0.00000000000E+00  0.45593999997E+02  0.45594000000E+02  0.51100000000E-03 0. -1.
         11   -1    0    0    0    0 -0.00000000000E+00 -0.00000000000E+00 -0.45593999997E+02  0.45594000000E+02  0.51100000000E-03 0.  1.
         23    2    1    2    0    0  0.00000000000E+00  0.22204460493E-15  0.00000000000E+00  0.91188000000E+02  0.91188000000E+02 0.  0.
    9900012    2    3    3    0    0  0.68079259286E+01 -0.12732052409E+01 -0.42844536446E+02  0.47787271776E+02  0.20000003337E+02 0.  0.
         12    1    3    3    0    0 -0.68079259286E+01  0.12732052409E+01  0.42844536446E+02  0.43400728224E+02  0.00000000000E+00 0. -1.
         11    1    4    4    0    0  0.67313158638E+01 -0.54399272191E+01 -0.85499125149E+01  0.12165706954E+02  0.51100000000E-03 0. -1.
        -11    1    4    4    0    0  0.18190280852E+01  0.37864070068E+00 -0.28058253905E+02  0.28119705625E+02  0.51100000000E-03 0.  1.
         12    1    4    4    0    0 -0.17424180204E+01  0.37880812775E+01 -0.62363700265E+01  0.75018591983E+01  0.00000000000E+00 0. -1.
</event>
<event>
 8    1  0.5331800E-011  0.9118800E+02  0.7816164E-02  0.1184000E+00
        -11   -1    0    0    0    0  0.00000000000E+00  0.00000000000E+00  0.45593999997E+02  0.45594000000E+02  0.51100000000E-03 0. -1.
         11   -1    0    0    0    0 -0.00000000000E+00 -0.00000000000E+00 -0.45593999997E+02  0.45594000000E+02  0.51100000000E-03 0.  1.
         23    2    1    2    0    0  0.00000000000E+00  0.00000000000E+00  0.00000000000E+00  0.91188000000E+02  0.91188000000E+02 0.  0.
    9900012    2    3    3    0    0 -0.20542459782E+02  0.32860668142E+02 -0.19539866210E+02  0.47787279544E+02  0.20000038752E+02 0.  0.
         12    1    3    3    0    0  0.20542459782E+02 -0.32860668142E+02  0.19539866210E+02  0.43400720456E+02  0.00000000000E+00 0. -1.
         11    1    4    4    0    0 -0.14914741386E+01  0.14264015456E+02 -0.85080226498E+00  0.14366993311E+02  0.51100000000E-03 0. -1.
        -11    1    4    4    0    0 -0.89082580968E+01  0.37717549257E+01 -0.76874954802E+01  0.12356406620E+02  0.51100000000E-03 0.  1.
         12    1    4    4    0    0 -0.10142727546E+02  0.14824897761E+02 -0.11001568465E+02  0.21063879613E+02  0.00000000000E+00 0. -1.
</event>
<event>
 8    1  0.5331800E-011  0.9118800E+02  0.7816164E-02  0.1184000E+00
        -11   -1    0    0    0    0  0.00000000000E+00  0.00000000000E+00  0.45593999997E+02  0.45594000000E+02  0.51100000000E-03 0. -1.
         11   -1    0    0    0    0 -0.00000000000E+00 -0.00000000000E+00 -0.45593999997E+02  0.45594000000E+02  0.51100000000E-03 0.  1.
         23    2    1    2    0    0  0.44408920985E-15  0.00000000000E+00  0.00000000000E+00  0.91188000000E+02  0.91188000000E+02 0.  0.
    9900012    2    3    3    0    0 -0.36435320033E+01  0.13318209279E+02 -0.41145755629E+02  0.47787271548E+02  0.20000002296E+02 0.  0.
         12    1    3    3    0    0  0.36435320033E+01 -0.13318209279E+02  0.41145755629E+02  0.43400728452E+02  0.00000000000E+00 0. -1.
         11    1    4    4    0    0 -0.77174310617E+01  0.78714592390E+01 -0.10767615480E+02  0.15409742248E+02  0.51100000000E-03 0. -1.
        -11    1    4    4    0    0 -0.10313043404E-01  0.68044044574E+01 -0.20581875180E+02  0.21677490919E+02  0.51100000000E-03 0.  1.
         12    1    4    4    0    0  0.40842121019E+01 -0.13576544177E+01 -0.97962649690E+01  0.10700038381E+02  0.00000000000E+00 0. -1.
</event>
<event>
 8    1  0.5331800E-011  0.9118800E+02  0.7816164E-02  0.1184000E+00
        -11   -1    0    0    0    0  0.00000000000E+00  0.00000000000E+00  0.45593999997E+02  0.45594000000E+02  0.51100000000E-03 0. -1.
         11   -1    0    0    0    0 -0.00000000000E+00 -0.00000000000E+00 -0.45593999997E+02  0.45594000000E+02  0.51100000000E-03 0.  1.
         23    2    1    2    0    0  0.00000000000E+00  0.00000000000E+00  0.35527136788E-14  0.91188000000E+02  0.91188000000E+02 0.  0.
    9900012    2    3    3    0    0  0.33522332476E+02 -0.15880077390E+01  0.27520089316E+02  0.47787264301E+02  0.19999969256E+02 0.  0.
        -12    1    3    3    0    0 -0.33522332476E+02  0.15880077390E+01 -0.27520089316E+02  0.43400735699E+02  0.00000000000E+00 0.  1.
         11    1    4    4    0    0  0.11527668236E+01 -0.26534929000E+01  0.65323624752E+01  0.71443443148E+01  0.51100000000E-03 0. -1.
        -11    1    4    4    0    0  0.27677857346E+02 -0.36928493667E+01  0.18581136649E+02  0.33540416860E+02  0.51100000000E-03 0.  1.
        -12    1    4    4    0    0  0.46917083063E+01  0.47583345277E+01  0.24065901916E+01  0.71025031263E+01  0.00000000000E+00 0.  1.
</event>
<event>
 8    1  0.5331800E-011  0.9118800E+02  0.7816164E-02  0.1184000E+00
        -11   -1    0    0    0    0  0.00000000000E+00  0.00000000000E+00  0.45593999997E+02  0.45594000000E+02  0.51100000000E-03 0. -1.
         11   -1    0    0    0    0 -0.00000000000E+00 -0.00000000000E+00 -0.45593999997E+02  0.45594000000E+02  0.51100000000E-03 0.  1.
         23    2    1    2    0    0  0.00000000000E+00 -0.88817841970E-15  0.00000000000E+00  0.91188000000E+02  0.91188000000E+02 0.  0.
    9900012    2    3    3    0    0 -0.21521708080E+02 -0.58013352428E+01  0.37239547363E+02  0.47787270777E+02  0.19999998780E+02 0.  0.
        -12    1    3    3    0    0  0.21521708080E+02  0.58013352428E+01 -0.37239547363E+02  0.43400729223E+02  0.00000000000E+00 0.  1.
         11    1    4    4    0    0 -0.17829462610E+02 -0.48703036581E+01  0.14532411979E+02  0.23511711824E+02  0.51100000000E-03 0. -1.
        -11    1    4    4    0    0 -0.32637386301E+01 -0.40565257921E+01  0.16665747365E+02  0.17460083815E+02  0.51100000000E-03 0.  1.
         12    1    4    4    0    0 -0.42850683987E+00  0.31254942073E+01  0.60413880195E+01  0.68154751378E+01  0.00000000000E+00 0. -1.
</event>
<event>
 8    1  0.5331800E-011  0.9118800E+02  0.7816164E-02  0.1184000E+00
        -11   -1    0    0    0    0  0.00000000000E+00  0.00000000000E+00  0.45593999997E+02  0.45594000000E+02  0.51100000000E-03 0. -1.
         11   -1    0    0    0    0 -0.00000000000E+00 -0.00000000000E+00 -0.45593999997E+02  0.45594000000E+02  0.51100000000E-03 0.  1.
         23    2    1    2    0    0  0.35527136788E-14  0.35527136788E-14  0.00000000000E+00  0.91188000000E+02  0.91188000000E+02 0.  0.
    9900012    2    3    3    0    0 -0.25357365116E+02  0.29688844402E+02  0.18952568464E+02  0.47787270756E+02  0.19999998685E+02 0.  0.
        -12    1    3    3    0    0  0.25357365116E+02 -0.29688844402E+02 -0.18952568464E+02  0.43400729244E+02  0.00000000000E+00 0.  1.
         11    1    4    4    0    0 -0.28399165186E+01  0.58736581811E+01  0.21880962596E+01  0.68813335744E+01  0.51100000000E-03 0. -1.
        -11    1    4    4    0    0 -0.97951402164E+01  0.18917531395E+02  0.29651385153E+01  0.21508366107E+02  0.51100000000E-03 0.  1.
        -12    1    4    4    0    0 -0.12722308381E+02  0.48976548261E+01  0.13799333689E+02  0.19397571074E+02  0.00000000000E+00 0.  1.
</event>
<event>
 8    1  0.5331800E-011  0.9118800E+02  0.7816164E-02  0.1184000E+00
        -11   -1    0    0    0    0  0.00000000000E+00  0.00000000000E+00  0.45593999997E+02  0.45594000000E+02  0.51100000000E-03 0. -1.
         11   -1    0    0    0    0 -0.00000000000E+00 -0.00000000000E+00 -0.45593999997E+02  0.45594000000E+02  0.51100000000E-03 0.  1.
         23    2    1    2    0    0  0.00000000000E+00  0.00000000000E+00  0.00000000000E+00  0.91188000000E+02  0.91188000000E+02 0.  0.
    9900012    2    3    3    0    0  0.93092239959E+01  0.15237513762E+02  0.39557275397E+02  0.47787291321E+02  0.20000092448E+02 0.  0.
        -12    1    3    3    0    0 -0.93092239959E+01 -0.15237513762E+02 -0.39557275397E+02  0.43400708679E+02  0.00000000000E+00 0.  1.
         11    1    4    4    0    0 -0.16411121278E+01  0.21546415401E+01  0.91372716298E+01  0.95302393611E+01  0.51100000000E-03 0. -1.
        -11    1    4    4    0    0  0.14012521545E+01  0.10520783020E+02  0.66806853454E+01  0.12541209666E+02  0.51100000000E-03 0.  1.
        -12    1    4    4    0    0  0.95490839692E+01  0.25620892019E+01  0.23739318422E+02  0.25715842293E+02  0.00000000000E+00 0.  1.
</event>
<event>
 8    1  0.5331800E-011  0.9118800E+02  0.7816164E-02  0.1184000E+00
        -11   -1    0    0    0    0  0.00000000000E+00  0.00000000000E+00  0.45593999997E+02  0.45594000000E+02  0.51100000000E-03 0. -1.
         11   -1    0    0    0    0 -0.00000000000E+00 -0.00000000000E+00 -0.45593999997E+02  0.45594000000E+02  0.51100000000E-03 0.  1.
         23    2    1    2    0    0 -0.88817841970E-15  0.00000000000E+00 -0.35527136788E-14  0.91188000000E+02  0.91188000000E+02 0.  0.
    9900012    2    3    3    0    0  0.46474135312E+01 -0.38955697348E+02  0.18560134320E+02  0.47787269656E+02  0.19999993668E+02 0.  0.
        -12    1    3    3    0    0 -0.46474135312E+01  0.38955697348E+02 -0.18560134320E+02  0.43400730344E+02  0.00000000000E+00 0.  1.
         11    1    4    4    0    0  0.42605833987E+01 -0.27352447794E+02  0.14941460407E+02  0.31457212378E+02  0.51100000000E-03 0. -1.
        -11    1    4    4    0    0  0.26806254255E+01  0.45551550013E+00 -0.14124516301E+01  0.30640278901E+01  0.51100000000E-03 0.  1.
         12    1    4    4    0    0 -0.22937952930E+01 -0.12058765055E+02  0.50311255430E+01  0.13266029388E+02  0.00000000000E+00 0. -1.
</event>
<event>
 8    1  0.5331800E-011  0.9118800E+02  0.7816164E-02  0.1184000E+00
        -11   -1    0    0    0    0  0.00000000000E+00  0.00000000000E+00  0.45593999997E+02  0.45594000000E+02  0.51100000000E-03 0. -1.
         11   -1    0    0    0    0 -0.00000000000E+00 -0.00000000000E+00 -0.45593999997E+02  0.45594000000E+02  0.51100000000E-03 0.  1.
         23    2    1    2    0    0  0.00000000000E+00  0.00000000000E+00  0.00000000000E+00  0.91188000000E+02  0.91188000000E+02 0.  0.
    9900012    2    3    3    0    0  0.28710169036E+02 -0.11986451373E+02  0.30260117321E+02  0.47787268176E+02  0.19999986922E+02 0.  0.
        -12    1    3    3    0    0 -0.28710169036E+02  0.11986451373E+02 -0.30260117321E+02  0.43400731824E+02  0.00000000000E+00 0.  1.
         11    1    4    4    0    0  0.11368435804E+02  0.21303598101E+01  0.12039429067E+02  0.16695137557E+02  0.51100000000E-03 0. -1.
        -11    1    4    4    0    0  0.11955953520E+02 -0.14685660154E+02  0.10475745741E+02  0.21641503825E+02  0.51100000000E-03 0.  1.
        -12    1    4    4    0    0  0.53857797115E+01  0.56884897093E+00  0.77449425134E+01  0.94506267935E+01  0.00000000000E+00 0.  1.
</event>
<event>
 8    1  0.5331800E-011  0.9118800E+02  0.7816164E-02  0.1184000E+00
        -11   -1    0    0    0    0  0.00000000000E+00  0.00000000000E+00  0.45593999997E+02  0.45594000000E+02  0.51100000000E-03 0. -1.
         11   -1    0    0    0    0 -0.00000000000E+00 -0.00000000000E+00 -0.45593999997E+02  0.45594000000E+02  0.51100000000E-03 0.  1.
         23    2    1    2    0    0  0.00000000000E+00  0.35527136788E-14  0.00000000000E+00  0.91188000000E+02  0.91188000000E+02 0.  0.
    9900012    2    3    3    0    0 -0.83510160492E+01  0.20795008677E+02 -0.37167882977E+02  0.47787269823E+02  0.19999994430E+02 0.  0.
         12    1    3    3    0    0  0.83510160492E+01 -0.20795008677E+02  0.37167882977E+02  0.43400730177E+02  0.00000000000E+00 0. -1.
         11    1    4    4    0    0  0.42509489469E+01  0.21617946554E+01 -0.13098820910E+02  0.13939979647E+02  0.51100000000E-03 0. -1.
        -11    1    4    4    0    0 -0.87413389977E+01  0.99974041273E+01 -0.18805955281E+02  0.23022229498E+02  0.51100000000E-03 0.  1.
         12    1    4    4    0    0 -0.38606259984E+01  0.86358098947E+01 -0.52631067858E+01  0.10825060678E+02  0.00000000000E+00 0. -1.
</event>
<event>
 8    1  0.5331800E-011  0.9118800E+02  0.7816164E-02  0.1184000E+00
        -11   -1    0    0    0    0  0.00000000000E+00  0.00000000000E+00  0.45593999997E+02  0.45594000000E+02  0.51100000000E-03 0. -1.
         11   -1    0    0    0    0 -0.00000000000E+00 -0.00000000000E+00 -0.45593999997E+02  0.45594000000E+02  0.51100000000E-03 0.  1.
         23    2    1    2    0    0 -0.35527136788E-14  0.00000000000E+00  0.35527136788E-14  0.91188000000E+02  0.91188000000E+02 0.  0.
    9900012    2    3    3    0    0 -0.20500094773E+02  0.22928556444E+02  0.30621065956E+02  0.47787282649E+02  0.20000052908E+02 0.  0.
        -12    1    3    3    0    0  0.20500094773E+02 -0.22928556444E+02 -0.30621065956E+02  0.43400717351E+02  0.00000000000E+00 0.  1.
         11    1    4    4    0    0 -0.95297170294E+01  0.11850608242E+02  0.14171942182E+02  0.20786927811E+02  0.51100000000E-03 0. -1.
        -11    1    4    4    0    0 -0.38916709413E+01 -0.28874260019E+01  0.88952848727E+00  0.49268238067E+01  0.51100000000E-03 0.  1.
        -12    1    4    4    0    0 -0.70787068021E+01  0.13965374204E+02  0.15559595287E+02  0.22073531030E+02  0.00000000000E+00 0.  1.
</event>
<event>
 8    1  0.5331800E-011  0.9118800E+02  0.7816164E-02  0.1184000E+00
        -11   -1    0    0    0    0  0.00000000000E+00  0.00000000000E+00  0.45593999997E+02  0.45594000000E+02  0.51100000000E-03 0. -1.
         11   -1    0    0    0    0 -0.00000000000E+00 -0.00000000000E+00 -0.45593999997E+02  0.45594000000E+02  0.51100000000E-03 0.  1.
         23    2    1    2    0    0  0.35527136788E-14  0.00000000000E+00 -0.71054273576E-14  0.91188000000E+02  0.91188000000E+02 0.  0.
    9900012    2    3    3    0    0  0.15909149261E+02 -0.17928966497E+02 -0.36181119372E+02  0.47787282623E+02  0.20000052790E+02 0.  0.
         12    1    3    3    0    0 -0.15909149261E+02  0.17928966497E+02  0.36181119372E+02  0.43400717377E+02  0.00000000000E+00 0. -1.
         11    1    4    4    0    0  0.11768029458E+01  0.14559710629E+01  0.16547230161E+01  0.24985646741E+01  0.51100000000E-03 0. -1.
        -11    1    4    4    0    0  0.84599787086E+01 -0.88460394076E+01 -0.22870637425E+02  0.25940117761E+02  0.51100000000E-03 0.  1.
         12    1    4    4    0    0  0.62723676067E+01 -0.10538898153E+02 -0.14965204963E+02  0.19348600188E+02  0.00000000000E+00 0. -1.
</event>
<event>
 8    1  0.5331800E-011  0.9118800E+02  0.7816164E-02  0.1184000E+00
        -11   -1    0    0    0    0  0.00000000000E+00  0.00000000000E+00  0.45593999997E+02  0.45594000000E+02  0.51100000000E-03 0.  1.
         11   -1    0    0    0    0 -0.00000000000E+00 -0.00000000000E+00 -0.45593999997E+02  0.45594000000E+02  0.51100000000E-03 0. -1.
         23    2    1    2    0    0  0.00000000000E+00  0.00000000000E+00 -0.17763568394E-14  0.91188000000E+02  0.91188000000E+02 0.  0.
    9900012    2    3    3    0    0 -0.39036832271E+02  0.15985687475E+02 -0.10208178237E+02  0.47787269813E+02  0.19999994387E+02 0.  0.
        -12    1    3    3    0    0  0.39036832271E+02 -0.15985687475E+02  0.10208178237E+02  0.43400730187E+02  0.00000000000E+00 0.  1.
         11    1    4    4    0    0 -0.30062197518E+02  0.17459408183E+02 -0.67199164757E+01  0.35407964237E+02  0.51100000000E-03 0. -1.
        -11    1    4    4    0    0 -0.98949515202E+01 -0.26739641974E+01 -0.24318320976E+01  0.10534417769E+02  0.51100000000E-03 0.  1.
        -12    1    4    4    0    0  0.92031676715E+00  0.12002434903E+01 -0.10564296640E+01  0.18448878077E+01  0.00000000000E+00 0.  1.
</event>
<event>
 8    1  0.5331800E-011  0.9118800E+02  0.7816164E-02  0.1184000E+00
        -11   -1    0    0    0    0  0.00000000000E+00  0.00000000000E+00  0.45593999997E+02  0.45594000000E+02  0.51100000000E-03 0. -1.
         11   -1    0    0    0    0 -0.00000000000E+00 -0.00000000000E+00 -0.45593999997E+02  0.45594000000E+02  0.51100000000E-03 0.  1.
         23    2    1    2    0    0 -0.35527136788E-14  0.88817841970E-15  0.71054273576E-14  0.91188000000E+02  0.91188000000E+02 0.  0.
    9900012    2    3    3    0    0 -0.24157150787E+02  0.79242168825E+01  0.35174733694E+02  0.47787273765E+02  0.20000012403E+02 0.  0.
        -12    1    3    3    0    0  0.24157150787E+02 -0.79242168825E+01 -0.35174733694E+02  0.43400726235E+02  0.00000000000E+00 0.  1.
         11    1    4    4    0    0 -0.14829668350E+02  0.61645212944E+01  0.34359567194E+02  0.37927565756E+02  0.51100000000E-03 0. -1.
        -11    1    4    4    0    0 -0.66595385069E+01  0.23485879164E+01  0.94484495380E+00  0.71244684415E+01  0.51100000000E-03 0.  1.
         12    1    4    4    0    0 -0.26679439300E+01 -0.58889232824E+00 -0.12967845426E+00  0.27352395671E+01  0.00000000000E+00 0. -1.
</event>
<event>
 8    1  0.5331800E-011  0.9118800E+02  0.7816164E-02  0.1184000E+00
        -11   -1    0    0    0    0  0.00000000000E+00  0.00000000000E+00  0.45593999997E+02  0.45594000000E+02  0.51100000000E-03 0. -1.
         11   -1    0    0    0    0 -0.00000000000E+00 -0.00000000000E+00 -0.45593999997E+02  0.45594000000E+02  0.51100000000E-03 0.  1.
         23    2    1    2    0    0  0.00000000000E+00  0.00000000000E+00  0.00000000000E+00  0.91188000000E+02  0.91188000000E+02 0.  0.
    9900012    2    3    3    0    0  0.16473818482E+02 -0.20076024985E+02  0.34773414842E+02  0.47787264357E+02  0.19999969510E+02 0.  0.
        -12    1    3    3    0    0 -0.16473818482E+02  0.20076024985E+02 -0.34773414842E+02  0.43400735643E+02  0.00000000000E+00 0.  1.
         11    1    4    4    0    0  0.43711611444E+00 -0.29136904973E+01  0.31570533474E+01  0.43182923606E+01  0.51100000000E-03 0. -1.
        -11    1    4    4    0    0 -0.41600422072E+01 -0.22808669020E+01  0.51359363583E+01  0.69918629512E+01  0.51100000000E-03 0.  1.
        -12    1    4    4    0    0  0.20196744575E+02 -0.14881467586E+02  0.26480425136E+02  0.36477109045E+02  0.00000000000E+00 0.  1.
</event>
<event>
 8    1  0.5331800E-011  0.9118800E+02  0.7816164E-02  0.1184000E+00
        -11   -1    0    0    0    0  0.00000000000E+00  0.00000000000E+00  0.45593999997E+02  0.45594000000E+02  0.51100000000E-03 0.  1.
         11   -1    0    0    0    0 -0.00000000000E+00 -0.00000000000E+00 -0.45593999997E+02  0.45594000000E+02  0.51100000000E-03 0. -1.
         23    2    1    2    0    0  0.00000000000E+00  0.00000000000E+00  0.00000000000E+00  0.91188000000E+02  0.91188000000E+02 0.  0.
    9900012    2    3    3    0    0  0.14428235583E+02  0.40356979668E+02  0.68383586404E+01  0.47787274904E+02  0.20000017598E+02 0.  0.
        -12    1    3    3    0    0 -0.14428235583E+02 -0.40356979668E+02 -0.68383586404E+01  0.43400725096E+02  0.00000000000E+00 0.  1.
         11    1    4    4    0    0  0.31670261497E+01  0.91923422798E+01 -0.17032610963E+00  0.97241052270E+01  0.51100000000E-03 0. -1.
        -11    1    4    4    0    0  0.89555945822E+01  0.31597452309E+02  0.99356951562E+01  0.34312092697E+02  0.51100000000E-03 0.  1.
        -12    1    4    4    0    0  0.23056148512E+01 -0.43281492064E+00 -0.29270104061E+01  0.37510769807E+01  0.00000000000E+00 0.  1.
</event>
<event>
 8    1  0.5331800E-011  0.9118800E+02  0.7816164E-02  0.1184000E+00
        -11   -1    0    0    0    0  0.00000000000E+00  0.00000000000E+00  0.45593999997E+02  0.45594000000E+02  0.51100000000E-03 0. -1.
         11   -1    0    0    0    0 -0.00000000000E+00 -0.00000000000E+00 -0.45593999997E+02  0.45594000000E+02  0.51100000000E-03 0.  1.
         23    2    1    2    0    0  0.00000000000E+00  0.00000000000E+00  0.00000000000E+00  0.91188000000E+02  0.91188000000E+02 0.  0.
    9900012    2    3    3    0    0  0.15651671448E+02 -0.28083914700E+02 -0.29153778406E+02  0.47787264069E+02  0.19999968198E+02 0.  0.
         12    1    3    3    0    0 -0.15651671448E+02  0.28083914700E+02  0.29153778406E+02  0.43400735931E+02  0.00000000000E+00 0. -1.
         11    1    4    4    0    0 -0.28536507489E+01 -0.32049724919E+01 -0.40265800469E+01  0.58846001058E+01  0.51100000000E-03 0.  1.
        -11    1    4    4    0    0  0.14558020669E+02 -0.94417586743E+01 -0.15628607701E+02  0.23352433526E+02  0.51100000000E-03 0. -1.
        -12    1    4    4    0    0  0.39473015281E+01 -0.15437183534E+02 -0.94985906579E+01  0.18550230438E+02  0.00000000000E+00 0.  1.
</event>
<event>
 8    1  0.5331800E-011  0.9118800E+02  0.7816164E-02  0.1184000E+00
        -11   -1    0    0    0    0  0.00000000000E+00  0.00000000000E+00  0.45593999997E+02  0.45594000000E+02  0.51100000000E-03 0. -1.
         11   -1    0    0    0    0 -0.00000000000E+00 -0.00000000000E+00 -0.45593999997E+02  0.45594000000E+02  0.51100000000E-03 0.  1.
         23    2    1    2    0    0  0.00000000000E+00  0.00000000000E+00  0.00000000000E+00  0.91188000000E+02  0.91188000000E+02 0.  0.
    9900012    2    3    3    0    0  0.23999379140E+02 -0.24107127103E+02  0.26953663179E+02  0.47787265732E+02  0.19999975779E+02 0.  0.
        -12    1    3    3    0    0 -0.23999379140E+02  0.24107127103E+02 -0.26953663179E+02  0.43400734268E+02  0.00000000000E+00 0.  1.
         11    1    4    4    0    0  0.11723931903E+02 -0.72960798465E+00  0.89573737624E+01  0.14772185080E+02  0.51100000000E-03 0. -1.
        -11    1    4    4    0    0  0.54759536859E+01 -0.18193683303E+02  0.10905468934E+02  0.21907200502E+02  0.51100000000E-03 0.  1.
        -12    1    4    4    0    0  0.67994935511E+01 -0.51838358155E+01  0.70908204826E+01  0.11107880150E+02  0.00000000000E+00 0.  1.
</event>
<event>
 8    1  0.5331800E-011  0.9118800E+02  0.7816164E-02  0.1184000E+00
        -11   -1    0    0    0    0  0.00000000000E+00  0.00000000000E+00  0.45593999997E+02  0.45594000000E+02  0.51100000000E-03 0. -1.
         11   -1    0    0    0    0 -0.00000000000E+00 -0.00000000000E+00 -0.45593999997E+02  0.45594000000E+02  0.51100000000E-03 0.  1.
         23    2    1    2    0    0  0.00000000000E+00 -0.35527136788E-14  0.00000000000E+00  0.91188000000E+02  0.91188000000E+02 0.  0.
    9900012    2    3    3    0    0 -0.49653033810E+01 -0.23369990273E+02  0.36232756512E+02  0.47787270427E+02  0.19999997184E+02 0.  0.
        -12    1    3    3    0    0  0.49653033810E+01  0.23369990273E+02 -0.36232756512E+02  0.43400729573E+02  0.00000000000E+00 0.  1.
         11    1    4    4    0    0  0.28876627270E+01 -0.12828572196E+02  0.19271637101E+02  0.23330384854E+02  0.51100000000E-03 0. -1.
        -11    1    4    4    0    0 -0.99519196253E+01 -0.77950357909E+01  0.16762082836E+02  0.20994539968E+02  0.51100000000E-03 0.  1.
        -12    1    4    4    0    0  0.20989535173E+01 -0.27463822866E+01  0.19903657502E+00  0.34623456053E+01  0.00000000000E+00 0.  1.
</event>
<event>
 8    1  0.5331800E-011  0.9118800E+02  0.7816164E-02  0.1184000E+00
        -11   -1    0    0    0    0  0.00000000000E+00  0.00000000000E+00  0.45593999997E+02  0.45594000000E+02  0.51100000000E-03 0. -1.
         11   -1    0    0    0    0 -0.00000000000E+00 -0.00000000000E+00 -0.45593999997E+02  0.45594000000E+02  0.51100000000E-03 0.  1.
         23    2    1    2    0    0 -0.35527136788E-14  0.00000000000E+00  0.00000000000E+00  0.91188000000E+02  0.91188000000E+02 0.  0.
    9900012    2    3    3    0    0  0.30881801384E+02  0.93846111691E+01 -0.29014935801E+02  0.47787273243E+02  0.20000010023E+02 0.  0.
         12    1    3    3    0    0 -0.30881801384E+02 -0.93846111691E+01  0.29014935801E+02  0.43400726757E+02  0.00000000000E+00 0. -1.
         11    1    4    4    0    0 -0.19952142402E+01  0.31836062957E+01 -0.39884200486E+01  0.54793908106E+01  0.51100000000E-03 0. -1.
        -11    1    4    4    0    0  0.59278097191E+01  0.28872831175E+01 -0.75198227363E+01  0.10001153239E+02  0.51100000000E-03 0.  1.
         12    1    4    4    0    0  0.26949205905E+02  0.33137217559E+01 -0.17506693016E+02  0.32306729193E+02  0.00000000000E+00 0. -1.
</event>
<event>
 8    1  0.5331800E-011  0.9118800E+02  0.7816164E-02  0.1184000E+00
        -11   -1    0    0    0    0  0.00000000000E+00  0.00000000000E+00  0.45593999997E+02  0.45594000000E+02  0.51100000000E-03 0.  1.
         11   -1    0    0    0    0 -0.00000000000E+00 -0.00000000000E+00 -0.45593999997E+02  0.45594000000E+02  0.51100000000E-03 0. -1.
         23    2    1    2    0    0  0.00000000000E+00  0.00000000000E+00  0.00000000000E+00  0.91188000000E+02  0.91188000000E+02 0.  0.
    9900012    2    3    3    0    0  0.19058111071E+02  0.38107717630E+02  0.82592075690E+01  0.47787259796E+02  0.19999948715E+02 0.  0.
        -12    1    3    3    0    0 -0.19058111071E+02 -0.38107717630E+02 -0.82592075690E+01  0.43400740204E+02  0.00000000000E+00 0.  1.
         11    1    4    4    0    0  0.60201138610E+01  0.14583442050E+02  0.23563986350E+01  0.15952152448E+02  0.51100000000E-03 0. -1.
        -11    1    4    4    0    0 -0.23490281776E+01  0.11540601619E+02  0.24283753896E+01  0.12024991742E+02  0.51100000000E-03 0.  1.
        -12    1    4    4    0    0  0.15387025387E+02  0.11983673961E+02  0.34744335444E+01  0.19810115606E+02  0.00000000000E+00 0.  1.
</event>
<event>
 8    1  0.5331800E-011  0.9118800E+02  0.7816164E-02  0.1184000E+00
        -11   -1    0    0    0    0  0.00000000000E+00  0.00000000000E+00  0.45593999997E+02  0.45594000000E+02  0.51100000000E-03 0.  1.
         11   -1    0    0    0    0 -0.00000000000E+00 -0.00000000000E+00 -0.45593999997E+02  0.45594000000E+02  0.51100000000E-03 0. -1.
         23    2    1    2    0    0  0.00000000000E+00  0.00000000000E+00  0.00000000000E+00  0.91188000000E+02  0.91188000000E+02 0.  0.
    9900012    2    3    3    0    0  0.75123275788E+01 -0.41441029133E+02 -0.10479950262E+02  0.47787270528E+02  0.19999997645E+02 0.  0.
         12    1    3    3    0    0 -0.75123275788E+01  0.41441029133E+02  0.10479950262E+02  0.43400729472E+02  0.00000000000E+00 0. -1.
         11    1    4    4    0    0  0.10807216683E+02 -0.16556267219E+02 -0.20127052465E+01  0.19873522570E+02  0.51100000000E-03 0. -1.
        -11    1    4    4    0    0 -0.21768795740E+01 -0.19482004794E+01  0.98178587555E+00  0.30819139434E+01  0.51100000000E-03 0.  1.
         12    1    4    4    0    0 -0.11180095306E+01 -0.22936561434E+02 -0.94490308916E+01  0.24831834015E+02  0.00000000000E+00 0. -1.
</event>
<event>
 8    1  0.6255125E-011  0.9118800E+02  0.7816164E-02  0.1184000E+00
        -11   -1    0    0    0    0  0.00000000000E+00  0.00000000000E+00  0.45593999997E+02  0.45594000000E+02  0.51100000000E-03 0.  1.
         11   -1    0    0    0    0 -0.00000000000E+00 -0.00000000000E+00 -0.45593999997E+02  0.45594000000E+02  0.51100000000E-03 0. -1.
         23    2    1    2    0    0  0.00000000000E+00 -0.35527136788E-14 -0.35527136788E-14  0.91188000000E+02  0.91188000000E+02 0.  0.
    9900012    2    3    3    0    0 -0.21550256645E+02 -0.23277017643E+02  0.29620770858E+02  0.47787272149E+02  0.20000005035E+02 0.  0.
        -12    1    3    3    0    0  0.21550256645E+02  0.23277017643E+02 -0.29620770858E+02  0.43400727851E+02  0.00000000000E+00 0.  1.
         11    1    4    4    0    0 -0.64799298410E+01 -0.82574438873E+01  0.85284245640E+01  0.13524381542E+02  0.51100000000E-03 0. -1.
        -11    1    4    4    0    0 -0.90779125862E+01 -0.14682215377E+02  0.64317018676E+01  0.18421257679E+02  0.51100000000E-03 0.  1.
        -12    1    4    4    0    0 -0.59924142176E+01 -0.33735837893E+00  0.14660644426E+02  0.15841632928E+02  0.00000000000E+00 0.  1.
</event>
<event>
 8    1  0.5331800E-011  0.9118800E+02  0.7816164E-02  0.1184000E+00
        -11   -1    0    0    0    0  0.00000000000E+00  0.00000000000E+00  0.45593999997E+02  0.45594000000E+02  0.51100000000E-03 0. -1.
         11   -1    0    0    0    0 -0.00000000000E+00 -0.00000000000E+00 -0.45593999997E+02  0.45594000000E+02  0.51100000000E-03 0.  1.
         23    2    1    2    0    0  0.00000000000E+00  0.00000000000E+00  0.00000000000E+00  0.91188000000E+02  0.91188000000E+02 0.  0.
    9900012    2    3    3    0    0  0.15703280030E+02 -0.49605636875E+01  0.40154989197E+02  0.47787270131E+02  0.19999995834E+02 0.  0.
        -12    1    3    3    0    0 -0.15703280030E+02  0.49605636875E+01 -0.40154989197E+02  0.43400729869E+02  0.00000000000E+00 0.  1.
         11    1    4    4    0    0  0.17511217334E+02 -0.73892841322E+01  0.25028570404E+02  0.31427274607E+02  0.51100000000E-03 0. -1.
        -11    1    4    4    0    0 -0.21495300393E+01  0.26338096342E+01  0.40988153954E+01  0.53251967556E+01  0.51100000000E-03 0.  1.
         12    1    4    4    0    0  0.34159273607E+00 -0.20508918954E+00  0.11027603397E+02  0.11034798768E+02  0.00000000000E+00 0. -1.
</event>
<event>
 8    1  0.5331800E-011  0.9118800E+02  0.7816164E-02  0.1184000E+00
        -11   -1    0    0    0    0  0.00000000000E+00  0.00000000000E+00  0.45593999997E+02  0.45594000000E+02  0.51100000000E-03 0. -1.
         11   -1    0    0    0    0 -0.00000000000E+00 -0.00000000000E+00 -0.45593999997E+02  0.45594000000E+02  0.51100000000E-03 0.  1.
         23    2    1    2    0    0  0.00000000000E+00  0.00000000000E+00  0.00000000000E+00  0.91188000000E+02  0.91188000000E+02 0.  0.
    9900012    2    3    3    0    0  0.10583810987E+02 -0.21698692595E+02  0.36066230858E+02  0.47787270471E+02  0.19999997386E+02 0.  0.
        -12    1    3    3    0    0 -0.10583810987E+02  0.21698692595E+02 -0.36066230858E+02  0.43400729529E+02  0.00000000000E+00 0.  1.
         11    1    4    4    0    0  0.76694859300E+01  0.10326928018E+01  0.89090218273E+01  0.11800768578E+02  0.51100000000E-03 0. -1.
        -11    1    4    4    0    0  0.37337652474E+01 -0.21626733859E+02  0.26642810116E+02  0.34518052545E+02  0.51100000000E-03 0.  1.
         12    1    4    4    0    0 -0.81944019025E+00 -0.11046515378E+01  0.51439891448E+00  0.14684493484E+01  0.00000000000E+00 0. -1.
</event>
<event>
 8    1  0.5331800E-011  0.9118800E+02  0.7816164E-02  0.1184000E+00
        -11   -1    0    0    0    0  0.00000000000E+00  0.00000000000E+00  0.45593999997E+02  0.45594000000E+02  0.51100000000E-03 0.  1.
         11   -1    0    0    0    0 -0.00000000000E+00 -0.00000000000E+00 -0.45593999997E+02  0.45594000000E+02  0.51100000000E-03 0. -1.
         23    2    1    2    0    0  0.00000000000E+00  0.35527136788E-14 -0.22204460493E-15  0.91188000000E+02  0.91188000000E+02 0.  0.
    9900012    2    3    3    0    0  0.41691751711E+02 -0.11985743261E+02 -0.13281512416E+01  0.47787260513E+02  0.19999951983E+02 0.  0.
         12    1    3    3    0    0 -0.41691751711E+02  0.11985743261E+02  0.13281512416E+01  0.43400739487E+02  0.00000000000E+00 0. -1.
         11    1    4    4    0    0  0.20564347303E+02  0.42447660002E+00 -0.50247511349E+01  0.21173584595E+02  0.51100000000E-03 0. -1.
        -11    1    4    4    0    0  0.59006557347E+01  0.63798800632E-01 -0.18130474137E+01  0.61732446551E+01  0.51100000000E-03 0.  1.
         12    1    4    4    0    0  0.15226748674E+02 -0.12474018662E+02  0.55096473070E+01  0.20440431263E+02  0.00000000000E+00 0. -1.
</event>
<event>
 8    1  0.5331800E-011  0.9118800E+02  0.7816164E-02  0.1184000E+00
        -11   -1    0    0    0    0  0.00000000000E+00  0.00000000000E+00  0.45593999997E+02  0.45594000000E+02  0.51100000000E-03 0. -1.
         11   -1    0    0    0    0 -0.00000000000E+00 -0.00000000000E+00 -0.45593999997E+02  0.45594000000E+02  0.51100000000E-03 0.  1.
         23    2    1    2    0    0  0.00000000000E+00 -0.88817841970E-15  0.00000000000E+00  0.91188000000E+02  0.91188000000E+02 0.  0.
    9900012    2    3    3    0    0 -0.37187480102E+02  0.57621845719E+01  0.21622023630E+02  0.47787270130E+02  0.19999995831E+02 0.  0.
        -12    1    3    3    0    0  0.37187480102E+02 -0.57621845719E+01 -0.21622023630E+02  0.43400729870E+02  0.00000000000E+00 0.  1.
         11    1    4    4    0    0 -0.19989981418E+02  0.11162140967E+02  0.16333356279E+02  0.28124211557E+02  0.51100000000E-03 0. -1.
        -11    1    4    4    0    0 -0.97864254144E+01 -0.51322735924E+00  0.11453774379E+01  0.98665806869E+01  0.51100000000E-03 0.  1.
         12    1    4    4    0    0 -0.74110732695E+01 -0.48867290363E+01  0.41432899131E+01  0.97964778867E+01  0.00000000000E+00 0. -1.
</event>
<event>
 8    1  0.5331800E-011  0.9118800E+02  0.7816164E-02  0.1184000E+00
        -11   -1    0    0    0    0  0.00000000000E+00  0.00000000000E+00  0.45593999997E+02  0.45594000000E+02  0.51100000000E-03 0. -1.
         11   -1    0    0    0    0 -0.00000000000E+00 -0.00000000000E+00 -0.45593999997E+02  0.45594000000E+02  0.51100000000E-03 0.  1.
         23    2    1    2    0    0  0.88817841970E-15 -0.35527136788E-14  0.71054273576E-14  0.91188000000E+02  0.91188000000E+02 0.  0.
    9900012    2    3    3    0    0  0.40465876102E+01 -0.25608798300E+02  0.34805686823E+02  0.47787294281E+02  0.20000105945E+02 0.  0.
        -12    1    3    3    0    0 -0.40465876102E+01  0.25608798300E+02 -0.34805686823E+02  0.43400705719E+02  0.00000000000E+00 0.  1.
         11    1    4    4    0    0 -0.23932809878E+01 -0.45671473585E+01  0.73032570884E-01  0.51567395608E+01  0.51100000000E-03 0. -1.
        -11    1    4    4    0    0  0.81424263366E+01 -0.81476357855E+01  0.18988841701E+02  0.22209439095E+02  0.51100000000E-03 0.  1.
         12    1    4    4    0    0 -0.17025577387E+01 -0.12894015156E+02  0.15743812552E+02  0.20421115625E+02  0.00000000000E+00 0. -1.
</event>
<event>
 8    1  0.5331800E-011  0.9118800E+02  0.7816164E-02  0.1184000E+00
        -11   -1    0    0    0    0  0.00000000000E+00  0.00000000000E+00  0.45593999997E+02  0.45594000000E+02  0.51100000000E-03 0. -1.
         11   -1    0    0    0    0 -0.00000000000E+00 -0.00000000000E+00 -0.45593999997E+02  0.45594000000E+02  0.51100000000E-03 0.  1.
         23    2    1    2    0    0 -0.22204460493E-15  0.00000000000E+00  0.00000000000E+00  0.91188000000E+02  0.91188000000E+02 0.  0.
    9900012    2    3    3    0    0 -0.13942970165E+01  0.34726932745E+02 -0.25994606583E+02  0.47787268515E+02  0.19999988466E+02 0.  0.
         12    1    3    3    0    0  0.13942970165E+01 -0.34726932745E+02  0.25994606583E+02  0.43400731485E+02  0.00000000000E+00 0. -1.
         11    1    4    4    0    0  0.32819700264E+01  0.24396852428E+01 -0.78215989127E+01  0.88261430506E+01  0.51100000000E-03 0. -1.
        -11    1    4    4    0    0 -0.76020144802E+01  0.29116192437E+02 -0.16611036047E+02  0.34372515255E+02  0.51100000000E-03 0.  1.
        -12    1    4    4    0    0  0.29257474373E+01  0.31710550658E+01 -0.15619716232E+01  0.45886102088E+01  0.00000000000E+00 0.  1.
</event>
<event>
 8    1  0.5331800E-011  0.9118800E+02  0.7816164E-02  0.1184000E+00
        -11   -1    0    0    0    0  0.00000000000E+00  0.00000000000E+00  0.45593999997E+02  0.45594000000E+02  0.51100000000E-03 0. -1.
         11   -1    0    0    0    0 -0.00000000000E+00 -0.00000000000E+00 -0.45593999997E+02  0.45594000000E+02  0.51100000000E-03 0.  1.
         23    2    1    2    0    0  0.00000000000E+00 -0.35527136788E-14 -0.71054273576E-14  0.91188000000E+02  0.91188000000E+02 0.  0.
    9900012    2    3    3    0    0  0.16090517818E+02  0.28972619077E+02  0.28023297037E+02  0.47787278846E+02  0.20000035571E+02 0.  0.
        -12    1    3    3    0    0 -0.16090517818E+02 -0.28972619077E+02 -0.28023297037E+02  0.43400721154E+02  0.00000000000E+00 0.  1.
         11    1    4    4    0    0  0.14846501695E+02  0.30875733145E+02  0.26407839002E+02  0.43256253546E+02  0.51100000000E-03 0. -1.
        -11    1    4    4    0    0  0.53047627788E+00 -0.23722181854E+01  0.23674536000E+01  0.33931785997E+01  0.51100000000E-03 0.  1.
         12    1    4    4    0    0  0.71353984452E+00  0.46910411751E+00 -0.75199556504E+00  0.11378467000E+01  0.00000000000E+00 0. -1.
</event>
<event>
 8    1  0.5331800E-011  0.9118800E+02  0.7816164E-02  0.1184000E+00
        -11   -1    0    0    0    0  0.00000000000E+00  0.00000000000E+00  0.45593999997E+02  0.45594000000E+02  0.51100000000E-03 0. -1.
         11   -1    0    0    0    0 -0.00000000000E+00 -0.00000000000E+00 -0.45593999997E+02  0.45594000000E+02  0.51100000000E-03 0.  1.
         23    2    1    2    0    0  0.35527136788E-14  0.00000000000E+00  0.00000000000E+00  0.91188000000E+02  0.91188000000E+02 0.  0.
    9900012    2    3    3    0    0 -0.25338024700E+02  0.54249160009E+01  0.34816345411E+02  0.47787272851E+02  0.20000008236E+02 0.  0.
        -12    1    3    3    0    0  0.25338024700E+02 -0.54249160009E+01 -0.34816345411E+02  0.43400727149E+02  0.00000000000E+00 0.  1.
         11    1    4    4    0    0 -0.16800429331E+01  0.40978742433E+01  0.12685008673E+02  0.13435942947E+02  0.51100000000E-03 0.  1.
        -11    1    4    4    0    0 -0.23390521945E+02  0.31911286007E+00  0.23137457437E+02  0.32902283914E+02  0.51100000000E-03 0. -1.
         12    1    4    4    0    0 -0.26745982156E+00  0.10079288975E+01 -0.10061206991E+01  0.14490459895E+01  0.00000000000E+00 0. -1.
</event>
<event>
 8    1  0.5331800E-011  0.9118800E+02  0.7816164E-02  0.1184000E+00
        -11   -1    0    0    0    0  0.00000000000E+00  0.00000000000E+00  0.45593999997E+02  0.45594000000E+02  0.51100000000E-03 0. -1.
         11   -1    0    0    0    0 -0.00000000000E+00 -0.00000000000E+00 -0.45593999997E+02  0.45594000000E+02  0.51100000000E-03 0.  1.
         23    2    1    2    0    0 -0.71054273576E-14  0.00000000000E+00  0.00000000000E+00  0.91188000000E+02  0.91188000000E+02 0.  0.
    9900012    2    3    3    0    0  0.39384451694E+02 -0.45089622990E+01  0.17667978972E+02  0.47787271237E+02  0.20000000876E+02 0.  0.
        -12    1    3    3    0    0 -0.39384451694E+02  0.45089622990E+01 -0.17667978972E+02  0.43400728763E+02  0.00000000000E+00 0.  1.
         11    1    4    4    0    0  0.19223823785E+02  0.25449416015E+00  0.15943795213E+02  0.24976484426E+02  0.51100000000E-03 0. -1.
        -11    1    4    4    0    0  0.67995962717E+01 -0.60063367248E+01  0.23685823144E+01  0.93766077422E+01  0.51100000000E-03 0.  1.
         12    1    4    4    0    0  0.13361031637E+02  0.12428802657E+01 -0.64439855552E+00  0.13434179069E+02  0.00000000000E+00 0. -1.
</event>
<event>
 8    1  0.5331800E-011  0.9118800E+02  0.7816164E-02  0.1184000E+00
        -11   -1    0    0    0    0  0.00000000000E+00  0.00000000000E+00  0.45593999997E+02  0.45594000000E+02  0.51100000000E-03 0.  1.
         11   -1    0    0    0    0 -0.00000000000E+00 -0.00000000000E+00 -0.45593999997E+02  0.45594000000E+02  0.51100000000E-03 0. -1.
         23    2    1    2    0    0  0.00000000000E+00  0.00000000000E+00  0.00000000000E+00  0.91188000000E+02  0.91188000000E+02 0.  0.
    9900012    2    3    3    0    0  0.29297562565E+02  0.31715429418E+02 -0.44054503543E+01  0.47787266962E+02  0.19999981385E+02 0.  0.
        -12    1    3    3    0    0 -0.29297562565E+02 -0.31715429418E+02  0.44054503543E+01  0.43400733038E+02  0.00000000000E+00 0.  1.
         11    1    4    4    0    0  0.39480994030E+01  0.32732264203E+01 -0.19553449659E+01  0.54886131482E+01  0.51100000000E-03 0. -1.
        -11    1    4    4    0    0  0.19535389503E+02  0.29151579056E+02 -0.57743491066E+01  0.35563873698E+02  0.51100000000E-03 0.  1.
        -12    1    4    4    0    0  0.58140736594E+01 -0.70937605850E+00  0.33242437183E+01  0.67347801158E+01  0.00000000000E+00 0.  1.
</event>
<event>
 8    1  0.5331800E-011  0.9118800E+02  0.7816164E-02  0.1184000E+00
        -11   -1    0    0    0    0  0.00000000000E+00  0.00000000000E+00  0.45593999997E+02  0.45594000000E+02  0.51100000000E-03 0. -1.
         11   -1    0    0    0    0 -0.00000000000E+00 -0.00000000000E+00 -0.45593999997E+02  0.45594000000E+02  0.51100000000E-03 0.  1.
         23    2    1    2    0    0 -0.35527136788E-14 -0.17763568394E-14 -0.71054273576E-14  0.91188000000E+02  0.91188000000E+02 0.  0.
    9900012    2    3    3    0    0 -0.17188038409E+02  0.64775822040E+01 -0.39322194864E+02  0.47787277143E+02  0.20000027808E+02 0.  0.
         12    1    3    3    0    0  0.17188038409E+02 -0.64775822040E+01  0.39322194864E+02  0.43400722857E+02  0.00000000000E+00 0. -1.
         11    1    4    4    0    0 -0.78767241196E+01  0.32942784066E+01 -0.59674977683E+01  0.10416625315E+02  0.51100000000E-03 0. -1.
        -11    1    4    4    0    0  0.13731828999E+01 -0.31701675839E+01 -0.30235034457E+01  0.45909875990E+01  0.51100000000E-03 0.  1.
        -12    1    4    4    0    0 -0.10684497190E+02  0.63534713812E+01 -0.30331193650E+02  0.32779664230E+02  0.00000000000E+00 0.  1.
</event>
<event>
 8    1  0.5331800E-011  0.9118800E+02  0.7816164E-02  0.1184000E+00
        -11   -1    0    0    0    0  0.00000000000E+00  0.00000000000E+00  0.45593999997E+02  0.45594000000E+02  0.51100000000E-03 0.  1.
         11   -1    0    0    0    0 -0.00000000000E+00 -0.00000000000E+00 -0.45593999997E+02  0.45594000000E+02  0.51100000000E-03 0. -1.
         23    2    1    2    0    0  0.00000000000E+00  0.00000000000E+00 -0.17763568394E-14  0.91188000000E+02  0.91188000000E+02 0.  0.
    9900012    2    3    3    0    0 -0.94343890630E+01  0.39820856090E+02  0.14453891678E+02  0.47787271189E+02  0.20000000658E+02 0.  0.
        -12    1    3    3    0    0  0.94343890630E+01 -0.39820856090E+02 -0.14453891678E+02  0.43400728811E+02  0.00000000000E+00 0.  1.
         11    1    4    4    0    0 -0.27135748274E+00  0.14386705964E+02  0.60160540176E+01  0.15596276786E+02  0.51100000000E-03 0. -1.
        -11    1    4    4    0    0  0.30690848006E+01  0.11797324984E+02  0.63745104403E+01  0.13756109258E+02  0.51100000000E-03 0.  1.
        -12    1    4    4    0    0 -0.12232116381E+02  0.13636825141E+02  0.20633272200E+01  0.18434885145E+02  0.00000000000E+00 0.  1.
</event>
<event>
 8    1  0.5331800E-011  0.9118800E+02  0.7816164E-02  0.1184000E+00
        -11   -1    0    0    0    0  0.00000000000E+00  0.00000000000E+00  0.45593999997E+02  0.45594000000E+02  0.51100000000E-03 0. -1.
         11   -1    0    0    0    0 -0.00000000000E+00 -0.00000000000E+00 -0.45593999997E+02  0.45594000000E+02  0.51100000000E-03 0.  1.
         23    2    1    2    0    0 -0.44408920985E-15  0.00000000000E+00  0.00000000000E+00  0.91188000000E+02  0.91188000000E+02 0.  0.
    9900012    2    3    3    0    0  0.23129435631E+01 -0.17347491953E+02  0.39715713520E+02  0.47787273216E+02  0.20000009901E+02 0.  0.
        -12    1    3    3    0    0 -0.23129435631E+01  0.17347491953E+02 -0.39715713520E+02  0.43400726784E+02  0.00000000000E+00 0.  1.
         11    1    4    4    0    0  0.16427400026E+01 -0.11111740798E+02  0.72157168543E+01  0.13350503671E+02  0.51100000000E-03 0. -1.
        -11    1    4    4    0    0  0.17505219643E+01  0.37422876956E+00  0.21384977181E+02  0.21459767557E+02  0.51100000000E-03 0.  1.
         12    1    4    4    0    0 -0.10803184038E+01 -0.66099799245E+01  0.11115019484E+02  0.12977001988E+02  0.00000000000E+00 0. -1.
</event>
<event>
 8    1  0.5331800E-011  0.9118800E+02  0.7816164E-02  0.1184000E+00
        -11   -1    0    0    0    0  0.00000000000E+00  0.00000000000E+00  0.45593999997E+02  0.45594000000E+02  0.51100000000E-03 0. -1.
         11   -1    0    0    0    0 -0.00000000000E+00 -0.00000000000E+00 -0.45593999997E+02  0.45594000000E+02  0.51100000000E-03 0.  1.
         23    2    1    2    0    0  0.00000000000E+00  0.00000000000E+00  0.71054273576E-14  0.91188000000E+02  0.91188000000E+02 0.  0.
    9900012    2    3    3    0    0  0.59863933572E+01  0.18347173977E+02  0.38873739966E+02  0.47787270083E+02  0.19999995617E+02 0.  0.
        -12    1    3    3    0    0 -0.59863933572E+01 -0.18347173977E+02 -0.38873739966E+02  0.43400729917E+02  0.00000000000E+00 0.  1.
         11    1    4    4    0    0  0.71872453797E+01  0.10194943168E+02  0.28972185754E+02  0.31543317992E+02  0.51100000000E-03 0. -1.
        -11    1    4    4    0    0  0.53142036006E+00  0.54103958433E+01 -0.39299010765E+00  0.54506176041E+01  0.51100000000E-03 0.  1.
        -12    1    4    4    0    0 -0.17322723825E+01  0.27418349658E+01  0.10294544320E+02  0.10793334487E+02  0.00000000000E+00 0.  1.
</event>
<event>
 8    1  0.5331800E-011  0.9118800E+02  0.7816164E-02  0.1184000E+00
        -11   -1    0    0    0    0  0.00000000000E+00  0.00000000000E+00  0.45593999997E+02  0.45594000000E+02  0.51100000000E-03 0. -1.
         11   -1    0    0    0    0 -0.00000000000E+00 -0.00000000000E+00 -0.45593999997E+02  0.45594000000E+02  0.51100000000E-03 0.  1.
         23    2    1    2    0    0  0.00000000000E+00  0.00000000000E+00  0.00000000000E+00  0.91188000000E+02  0.91188000000E+02 0.  0.
    9900012    2    3    3    0    0 -0.56268780306E+01  0.30811970688E+02 -0.30043035493E+02  0.47787271024E+02  0.19999999906E+02 0.  0.
         12    1    3    3    0    0  0.56268780306E+01 -0.30811970688E+02  0.30043035493E+02  0.43400728976E+02  0.00000000000E+00 0. -1.
         11    1    4    4    0    0 -0.44913283133E+01  0.86251722138E+01 -0.14103977166E+02  0.17131485572E+02  0.51100000000E-03 0. -1.
        -11    1    4    4    0    0  0.19215879916E+01  0.21875803955E+02 -0.10348198348E+02  0.24276089231E+02  0.51100000000E-03 0.  1.
         12    1    4    4    0    0 -0.30571377088E+01  0.31099451974E+00 -0.55908599790E+01  0.63796962206E+01  0.00000000000E+00 0. -1.
</event>
<event>
 8    1  0.6024835E-011  0.9118800E+02  0.7816164E-02  0.1184000E+00
        -11   -1    0    0    0    0  0.00000000000E+00  0.00000000000E+00  0.45593999997E+02  0.45594000000E+02  0.51100000000E-03 0. -1.
         11   -1    0    0    0    0 -0.00000000000E+00 -0.00000000000E+00 -0.45593999997E+02  0.45594000000E+02  0.51100000000E-03 0.  1.
         23    2    1    2    0    0  0.17763568394E-14 -0.17763568394E-14  0.00000000000E+00  0.91188000000E+02  0.91188000000E+02 0.  0.
    9900012    2    3    3    0    0 -0.15859406451E+02  0.83961693605E+01 -0.39517172948E+02  0.47787269698E+02  0.19999993863E+02 0.  0.
         12    1    3    3    0    0  0.15859406451E+02 -0.83961693605E+01  0.39517172948E+02  0.43400730302E+02  0.00000000000E+00 0. -1.
         11    1    4    4    0    0 -0.19447391276E+01 -0.29610592569E+01 -0.19695525577E+02  0.20011586898E+02  0.51100000000E-03 0.  1.
        -11    1    4    4    0    0 -0.30495196971E+01  0.65827465604E+01 -0.51097761217E+01  0.88736652482E+01  0.51100000000E-03 0. -1.
        -12    1    4    4    0    0 -0.10865147626E+02  0.47744820571E+01 -0.14711871250E+02  0.18902017552E+02  0.00000000000E+00 0.  1.
</event>
<event>
 8    1  0.5331800E-011  0.9118800E+02  0.7816164E-02  0.1184000E+00
        -11   -1    0    0    0    0  0.00000000000E+00  0.00000000000E+00  0.45593999997E+02  0.45594000000E+02  0.51100000000E-03 0. -1.
         11   -1    0    0    0    0 -0.00000000000E+00 -0.00000000000E+00 -0.45593999997E+02  0.45594000000E+02  0.51100000000E-03 0.  1.
         23    2    1    2    0    0 -0.88817841970E-15  0.00000000000E+00  0.00000000000E+00  0.91188000000E+02  0.91188000000E+02 0.  0.
    9900012    2    3    3    0    0 -0.57419726891E+01 -0.45740633332E+01 -0.42775370787E+02  0.47787255171E+02  0.19999927626E+02 0.  0.
         12    1    3    3    0    0  0.57419726891E+01  0.45740633332E+01  0.42775370787E+02  0.43400744829E+02  0.00000000000E+00 0. -1.
         11    1    4    4    0    0 -0.44820603558E+01 -0.10689154611E+02 -0.19694606927E+02  0.22852230386E+02  0.51100000000E-03 0.  1.
        -11    1    4    4    0    0 -0.37007702178E+00  0.76341813811E+01 -0.19514047478E+02  0.20957474361E+02  0.51100000000E-03 0. -1.
         12    1    4    4    0    0 -0.88983531151E+00 -0.15190901031E+01 -0.35667163823E+01  0.39775504239E+01  0.00000000000E+00 0. -1.
</event>
<event>
 8    1  0.5331800E-011  0.9118800E+02  0.7816164E-02  0.1184000E+00
        -11   -1    0    0    0    0  0.00000000000E+00  0.00000000000E+00  0.45593999997E+02  0.45594000000E+02  0.51100000000E-03 0.  1.
         11   -1    0    0    0    0 -0.00000000000E+00 -0.00000000000E+00 -0.45593999997E+02  0.45594000000E+02  0.51100000000E-03 0. -1.
         23    2    1    2    0    0  0.00000000000E+00  0.00000000000E+00  0.00000000000E+00  0.91188000000E+02  0.91188000000E+02 0.  0.
    9900012    2    3    3    0    0  0.42300571662E+02  0.41375235720E+01  0.87843935789E+01  0.47787273799E+02  0.20000012560E+02 0.  0.
         12    1    3    3    0    0 -0.42300571662E+02 -0.41375235720E+01 -0.87843935789E+01  0.43400726201E+02  0.00000000000E+00 0. -1.
         11    1    4    4    0    0  0.96443131970E+00 -0.45567728573E+01  0.84550867767E+00  0.47338347910E+01  0.51100000000E-03 0. -1.
        -11    1    4    4    0    0  0.59914562435E+01  0.51990779539E+00  0.63024317867E+00  0.60469048909E+01  0.51100000000E-03 0.  1.
         12    1    4    4    0    0  0.35344684098E+02  0.81743886339E+01  0.73086417225E+01  0.37006534117E+02  0.00000000000E+00 0. -1.
</event>
<event>
 8    1  0.5331800E-011  0.9118800E+02  0.7816164E-02  0.1184000E+00
        -11   -1    0    0    0    0  0.00000000000E+00  0.00000000000E+00  0.45593999997E+02  0.45594000000E+02  0.51100000000E-03 0. -1.
         11   -1    0    0    0    0 -0.00000000000E+00 -0.00000000000E+00 -0.45593999997E+02  0.45594000000E+02  0.51100000000E-03 0.  1.
         23    2    1    2    0    0  0.00000000000E+00  0.00000000000E+00  0.00000000000E+00  0.91188000000E+02  0.91188000000E+02 0.  0.
    9900012    2    3    3    0    0  0.26015560550E+02  0.21355741647E+02 -0.27399746378E+02  0.47787271969E+02  0.20000004215E+02 0.  0.
         12    1    3    3    0    0 -0.26015560550E+02 -0.21355741647E+02  0.27399746378E+02  0.43400728031E+02  0.00000000000E+00 0. -1.
         11    1    4    4    0    0  0.13193207712E+02  0.56548121070E+01 -0.19889953548E+02  0.24528511616E+02  0.51100000000E-03 0. -1.
        -11    1    4    4    0    0  0.77984430879E+01  0.14444212636E+02 -0.36923632273E+01  0.16825116336E+02  0.51100000000E-03 0.  1.
         12    1    4    4    0    0  0.50239097509E+01  0.12567169039E+01 -0.38174296028E+01  0.64336440167E+01  0.00000000000E+00 0. -1.
</event>
<event>
 8    1  0.5331800E-011  0.9118800E+02  0.7816164E-02  0.1184000E+00
        -11   -1    0    0    0    0  0.00000000000E+00  0.00000000000E+00  0.45593999997E+02  0.45594000000E+02  0.51100000000E-03 0. -1.
         11   -1    0    0    0    0 -0.00000000000E+00 -0.00000000000E+00 -0.45593999997E+02  0.45594000000E+02  0.51100000000E-03 0.  1.
         23    2    1    2    0    0  0.00000000000E+00 -0.88817841970E-15  0.71054273576E-14  0.91188000000E+02  0.91188000000E+02 0.  0.
    9900012    2    3    3    0    0 -0.20223878831E+02 -0.29012328154E+01  0.38291000788E+02  0.47787272263E+02  0.20000005554E+02 0.  0.
        -12    1    3    3    0    0  0.20223878831E+02  0.29012328154E+01 -0.38291000788E+02  0.43400727737E+02  0.00000000000E+00 0.  1.
         11    1    4    4    0    0 -0.18717057118E+02 -0.74516963469E+01  0.30678920410E+02  0.36702209244E+02  0.51100000000E-03 0. -1.
        -11    1    4    4    0    0  0.10765669390E+01  0.47963385227E+01  0.67506566821E+01  0.83507619712E+01  0.51100000000E-03 0.  1.
         12    1    4    4    0    0 -0.25833886511E+01 -0.24587499122E+00  0.86142369588E+00  0.27343010474E+01  0.00000000000E+00 0. -1.
</event>
<event>
 8    1  0.5331800E-011  0.9118800E+02  0.7816164E-02  0.1184000E+00
        -11   -1    0    0    0    0  0.00000000000E+00  0.00000000000E+00  0.45593999997E+02  0.45594000000E+02  0.51100000000E-03 0. -1.
         11   -1    0    0    0    0 -0.00000000000E+00 -0.00000000000E+00 -0.45593999997E+02  0.45594000000E+02  0.51100000000E-03 0.  1.
         23    2    1    2    0    0  0.55511151231E-16  0.00000000000E+00  0.71054273576E-14  0.91188000000E+02  0.91188000000E+02 0.  0.
    9900012    2    3    3    0    0  0.11142111552E+00  0.26370145120E+02 -0.34470658275E+02  0.47787271317E+02  0.20000001241E+02 0.  0.
         12    1    3    3    0    0 -0.11142111552E+00 -0.26370145120E+02  0.34470658275E+02  0.43400728683E+02  0.00000000000E+00 0. -1.
         11    1    4    4    0    0 -0.55331195042E+01  0.12510813753E+01 -0.42419574439E+01  0.70834186148E+01  0.51100000000E-03 0. -1.
        -11    1    4    4    0    0  0.53365228703E+01  0.16545297151E+02 -0.13899504723E+02  0.22258067436E+02  0.51100000000E-03 0.  1.
         12    1    4    4    0    0  0.30801774937E+00  0.85737665936E+01 -0.16329196108E+02  0.18445785266E+02  0.00000000000E+00 0. -1.
</event>
<event>
 8    1  0.5331800E-011  0.9118800E+02  0.7816164E-02  0.1184000E+00
        -11   -1    0    0    0    0  0.00000000000E+00  0.00000000000E+00  0.45593999997E+02  0.45594000000E+02  0.51100000000E-03 0. -1.
         11   -1    0    0    0    0 -0.00000000000E+00 -0.00000000000E+00 -0.45593999997E+02  0.45594000000E+02  0.51100000000E-03 0.  1.
         23    2    1    2    0    0  0.41633363423E-15 -0.88817841970E-15 -0.71054273576E-14  0.91188000000E+02  0.91188000000E+02 0.  0.
    9900012    2    3    3    0    0  0.17805891862E+00  0.52269986362E+01  0.43084453530E+02  0.47787270101E+02  0.19999995700E+02 0.  0.
        -12    1    3    3    0    0 -0.17805891862E+00 -0.52269986362E+01 -0.43084453530E+02  0.43400729899E+02  0.00000000000E+00 0.  1.
         11    1    4    4    0    0  0.75920618881E+01  0.36831979549E+01  0.13041614012E+02  0.15533481490E+02  0.51100000000E-03 0. -1.
        -11    1    4    4    0    0 -0.69545040698E+01  0.46718005717E+01  0.24218671930E+02  0.25626839793E+02  0.51100000000E-03 0.  1.
         12    1    4    4    0    0 -0.45949889963E+00 -0.31279998905E+01  0.58241675877E+01  0.66269488186E+01  0.00000000000E+00 0. -1.
</event>
<event>
 8    1  0.5331800E-011  0.9118800E+02  0.7816164E-02  0.1184000E+00
        -11   -1    0    0    0    0  0.00000000000E+00  0.00000000000E+00  0.45593999997E+02  0.45594000000E+02  0.51100000000E-03 0. -1.
         11   -1    0    0    0    0 -0.00000000000E+00 -0.00000000000E+00 -0.45593999997E+02  0.45594000000E+02  0.51100000000E-03 0.  1.
         23    2    1    2    0    0  0.35527136788E-14 -0.71054273576E-14  0.17763568394E-14  0.91188000000E+02  0.91188000000E+02 0.  0.
    9900012    2    3    3    0    0 -0.19332350410E+02  0.36175582845E+02  0.14184912605E+02  0.47787259083E+02  0.19999945463E+02 0.  0.
        -12    1    3    3    0    0  0.19332350410E+02 -0.36175582845E+02 -0.14184912605E+02  0.43400740917E+02  0.00000000000E+00 0.  1.
         11    1    4    4    0    0 -0.13501044755E+02  0.21533880238E+02  0.17682504916E+02  0.30962189651E+02  0.51100000000E-03 0. -1.
        -11    1    4    4    0    0 -0.43144984195E+01  0.87057715894E+01 -0.43386960000E+01  0.10640941632E+02  0.51100000000E-03 0.  1.
        -12    1    4    4    0    0 -0.15168072355E+01  0.59359310174E+01  0.84110368877E+00  0.61841278002E+01  0.00000000000E+00 0.  1.
</event>
<event>
 8    1  0.5331800E-011  0.9118800E+02  0.7816164E-02  0.1184000E+00
        -11   -1    0    0    0    0  0.00000000000E+00  0.00000000000E+00  0.45593999997E+02  0.45594000000E+02  0.51100000000E-03 0. -1.
         11   -1    0    0    0    0 -0.00000000000E+00 -0.00000000000E+00 -0.45593999997E+02  0.45594000000E+02  0.51100000000E-03 0.  1.
         23    2    1    2    0    0 -0.88817841970E-15  0.00000000000E+00  0.00000000000E+00  0.91188000000E+02  0.91188000000E+02 0.  0.
    9900012    2    3    3    0    0 -0.40449184212E+01  0.82073964451E+01 -0.42425233753E+02  0.47787272121E+02  0.20000004909E+02 0.  0.
         12    1    3    3    0    0  0.40449184212E+01 -0.82073964451E+01  0.42425233753E+02  0.43400727879E+02  0.00000000000E+00 0. -1.
         11    1    4    4    0    0 -0.22694184602E+01  0.80851277509E+00 -0.33575945599E+02  0.33662264870E+02  0.51100000000E-03 0. -1.
        -11    1    4    4    0    0 -0.36557212052E+01  0.79522820859E+01 -0.57983655258E+01  0.10498768068E+02  0.51100000000E-03 0.  1.
         12    1    4    4    0    0  0.18802212442E+01 -0.55339841598E+00 -0.30509226276E+01  0.36262391832E+01  0.00000000000E+00 0. -1.
</event>
<event>
 8    1  0.5331800E-011  0.9118800E+02  0.7816164E-02  0.1184000E+00
        -11   -1    0    0    0    0  0.00000000000E+00  0.00000000000E+00  0.45593999997E+02  0.45594000000E+02  0.51100000000E-03 0. -1.
         11   -1    0    0    0    0 -0.00000000000E+00 -0.00000000000E+00 -0.45593999997E+02  0.45594000000E+02  0.51100000000E-03 0.  1.
         23    2    1    2    0    0  0.00000000000E+00  0.00000000000E+00 -0.35527136788E-14  0.91188000000E+02  0.91188000000E+02 0.  0.
    9900012    2    3    3    0    0 -0.30105214055E+02  0.11402987623E+02  0.29107934326E+02  0.47787264053E+02  0.19999968125E+02 0.  0.
        -12    1    3    3    0    0  0.30105214055E+02 -0.11402987623E+02 -0.29107934326E+02  0.43400735947E+02  0.00000000000E+00 0.  1.
         11    1    4    4    0    0 -0.10132747486E+02  0.10330478895E+02  0.53592036572E+01  0.15430892065E+02  0.51100000000E-03 0. -1.
        -11    1    4    4    0    0 -0.19704484605E+01 -0.26385568401E+01  0.57776564268E+01  0.66502603995E+01  0.51100000000E-03 0.  1.
         12    1    4    4    0    0 -0.18002018108E+02  0.37110655680E+01  0.17971074242E+02  0.25706111589E+02  0.00000000000E+00 0. -1.
</event>
<event>
 8    1  0.5331800E-011  0.9118800E+02  0.7816164E-02  0.1184000E+00
        -11   -1    0    0    0    0  0.00000000000E+00  0.00000000000E+00  0.45593999997E+02  0.45594000000E+02  0.51100000000E-03 0. -1.
         11   -1    0    0    0    0 -0.00000000000E+00 -0.00000000000E+00 -0.45593999997E+02  0.45594000000E+02  0.51100000000E-03 0.  1.
         23    2    1    2    0    0  0.35527136788E-14  0.00000000000E+00  0.00000000000E+00  0.91188000000E+02  0.91188000000E+02 0.  0.
    9900012    2    3    3    0    0  0.18766041913E+02 -0.20436711568E+02  0.33373629237E+02  0.47787278378E+02  0.20000033438E+02 0.  0.
        -12    1    3    3    0    0 -0.18766041913E+02  0.20436711568E+02 -0.33373629237E+02  0.43400721622E+02  0.00000000000E+00 0.  1.
         11    1    4    4    0    0  0.61774100017E+01 -0.16097135764E+02  0.18287857962E+02  0.25134118708E+02  0.51100000000E-03 0. -1.
        -11    1    4    4    0    0  0.35409408984E+01  0.28720000435E+01  0.76314574739E+01  0.88896451072E+01  0.51100000000E-03 0.  1.
        -12    1    4    4    0    0  0.90476910134E+01 -0.72115758477E+01  0.74543138015E+01  0.13763514563E+02  0.00000000000E+00 0.  1.
</event>
<event>
 8    1  0.5331800E-011  0.9118800E+02  0.7816164E-02  0.1184000E+00
        -11   -1    0    0    0    0  0.00000000000E+00  0.00000000000E+00  0.45593999997E+02  0.45594000000E+02  0.51100000000E-03 0.  1.
         11   -1    0    0    0    0 -0.00000000000E+00 -0.00000000000E+00 -0.45593999997E+02  0.45594000000E+02  0.51100000000E-03 0. -1.
         23    2    1    2    0    0  0.00000000000E+00  0.00000000000E+00  0.88817841970E-15  0.91188000000E+02  0.91188000000E+02 0.  0.
    9900012    2    3    3    0    0  0.28350009124E+02  0.31878640851E+02  0.79782602600E+01  0.47787269630E+02  0.19999993553E+02 0.  0.
        -12    1    3    3    0    0 -0.28350009124E+02 -0.31878640851E+02 -0.79782602600E+01  0.43400730370E+02  0.00000000000E+00 0.  1.
         11    1    4    4    0    0  0.54671295287E+01  0.81008322485E+01 -0.32278832336E+01  0.10292337870E+02  0.51100000000E-03 0. -1.
        -11    1    4    4    0    0  0.17564527938E+02  0.13356555903E+02  0.13071747505E+02  0.25647237870E+02  0.51100000000E-03 0.  1.
        -12    1    4    4    0    0  0.53183516572E+01  0.10421252700E+02 -0.18656040118E+01  0.11847693890E+02  0.00000000000E+00 0.  1.
</event>
<event>
 8    1  0.8183957E-011  0.9118800E+02  0.7816164E-02  0.1184000E+00
        -11   -1    0    0    0    0  0.00000000000E+00  0.00000000000E+00  0.45593999997E+02  0.45594000000E+02  0.51100000000E-03 0. -1.
         11   -1    0    0    0    0 -0.00000000000E+00 -0.00000000000E+00 -0.45593999997E+02  0.45594000000E+02  0.51100000000E-03 0.  1.
         23    2    1    2    0    0  0.35527136788E-14  0.17763568394E-14  0.00000000000E+00  0.91188000000E+02  0.91188000000E+02 0.  0.
    9900012    2    3    3    0    0  0.13614651212E+02 -0.13636207509E+02 -0.38888542375E+02  0.47787267161E+02  0.19999982296E+02 0.  0.
         12    1    3    3    0    0 -0.13614651212E+02  0.13636207509E+02  0.38888542375E+02  0.43400732839E+02  0.00000000000E+00 0. -1.
         11    1    4    4    0    0  0.23225432856E+00 -0.56051014721E+01 -0.39916895480E+01  0.68851064112E+01  0.51100000000E-03 0. -1.
        -11    1    4    4    0    0  0.32614412179E+01  0.42159750372E+01 -0.70013232574E+01  0.87994302058E+01  0.51100000000E-03 0.  1.
        -12    1    4    4    0    0  0.10120955666E+02 -0.12247081074E+02 -0.27895529570E+02  0.32102730544E+02  0.00000000000E+00 0.  1.
</event>
<event>
 8    1  0.5331800E-011  0.9118800E+02  0.7816164E-02  0.1184000E+00
        -11   -1    0    0    0    0  0.00000000000E+00  0.00000000000E+00  0.45593999997E+02  0.45594000000E+02  0.51100000000E-03 0. -1.
         11   -1    0    0    0    0 -0.00000000000E+00 -0.00000000000E+00 -0.45593999997E+02  0.45594000000E+02  0.51100000000E-03 0.  1.
         23    2    1    2    0    0  0.00000000000E+00  0.00000000000E+00  0.00000000000E+00  0.91188000000E+02  0.91188000000E+02 0.  0.
    9900012    2    3    3    0    0  0.85139333233E+01  0.26183238115E+02  0.33549575674E+02  0.47787273661E+02  0.20000011931E+02 0.  0.
        -12    1    3    3    0    0 -0.85139333233E+01 -0.26183238115E+02 -0.33549575674E+02  0.43400726339E+02  0.00000000000E+00 0.  1.
         11    1    4    4    0    0 -0.40602081404E+01  0.13871325848E+01  0.11567543801E+02  0.12337645512E+02  0.51100000000E-03 0. -1.
        -11    1    4    4    0    0  0.96652544098E+01  0.19502443227E+02  0.17480322091E+02  0.27916376829E+02  0.51100000000E-03 0.  1.
         12    1    4    4    0    0  0.29088870538E+01  0.52936623032E+01  0.45017097827E+01  0.75332513193E+01  0.00000000000E+00 0. -1.
</event>
<event>
 8    1  0.5331800E-011  0.9118800E+02  0.7816164E-02  0.1184000E+00
        -11   -1    0    0    0    0  0.00000000000E+00  0.00000000000E+00  0.45593999997E+02  0.45594000000E+02  0.51100000000E-03 0. -1.
         11   -1    0    0    0    0 -0.00000000000E+00 -0.00000000000E+00 -0.45593999997E+02  0.45594000000E+02  0.51100000000E-03 0.  1.
         23    2    1    2    0    0  0.00000000000E+00  0.00000000000E+00  0.00000000000E+00  0.91188000000E+02  0.91188000000E+02 0.  0.
    9900012    2    3    3    0    0 -0.73790081739E+01 -0.22770090964E+02 -0.36203537122E+02  0.47787275302E+02  0.20000019412E+02 0.  0.
         12    1    3    3    0    0  0.73790081739E+01  0.22770090964E+02  0.36203537122E+02  0.43400724698E+02  0.00000000000E+00 0. -1.
         11    1    4    4    0    0  0.16175880511E+01 -0.69368347103E+01 -0.23674266744E+02  0.24722604495E+02  0.51100000000E-03 0. -1.
        -11    1    4    4    0    0 -0.72968155138E+01 -0.89913674488E+01 -0.46140014033E+01  0.12465039689E+02  0.51100000000E-03 0.  1.
         12    1    4    4    0    0 -0.16997807112E+01 -0.68418888049E+01 -0.79152689754E+01  0.10599631118E+02  0.00000000000E+00 0. -1.
</event>
<event>
 8    1  0.5331800E-011  0.9118800E+02  0.7816164E-02  0.1184000E+00
        -11   -1    0    0    0    0  0.00000000000E+00  0.00000000000E+00  0.45593999997E+02  0.45594000000E+02  0.51100000000E-03 0. -1.
         11   -1    0    0    0    0 -0.00000000000E+00 -0.00000000000E+00 -0.45593999997E+02  0.45594000000E+02  0.51100000000E-03 0.  1.
         23    2    1    2    0    0  0.00000000000E+00  0.00000000000E+00  0.00000000000E+00  0.91188000000E+02  0.91188000000E+02 0.  0.
    9900012    2    3    3    0    0 -0.65485314170E+01 -0.22036773418E+02  0.36811964626E+02  0.47787269752E+02  0.19999994108E+02 0.  0.
        -12    1    3    3    0    0  0.65485314170E+01  0.22036773418E+02 -0.36811964626E+02  0.43400730248E+02  0.00000000000E+00 0.  1.
         11    1    4    4    0    0 -0.32205608326E+01 -0.45594614711E+00 -0.62185574676E+00  0.33115862961E+01  0.51100000000E-03 0. -1.
        -11    1    4    4    0    0 -0.10576680449E+01 -0.21707540445E+02  0.34241732402E+02  0.40556531065E+02  0.51100000000E-03 0.  1.
         12    1    4    4    0    0 -0.22703025395E+01  0.12671317424E+00  0.31920879706E+01  0.39191523907E+01  0.00000000000E+00 0. -1.
</event>
<event>
 8    1  0.5331800E-011  0.9118800E+02  0.7816164E-02  0.1184000E+00
        -11   -1    0    0    0    0  0.00000000000E+00  0.00000000000E+00  0.45593999997E+02  0.45594000000E+02  0.51100000000E-03 0. -1.
         11   -1    0    0    0    0 -0.00000000000E+00 -0.00000000000E+00 -0.45593999997E+02  0.45594000000E+02  0.51100000000E-03 0.  1.
         23    2    1    2    0    0  0.00000000000E+00  0.00000000000E+00  0.00000000000E+00  0.91188000000E+02  0.91188000000E+02 0.  0.
    9900012    2    3    3    0    0  0.19050322291E+02 -0.19229815087E+02 -0.33925249130E+02  0.47787273091E+02  0.20000009332E+02 0.  0.
         12    1    3    3    0    0 -0.19050322291E+02  0.19229815087E+02  0.33925249130E+02  0.43400726909E+02  0.00000000000E+00 0. -1.
         11    1    4    4    0    0  0.79460211576E+01 -0.13171304623E+02 -0.16162824565E+02  0.22312763520E+02  0.51100000000E-03 0.  1.
        -11    1    4    4    0    0  0.50989862212E+01  0.27203719666E+01 -0.12135649755E+02  0.13441505845E+02  0.51100000000E-03 0. -1.
         12    1    4    4    0    0  0.60053149125E+01 -0.87788824305E+01 -0.56267748096E+01  0.12033003727E+02  0.00000000000E+00 0. -1.
</event>
<event>
 8    1  0.5331800E-011  0.9118800E+02  0.7816164E-02  0.1184000E+00
        -11   -1    0    0    0    0  0.00000000000E+00  0.00000000000E+00  0.45593999997E+02  0.45594000000E+02  0.51100000000E-03 0.  1.
         11   -1    0    0    0    0 -0.00000000000E+00 -0.00000000000E+00 -0.45593999997E+02  0.45594000000E+02  0.51100000000E-03 0. -1.
         23    2    1    2    0    0  0.00000000000E+00 -0.17763568394E-14  0.00000000000E+00  0.91188000000E+02  0.91188000000E+02 0.  0.
    9900012    2    3    3    0    0 -0.41003729458E+02 -0.12458448920E+02 -0.68632915254E+01  0.47787267869E+02  0.19999985520E+02 0.  0.
         12    1    3    3    0    0  0.41003729458E+02  0.12458448920E+02  0.68632915254E+01  0.43400732131E+02  0.00000000000E+00 0. -1.
         11    1    4    4    0    0 -0.22975972983E+02 -0.27030824576E+01 -0.11716086536E+02  0.25932000949E+02  0.51100000000E-03 0. -1.
        -11    1    4    4    0    0 -0.58512591560E+01 -0.64125116854E+01  0.18376527065E+01  0.88732467315E+01  0.51100000000E-03 0.  1.
         12    1    4    4    0    0 -0.12176497320E+02 -0.33428547773E+01  0.30151423040E+01  0.12982020188E+02  0.00000000000E+00 0. -1.
</event>
<event>
 8    1  0.5331800E-011  0.9118800E+02  0.7816164E-02  0.1184000E+00
        -11   -1    0    0    0    0  0.00000000000E+00  0.00000000000E+00  0.45593999997E+02  0.45594000000E+02  0.51100000000E-03 0.  1.
         11   -1    0    0    0    0 -0.00000000000E+00 -0.00000000000E+00 -0.45593999997E+02  0.45594000000E+02  0.51100000000E-03 0. -1.
         23    2    1    2    0    0  0.00000000000E+00  0.71054273576E-14  0.88817841970E-15  0.91188000000E+02  0.91188000000E+02 0.  0.
    9900012    2    3    3    0    0  0.25315431616E+02  0.34617319706E+02  0.66628174595E+01  0.47787273761E+02  0.20000012385E+02 0.  0.
        -12    1    3    3    0    0 -0.25315431616E+02 -0.34617319706E+02 -0.66628174595E+01  0.43400726239E+02  0.00000000000E+00 0.  1.
         11    1    4    4    0    0  0.12835274576E+01 -0.19693571496E+01 -0.17529492956E+01  0.29323440813E+01  0.51100000000E-03 0.  1.
        -11    1    4    4    0    0  0.12270390021E+02  0.17537989204E+02  0.65788518488E+01  0.22392517244E+02  0.51100000000E-03 0. -1.
        -12    1    4    4    0    0  0.11761514137E+02  0.19048687652E+02  0.18369149063E+01  0.22462412436E+02  0.00000000000E+00 0.  1.
</event>
<event>
 8    1  0.5331800E-011  0.9118800E+02  0.7816164E-02  0.1184000E+00
        -11   -1    0    0    0    0  0.00000000000E+00  0.00000000000E+00  0.45593999997E+02  0.45594000000E+02  0.51100000000E-03 0. -1.
         11   -1    0    0    0    0 -0.00000000000E+00 -0.00000000000E+00 -0.45593999997E+02  0.45594000000E+02  0.51100000000E-03 0.  1.
         23    2    1    2    0    0  0.00000000000E+00 -0.35527136788E-14  0.00000000000E+00  0.91188000000E+02  0.91188000000E+02 0.  0.
    9900012    2    3    3    0    0 -0.41542268933E+01 -0.22406117619E+02  0.36936863760E+02  0.47787267146E+02  0.19999982227E+02 0.  0.
        -12    1    3    3    0    0  0.41542268933E+01  0.22406117619E+02 -0.36936863760E+02  0.43400732854E+02  0.00000000000E+00 0.  1.
         11    1    4    4    0    0  0.22533851583E+01 -0.19823590622E+01  0.19840249544E+02  0.20065966071E+02  0.51100000000E-03 0. -1.
        -11    1    4    4    0    0 -0.45942731168E+01 -0.18832596048E+02  0.14780333800E+02  0.24376880171E+02  0.51100000000E-03 0.  1.
         12    1    4    4    0    0 -0.18133389348E+01 -0.15911625080E+01  0.23162804166E+01  0.33444209046E+01  0.00000000000E+00 0. -1.
</event>
<event>
 8    1  0.5331800E-011  0.9118800E+02  0.7816164E-02  0.1184000E+00
        -11   -1    0    0    0    0  0.00000000000E+00  0.00000000000E+00  0.45593999997E+02  0.45594000000E+02  0.51100000000E-03 0. -1.
         11   -1    0    0    0    0 -0.00000000000E+00 -0.00000000000E+00 -0.45593999997E+02  0.45594000000E+02  0.51100000000E-03 0.  1.
         23    2    1    2    0    0  0.00000000000E+00  0.00000000000E+00  0.00000000000E+00  0.91188000000E+02  0.91188000000E+02 0.  0.
    9900012    2    3    3    0    0  0.21573609269E+02  0.29194424511E+02  0.23788403396E+02  0.47787272178E+02  0.20000005167E+02 0.  0.
        -12    1    3    3    0    0 -0.21573609269E+02 -0.29194424511E+02 -0.23788403396E+02  0.43400727822E+02  0.00000000000E+00 0.  1.
         11    1    4    4    0    0  0.12377333644E+02  0.93707966584E+01  0.17751481049E+02  0.23582309001E+02  0.51100000000E-03 0. -1.
        -11    1    4    4    0    0  0.33419049780E+01  0.35460038092E+01  0.48357512585E+01  0.68649080396E+01  0.51100000000E-03 0.  1.
         12    1    4    4    0    0  0.58543706473E+01  0.16277624043E+02  0.12011710882E+01  0.17340055137E+02  0.00000000000E+00 0. -1.
</event>
<event>
 8    1  0.5331800E-011  0.9118800E+02  0.7816164E-02  0.1184000E+00
        -11   -1    0    0    0    0  0.00000000000E+00  0.00000000000E+00  0.45593999997E+02  0.45594000000E+02  0.51100000000E-03 0.  1.
         11   -1    0    0    0    0 -0.00000000000E+00 -0.00000000000E+00 -0.45593999997E+02  0.45594000000E+02  0.51100000000E-03 0. -1.
         23    2    1    2    0    0  0.00000000000E+00  0.00000000000E+00  0.00000000000E+00  0.91188000000E+02  0.91188000000E+02 0.  0.
    9900012    2    3    3    0    0 -0.42115760767E+02  0.91814915641E+01  0.50583223732E+01  0.47787265933E+02  0.19999976694E+02 0.  0.
        -12    1    3    3    0    0  0.42115760767E+02 -0.91814915641E+01 -0.50583223732E+01  0.43400734067E+02  0.00000000000E+00 0.  1.
         11    1    4    4    0    0 -0.90112741098E+01  0.11085652830E+02  0.16588103532E+01  0.14382156020E+02  0.51100000000E-03 0. -1.
        -11    1    4    4    0    0 -0.15819521885E+02 -0.52733537772E+00  0.59031812671E+00  0.15839312833E+02  0.51100000000E-03 0.  1.
         12    1    4    4    0    0 -0.17284964772E+02 -0.13768258880E+01  0.28091938933E+01  0.17565797079E+02  0.00000000000E+00 0. -1.
</event>
<event>
 8    1  0.5331800E-011  0.9118800E+02  0.7816164E-02  0.1184000E+00
        -11   -1    0    0    0    0  0.00000000000E+00  0.00000000000E+00  0.45593999997E+02  0.45594000000E+02  0.51100000000E-03 0. -1.
         11   -1    0    0    0    0 -0.00000000000E+00 -0.00000000000E+00 -0.45593999997E+02  0.45594000000E+02  0.51100000000E-03 0.  1.
         23    2    1    2    0    0  0.00000000000E+00  0.53290705182E-14  0.17763568394E-14  0.91188000000E+02  0.91188000000E+02 0.  0.
    9900012    2    3    3    0    0 -0.37486391508E+02 -0.15284250666E+02 -0.15645611221E+02  0.47787274001E+02  0.20000013482E+02 0.  0.
         12    1    3    3    0    0  0.37486391508E+02  0.15284250666E+02  0.15645611221E+02  0.43400725999E+02  0.00000000000E+00 0. -1.
         11    1    4    4    0    0 -0.21557723096E+02 -0.12005766306E+02 -0.20138396410E+01  0.24757411012E+02  0.51100000000E-03 0. -1.
        -11    1    4    4    0    0 -0.56442409815E+01 -0.44659765980E+01 -0.94158267617E+01  0.11851590488E+02  0.51100000000E-03 0.  1.
        -12    1    4    4    0    0 -0.10284427431E+02  0.11874922378E+01 -0.42159448187E+01  0.11178272501E+02  0.00000000000E+00 0.  1.
</event>
<event>
 8    1  0.5331800E-011  0.9118800E+02  0.7816164E-02  0.1184000E+00
        -11   -1    0    0    0    0  0.00000000000E+00  0.00000000000E+00  0.45593999997E+02  0.45594000000E+02  0.51100000000E-03 0. -1.
         11   -1    0    0    0    0 -0.00000000000E+00 -0.00000000000E+00 -0.45593999997E+02  0.45594000000E+02  0.51100000000E-03 0.  1.
         23    2    1    2    0    0  0.00000000000E+00  0.83266726847E-16  0.00000000000E+00  0.91188000000E+02  0.91188000000E+02 0.  0.
    9900012    2    3    3    0    0 -0.31275731115E+02  0.16619705691E+00 -0.30090271689E+02  0.47787269263E+02  0.19999991877E+02 0.  0.
         12    1    3    3    0    0  0.31275731115E+02 -0.16619705691E+00  0.30090271689E+02  0.43400730737E+02  0.00000000000E+00 0. -1.
         11    1    4    4    0    0  0.87773147798E+00 -0.72453528000E+00 -0.38277076255E+01  0.39933331750E+01  0.51100000000E-03 0. -1.
        -11    1    4    4    0    0 -0.61781509514E+01 -0.34974589642E+00 -0.13447359465E+02  0.14802815551E+02  0.51100000000E-03 0.  1.
        -12    1    4    4    0    0 -0.25975311642E+02  0.12404782333E+01 -0.12815204598E+02  0.28991120537E+02  0.00000000000E+00 0.  1.
</event>
<event>
 8    1  0.5331800E-011  0.9118800E+02  0.7816164E-02  0.1184000E+00
        -11   -1    0    0    0    0  0.00000000000E+00  0.00000000000E+00  0.45593999997E+02  0.45594000000E+02  0.51100000000E-03 0. -1.
         11   -1    0    0    0    0 -0.00000000000E+00 -0.00000000000E+00 -0.45593999997E+02  0.45594000000E+02  0.51100000000E-03 0.  1.
         23    2    1    2    0    0 -0.17763568394E-14  0.00000000000E+00  0.00000000000E+00  0.91188000000E+02  0.91188000000E+02 0.  0.
    9900012    2    3    3    0    0 -0.12856896416E+02 -0.16829177437E+02  0.37882800478E+02  0.47787221542E+02  0.19999774299E+02 0.  0.
        -12    1    3    3    0    0  0.12856896416E+02  0.16829177437E+02 -0.37882800478E+02  0.43400778458E+02  0.00000000000E+00 0.  1.
         11    1    4    4    0    0  0.10349679248E+01 -0.25880336042E+01  0.13279913490E+02  0.13569273345E+02  0.51100000000E-03 0. -1.
        -11    1    4    4    0    0 -0.76406810351E+01 -0.82514790127E+01  0.41133357893E+01  0.11974407883E+02  0.51100000000E-03 0.  1.
         12    1    4    4    0    0 -0.62511833057E+01 -0.59896648199E+01  0.20489551199E+02  0.22243540314E+02  0.00000000000E+00 0. -1.
</event>
<event>
 8    1  0.5331800E-011  0.9118800E+02  0.7816164E-02  0.1184000E+00
        -11   -1    0    0    0    0  0.00000000000E+00  0.00000000000E+00  0.45593999997E+02  0.45594000000E+02  0.51100000000E-03 0. -1.
         11   -1    0    0    0    0 -0.00000000000E+00 -0.00000000000E+00 -0.45593999997E+02  0.45594000000E+02  0.51100000000E-03 0.  1.
         23    2    1    2    0    0 -0.17763568394E-14  0.00000000000E+00 -0.71054273576E-14  0.91188000000E+02  0.91188000000E+02 0.  0.
    9900012    2    3    3    0    0  0.10922079569E+02 -0.47113885862E+01  0.41738889744E+02  0.47787263583E+02  0.19999965980E+02 0.  0.
        -12    1    3    3    0    0 -0.10922079569E+02  0.47113885862E+01 -0.41738889744E+02  0.43400736417E+02  0.00000000000E+00 0.  1.
         11    1    4    4    0    0  0.44261970274E+01  0.65236998099E+01  0.20918599292E+02  0.22354813261E+02  0.51100000000E-03 0. -1.
        -11    1    4    4    0    0 -0.80000365046E-01 -0.50856397396E+01  0.44890558885E+01  0.67839335677E+01  0.51100000000E-03 0.  1.
         12    1    4    4    0    0  0.65758829067E+01 -0.61494486565E+01  0.16331234563E+02  0.18648516754E+02  0.00000000000E+00 0. -1.
</event>
<event>
 8    1  0.5331800E-011  0.9118800E+02  0.7816164E-02  0.1184000E+00
        -11   -1    0    0    0    0  0.00000000000E+00  0.00000000000E+00  0.45593999997E+02  0.45594000000E+02  0.51100000000E-03 0. -1.
         11   -1    0    0    0    0 -0.00000000000E+00 -0.00000000000E+00 -0.45593999997E+02  0.45594000000E+02  0.51100000000E-03 0.  1.
         23    2    1    2    0    0  0.00000000000E+00  0.17763568394E-14  0.00000000000E+00  0.91188000000E+02  0.91188000000E+02 0.  0.
    9900012    2    3    3    0    0  0.20566140846E+02  0.12374847881E+02  0.36159658674E+02  0.47787263545E+02  0.19999965809E+02 0.  0.
        -12    1    3    3    0    0 -0.20566140846E+02 -0.12374847881E+02 -0.36159658674E+02  0.43400736455E+02  0.00000000000E+00 0.  1.
         11    1    4    4    0    0 -0.17472850791E+01 -0.18031537383E+01  0.39849790073E+00  0.25422764188E+01  0.51100000000E-03 0. -1.
        -11    1    4    4    0    0  0.41005388077E+01  0.60337807834E+01  0.61599801464E+01  0.95481037238E+01  0.51100000000E-03 0.  1.
         12    1    4    4    0    0  0.18212887117E+02  0.81442208358E+01  0.29601180627E+02  0.35696883403E+02  0.00000000000E+00 0. -1.
</event>
<event>
 8    1  0.5331800E-011  0.9118800E+02  0.7816164E-02  0.1184000E+00
        -11   -1    0    0    0    0  0.00000000000E+00  0.00000000000E+00  0.45593999997E+02  0.45594000000E+02  0.51100000000E-03 0. -1.
         11   -1    0    0    0    0 -0.00000000000E+00 -0.00000000000E+00 -0.45593999997E+02  0.45594000000E+02  0.51100000000E-03 0.  1.
         23    2    1    2    0    0  0.00000000000E+00  0.00000000000E+00  0.00000000000E+00  0.91188000000E+02  0.91188000000E+02 0.  0.
    9900012    2    3    3    0    0 -0.37985424053E+02  0.71956931263E+01 -0.19721852445E+02  0.47787286827E+02  0.20000071958E+02 0.  0.
         12    1    3    3    0    0  0.37985424053E+02 -0.71956931263E+01  0.19721852445E+02  0.43400713173E+02  0.00000000000E+00 0. -1.
         11    1    4    4    0    0 -0.21985531676E+02 -0.47347301009E+01 -0.86769635407E+01  0.24105413682E+02  0.51100000000E-03 0. -1.
        -11    1    4    4    0    0 -0.91157458767E+01  0.32795308170E+01 -0.35160997857E+01  0.10306071183E+02  0.51100000000E-03 0.  1.
         12    1    4    4    0    0 -0.68841465005E+01  0.86508924103E+01 -0.75287891185E+01  0.13375801962E+02  0.00000000000E+00 0. -1.
</event>
<event>
 8    1  0.5331800E-011  0.9118800E+02  0.7816164E-02  0.1184000E+00
        -11   -1    0    0    0    0  0.00000000000E+00  0.00000000000E+00  0.45593999997E+02  0.45594000000E+02  0.51100000000E-03 0. -1.
         11   -1    0    0    0    0 -0.00000000000E+00 -0.00000000000E+00 -0.45593999997E+02  0.45594000000E+02  0.51100000000E-03 0.  1.
         23    2    1    2    0    0  0.35527136788E-14  0.00000000000E+00  0.00000000000E+00  0.91188000000E+02  0.91188000000E+02 0.  0.
    9900012    2    3    3    0    0  0.29054116159E+02  0.16221385924E+02 -0.27863024771E+02  0.47787272167E+02  0.20000005119E+02 0.  0.
         12    1    3    3    0    0 -0.29054116159E+02 -0.16221385924E+02  0.27863024771E+02  0.43400727833E+02  0.00000000000E+00 0. -1.
         11    1    4    4    0    0  0.25473314005E+01  0.78009370720E+01 -0.14210006798E+02  0.16409381766E+02  0.51100000000E-03 0.  1.
        -11    1    4    4    0    0  0.25268962034E+02  0.72063844046E+01 -0.13720099940E+02  0.29642765746E+02  0.51100000000E-03 0. -1.
         12    1    4    4    0    0  0.12378227242E+01  0.12140644471E+01  0.67081967857E-01  0.17351246551E+01  0.00000000000E+00 0. -1.
</event>
<event>
 8    1  0.5331800E-011  0.9118800E+02  0.7816164E-02  0.1184000E+00
        -11   -1    0    0    0    0  0.00000000000E+00  0.00000000000E+00  0.45593999997E+02  0.45594000000E+02  0.51100000000E-03 0. -1.
         11   -1    0    0    0    0 -0.00000000000E+00 -0.00000000000E+00 -0.45593999997E+02  0.45594000000E+02  0.51100000000E-03 0.  1.
         23    2    1    2    0    0  0.17763568394E-14  0.44408920985E-15 -0.71054273576E-14  0.91188000000E+02  0.91188000000E+02 0.  0.
    9900012    2    3    3    0    0 -0.12619386438E+02 -0.30926439038E+01  0.41410257304E+02  0.47787276846E+02  0.20000026449E+02 0.  0.
        -12    1    3    3    0    0  0.12619386438E+02  0.30926439038E+01 -0.41410257304E+02  0.43400723154E+02  0.00000000000E+00 0.  1.
         11    1    4    4    0    0 -0.11202034237E+01  0.31683743300E+01  0.25151266007E+02  0.25374783420E+02  0.51100000000E-03 0. -1.
        -11    1    4    4    0    0 -0.11417563633E+02 -0.56045277105E+01  0.17119436515E+02  0.21327132884E+02  0.51100000000E-03 0.  1.
        -12    1    4    4    0    0 -0.81619381085E-01 -0.65649052336E+00 -0.86044521874E+00  0.10853605415E+01  0.00000000000E+00 0.  1.
</event>
<event>
 8    1  0.5331800E-011  0.9118800E+02  0.7816164E-02  0.1184000E+00
        -11   -1    0    0    0    0  0.00000000000E+00  0.00000000000E+00  0.45593999997E+02  0.45594000000E+02  0.51100000000E-03 0. -1.
         11   -1    0    0    0    0 -0.00000000000E+00 -0.00000000000E+00 -0.45593999997E+02  0.45594000000E+02  0.51100000000E-03 0.  1.
         23    2    1    2    0    0  0.00000000000E+00 -0.35527136788E-14  0.00000000000E+00  0.91188000000E+02  0.91188000000E+02 0.  0.
    9900012    2    3    3    0    0 -0.29734343648E+02 -0.29060224019E+02  0.12449718978E+02  0.47787270573E+02  0.19999997849E+02 0.  0.
        -12    1    3    3    0    0  0.29734343648E+02  0.29060224019E+02 -0.12449718978E+02  0.43400729427E+02  0.00000000000E+00 0.  1.
         11    1    4    4    0    0 -0.17688236512E+01  0.13287150692E+01  0.46558168765E+01  0.51546922209E+01  0.51100000000E-03 0. -1.
        -11    1    4    4    0    0 -0.20397992848E+02 -0.24139918397E+02  0.31060249167E+01  0.31756277545E+02  0.51100000000E-03 0.  1.
         12    1    4    4    0    0 -0.75675271491E+01 -0.62490206905E+01  0.46878771847E+01  0.10876300807E+02  0.00000000000E+00 0. -1.
</event>
<event>
 8    1  0.5331800E-011  0.9118800E+02  0.7816164E-02  0.1184000E+00
        -11   -1    0    0    0    0  0.00000000000E+00  0.00000000000E+00  0.45593999997E+02  0.45594000000E+02  0.51100000000E-03 0. -1.
         11   -1    0    0    0    0 -0.00000000000E+00 -0.00000000000E+00 -0.45593999997E+02  0.45594000000E+02  0.51100000000E-03 0.  1.
         23    2    1    2    0    0 -0.88817841970E-15  0.17763568394E-14  0.00000000000E+00  0.91188000000E+02  0.91188000000E+02 0.  0.
    9900012    2    3    3    0    0  0.57917044436E+01  0.15213796350E+02 -0.40232072156E+02  0.47787273397E+02  0.20000010724E+02 0.  0.
         12    1    3    3    0    0 -0.57917044436E+01 -0.15213796350E+02  0.40232072156E+02  0.43400726603E+02  0.00000000000E+00 0. -1.
         11    1    4    4    0    0  0.72943384045E+01  0.88240276535E+00 -0.18637895690E+02  0.20033900354E+02  0.51100000000E-03 0. -1.
        -11    1    4    4    0    0  0.17353427452E+01  0.12882128080E+01 -0.92711452532E+01  0.95197185488E+01  0.51100000000E-03 0.  1.
         12    1    4    4    0    0 -0.32379767061E+01  0.13043180776E+02 -0.12323031213E+02  0.18233654494E+02  0.00000000000E+00 0. -1.
</event>
<event>
 8    1  0.5331800E-011  0.9118800E+02  0.7816164E-02  0.1184000E+00
        -11   -1    0    0    0    0  0.00000000000E+00  0.00000000000E+00  0.45593999997E+02  0.45594000000E+02  0.51100000000E-03 0. -1.
         11   -1    0    0    0    0 -0.00000000000E+00 -0.00000000000E+00 -0.45593999997E+02  0.45594000000E+02  0.51100000000E-03 0.  1.
         23    2    1    2    0    0  0.71054273576E-14  0.00000000000E+00  0.17763568394E-14  0.91188000000E+02  0.91188000000E+02 0.  0.
    9900012    2    3    3    0    0  0.35713162401E+02  0.22746817360E+02  0.95276251498E+01  0.47787270631E+02  0.19999998117E+02 0.  0.
        -12    1    3    3    0    0 -0.35713162401E+02 -0.22746817360E+02 -0.95276251498E+01  0.43400729369E+02  0.00000000000E+00 0.  1.
         11    1    4    4    0    0  0.27937354642E+02  0.11744683713E+02  0.22295241727E+01  0.30387565849E+02  0.51100000000E-03 0. -1.
        -11    1    4    4    0    0  0.67596390718E+01  0.73140602638E+01  0.87997894093E+01  0.13290014742E+02  0.51100000000E-03 0.  1.
        -12    1    4    4    0    0  0.10161686873E+01  0.36880733837E+01 -0.15016884322E+01  0.41096900409E+01  0.00000000000E+00 0.  1.
</event>
<event>
 8    1  0.5331800E-011  0.9118800E+02  0.7816164E-02  0.1184000E+00
        -11   -1    0    0    0    0  0.00000000000E+00  0.00000000000E+00  0.45593999997E+02  0.45594000000E+02  0.51100000000E-03 0. -1.
         11   -1    0    0    0    0 -0.00000000000E+00 -0.00000000000E+00 -0.45593999997E+02  0.45594000000E+02  0.51100000000E-03 0.  1.
         23    2    1    2    0    0  0.00000000000E+00  0.00000000000E+00  0.00000000000E+00  0.91188000000E+02  0.91188000000E+02 0.  0.
    9900012    2    3    3    0    0  0.16575204386E+02 -0.34308164156E+02 -0.20780703099E+02  0.47787249436E+02  0.19999901478E+02 0.  0.
         12    1    3    3    0    0 -0.16575204386E+02  0.34308164156E+02  0.20780703099E+02  0.43400750564E+02  0.00000000000E+00 0. -1.
         11    1    4    4    0    0  0.22748141429E+01 -0.19334728914E+01 -0.41850933037E+01  0.51408270763E+01  0.51100000000E-03 0. -1.
        -11    1    4    4    0    0 -0.31361680405E+01 -0.12219562550E+02 -0.47228064758E+01  0.13470640674E+02  0.51100000000E-03 0.  1.
        -12    1    4    4    0    0  0.17436558284E+02 -0.20155128715E+02 -0.11872803320E+02  0.29175781686E+02  0.00000000000E+00 0.  1.
</event>
<event>
 8    1  0.5331800E-011  0.9118800E+02  0.7816164E-02  0.1184000E+00
        -11   -1    0    0    0    0  0.00000000000E+00  0.00000000000E+00  0.45593999997E+02  0.45594000000E+02  0.51100000000E-03 0. -1.
         11   -1    0    0    0    0 -0.00000000000E+00 -0.00000000000E+00 -0.45593999997E+02  0.45594000000E+02  0.51100000000E-03 0.  1.
         23    2    1    2    0    0  0.17763568394E-14 -0.35527136788E-14 -0.71054273576E-14  0.91188000000E+02  0.91188000000E+02 0.  0.
    9900012    2    3    3    0    0 -0.15617595518E+02  0.21083026356E+02  0.34571948083E+02  0.47787275532E+02  0.20000020461E+02 0.  0.
        -12    1    3    3    0    0  0.15617595518E+02 -0.21083026356E+02 -0.34571948083E+02  0.43400724468E+02  0.00000000000E+00 0.  1.
         11    1    4    4    0    0 -0.96574154162E+01  0.13348258624E+02  0.11182748597E+02  0.19912195943E+02  0.51100000000E-03 0. -1.
        -11    1    4    4    0    0  0.14791590622E+01  0.74943715901E+00  0.13710400056E+02  0.13810309103E+02  0.51100000000E-03 0.  1.
         12    1    4    4    0    0 -0.74393391639E+01  0.69853305728E+01  0.96787994303E+01  0.14064770486E+02  0.00000000000E+00 0. -1.
</event>
<event>
 8    1  0.5331800E-011  0.9118800E+02  0.7816164E-02  0.1184000E+00
        -11   -1    0    0    0    0  0.00000000000E+00  0.00000000000E+00  0.45593999997E+02  0.45594000000E+02  0.51100000000E-03 0. -1.
         11   -1    0    0    0    0 -0.00000000000E+00 -0.00000000000E+00 -0.45593999997E+02  0.45594000000E+02  0.51100000000E-03 0.  1.
         23    2    1    2    0    0  0.00000000000E+00  0.00000000000E+00  0.00000000000E+00  0.91188000000E+02  0.91188000000E+02 0.  0.
    9900012    2    3    3    0    0 -0.22856081716E+02 -0.55463138094E+01  0.36475487603E+02  0.47787271156E+02  0.20000000509E+02 0.  0.
        -12    1    3    3    0    0  0.22856081716E+02  0.55463138094E+01 -0.36475487603E+02  0.43400728844E+02  0.00000000000E+00 0.  1.
         11    1    4    4    0    0 -0.10284452301E+02 -0.22507469723E+01  0.28882082686E+02  0.30741023431E+02  0.51100000000E-03 0. -1.
        -11    1    4    4    0    0 -0.40906140206E+01 -0.17391454224E+01 -0.13278216536E+01  0.46390581448E+01  0.51100000000E-03 0.  1.
        -12    1    4    4    0    0 -0.84810153948E+01 -0.15564214147E+01  0.89212265710E+01  0.12407189580E+02  0.00000000000E+00 0.  1.
</event>
<event>
 8    1  0.5331800E-011  0.9118800E+02  0.7816164E-02  0.1184000E+00
        -11   -1    0    0    0    0  0.00000000000E+00  0.00000000000E+00  0.45593999997E+02  0.45594000000E+02  0.51100000000E-03 0. -1.
         11   -1    0    0    0    0 -0.00000000000E+00 -0.00000000000E+00 -0.45593999997E+02  0.45594000000E+02  0.51100000000E-03 0.  1.
         23    2    1    2    0    0  0.00000000000E+00  0.00000000000E+00  0.88817841970E-15  0.91188000000E+02  0.91188000000E+02 0.  0.
    9900012    2    3    3    0    0 -0.94436147853E+01 -0.41671499483E+02 -0.76110430307E+01  0.47787266073E+02  0.19999977335E+02 0.  0.
         12    1    3    3    0    0  0.94436147853E+01  0.41671499483E+02  0.76110430307E+01  0.43400733927E+02  0.00000000000E+00 0. -1.
         11    1    4    4    0    0  0.31117512043E+01 -0.19610079473E+02  0.95648355753E+00  0.19878457524E+02  0.51100000000E-03 0. -1.
        -11    1    4    4    0    0 -0.35635632241E+01 -0.11375570294E+02 -0.70787052872E+01  0.13864005596E+02  0.51100000000E-03 0.  1.
         12    1    4    4    0    0 -0.89918027655E+01 -0.10685849716E+02 -0.14888213011E+01  0.14044802953E+02  0.00000000000E+00 0. -1.
</event>
<event>
 8    1  0.5331800E-011  0.9118800E+02  0.7816164E-02  0.1184000E+00
        -11   -1    0    0    0    0  0.00000000000E+00  0.00000000000E+00  0.45593999997E+02  0.45594000000E+02  0.51100000000E-03 0. -1.
         11   -1    0    0    0    0 -0.00000000000E+00 -0.00000000000E+00 -0.45593999997E+02  0.45594000000E+02  0.51100000000E-03 0.  1.
         23    2    1    2    0    0  0.88817841970E-15  0.35527136788E-14 -0.71054273576E-14  0.91188000000E+02  0.91188000000E+02 0.  0.
    9900012    2    3    3    0    0 -0.50193491736E+01 -0.21518226368E+02  0.37355003709E+02  0.47787259980E+02  0.19999949554E+02 0.  0.
        -12    1    3    3    0    0  0.50193491736E+01  0.21518226368E+02 -0.37355003709E+02  0.43400740020E+02  0.00000000000E+00 0.  1.
         11    1    4    4    0    0  0.45759650729E+01 -0.13105033037E+02  0.25460860240E+02  0.28998909491E+02  0.51100000000E-03 0. -1.
        -11    1    4    4    0    0 -0.64629679955E+01 -0.17460389131E+01  0.32829172292E+01  0.74562827865E+01  0.51100000000E-03 0.  1.
        -12    1    4    4    0    0 -0.31323462510E+01 -0.66671544173E+01  0.86112262401E+01  0.11332067703E+02  0.00000000000E+00 0.  1.
</event>
<event>
 8    1  0.5331800E-011  0.9118800E+02  0.7816164E-02  0.1184000E+00
        -11   -1    0    0    0    0  0.00000000000E+00  0.00000000000E+00  0.45593999997E+02  0.45594000000E+02  0.51100000000E-03 0. -1.
         11   -1    0    0    0    0 -0.00000000000E+00 -0.00000000000E+00 -0.45593999997E+02  0.45594000000E+02  0.51100000000E-03 0.  1.
         23    2    1    2    0    0  0.00000000000E+00  0.00000000000E+00  0.00000000000E+00  0.91188000000E+02  0.91188000000E+02 0.  0.
    9900012    2    3    3    0    0  0.62534034108E+01 -0.21745269002E+02 -0.37035938626E+02  0.47787279637E+02  0.20000039176E+02 0.  0.
         12    1    3    3    0    0 -0.62534034108E+01  0.21745269002E+02  0.37035938626E+02  0.43400720363E+02  0.00000000000E+00 0. -1.
         11    1    4    4    0    0  0.62199418081E+00 -0.15174072984E+02 -0.10701314063E+02  0.18578414642E+02  0.51100000000E-03 0. -1.
        -11    1    4    4    0    0  0.61194127166E+00 -0.72776132725E+01 -0.12530602435E+02  0.14503590062E+02  0.51100000000E-03 0.  1.
         12    1    4    4    0    0  0.50194679583E+01  0.70641725462E+00 -0.13804022128E+02  0.14705274932E+02  0.00000000000E+00 0. -1.
</event>
<event>
 8    1  0.5331800E-011  0.9118800E+02  0.7816164E-02  0.1184000E+00
        -11   -1    0    0    0    0  0.00000000000E+00  0.00000000000E+00  0.45593999997E+02  0.45594000000E+02  0.51100000000E-03 0. -1.
         11   -1    0    0    0    0 -0.00000000000E+00 -0.00000000000E+00 -0.45593999997E+02  0.45594000000E+02  0.51100000000E-03 0.  1.
         23    2    1    2    0    0  0.35527136788E-14  0.71054273576E-14 -0.35527136788E-14  0.91188000000E+02  0.91188000000E+02 0.  0.
    9900012    2    3    3    0    0  0.17374085502E+02  0.33313393245E+02 -0.21725150229E+02  0.47787272253E+02  0.20000005508E+02 0.  0.
         12    1    3    3    0    0 -0.17374085502E+02 -0.33313393245E+02  0.21725150229E+02  0.43400727747E+02  0.00000000000E+00 0. -1.
         11    1    4    4    0    0  0.75886594655E+01  0.13783379014E+02 -0.13617934208E+02  0.20809070664E+02  0.51100000000E-03 0.  1.
        -11    1    4    4    0    0  0.64969814690E+01  0.69134287100E+01  0.28941943077E+01  0.99188016256E+01  0.51100000000E-03 0. -1.
        -12    1    4    4    0    0  0.32884445676E+01  0.12616585521E+02 -0.11001410328E+02  0.17059399963E+02  0.00000000000E+00 0.  1.
</event>
<event>
 8    1  0.5331800E-011  0.9118800E+02  0.7816164E-02  0.1184000E+00
        -11   -1    0    0    0    0  0.00000000000E+00  0.00000000000E+00  0.45593999997E+02  0.45594000000E+02  0.51100000000E-03 0. -1.
         11   -1    0    0    0    0 -0.00000000000E+00 -0.00000000000E+00 -0.45593999997E+02  0.45594000000E+02  0.51100000000E-03 0.  1.
         23    2    1    2    0    0  0.00000000000E+00  0.00000000000E+00  0.00000000000E+00  0.91188000000E+02  0.91188000000E+02 0.  0.
    9900012    2    3    3    0    0  0.46642877184E+01  0.11130568771E+02 -0.41689067395E+02  0.47787268654E+02  0.19999989102E+02 0.  0.
         12    1    3    3    0    0 -0.46642877184E+01 -0.11130568771E+02  0.41689067395E+02  0.43400731346E+02  0.00000000000E+00 0. -1.
         11    1    4    4    0    0  0.18987680711E+01 -0.30587095588E+01 -0.79655747185E+01  0.87413617480E+01  0.51100000000E-03 0. -1.
        -11    1    4    4    0    0  0.43415038160E+01  0.41246421035E+01 -0.24768855266E+02  0.25482494370E+02  0.51100000000E-03 0.  1.
        -12    1    4    4    0    0 -0.15759841687E+01  0.10064636227E+02 -0.89546374105E+01  0.13563412536E+02  0.00000000000E+00 0.  1.
</event>
<event>
 8    1  0.5331800E-011  0.9118800E+02  0.7816164E-02  0.1184000E+00
        -11   -1    0    0    0    0  0.00000000000E+00  0.00000000000E+00  0.45593999997E+02  0.45594000000E+02  0.51100000000E-03 0. -1.
         11   -1    0    0    0    0 -0.00000000000E+00 -0.00000000000E+00 -0.45593999997E+02  0.45594000000E+02  0.51100000000E-03 0.  1.
         23    2    1    2    0    0  0.35527136788E-14  0.00000000000E+00  0.44408920985E-15  0.91188000000E+02  0.91188000000E+02 0.  0.
    9900012    2    3    3    0    0  0.23607515170E+02  0.36252982954E+02  0.34683672673E+01  0.47787272851E+02  0.20000008235E+02 0.  0.
        -12    1    3    3    0    0 -0.23607515170E+02 -0.36252982954E+02 -0.34683672673E+01  0.43400727149E+02  0.00000000000E+00 0.  1.
         11    1    4    4    0    0  0.24239842219E+02  0.29380369560E+02  0.22597050163E+01  0.38156026173E+02  0.51100000000E-03 0. -1.
        -11    1    4    4    0    0 -0.18477756634E+01 -0.59582939481E+00  0.63567427899E+00  0.20428826741E+01  0.51100000000E-03 0.  1.
         12    1    4    4    0    0  0.12154486141E+01  0.74684427894E+01  0.57298797203E+00  0.75883640035E+01  0.00000000000E+00 0. -1.
</event>
<event>
 8    1  0.5413415E-011  0.9118800E+02  0.7816164E-02  0.1184000E+00
        -11   -1    0    0    0    0  0.00000000000E+00  0.00000000000E+00  0.45593999997E+02  0.45594000000E+02  0.51100000000E-03 0. -1.
         11   -1    0    0    0    0 -0.00000000000E+00 -0.00000000000E+00 -0.45593999997E+02  0.45594000000E+02  0.51100000000E-03 0.  1.
         23    2    1    2    0    0 -0.17763568394E-14  0.00000000000E+00  0.00000000000E+00  0.91188000000E+02  0.91188000000E+02 0.  0.
    9900012    2    3    3    0    0 -0.63840072449E+01 -0.80926524335E+01 -0.42158899656E+02  0.47787315765E+02  0.20000203896E+02 0.  0.
         12    1    3    3    0    0  0.63840072449E+01  0.80926524335E+01  0.42158899656E+02  0.43400684235E+02  0.00000000000E+00 0. -1.
         11    1    4    4    0    0 -0.10165393573E+02 -0.32769756404E+01 -0.14688547878E+02  0.18161146298E+02  0.51100000000E-03 0. -1.
        -11    1    4    4    0    0  0.51835087383E+01 -0.11668762760E+01 -0.70115203866E+01  0.87972598845E+01  0.51100000000E-03 0.  1.
        -12    1    4    4    0    0 -0.14021224102E+01 -0.36488005172E+01 -0.20458831392E+02  0.20828909582E+02  0.00000000000E+00 0.  1.
</event>
<event>
 8    1  0.5331800E-011  0.9118800E+02  0.7816164E-02  0.1184000E+00
        -11   -1    0    0    0    0  0.00000000000E+00  0.00000000000E+00  0.45593999997E+02  0.45594000000E+02  0.51100000000E-03 0. -1.
         11   -1    0    0    0    0 -0.00000000000E+00 -0.00000000000E+00 -0.45593999997E+02  0.45594000000E+02  0.51100000000E-03 0.  1.
         23    2    1    2    0    0 -0.35527136788E-14 -0.71054273576E-14  0.00000000000E+00  0.91188000000E+02  0.91188000000E+02 0.  0.
    9900012    2    3    3    0    0 -0.16779659739E+02 -0.32139753455E+02  0.23855870302E+02  0.47787270963E+02  0.19999999627E+02 0.  0.
        -12    1    3    3    0    0  0.16779659739E+02  0.32139753455E+02 -0.23855870302E+02  0.43400729037E+02  0.00000000000E+00 0.  1.
         11    1    4    4    0    0 -0.12646605398E+02 -0.23582759643E+02  0.20824659591E+02  0.33907958178E+02  0.51100000000E-03 0. -1.
        -11    1    4    4    0    0  0.98404170360E+00  0.13501070087E+01 -0.10863203682E+01  0.19927918137E+01  0.51100000000E-03 0.  1.
         12    1    4    4    0    0 -0.51170960443E+01 -0.99071008207E+01  0.41175310793E+01  0.11886520971E+02  0.00000000000E+00 0. -1.
</event>
<event>
 8    1  0.5331800E-011  0.9118800E+02  0.7816164E-02  0.1184000E+00
        -11   -1    0    0    0    0  0.00000000000E+00  0.00000000000E+00  0.45593999997E+02  0.45594000000E+02  0.51100000000E-03 0. -1.
         11   -1    0    0    0    0 -0.00000000000E+00 -0.00000000000E+00 -0.45593999997E+02  0.45594000000E+02  0.51100000000E-03 0.  1.
         23    2    1    2    0    0  0.17763568394E-14  0.00000000000E+00  0.00000000000E+00  0.91188000000E+02  0.91188000000E+02 0.  0.
    9900012    2    3    3    0    0  0.10889956043E+02  0.34896427478E+02 -0.23393825176E+02  0.47787275931E+02  0.20000022280E+02 0.  0.
         12    1    3    3    0    0 -0.10889956043E+02 -0.34896427478E+02  0.23393825176E+02  0.43400724069E+02  0.00000000000E+00 0. -1.
         11    1    4    4    0    0  0.16112391806E+01  0.17161808466E+01 -0.88109589176E+01  0.91199981197E+01  0.51100000000E-03 0. -1.
        -11    1    4    4    0    0  0.87556078964E+01  0.22836824890E+02 -0.14247961793E+02  0.28305223126E+02  0.51100000000E-03 0.  1.
        -12    1    4    4    0    0  0.52310896637E+00  0.10343421741E+02 -0.33490446574E+00  0.10362054685E+02  0.00000000000E+00 0.  1.
</event>
<event>
 8    1  0.5331800E-011  0.9118800E+02  0.7816164E-02  0.1184000E+00
        -11   -1    0    0    0    0  0.00000000000E+00  0.00000000000E+00  0.45593999997E+02  0.45594000000E+02  0.51100000000E-03 0.  1.
         11   -1    0    0    0    0 -0.00000000000E+00 -0.00000000000E+00 -0.45593999997E+02  0.45594000000E+02  0.51100000000E-03 0. -1.
         23    2    1    2    0    0 -0.71054273576E-14  0.88817841970E-15  0.00000000000E+00  0.91188000000E+02  0.91188000000E+02 0.  0.
    9900012    2    3    3    0    0 -0.34732103714E+02  0.78642158736E+01  0.24808434095E+02  0.47787270491E+02  0.19999997475E+02 0.  0.
        -12    1    3    3    0    0  0.34732103714E+02 -0.78642158736E+01 -0.24808434095E+02  0.43400729509E+02  0.00000000000E+00 0.  1.
         11    1    4    4    0    0 -0.31675971410E+02  0.60649129114E+01  0.15121597262E+02  0.35620401983E+02  0.51100000000E-03 0. -1.
        -11    1    4    4    0    0  0.16484370405E+01 -0.95554243043E+00  0.27033217295E+01  0.33073183468E+01  0.51100000000E-03 0.  1.
        -12    1    4    4    0    0 -0.47045693438E+01  0.27548453927E+01  0.69835151036E+01  0.88595501608E+01  0.00000000000E+00 0.  1.
</event>
<event>
 8    1  0.5331800E-011  0.9118800E+02  0.7816164E-02  0.1184000E+00
        -11   -1    0    0    0    0  0.00000000000E+00  0.00000000000E+00  0.45593999997E+02  0.45594000000E+02  0.51100000000E-03 0.  1.
         11   -1    0    0    0    0 -0.00000000000E+00 -0.00000000000E+00 -0.45593999997E+02  0.45594000000E+02  0.51100000000E-03 0. -1.
         23    2    1    2    0    0  0.00000000000E+00  0.00000000000E+00  0.00000000000E+00  0.91188000000E+02  0.91188000000E+02 0.  0.
    9900012    2    3    3    0    0  0.24656601842E+02 -0.35433672844E+02 -0.44866471807E+01  0.47787272028E+02  0.20000004483E+02 0.  0.
         12    1    3    3    0    0 -0.24656601842E+02  0.35433672844E+02  0.44866471807E+01  0.43400727972E+02  0.00000000000E+00 0. -1.
         11    1    4    4    0    0  0.24062463202E+02 -0.29338942194E+02  0.59183520418E+00  0.37948991206E+02  0.51100000000E-03 0.  1.
        -11    1    4    4    0    0 -0.20897818690E+01 -0.15825494755E+01 -0.13147841803E+00  0.26246786352E+01  0.51100000000E-03 0. -1.
        -12    1    4    4    0    0  0.26839205091E+01 -0.45121811749E+01 -0.49470039669E+01  0.72136021863E+01  0.00000000000E+00 0.  1.
</event>
<event>
 8    1  0.5331800E-011  0.9118800E+02  0.7816164E-02  0.1184000E+00
        -11   -1    0    0    0    0  0.00000000000E+00  0.00000000000E+00  0.45593999997E+02  0.45594000000E+02  0.51100000000E-03 0.  1.
         11   -1    0    0    0    0 -0.00000000000E+00 -0.00000000000E+00 -0.45593999997E+02  0.45594000000E+02  0.51100000000E-03 0. -1.
         23    2    1    2    0    0  0.17763568394E-14  0.00000000000E+00  0.35527136788E-14  0.91188000000E+02  0.91188000000E+02 0.  0.
    9900012    2    3    3    0    0 -0.15722793742E+02 -0.26623368965E+02  0.30456742735E+02  0.47787271940E+02  0.20000004084E+02 0.  0.
        -12    1    3    3    0    0  0.15722793742E+02  0.26623368965E+02 -0.30456742735E+02  0.43400728060E+02  0.00000000000E+00 0.  1.
         11    1    4    4    0    0 -0.13698869979E+02 -0.13145724770E+02  0.85335846366E+01  0.20815647610E+02  0.51100000000E-03 0. -1.
        -11    1    4    4    0    0  0.21686083289E+01 -0.47343672174E+01  0.39010173779E+01  0.65065376259E+01  0.51100000000E-03 0.  1.
         12    1    4    4    0    0 -0.41925320917E+01 -0.87432769776E+01  0.18022140721E+02  0.20465086704E+02  0.00000000000E+00 0. -1.
</event>
<event>
 8    1  0.5331800E-011  0.9118800E+02  0.7816164E-02  0.1184000E+00
        -11   -1    0    0    0    0  0.00000000000E+00  0.00000000000E+00  0.45593999997E+02  0.45594000000E+02  0.51100000000E-03 0. -1.
         11   -1    0    0    0    0 -0.00000000000E+00 -0.00000000000E+00 -0.45593999997E+02  0.45594000000E+02  0.51100000000E-03 0.  1.
         23    2    1    2    0    0  0.17763568394E-14 -0.17763568394E-14 -0.71054273576E-14  0.91188000000E+02  0.91188000000E+02 0.  0.
    9900012    2    3    3    0    0 -0.99094834496E+01  0.92291493270E+01  0.41234099317E+02  0.47787239568E+02  0.19999856488E+02 0.  0.
        -12    1    3    3    0    0  0.99094834496E+01 -0.92291493270E+01 -0.41234099317E+02  0.43400760432E+02  0.00000000000E+00 0.  1.
         11    1    4    4    0    0 -0.56600409604E+00  0.10286967408E+00  0.16178272591E+02  0.16188497370E+02  0.51100000000E-03 0. -1.
        -11    1    4    4    0    0 -0.19674329594E+01 -0.33413974468E+01  0.19827819840E+01  0.43551296197E+01  0.51100000000E-03 0.  1.
        -12    1    4    4    0    0 -0.73760463942E+01  0.12467677100E+02  0.23073044742E+02  0.27243612579E+02  0.00000000000E+00 0.  1.
</event>
<event>
 8    1  0.5331800E-011  0.9118800E+02  0.7816164E-02  0.1184000E+00
        -11   -1    0    0    0    0  0.00000000000E+00  0.00000000000E+00  0.45593999997E+02  0.45594000000E+02  0.51100000000E-03 0. -1.
         11   -1    0    0    0    0 -0.00000000000E+00 -0.00000000000E+00 -0.45593999997E+02  0.45594000000E+02  0.51100000000E-03 0.  1.
         23    2    1    2    0    0  0.00000000000E+00  0.00000000000E+00  0.00000000000E+00  0.91188000000E+02  0.91188000000E+02 0.  0.
    9900012    2    3    3    0    0 -0.20508315332E+02 -0.19929237988E+02 -0.32647468944E+02  0.47787277046E+02  0.20000027362E+02 0.  0.
         12    1    3    3    0    0  0.20508315332E+02  0.19929237988E+02  0.32647468944E+02  0.43400722954E+02  0.00000000000E+00 0. -1.
         11    1    4    4    0    0 -0.82755345188E+01 -0.96075104134E+01 -0.51540052267E+01  0.13687676868E+02  0.51100000000E-03 0. -1.
        -11    1    4    4    0    0 -0.49008414369E+01  0.20236904302E+01 -0.11138156311E+02  0.12335805447E+02  0.51100000000E-03 0.  1.
        -12    1    4    4    0    0 -0.73319393761E+01 -0.12345418005E+02 -0.16355307406E+02  0.21763794730E+02  0.00000000000E+00 0.  1.
</event>
<event>
 8    1  0.5331800E-011  0.9118800E+02  0.7816164E-02  0.1184000E+00
        -11   -1    0    0    0    0  0.00000000000E+00  0.00000000000E+00  0.45593999997E+02  0.45594000000E+02  0.51100000000E-03 0. -1.
         11   -1    0    0    0    0 -0.00000000000E+00 -0.00000000000E+00 -0.45593999997E+02  0.45594000000E+02  0.51100000000E-03 0.  1.
         23    2    1    2    0    0  0.00000000000E+00 -0.17763568394E-14  0.35527136788E-14  0.91188000000E+02  0.91188000000E+02 0.  0.
    9900012    2    3    3    0    0 -0.35184084262E+02  0.13527660595E+02 -0.21510600508E+02  0.47787270505E+02  0.19999997538E+02 0.  0.
         12    1    3    3    0    0  0.35184084262E+02 -0.13527660595E+02  0.21510600508E+02  0.43400729495E+02  0.00000000000E+00 0. -1.
         11    1    4    4    0    0 -0.14043780136E+02  0.11452443321E+02 -0.14319589903E+02  0.23096252375E+02  0.51100000000E-03 0. -1.
        -11    1    4    4    0    0 -0.17576800919E+02 -0.16674390373E+01 -0.81316621842E+01  0.19438318179E+02  0.51100000000E-03 0.  1.
        -12    1    4    4    0    0 -0.35635032070E+01  0.37426563115E+01  0.94065157971E+00  0.52526999502E+01  0.00000000000E+00 0.  1.
</event>
<event>
 8    1  0.5331800E-011  0.9118800E+02  0.7816164E-02  0.1184000E+00
        -11   -1    0    0    0    0  0.00000000000E+00  0.00000000000E+00  0.45593999997E+02  0.45594000000E+02  0.51100000000E-03 0. -1.
         11   -1    0    0    0    0 -0.00000000000E+00 -0.00000000000E+00 -0.45593999997E+02  0.45594000000E+02  0.51100000000E-03 0.  1.
         23    2    1    2    0    0  0.00000000000E+00  0.00000000000E+00  0.35527136788E-14  0.91188000000E+02  0.91188000000E+02 0.  0.
    9900012    2    3    3    0    0  0.36969013193E+02  0.76186862754E+01  0.21421288118E+02  0.47787263812E+02  0.19999967023E+02 0.  0.
        -12    1    3    3    0    0 -0.36969013193E+02 -0.76186862754E+01 -0.21421288118E+02  0.43400736188E+02  0.00000000000E+00 0.  1.
         11    1    4    4    0    0  0.80033377899E+00  0.25500191903E+01 -0.19855544310E+01  0.33294982637E+01  0.51100000000E-03 0. -1.
        -11    1    4    4    0    0  0.27107240568E+02  0.34312028190E+01  0.22130455177E+02  0.35161522871E+02  0.51100000000E-03 0.  1.
         12    1    4    4    0    0  0.90614388463E+01  0.16374642661E+01  0.12763873725E+01  0.92962426771E+01  0.00000000000E+00 0. -1.
</event>
<event>
 8    1  0.5331800E-011  0.9118800E+02  0.7816164E-02  0.1184000E+00
        -11   -1    0    0    0    0  0.00000000000E+00  0.00000000000E+00  0.45593999997E+02  0.45594000000E+02  0.51100000000E-03 0. -1.
         11   -1    0    0    0    0 -0.00000000000E+00 -0.00000000000E+00 -0.45593999997E+02  0.45594000000E+02  0.51100000000E-03 0.  1.
         23    2    1    2    0    0  0.00000000000E+00 -0.17763568394E-14  0.00000000000E+00  0.91188000000E+02  0.91188000000E+02 0.  0.
    9900012    2    3    3    0    0 -0.13546331669E+02 -0.15502536973E+02  0.38207222802E+02  0.47787266959E+02  0.19999981371E+02 0.  0.
        -12    1    3    3    0    0  0.13546331669E+02  0.15502536973E+02 -0.38207222802E+02  0.43400733041E+02  0.00000000000E+00 0.  1.
         11    1    4    4    0    0 -0.65945060620E+01  0.71803790311E+00  0.21112359593E+02  0.22129952926E+02  0.51100000000E-03 0. -1.
        -11    1    4    4    0    0  0.32113138731E+00 -0.81589685313E+01  0.87115675158E+01  0.11939987509E+02  0.51100000000E-03 0.  1.
         12    1    4    4    0    0 -0.72729569945E+01 -0.80616063450E+01  0.83832956926E+01  0.13717326524E+02  0.00000000000E+00 0. -1.
</event>
<event>
 8    1  0.5331800E-011  0.9118800E+02  0.7816164E-02  0.1184000E+00
        -11   -1    0    0    0    0  0.00000000000E+00  0.00000000000E+00  0.45593999997E+02  0.45594000000E+02  0.51100000000E-03 0.  1.
         11   -1    0    0    0    0 -0.00000000000E+00 -0.00000000000E+00 -0.45593999997E+02  0.45594000000E+02  0.51100000000E-03 0. -1.
         23    2    1    2    0    0  0.00000000000E+00  0.00000000000E+00  0.00000000000E+00  0.91188000000E+02  0.91188000000E+02 0.  0.
    9900012    2    3    3    0    0 -0.31519946532E+02 -0.25896994419E+02 -0.14814245475E+02  0.47787271684E+02  0.20000002918E+02 0.  0.
         12    1    3    3    0    0  0.31519946532E+02  0.25896994419E+02  0.14814245475E+02  0.43400728316E+02  0.00000000000E+00 0. -1.
         11    1    4    4    0    0 -0.23362821091E+02 -0.10838718553E+02 -0.13804566651E+02  0.29220973459E+02  0.51100000000E-03 0. -1.
        -11    1    4    4    0    0 -0.92176467903E+01 -0.11048640754E+02 -0.65630992942E+00  0.14403757074E+02  0.51100000000E-03 0.  1.
         12    1    4    4    0    0  0.10605213495E+01 -0.40096351118E+01 -0.35336889509E+00  0.41625411516E+01  0.00000000000E+00 0. -1.
</event>
<event>
 8    1  0.5331800E-011  0.9118800E+02  0.7816164E-02  0.1184000E+00
        -11   -1    0    0    0    0  0.00000000000E+00  0.00000000000E+00  0.45593999997E+02  0.45594000000E+02  0.51100000000E-03 0. -1.
         11   -1    0    0    0    0 -0.00000000000E+00 -0.00000000000E+00 -0.45593999997E+02  0.45594000000E+02  0.51100000000E-03 0.  1.
         23    2    1    2    0    0  0.00000000000E+00  0.61062266354E-15 -0.35527136788E-14  0.91188000000E+02  0.91188000000E+02 0.  0.
    9900012    2    3    3    0    0 -0.33439147985E+02  0.16280225147E+00  0.27666221587E+02  0.47787274897E+02  0.20000017564E+02 0.  0.
        -12    1    3    3    0    0  0.33439147985E+02 -0.16280225147E+00 -0.27666221587E+02  0.43400725103E+02  0.00000000000E+00 0.  1.
         11    1    4    4    0    0 -0.31910878575E+01 -0.22426722464E+01 -0.75067799086E-01  0.39010583121E+01  0.51100000000E-03 0. -1.
        -11    1    4    4    0    0 -0.16052356209E+01  0.46396827875E+01  0.65535202779E+01  0.81885325951E+01  0.51100000000E-03 0.  1.
        -12    1    4    4    0    0 -0.28642824507E+02 -0.22342082896E+01  0.21187769109E+02  0.35697683990E+02  0.00000000000E+00 0.  1.
</event>
<event>
 8    1  0.5331800E-011  0.9118800E+02  0.7816164E-02  0.1184000E+00
        -11   -1    0    0    0    0  0.00000000000E+00  0.00000000000E+00  0.45593999997E+02  0.45594000000E+02  0.51100000000E-03 0. -1.
         11   -1    0    0    0    0 -0.00000000000E+00 -0.00000000000E+00 -0.45593999997E+02  0.45594000000E+02  0.51100000000E-03 0.  1.
         23    2    1    2    0    0  0.17763568394E-14  0.88817841970E-15  0.00000000000E+00  0.91188000000E+02  0.91188000000E+02 0.  0.
    9900012    2    3    3    0    0  0.96979336774E+01  0.31000993377E+01  0.42189597133E+02  0.47787278350E+02  0.20000033309E+02 0.  0.
        -12    1    3    3    0    0 -0.96979336774E+01 -0.31000993377E+01 -0.42189597133E+02  0.43400721650E+02  0.00000000000E+00 0.  1.
         11    1    4    4    0    0  0.58170150905E+01  0.60970375238E+01  0.79711231253E+01  0.11599583409E+02  0.51100000000E-03 0. -1.
        -11    1    4    4    0    0 -0.14804674713E+01 -0.10708057359E+01  0.26661122250E+02  0.26723657099E+02  0.51100000000E-03 0.  1.
        -12    1    4    4    0    0  0.53613860582E+01 -0.19261324502E+01  0.75573517577E+01  0.94640378418E+01  0.00000000000E+00 0.  1.
</event>
<event>
 8    1  0.5699012E-011  0.9118800E+02  0.7816164E-02  0.1184000E+00
        -11   -1    0    0    0    0  0.00000000000E+00  0.00000000000E+00  0.45593999997E+02  0.45594000000E+02  0.51100000000E-03 0. -1.
         11   -1    0    0    0    0 -0.00000000000E+00 -0.00000000000E+00 -0.45593999997E+02  0.45594000000E+02  0.51100000000E-03 0.  1.
         23    2    1    2    0    0  0.00000000000E+00  0.35527136788E-14  0.71054273576E-14  0.91188000000E+02  0.91188000000E+02 0.  0.
    9900012    2    3    3    0    0  0.42927906952E+01  0.20799952789E+02  0.37849138521E+02  0.47787269882E+02  0.19999994701E+02 0.  0.
        -12    1    3    3    0    0 -0.42927906952E+01 -0.20799952789E+02 -0.37849138521E+02  0.43400730118E+02  0.00000000000E+00 0.  1.
         11    1    4    4    0    0 -0.12333584802E+01  0.11225565004E+02  0.25560154076E+02  0.27943800018E+02  0.51100000000E-03 0. -1.
        -11    1    4    4    0    0  0.43484866612E+01 -0.46063225266E+00  0.63392816025E+00  0.44185272986E+01  0.51100000000E-03 0.  1.
        -12    1    4    4    0    0  0.11776625142E+01  0.10035020037E+02  0.11655056285E+02  0.15424942565E+02  0.00000000000E+00 0.  1.
</event>
<event>
 8    1  0.5331800E-011  0.9118800E+02  0.7816164E-02  0.1184000E+00
        -11   -1    0    0    0    0  0.00000000000E+00  0.00000000000E+00  0.45593999997E+02  0.45594000000E+02  0.51100000000E-03 0. -1.
         11   -1    0    0    0    0 -0.00000000000E+00 -0.00000000000E+00 -0.45593999997E+02  0.45594000000E+02  0.51100000000E-03 0.  1.
         23    2    1    2    0    0 -0.35527136788E-14 -0.22204460493E-15  0.00000000000E+00  0.91188000000E+02  0.91188000000E+02 0.  0.
    9900012    2    3    3    0    0 -0.19596605743E+02  0.17956359417E+01  0.38682968052E+02  0.47787270946E+02  0.19999999551E+02 0.  0.
        -12    1    3    3    0    0  0.19596605743E+02 -0.17956359417E+01 -0.38682968052E+02  0.43400729054E+02  0.00000000000E+00 0.  1.
         11    1    4    4    0    0 -0.15648038805E+02  0.60258929635E+01  0.27274297016E+02  0.32016554818E+02  0.51100000000E-03 0. -1.
        -11    1    4    4    0    0  0.25165259890E+01 -0.28771566490E+01  0.21138148864E+01  0.43679683002E+01  0.51100000000E-03 0.  1.
        -12    1    4    4    0    0 -0.64650929265E+01 -0.13531003727E+01  0.92948561503E+01  0.11402747828E+02  0.00000000000E+00 0.  1.
</event>
<event>
 8    1  0.5331800E-011  0.9118800E+02  0.7816164E-02  0.1184000E+00
        -11   -1    0    0    0    0  0.00000000000E+00  0.00000000000E+00  0.45593999997E+02  0.45594000000E+02  0.51100000000E-03 0. -1.
         11   -1    0    0    0    0 -0.00000000000E+00 -0.00000000000E+00 -0.45593999997E+02  0.45594000000E+02  0.51100000000E-03 0.  1.
         23    2    1    2    0    0  0.00000000000E+00 -0.26645352591E-14  0.00000000000E+00  0.91188000000E+02  0.91188000000E+02 0.  0.
    9900012    2    3    3    0    0  0.14576104397E+02  0.63642696107E+01 -0.40381384386E+02  0.47787274752E+02  0.20000016906E+02 0.  0.
         12    1    3    3    0    0 -0.14576104397E+02 -0.63642696107E+01  0.40381384386E+02  0.43400725248E+02  0.00000000000E+00 0. -1.
         11    1    4    4    0    0  0.23162203260E+01 -0.15157907321E+01 -0.17807897980E+01  0.32914602698E+01  0.51100000000E-03 0. -1.
        -11    1    4    4    0    0  0.68017060353E+01 -0.37438882035E+01 -0.72732659114E+01  0.10638623085E+02  0.51100000000E-03 0.  1.
        -12    1    4    4    0    0  0.54581780355E+01  0.11623948546E+02 -0.31327328677E+02  0.33857191397E+02  0.00000000000E+00 0.  1.
</event>
<event>
 8    1  0.5331800E-011  0.9118800E+02  0.7816164E-02  0.1184000E+00
        -11   -1    0    0    0    0  0.00000000000E+00  0.00000000000E+00  0.45593999997E+02  0.45594000000E+02  0.51100000000E-03 0. -1.
         11   -1    0    0    0    0 -0.00000000000E+00 -0.00000000000E+00 -0.45593999997E+02  0.45594000000E+02  0.51100000000E-03 0.  1.
         23    2    1    2    0    0  0.00000000000E+00  0.00000000000E+00  0.35527136788E-14  0.91188000000E+02  0.91188000000E+02 0.  0.
    9900012    2    3    3    0    0  0.31790996380E+02  0.45913260070E+00 -0.29542257151E+02  0.47787271768E+02  0.20000003297E+02 0.  0.
         12    1    3    3    0    0 -0.31790996380E+02 -0.45913260070E+00  0.29542257151E+02  0.43400728232E+02  0.00000000000E+00 0. -1.
         11    1    4    4    0    0  0.52254824777E+01  0.19146337825E+00  0.25845650639E+01  0.58328639775E+01  0.51100000000E-03 0. -1.
        -11    1    4    4    0    0  0.22623521759E+02  0.78591837825E+00 -0.24523511255E+02  0.33374301626E+02  0.51100000000E-03 0.  1.
        -12    1    4    4    0    0  0.39419921427E+01 -0.51824915580E+00 -0.76033109592E+01  0.85801061638E+01  0.00000000000E+00 0.  1.
</event>
<event>
 8    1  0.5331800E-011  0.9118800E+02  0.7816164E-02  0.1184000E+00
        -11   -1    0    0    0    0  0.00000000000E+00  0.00000000000E+00  0.45593999997E+02  0.45594000000E+02  0.51100000000E-03 0.  1.
         11   -1    0    0    0    0 -0.00000000000E+00 -0.00000000000E+00 -0.45593999997E+02  0.45594000000E+02  0.51100000000E-03 0. -1.
         23    2    1    2    0    0 -0.88817841970E-15  0.00000000000E+00  0.00000000000E+00  0.91188000000E+02  0.91188000000E+02 0.  0.
    9900012    2    3    3    0    0 -0.66768498466E+01  0.28954683761E+02  0.31633355869E+02  0.47787271445E+02  0.20000001827E+02 0.  0.
        -12    1    3    3    0    0  0.66768498466E+01 -0.28954683761E+02 -0.31633355869E+02  0.43400728555E+02  0.00000000000E+00 0.  1.
         11    1    4    4    0    0 -0.10265190275E+02  0.14518601003E+02  0.17746691238E+02  0.25121882028E+02  0.51100000000E-03 0. -1.
        -11    1    4    4    0    0  0.58981850481E+01  0.40629028590E+01  0.43046120445E+01  0.83561624935E+01  0.51100000000E-03 0.  1.
         12    1    4    4    0    0 -0.23098446194E+01  0.10373179899E+02  0.95820525865E+01  0.14309226924E+02  0.00000000000E+00 0. -1.
</event>
<event>
 8    1  0.5331800E-011  0.9118800E+02  0.7816164E-02  0.1184000E+00
        -11   -1    0    0    0    0  0.00000000000E+00  0.00000000000E+00  0.45593999997E+02  0.45594000000E+02  0.51100000000E-03 0.  1.
         11   -1    0    0    0    0 -0.00000000000E+00 -0.00000000000E+00 -0.45593999997E+02  0.45594000000E+02  0.51100000000E-03 0. -1.
         23    2    1    2    0    0  0.00000000000E+00  0.88817841970E-15  0.00000000000E+00  0.91188000000E+02  0.91188000000E+02 0.  0.
    9900012    2    3    3    0    0 -0.38405359388E+02  0.44992449725E+01 -0.19708074674E+02  0.47787273711E+02  0.20000012158E+02 0.  0.
        -12    1    3    3    0    0  0.38405359388E+02 -0.44992449725E+01  0.19708074674E+02  0.43400726289E+02  0.00000000000E+00 0.  1.
         11    1    4    4    0    0 -0.31176012630E+02 -0.26411437193E+00 -0.13687436027E+02  0.34049367471E+02  0.51100000000E-03 0. -1.
        -11    1    4    4    0    0 -0.62358675384E+01  0.62895263006E+01 -0.16583653171E+01  0.90107913541E+01  0.51100000000E-03 0.  1.
         12    1    4    4    0    0 -0.99347921918E+00 -0.15261669562E+01 -0.43622733301E+01  0.47271148858E+01  0.00000000000E+00 0. -1.
</event>
<event>
 8    1  0.5331800E-011  0.9118800E+02  0.7816164E-02  0.1184000E+00
        -11   -1    0    0    0    0  0.00000000000E+00  0.00000000000E+00  0.45593999997E+02  0.45594000000E+02  0.51100000000E-03 0. -1.
         11   -1    0    0    0    0 -0.00000000000E+00 -0.00000000000E+00 -0.45593999997E+02  0.45594000000E+02  0.51100000000E-03 0.  1.
         23    2    1    2    0    0 -0.71054273576E-14  0.00000000000E+00  0.00000000000E+00  0.91188000000E+02  0.91188000000E+02 0.  0.
    9900012    2    3    3    0    0  0.32328209738E+02 -0.14996667482E+02 -0.24771129031E+02  0.47787285560E+02  0.20000066181E+02 0.  0.
         12    1    3    3    0    0 -0.32328209738E+02  0.14996667482E+02  0.24771129031E+02  0.43400714440E+02  0.00000000000E+00 0. -1.
         11    1    4    4    0    0 -0.20165689962E+01 -0.24647195450E+01 -0.39355520446E+00  0.32087815308E+01  0.51100000000E-03 0. -1.
        -11    1    4    4    0    0  0.21269900900E+02 -0.42389061223E+01 -0.12229901240E+02  0.24898744829E+02  0.51100000000E-03 0.  1.
         12    1    4    4    0    0  0.13074877834E+02 -0.82930418142E+01 -0.12147672587E+02  0.19679759200E+02  0.00000000000E+00 0. -1.
</event>
<event>
 8    1  0.5331800E-011  0.9118800E+02  0.7816164E-02  0.1184000E+00
        -11   -1    0    0    0    0  0.00000000000E+00  0.00000000000E+00  0.45593999997E+02  0.45594000000E+02  0.51100000000E-03 0. -1.
         11   -1    0    0    0    0 -0.00000000000E+00 -0.00000000000E+00 -0.45593999997E+02  0.45594000000E+02  0.51100000000E-03 0.  1.
         23    2    1    2    0    0  0.00000000000E+00  0.00000000000E+00  0.00000000000E+00  0.91188000000E+02  0.91188000000E+02 0.  0.
    9900012    2    3    3    0    0 -0.13910237220E+02  0.39419586373E+02 -0.11671537911E+02  0.47787270899E+02  0.19999999336E+02 0.  0.
         12    1    3    3    0    0  0.13910237220E+02 -0.39419586373E+02  0.11671537911E+02  0.43400729101E+02  0.00000000000E+00 0. -1.
         11    1    4    4    0    0 -0.67277309952E+01  0.29283650515E+01 -0.16707436693E+00  0.73393187915E+01  0.51100000000E-03 0. -1.
        -11    1    4    4    0    0 -0.64874161682E+01  0.32059485458E+02 -0.13689209094E+02  0.35458308225E+02  0.51100000000E-03 0.  1.
        -12    1    4    4    0    0 -0.69509005664E+00  0.44317358636E+01  0.21847455496E+01  0.49896438819E+01  0.00000000000E+00 0.  1.
</event>
<event>
 8    1  0.5331800E-011  0.9118800E+02  0.7816164E-02  0.1184000E+00
        -11   -1    0    0    0    0  0.00000000000E+00  0.00000000000E+00  0.45593999997E+02  0.45594000000E+02  0.51100000000E-03 0.  1.
         11   -1    0    0    0    0 -0.00000000000E+00 -0.00000000000E+00 -0.45593999997E+02  0.45594000000E+02  0.51100000000E-03 0. -1.
         23    2    1    2    0    0  0.35527136788E-14  0.00000000000E+00  0.35527136788E-14  0.91188000000E+02  0.91188000000E+02 0.  0.
    9900012    2    3    3    0    0 -0.20078204812E+02  0.29288052836E+02 -0.24953984843E+02  0.47787243014E+02  0.19999872197E+02 0.  0.
         12    1    3    3    0    0  0.20078204812E+02 -0.29288052836E+02  0.24953984843E+02  0.43400756986E+02  0.00000000000E+00 0. -1.
         11    1    4    4    0    0 -0.61036037772E+01  0.16228126209E+01 -0.56532963410E+01  0.84762762845E+01  0.51100000000E-03 0. -1.
        -11    1    4    4    0    0 -0.23881506854E+00  0.52411735292E+00  0.20614305420E+01  0.21403802880E+01  0.51100000000E-03 0.  1.
        -12    1    4    4    0    0 -0.13735785966E+02  0.27141122862E+02 -0.21362119044E+02  0.37170586441E+02  0.00000000000E+00 0.  1.
</event>
<event>
 8    1  0.5331800E-011  0.9118800E+02  0.7816164E-02  0.1184000E+00
        -11   -1    0    0    0    0  0.00000000000E+00  0.00000000000E+00  0.45593999997E+02  0.45594000000E+02  0.51100000000E-03 0. -1.
         11   -1    0    0    0    0 -0.00000000000E+00 -0.00000000000E+00 -0.45593999997E+02  0.45594000000E+02  0.51100000000E-03 0.  1.
         23    2    1    2    0    0 -0.88817841970E-15 -0.88817841970E-15  0.14210854715E-13  0.91188000000E+02  0.91188000000E+02 0.  0.
    9900012    2    3    3    0    0  0.57451471576E+01  0.60378190178E+01 -0.42592981183E+02  0.47787262444E+02  0.19999960786E+02 0.  0.
         12    1    3    3    0    0 -0.57451471576E+01 -0.60378190178E+01  0.42592981183E+02  0.43400737556E+02  0.00000000000E+00 0. -1.
         11    1    4    4    0    0 -0.17107573374E+01  0.78269521517E+01 -0.23753760584E+02  0.25068486448E+02  0.51100000000E-03 0. -1.
        -11    1    4    4    0    0  0.64930686461E+01  0.25844135958E+01 -0.63189046638E+01  0.94216607076E+01  0.51100000000E-03 0.  1.
        -12    1    4    4    0    0  0.96283584893E+00 -0.43735467298E+01 -0.12520315935E+02  0.13297115288E+02  0.00000000000E+00 0.  1.
</event>
<event>
 8    1  0.5331800E-011  0.9118800E+02  0.7816164E-02  0.1184000E+00
        -11   -1    0    0    0    0  0.00000000000E+00  0.00000000000E+00  0.45593999997E+02  0.45594000000E+02  0.51100000000E-03 0. -1.
         11   -1    0    0    0    0 -0.00000000000E+00 -0.00000000000E+00 -0.45593999997E+02  0.45594000000E+02  0.51100000000E-03 0.  1.
         23    2    1    2    0    0  0.00000000000E+00  0.00000000000E+00 -0.17763568394E-14  0.91188000000E+02  0.91188000000E+02 0.  0.
    9900012    2    3    3    0    0  0.15753783252E+02  0.38914025353E+02 -0.11006366574E+02  0.47787272344E+02  0.20000005925E+02 0.  0.
         12    1    3    3    0    0 -0.15753783252E+02 -0.38914025353E+02  0.11006366574E+02  0.43400727656E+02  0.00000000000E+00 0. -1.
         11    1    4    4    0    0  0.25073690335E+01  0.25374978038E+02 -0.59752888622E+01  0.26189320097E+02  0.51100000000E-03 0. -1.
        -11    1    4    4    0    0  0.76417406248E+01  0.13349443352E+02 -0.33365150048E+01  0.15739636915E+02  0.51100000000E-03 0.  1.
         12    1    4    4    0    0  0.56046735941E+01  0.18960396290E+00 -0.16945627073E+01  0.58583153319E+01  0.00000000000E+00 0. -1.
</event>
<event>
 8    1  0.5331800E-011  0.9118800E+02  0.7816164E-02  0.1184000E+00
        -11   -1    0    0    0    0  0.00000000000E+00  0.00000000000E+00  0.45593999997E+02  0.45594000000E+02  0.51100000000E-03 0. -1.
         11   -1    0    0    0    0 -0.00000000000E+00 -0.00000000000E+00 -0.45593999997E+02  0.45594000000E+02  0.51100000000E-03 0.  1.
         23    2    1    2    0    0  0.00000000000E+00  0.00000000000E+00  0.35527136788E-14  0.91188000000E+02  0.91188000000E+02 0.  0.
    9900012    2    3    3    0    0  0.17283101133E+02  0.32636381890E+02  0.22798776379E+02  0.47787271757E+02  0.20000003248E+02 0.  0.
        -12    1    3    3    0    0 -0.17283101133E+02 -0.32636381890E+02 -0.22798776379E+02  0.43400728243E+02  0.00000000000E+00 0.  1.
         11    1    4    4    0    0  0.82455603377E+01  0.19223678191E+02  0.43763086486E+01  0.21370333318E+02  0.51100000000E-03 0. -1.
        -11    1    4    4    0    0  0.18176703183E+01 -0.20121582138E-01  0.73490050370E+01  0.75704825182E+01  0.51100000000E-03 0.  1.
         12    1    4    4    0    0  0.72198704774E+01  0.13432825281E+02  0.11073462693E+02  0.18846455920E+02  0.00000000000E+00 0. -1.
</event>
<event>
 8    1  0.5331800E-011  0.9118800E+02  0.7816164E-02  0.1184000E+00
        -11   -1    0    0    0    0  0.00000000000E+00  0.00000000000E+00  0.45593999997E+02  0.45594000000E+02  0.51100000000E-03 0. -1.
         11   -1    0    0    0    0 -0.00000000000E+00 -0.00000000000E+00 -0.45593999997E+02  0.45594000000E+02  0.51100000000E-03 0.  1.
         23    2    1    2    0    0 -0.35527136788E-14  0.88817841970E-15  0.00000000000E+00  0.91188000000E+02  0.91188000000E+02 0.  0.
    9900012    2    3    3    0    0  0.30871409359E+02  0.47956448146E+01 -0.30126081545E+02  0.47787275187E+02  0.20000018887E+02 0.  0.
         12    1    3    3    0    0 -0.30871409359E+02 -0.47956448146E+01  0.30126081545E+02  0.43400724813E+02  0.00000000000E+00 0. -1.
         11    1    4    4    0    0  0.16107389570E+02 -0.40344723189E+00 -0.24645188651E+02  0.29444797373E+02  0.51100000000E-03 0. -1.
        -11    1    4    4    0    0  0.94072539687E+01  0.66240855932E+01 -0.56048726423E+01  0.12798028550E+02  0.51100000000E-03 0.  1.
         12    1    4    4    0    0  0.53567658203E+01 -0.14249935467E+01  0.12397974752E+00  0.55444492639E+01  0.00000000000E+00 0. -1.
</event>
<event>
 8    1  0.5331800E-011  0.9118800E+02  0.7816164E-02  0.1184000E+00
        -11   -1    0    0    0    0  0.00000000000E+00  0.00000000000E+00  0.45593999997E+02  0.45594000000E+02  0.51100000000E-03 0. -1.
         11   -1    0    0    0    0 -0.00000000000E+00 -0.00000000000E+00 -0.45593999997E+02  0.45594000000E+02  0.51100000000E-03 0.  1.
         23    2    1    2    0    0  0.00000000000E+00  0.00000000000E+00 -0.35527136788E-14  0.91188000000E+02  0.91188000000E+02 0.  0.
    9900012    2    3    3    0    0 -0.74582259032E+00 -0.31037861463E+02  0.30326856064E+02  0.47787270809E+02  0.19999998929E+02 0.  0.
        -12    1    3    3    0    0  0.74582259032E+00  0.31037861463E+02 -0.30326856064E+02  0.43400729191E+02  0.00000000000E+00 0.  1.
         11    1    4    4    0    0 -0.91369501447E+00  0.37107412264E+00  0.71337850512E+01  0.72016264831E+01  0.51100000000E-03 0.  1.
        -11    1    4    4    0    0  0.65145542964E+00 -0.28141234768E+02  0.24211595879E+02  0.37128895267E+02  0.51100000000E-03 0. -1.
         12    1    4    4    0    0 -0.48358300549E+00 -0.32677008180E+01 -0.10185248664E+01  0.34567490598E+01  0.00000000000E+00 0. -1.
</event>
<event>
 8    1  0.5331800E-011  0.9118800E+02  0.7816164E-02  0.1184000E+00
        -11   -1    0    0    0    0  0.00000000000E+00  0.00000000000E+00  0.45593999997E+02  0.45594000000E+02  0.51100000000E-03 0.  1.
         11   -1    0    0    0    0 -0.00000000000E+00 -0.00000000000E+00 -0.45593999997E+02  0.45594000000E+02  0.51100000000E-03 0. -1.
         23    2    1    2    0    0  0.00000000000E+00  0.00000000000E+00  0.00000000000E+00  0.91188000000E+02  0.91188000000E+02 0.  0.
    9900012    2    3    3    0    0  0.21780860145E+02  0.33953636316E+02 -0.16011497948E+02  0.47787270118E+02  0.19999995778E+02 0.  0.
        -12    1    3    3    0    0 -0.21780860145E+02 -0.33953636316E+02  0.16011497948E+02  0.43400729882E+02  0.00000000000E+00 0.  1.
         11    1    4    4    0    0  0.87391968006E+01  0.76950119730E+01 -0.20026163023E+01  0.11815127689E+02  0.51100000000E-03 0. -1.
        -11    1    4    4    0    0  0.36516284268E+01  0.20662961552E+02 -0.13656031689E+02  0.25035566141E+02  0.51100000000E-03 0.  1.
        -12    1    4    4    0    0  0.93900349175E+01  0.55956627905E+01 -0.35284995712E+00  0.10936576288E+02  0.00000000000E+00 0.  1.
</event>
<event>
 8    1  0.5331800E-011  0.9118800E+02  0.7816164E-02  0.1184000E+00
        -11   -1    0    0    0    0  0.00000000000E+00  0.00000000000E+00  0.45593999997E+02  0.45594000000E+02  0.51100000000E-03 0. -1.
         11   -1    0    0    0    0 -0.00000000000E+00 -0.00000000000E+00 -0.45593999997E+02  0.45594000000E+02  0.51100000000E-03 0.  1.
         23    2    1    2    0    0 -0.35527136788E-14 -0.17763568394E-14  0.00000000000E+00  0.91188000000E+02  0.91188000000E+02 0.  0.
    9900012    2    3    3    0    0 -0.20389843921E+02 -0.13268516213E+02  0.35941945076E+02  0.47787277962E+02  0.20000031539E+02 0.  0.
        -12    1    3    3    0    0  0.20389843921E+02  0.13268516213E+02 -0.35941945076E+02  0.43400722038E+02  0.00000000000E+00 0.  1.
         11    1    4    4    0    0 -0.19754988100E+02 -0.13464731610E+02  0.27396107016E+02  0.36360765009E+02  0.51100000000E-03 0. -1.
        -11    1    4    4    0    0  0.37883910715E-01  0.34021294435E+01  0.70445293013E+01  0.78231268223E+01  0.51100000000E-03 0.  1.
        -12    1    4    4    0    0 -0.67273973231E+00 -0.32059140456E+01  0.15013087584E+01  0.36033861302E+01  0.00000000000E+00 0.  1.
</event>
<event>
 8    1  0.5331800E-011  0.9118800E+02  0.7816164E-02  0.1184000E+00
        -11   -1    0    0    0    0  0.00000000000E+00  0.00000000000E+00  0.45593999997E+02  0.45594000000E+02  0.51100000000E-03 0.  1.
         11   -1    0    0    0    0 -0.00000000000E+00 -0.00000000000E+00 -0.45593999997E+02  0.45594000000E+02  0.51100000000E-03 0. -1.
         23    2    1    2    0    0 -0.17763568394E-14  0.00000000000E+00 -0.35527136788E-14  0.91188000000E+02  0.91188000000E+02 0.  0.
    9900012    2    3    3    0    0 -0.11399378419E+02 -0.37796071617E+02  0.18031494562E+02  0.47787266664E+02  0.19999980027E+02 0.  0.
        -12    1    3    3    0    0  0.11399378419E+02  0.37796071617E+02 -0.18031494562E+02  0.43400733336E+02  0.00000000000E+00 0.  1.
         11    1    4    4    0    0 -0.36662319577E+01 -0.10219135020E+02  0.60824914918E+01  0.12444624556E+02  0.51100000000E-03 0. -1.
        -11    1    4    4    0    0 -0.95623470834E+01 -0.29210379307E+02  0.11660879087E+02  0.32873406309E+02  0.51100000000E-03 0.  1.
        -12    1    4    4    0    0  0.18292006218E+01  0.16334427102E+01  0.28812398226E+00  0.24692357991E+01  0.00000000000E+00 0.  1.
</event>
<event>
 8    1  0.5331800E-011  0.9118800E+02  0.7816164E-02  0.1184000E+00
        -11   -1    0    0    0    0  0.00000000000E+00  0.00000000000E+00  0.45593999997E+02  0.45594000000E+02  0.51100000000E-03 0. -1.
         11   -1    0    0    0    0 -0.00000000000E+00 -0.00000000000E+00 -0.45593999997E+02  0.45594000000E+02  0.51100000000E-03 0.  1.
         23    2    1    2    0    0 -0.88817841970E-15  0.00000000000E+00  0.00000000000E+00  0.91188000000E+02  0.91188000000E+02 0.  0.
    9900012    2    3    3    0    0 -0.27764739880E+01  0.70289004440E+01  0.42737680210E+02  0.47787267760E+02  0.19999985025E+02 0.  0.
        -12    1    3    3    0    0  0.27764739880E+01 -0.70289004440E+01 -0.42737680210E+02  0.43400732240E+02  0.00000000000E+00 0.  1.
         11    1    4    4    0    0  0.32087231102E+01  0.68725475579E+00  0.38750692360E+01  0.50778327013E+01  0.51100000000E-03 0. -1.
        -11    1    4    4    0    0 -0.98789431713E+01 -0.44371605785E+00  0.21369375967E+02  0.23546563053E+02  0.51100000000E-03 0.  1.
        -12    1    4    4    0    0  0.38937460731E+01  0.67853617460E+01  0.17493235007E+02  0.19162872006E+02  0.00000000000E+00 0.  1.
</event>
<event>
 8    1  0.5331800E-011  0.9118800E+02  0.7816164E-02  0.1184000E+00
        -11   -1    0    0    0    0  0.00000000000E+00  0.00000000000E+00  0.45593999997E+02  0.45594000000E+02  0.51100000000E-03 0. -1.
         11   -1    0    0    0    0 -0.00000000000E+00 -0.00000000000E+00 -0.45593999997E+02  0.45594000000E+02  0.51100000000E-03 0.  1.
         23    2    1    2    0    0  0.00000000000E+00  0.00000000000E+00  0.00000000000E+00  0.91188000000E+02  0.91188000000E+02 0.  0.
    9900012    2    3    3    0    0 -0.25366878505E+02 -0.12254683447E+02 -0.33014652177E+02  0.47787273625E+02  0.20000011767E+02 0.  0.
         12    1    3    3    0    0  0.25366878505E+02  0.12254683447E+02  0.33014652177E+02  0.43400726375E+02  0.00000000000E+00 0. -1.
         11    1    4    4    0    0 -0.10671356114E+02 -0.31374203717E+00 -0.16051555303E+01  0.10795962205E+02  0.51100000000E-03 0. -1.
        -11    1    4    4    0    0 -0.55179126819E+01 -0.74534306423E+01 -0.13627675955E+02  0.16483765981E+02  0.51100000000E-03 0.  1.
         12    1    4    4    0    0 -0.91776097091E+01 -0.44875107676E+01 -0.17781820692E+02  0.20507545440E+02  0.00000000000E+00 0. -1.
</event>
<event>
 8    1  0.6731727E-011  0.9118800E+02  0.7816164E-02  0.1184000E+00
        -11   -1    0    0    0    0  0.00000000000E+00  0.00000000000E+00  0.45593999997E+02  0.45594000000E+02  0.51100000000E-03 0. -1.
         11   -1    0    0    0    0 -0.00000000000E+00 -0.00000000000E+00 -0.45593999997E+02  0.45594000000E+02  0.51100000000E-03 0.  1.
         23    2    1    2    0    0  0.00000000000E+00  0.17763568394E-14  0.00000000000E+00  0.91188000000E+02  0.91188000000E+02 0.  0.
    9900012    2    3    3    0    0  0.88809303250E+01  0.97133730202E+01 -0.41357019481E+02  0.47787267296E+02  0.19999982910E+02 0.  0.
         12    1    3    3    0    0 -0.88809303250E+01 -0.97133730202E+01  0.41357019481E+02  0.43400732704E+02  0.00000000000E+00 0. -1.
         11    1    4    4    0    0  0.55326349066E+00 -0.40172739845E+01 -0.42014003461E+01  0.58392084983E+01  0.51100000000E-03 0. -1.
        -11    1    4    4    0    0  0.91391155184E+01  0.10760140118E+02 -0.19777655229E+02  0.24299376420E+02  0.51100000000E-03 0.  1.
        -12    1    4    4    0    0 -0.81144868404E+00  0.29705068870E+01 -0.17377963906E+02  0.17648682378E+02  0.00000000000E+00 0.  1.
</event>
<event>
 8    1  0.5331800E-011  0.9118800E+02  0.7816164E-02  0.1184000E+00
        -11   -1    0    0    0    0  0.00000000000E+00  0.00000000000E+00  0.45593999997E+02  0.45594000000E+02  0.51100000000E-03 0. -1.
         11   -1    0    0    0    0 -0.00000000000E+00 -0.00000000000E+00 -0.45593999997E+02  0.45594000000E+02  0.51100000000E-03 0.  1.
         23    2    1    2    0    0  0.22204460493E-15  0.00000000000E+00 -0.35527136788E-14  0.91188000000E+02  0.91188000000E+02 0.  0.
    9900012    2    3    3    0    0  0.15154053263E+01 -0.32937817035E+02  0.28221011200E+02  0.47787288975E+02  0.20000081750E+02 0.  0.
        -12    1    3    3    0    0 -0.15154053263E+01  0.32937817035E+02 -0.28221011200E+02  0.43400711025E+02  0.00000000000E+00 0.  1.
         11    1    4    4    0    0 -0.36973146929E+01 -0.17528682041E+02  0.14793420724E+02  0.23232953471E+02  0.51100000000E-03 0. -1.
        -11    1    4    4    0    0  0.88992669355E+01 -0.71741792070E+01  0.87224986217E+01  0.14378726708E+02  0.51100000000E-03 0.  1.
        -12    1    4    4    0    0 -0.36865469164E+01 -0.82349557871E+01  0.47050918548E+01  0.10175608795E+02  0.00000000000E+00 0.  1.
</event>
<event>
 8    1  0.5331800E-011  0.9118800E+02  0.7816164E-02  0.1184000E+00
        -11   -1    0    0    0    0  0.00000000000E+00  0.00000000000E+00  0.45593999997E+02  0.45594000000E+02  0.51100000000E-03 0. -1.
         11   -1    0    0    0    0 -0.00000000000E+00 -0.00000000000E+00 -0.45593999997E+02  0.45594000000E+02  0.51100000000E-03 0.  1.
         23    2    1    2    0    0  0.13322676296E-14  0.00000000000E+00  0.00000000000E+00  0.91188000000E+02  0.91188000000E+02 0.  0.
    9900012    2    3    3    0    0 -0.26672500484E+01  0.27864440357E+02 -0.33167484698E+02  0.47787270738E+02  0.19999998603E+02 0.  0.
         12    1    3    3    0    0  0.26672500484E+01 -0.27864440357E+02  0.33167484698E+02  0.43400729262E+02  0.00000000000E+00 0. -1.
         11    1    4    4    0    0  0.24330719996E+01  0.15185225111E+02 -0.70561165652E+01  0.16920392497E+02  0.51100000000E-03 0. -1.
        -11    1    4    4    0    0 -0.43913003805E+01  0.14152743773E+02 -0.23232022945E+02  0.27555590462E+02  0.51100000000E-03 0.  1.
         12    1    4    4    0    0 -0.70902166747E+00 -0.14735285261E+01 -0.28793451879E+01  0.33112877786E+01  0.00000000000E+00 0. -1.
</event>
<event>
 8    1  0.5331800E-011  0.9118800E+02  0.7816164E-02  0.1184000E+00
        -11   -1    0    0    0    0  0.00000000000E+00  0.00000000000E+00  0.45593999997E+02  0.45594000000E+02  0.51100000000E-03 0. -1.
         11   -1    0    0    0    0 -0.00000000000E+00 -0.00000000000E+00 -0.45593999997E+02  0.45594000000E+02  0.51100000000E-03 0.  1.
         23    2    1    2    0    0  0.00000000000E+00  0.00000000000E+00  0.00000000000E+00  0.91188000000E+02  0.91188000000E+02 0.  0.
    9900012    2    3    3    0    0  0.10680658644E+02  0.89481884235E+01 -0.41103251304E+02  0.47787264834E+02  0.19999971685E+02 0.  0.
         12    1    3    3    0    0 -0.10680658644E+02 -0.89481884235E+01  0.41103251304E+02  0.43400735166E+02  0.00000000000E+00 0. -1.
         11    1    4    4    0    0  0.87934032534E+01 -0.22180973966E+01 -0.29995462355E+02  0.31336427030E+02  0.51100000000E-03 0. -1.
        -11    1    4    4    0    0  0.98077871962E+00  0.78514657343E+00 -0.29841934823E+01  0.32378685952E+01  0.51100000000E-03 0.  1.
         12    1    4    4    0    0  0.90647667127E+00  0.10381139247E+02 -0.81235954669E+01  0.13212969209E+02  0.00000000000E+00 0. -1.
</event>
<event>
 8    1  0.5331800E-011  0.9118800E+02  0.7816164E-02  0.1184000E+00
        -11   -1    0    0    0    0  0.00000000000E+00  0.00000000000E+00  0.45593999997E+02  0.45594000000E+02  0.51100000000E-03 0. -1.
         11   -1    0    0    0    0 -0.00000000000E+00 -0.00000000000E+00 -0.45593999997E+02  0.45594000000E+02  0.51100000000E-03 0.  1.
         23    2    1    2    0    0  0.00000000000E+00 -0.35527136788E-14  0.35527136788E-14  0.91188000000E+02  0.91188000000E+02 0.  0.
    9900012    2    3    3    0    0 -0.25051090088E+02  0.24089715646E+02 -0.25995224887E+02  0.47787271533E+02  0.20000002229E+02 0.  0.
         12    1    3    3    0    0  0.25051090088E+02 -0.24089715646E+02  0.25995224887E+02  0.43400728467E+02  0.00000000000E+00 0. -1.
         11    1    4    4    0    0 -0.12597915600E+02  0.13105297519E+02 -0.22424593168E+01  0.18316247557E+02  0.51100000000E-03 0. -1.
        -11    1    4    4    0    0 -0.40612485083E+01  0.49693892892E+01 -0.13358700301E+02  0.14820372578E+02  0.51100000000E-03 0.  1.
         12    1    4    4    0    0 -0.83919259801E+01  0.60150288379E+01 -0.10394065270E+02  0.14650651399E+02  0.00000000000E+00 0. -1.
</event>
<event>
 8    1  0.5331800E-011  0.9118800E+02  0.7816164E-02  0.1184000E+00
        -11   -1    0    0    0    0  0.00000000000E+00  0.00000000000E+00  0.45593999997E+02  0.45594000000E+02  0.51100000000E-03 0. -1.
         11   -1    0    0    0    0 -0.00000000000E+00 -0.00000000000E+00 -0.45593999997E+02  0.45594000000E+02  0.51100000000E-03 0.  1.
         23    2    1    2    0    0  0.00000000000E+00  0.00000000000E+00  0.00000000000E+00  0.91188000000E+02  0.91188000000E+02 0.  0.
    9900012    2    3    3    0    0  0.19845231199E+02  0.24967371618E+02  0.29435017201E+02  0.47787273226E+02  0.20000009947E+02 0.  0.
        -12    1    3    3    0    0 -0.19845231199E+02 -0.24967371618E+02 -0.29435017201E+02  0.43400726774E+02  0.00000000000E+00 0.  1.
         11    1    4    4    0    0  0.12532133594E+02  0.15706509474E+01  0.70309952083E+01  0.14455317731E+02  0.51100000000E-03 0.  1.
        -11    1    4    4    0    0  0.42074594703E+01  0.16408994491E+02  0.16742693927E+02  0.23817548479E+02  0.51100000000E-03 0. -1.
        -12    1    4    4    0    0  0.31056381347E+01  0.69877261799E+01  0.56613280665E+01  0.95144070160E+01  0.00000000000E+00 0.  1.
</event>
<event>
 8    1  0.5331800E-011  0.9118800E+02  0.7816164E-02  0.1184000E+00
        -11   -1    0    0    0    0  0.00000000000E+00  0.00000000000E+00  0.45593999997E+02  0.45594000000E+02  0.51100000000E-03 0. -1.
         11   -1    0    0    0    0 -0.00000000000E+00 -0.00000000000E+00 -0.45593999997E+02  0.45594000000E+02  0.51100000000E-03 0.  1.
         23    2    1    2    0    0  0.35527136788E-14  0.00000000000E+00  0.00000000000E+00  0.91188000000E+02  0.91188000000E+02 0.  0.
    9900012    2    3    3    0    0 -0.31047013585E+02 -0.14940330700E+02  0.26391144547E+02  0.47787273687E+02  0.20000012049E+02 0.  0.
        -12    1    3    3    0    0  0.31047013585E+02  0.14940330700E+02 -0.26391144547E+02  0.43400726313E+02  0.00000000000E+00 0.  1.
         11    1    4    4    0    0 -0.22568221558E+02 -0.14479426663E+02  0.96214222670E+01  0.28487719942E+02  0.51100000000E-03 0. -1.
        -11    1    4    4    0    0 -0.28309467247E+01 -0.18768422302E+01  0.87733208527E+01  0.94078666636E+01  0.51100000000E-03 0.  1.
         12    1    4    4    0    0 -0.56478453017E+01  0.14159381938E+01  0.79964014278E+01  0.98916870813E+01  0.00000000000E+00 0. -1.
</event>
<event>
 8    1  0.5331800E-011  0.9118800E+02  0.7816164E-02  0.1184000E+00
        -11   -1    0    0    0    0  0.00000000000E+00  0.00000000000E+00  0.45593999997E+02  0.45594000000E+02  0.51100000000E-03 0. -1.
         11   -1    0    0    0    0 -0.00000000000E+00 -0.00000000000E+00 -0.45593999997E+02  0.45594000000E+02  0.51100000000E-03 0.  1.
         23    2    1    2    0    0  0.00000000000E+00  0.00000000000E+00 -0.66613381478E-15  0.91188000000E+02  0.91188000000E+02 0.  0.
    9900012    2    3    3    0    0  0.39933874558E+02 -0.16882471142E+02  0.19725902653E+01  0.47787270958E+02  0.19999999605E+02 0.  0.
        -12    1    3    3    0    0 -0.39933874558E+02  0.16882471142E+02 -0.19725902653E+01  0.43400729042E+02  0.00000000000E+00 0.  1.
         11    1    4    4    0    0  0.25802709773E+02 -0.14562795934E+02 -0.38691955206E+01  0.29880186265E+02  0.51100000000E-03 0. -1.
        -11    1    4    4    0    0  0.15148017432E+02 -0.14440547630E+01  0.41980561916E+01  0.15785163994E+02  0.51100000000E-03 0.  1.
         12    1    4    4    0    0 -0.10168526471E+01 -0.87562044540E+00  0.16437295942E+01  0.21219206981E+01  0.00000000000E+00 0. -1.
</event>
<event>
 8    1  0.5331800E-011  0.9118800E+02  0.7816164E-02  0.1184000E+00
        -11   -1    0    0    0    0  0.00000000000E+00  0.00000000000E+00  0.45593999997E+02  0.45594000000E+02  0.51100000000E-03 0. -1.
         11   -1    0    0    0    0 -0.00000000000E+00 -0.00000000000E+00 -0.45593999997E+02  0.45594000000E+02  0.51100000000E-03 0.  1.
         23    2    1    2    0    0  0.88817841970E-15  0.00000000000E+00 -0.17763568394E-14  0.91188000000E+02  0.91188000000E+02 0.  0.
    9900012    2    3    3    0    0  0.79598474664E+01 -0.40156772734E+02 -0.14411722753E+02  0.47787270504E+02  0.19999997536E+02 0.  0.
         12    1    3    3    0    0 -0.79598474664E+01  0.40156772734E+02  0.14411722753E+02  0.43400729496E+02  0.00000000000E+00 0. -1.
         11    1    4    4    0    0  0.10113945209E+01 -0.57995667867E+01  0.49916893589E+01  0.77184750247E+01  0.51100000000E-03 0. -1.
        -11    1    4    4    0    0  0.29957106690E+01 -0.16203163691E+02 -0.91834254724E+01  0.18864042507E+02  0.51100000000E-03 0.  1.
         12    1    4    4    0    0  0.39527422765E+01 -0.18154042256E+02 -0.10219986639E+02  0.21204752973E+02  0.00000000000E+00 0. -1.
</event>
<event>
 8    1  0.5331800E-011  0.9118800E+02  0.7816164E-02  0.1184000E+00
        -11   -1    0    0    0    0  0.00000000000E+00  0.00000000000E+00  0.45593999997E+02  0.45594000000E+02  0.51100000000E-03 0. -1.
         11   -1    0    0    0    0 -0.00000000000E+00 -0.00000000000E+00 -0.45593999997E+02  0.45594000000E+02  0.51100000000E-03 0.  1.
         23    2    1    2    0    0  0.00000000000E+00 -0.17763568394E-14 -0.35527136788E-14  0.91188000000E+02  0.91188000000E+02 0.  0.
    9900012    2    3    3    0    0 -0.31869494465E+02 -0.13916879692E+02 -0.25966874605E+02  0.47787276566E+02  0.20000025175E+02 0.  0.
         12    1    3    3    0    0  0.31869494465E+02  0.13916879692E+02  0.25966874605E+02  0.43400723434E+02  0.00000000000E+00 0. -1.
         11    1    4    4    0    0 -0.16299776086E+02 -0.56774101677E+01 -0.22691608539E+02  0.28510082165E+02  0.51100000000E-03 0. -1.
        -11    1    4    4    0    0 -0.15993267825E+02 -0.65977421431E+01 -0.30305786944E+01  0.17564145997E+02  0.51100000000E-03 0.  1.
        -12    1    4    4    0    0  0.42354944535E+00 -0.16417273816E+01 -0.24468737089E+00  0.17130484049E+01  0.00000000000E+00 0.  1.
</event>
<event>
 8    1  0.5331800E-011  0.9118800E+02  0.7816164E-02  0.1184000E+00
        -11   -1    0    0    0    0  0.00000000000E+00  0.00000000000E+00  0.45593999997E+02  0.45594000000E+02  0.51100000000E-03 0. -1.
         11   -1    0    0    0    0 -0.00000000000E+00 -0.00000000000E+00 -0.45593999997E+02  0.45594000000E+02  0.51100000000E-03 0.  1.
         23    2    1    2    0    0 -0.17763568394E-14  0.35527136788E-14  0.00000000000E+00  0.91188000000E+02  0.91188000000E+02 0.  0.
    9900012    2    3    3    0    0  0.11425899802E+02 -0.22768080795E+02 -0.35138098284E+02  0.47787278342E+02  0.20000033274E+02 0.  0.
         12    1    3    3    0    0 -0.11425899802E+02  0.22768080795E+02  0.35138098284E+02  0.43400721658E+02  0.00000000000E+00 0. -1.
         11    1    4    4    0    0  0.14502819408E+00  0.25782937905E+01 -0.14459590171E+01  0.29596333873E+01  0.51100000000E-03 0. -1.
        -11    1    4    4    0    0  0.65021089899E+01 -0.39177390446E+01 -0.94473847921E+01  0.12119372105E+02  0.51100000000E-03 0.  1.
         12    1    4    4    0    0  0.47787626177E+01 -0.21428635541E+02 -0.24244754475E+02  0.32708272851E+02  0.00000000000E+00 0. -1.
</event>
<event>
 8    1  0.5331800E-011  0.9118800E+02  0.7816164E-02  0.1184000E+00
        -11   -1    0    0    0    0  0.00000000000E+00  0.00000000000E+00  0.45593999997E+02  0.45594000000E+02  0.51100000000E-03 0. -1.
         11   -1    0    0    0    0 -0.00000000000E+00 -0.00000000000E+00 -0.45593999997E+02  0.45594000000E+02  0.51100000000E-03 0.  1.
         23    2    1    2    0    0  0.00000000000E+00  0.00000000000E+00  0.00000000000E+00  0.91188000000E+02  0.91188000000E+02 0.  0.
    9900012    2    3    3    0    0 -0.79989303920E+01  0.41475333261E+02  0.99720375476E+01  0.47787220175E+02  0.19999768065E+02 0.  0.
        -12    1    3    3    0    0  0.79989303920E+01 -0.41475333261E+02 -0.99720375476E+01  0.43400779825E+02  0.00000000000E+00 0.  1.
         11    1    4    4    0    0 -0.70904920383E+00  0.19984186095E+02  0.36206321134E+01  0.20321895134E+02  0.51100000000E-03 0. -1.
        -11    1    4    4    0    0 -0.84949971578E+01  0.69274477896E+01  0.67013349256E+01  0.12847661252E+02  0.51100000000E-03 0.  1.
        -12    1    4    4    0    0  0.12051159696E+01  0.14563699376E+02 -0.34992949142E+00  0.14617663790E+02  0.00000000000E+00 0.  1.
</event>
<event>
 8    1  0.5331800E-011  0.9118800E+02  0.7816164E-02  0.1184000E+00
        -11   -1    0    0    0    0  0.00000000000E+00  0.00000000000E+00  0.45593999997E+02  0.45594000000E+02  0.51100000000E-03 0. -1.
         11   -1    0    0    0    0 -0.00000000000E+00 -0.00000000000E+00 -0.45593999997E+02  0.45594000000E+02  0.51100000000E-03 0.  1.
         23    2    1    2    0    0  0.00000000000E+00  0.00000000000E+00  0.00000000000E+00  0.91188000000E+02  0.91188000000E+02 0.  0.
    9900012    2    3    3    0    0  0.21925030244E+01 -0.32219478818E+02  0.28995191388E+02  0.47787274103E+02  0.20000013944E+02 0.  0.
        -12    1    3    3    0    0 -0.21925030244E+01  0.32219478818E+02 -0.28995191388E+02  0.43400725897E+02  0.00000000000E+00 0.  1.
         11    1    4    4    0    0  0.18976613836E+01 -0.24203782711E+02  0.17117349052E+02  0.29705687251E+02  0.51100000000E-03 0. -1.
        -11    1    4    4    0    0 -0.20132822358E+01 -0.34289200191E+00 -0.14680792177E+01  0.25151813327E+01  0.51100000000E-03 0.  1.
         12    1    4    4    0    0  0.23081238765E+01 -0.76728041048E+01  0.13345921554E+02  0.15566405519E+02  0.00000000000E+00 0. -1.
</event>
<event>
 8    1  0.5331800E-011  0.9118800E+02  0.7816164E-02  0.1184000E+00
        -11   -1    0    0    0    0  0.00000000000E+00  0.00000000000E+00  0.45593999997E+02  0.45594000000E+02  0.51100000000E-03 0. -1.
         11   -1    0    0    0    0 -0.00000000000E+00 -0.00000000000E+00 -0.45593999997E+02  0.45594000000E+02  0.51100000000E-03 0.  1.
         23    2    1    2    0    0  0.00000000000E+00 -0.71054273576E-14  0.00000000000E+00  0.91188000000E+02  0.91188000000E+02 0.  0.
    9900012    2    3    3    0    0 -0.90953490637E+01  0.33207289936E+02  0.26422976379E+02  0.47787272354E+02  0.20000005973E+02 0.  0.
        -12    1    3    3    0    0  0.90953490637E+01 -0.33207289936E+02 -0.26422976379E+02  0.43400727646E+02  0.00000000000E+00 0.  1.
         11    1    4    4    0    0  0.15772785877E+01  0.19702962032E+01  0.10218842382E+00  0.25259290581E+01  0.51100000000E-03 0.  1.
        -11    1    4    4    0    0 -0.57881069075E+01  0.20536608336E+02  0.66624733126E+01  0.22352695909E+02  0.51100000000E-03 0. -1.
        -12    1    4    4    0    0 -0.48845207439E+01  0.10700385397E+02  0.19658314642E+02  0.22908647387E+02  0.00000000000E+00 0.  1.
</event>
<event>
 8    1  0.8895215E-011  0.9118800E+02  0.7816164E-02  0.1184000E+00
        -11   -1    0    0    0    0  0.00000000000E+00  0.00000000000E+00  0.45593999997E+02  0.45594000000E+02  0.51100000000E-03 0. -1.
         11   -1    0    0    0    0 -0.00000000000E+00 -0.00000000000E+00 -0.45593999997E+02  0.45594000000E+02  0.51100000000E-03 0.  1.
         23    2    1    2    0    0  0.88817841970E-15 -0.13322676296E-14  0.00000000000E+00  0.91188000000E+02  0.91188000000E+02 0.  0.
    9900012    2    3    3    0    0 -0.62195798604E+01  0.31667335798E+01  0.42835873825E+02  0.47787268882E+02  0.19999990141E+02 0.  0.
        -12    1    3    3    0    0  0.62195798604E+01 -0.31667335798E+01 -0.42835873825E+02  0.43400731118E+02  0.00000000000E+00 0.  1.
         11    1    4    4    0    0 -0.53304069152E+01  0.29690711157E+01  0.36204605699E+02  0.36715148036E+02  0.51100000000E-03 0. -1.
        -11    1    4    4    0    0 -0.16074010757E+01 -0.32950546755E+01  0.14351407602E+00  0.36690216794E+01  0.51100000000E-03 0.  1.
        -12    1    4    4    0    0  0.71822813047E+00  0.34927171397E+01  0.64877540497E+01  0.74030991669E+01  0.00000000000E+00 0.  1.
</event>
<event>
 8    1  0.5331800E-011  0.9118800E+02  0.7816164E-02  0.1184000E+00
        -11   -1    0    0    0    0  0.00000000000E+00  0.00000000000E+00  0.45593999997E+02  0.45594000000E+02  0.51100000000E-03 0. -1.
         11   -1    0    0    0    0 -0.00000000000E+00 -0.00000000000E+00 -0.45593999997E+02  0.45594000000E+02  0.51100000000E-03 0.  1.
         23    2    1    2    0    0  0.00000000000E+00 -0.17763568394E-14  0.00000000000E+00  0.91188000000E+02  0.91188000000E+02 0.  0.
    9900012    2    3    3    0    0  0.17900110852E+01 -0.12699462369E+02  0.41462546225E+02  0.47787271623E+02  0.20000002639E+02 0.  0.
        -12    1    3    3    0    0 -0.17900110852E+01  0.12699462369E+02 -0.41462546225E+02  0.43400728377E+02  0.00000000000E+00 0.  1.
         11    1    4    4    0    0 -0.99659697073E+00 -0.37501530133E+01  0.26489975560E+02  0.26772666258E+02  0.51100000000E-03 0. -1.
        -11    1    4    4    0    0  0.20357774956E+01  0.20009708408E+01  0.57744366626E+00  0.29123385391E+01  0.51100000000E-03 0.  1.
        -12    1    4    4    0    0  0.75083056037E+00 -0.10950280197E+02  0.14395126999E+02  0.18102266826E+02  0.00000000000E+00 0.  1.
</event>
<event>
 8    1  0.5331800E-011  0.9118800E+02  0.7816164E-02  0.1184000E+00
        -11   -1    0    0    0    0  0.00000000000E+00  0.00000000000E+00  0.45593999997E+02  0.45594000000E+02  0.51100000000E-03 0. -1.
         11   -1    0    0    0    0 -0.00000000000E+00 -0.00000000000E+00 -0.45593999997E+02  0.45594000000E+02  0.51100000000E-03 0.  1.
         23    2    1    2    0    0 -0.35527136788E-14  0.35527136788E-14 -0.35527136788E-14  0.91188000000E+02  0.91188000000E+02 0.  0.
    9900012    2    3    3    0    0 -0.17993794611E+02  0.28029937077E+02 -0.27823947001E+02  0.47787239134E+02  0.19999854508E+02 0.  0.
         12    1    3    3    0    0  0.17993794611E+02 -0.28029937077E+02  0.27823947001E+02  0.43400760866E+02  0.00000000000E+00 0. -1.
         11    1    4    4    0    0 -0.14510516958E+01  0.26699188034E+00  0.23206599170E+01  0.27499633451E+01  0.51100000000E-03 0. -1.
        -11    1    4    4    0    0 -0.90679782475E+01  0.17136766278E+02 -0.23434210619E+02  0.30414786134E+02  0.51100000000E-03 0.  1.
        -12    1    4    4    0    0 -0.74747646675E+01  0.10626178918E+02 -0.67103962992E+01  0.14622489655E+02  0.00000000000E+00 0.  1.
</event>
<event>
 8    1  0.5331800E-011  0.9118800E+02  0.7816164E-02  0.1184000E+00
        -11   -1    0    0    0    0  0.00000000000E+00  0.00000000000E+00  0.45593999997E+02  0.45594000000E+02  0.51100000000E-03 0.  1.
         11   -1    0    0    0    0 -0.00000000000E+00 -0.00000000000E+00 -0.45593999997E+02  0.45594000000E+02  0.51100000000E-03 0. -1.
         23    2    1    2    0    0 -0.35527136788E-14  0.00000000000E+00  0.35527136788E-14  0.91188000000E+02  0.91188000000E+02 0.  0.
    9900012    2    3    3    0    0  0.30693626312E+02 -0.23822588492E+02  0.19339216417E+02  0.47787312099E+02  0.20000187184E+02 0.  0.
        -12    1    3    3    0    0 -0.30693626312E+02  0.23822588492E+02 -0.19339216417E+02  0.43400687901E+02  0.00000000000E+00 0.  1.
         11    1    4    4    0    0  0.24990240526E+00 -0.11399797331E+01 -0.20583822656E+01  0.23662085319E+01  0.51100000000E-03 0.  1.
        -11    1    4    4    0    0  0.42753107439E+00  0.14342299138E+01  0.13243490807E+01  0.19984241326E+01  0.51100000000E-03 0. -1.
         12    1    4    4    0    0  0.30016192832E+02 -0.24116838673E+02  0.20073249602E+02  0.43422679435E+02  0.00000000000E+00 0. -1.
</event>
<event>
 8    1  0.5331800E-011  0.9118800E+02  0.7816164E-02  0.1184000E+00
        -11   -1    0    0    0    0  0.00000000000E+00  0.00000000000E+00  0.45593999997E+02  0.45594000000E+02  0.51100000000E-03 0. -1.
         11   -1    0    0    0    0 -0.00000000000E+00 -0.00000000000E+00 -0.45593999997E+02  0.45594000000E+02  0.51100000000E-03 0.  1.
         23    2    1    2    0    0  0.00000000000E+00  0.00000000000E+00  0.00000000000E+00  0.91188000000E+02  0.91188000000E+02 0.  0.
    9900012    2    3    3    0    0  0.61773423027E+01  0.24383905987E+02  0.35367927089E+02  0.47787254665E+02  0.19999925317E+02 0.  0.
        -12    1    3    3    0    0 -0.61773423027E+01 -0.24383905987E+02 -0.35367927089E+02  0.43400745335E+02  0.00000000000E+00 0.  1.
         11    1    4    4    0    0  0.24211974647E+01  0.20820250686E+02  0.31394226399E+02  0.37748410394E+02  0.51100000000E-03 0. -1.
        -11    1    4    4    0    0  0.22099279215E+00 -0.22630331442E+00 -0.20603830153E+01  0.20845213924E+01  0.51100000000E-03 0.  1.
        -12    1    4    4    0    0  0.35351520459E+01  0.37899586156E+01  0.60340837052E+01  0.79543228786E+01  0.00000000000E+00 0.  1.
</event>
<event>
 8    1  0.5331800E-011  0.9118800E+02  0.7816164E-02  0.1184000E+00
        -11   -1    0    0    0    0  0.00000000000E+00  0.00000000000E+00  0.45593999997E+02  0.45594000000E+02  0.51100000000E-03 0. -1.
         11   -1    0    0    0    0 -0.00000000000E+00 -0.00000000000E+00 -0.45593999997E+02  0.45594000000E+02  0.51100000000E-03 0.  1.
         23    2    1    2    0    0  0.00000000000E+00 -0.35527136788E-14  0.00000000000E+00  0.91188000000E+02  0.91188000000E+02 0.  0.
    9900012    2    3    3    0    0 -0.15311964618E+02  0.22384566230E+02 -0.33883597544E+02  0.47787271339E+02  0.20000001342E+02 0.  0.
         12    1    3    3    0    0  0.15311964618E+02 -0.22384566230E+02  0.33883597544E+02  0.43400728661E+02  0.00000000000E+00 0. -1.
         11    1    4    4    0    0 -0.10659638045E+02  0.29239664716E+01 -0.83552985720E+01  0.13855990678E+02  0.51100000000E-03 0. -1.
        -11    1    4    4    0    0 -0.53559638519E+01  0.40590801123E+01 -0.10006283452E+02  0.12053555033E+02  0.51100000000E-03 0.  1.
         12    1    4    4    0    0  0.70363727928E+00  0.15401519646E+02 -0.15522015520E+02  0.21877725628E+02  0.00000000000E+00 0. -1.
</event>
<event>
 8    1  0.5331800E-011  0.9118800E+02  0.7816164E-02  0.1184000E+00
        -11   -1    0    0    0    0  0.00000000000E+00  0.00000000000E+00  0.45593999997E+02  0.45594000000E+02  0.51100000000E-03 0. -1.
         11   -1    0    0    0    0 -0.00000000000E+00 -0.00000000000E+00 -0.45593999997E+02  0.45594000000E+02  0.51100000000E-03 0.  1.
         23    2    1    2    0    0 -0.17763568394E-14  0.00000000000E+00  0.00000000000E+00  0.91188000000E+02  0.91188000000E+02 0.  0.
    9900012    2    3    3    0    0 -0.15818632062E+02 -0.21775255703E+02  0.34047502906E+02  0.47787270336E+02  0.19999996771E+02 0.  0.
        -12    1    3    3    0    0  0.15818632062E+02  0.21775255703E+02 -0.34047502906E+02  0.43400729664E+02  0.00000000000E+00 0.  1.
         11    1    4    4    0    0 -0.62444829036E+01 -0.10423116374E+02  0.70718179600E+01  0.14058646137E+02  0.51100000000E-03 0. -1.
        -11    1    4    4    0    0 -0.81255188045E+01  0.65427216710E+00  0.11062539888E+02  0.13741612603E+02  0.51100000000E-03 0.  1.
        -12    1    4    4    0    0 -0.14486303542E+01 -0.12006411496E+02  0.15913145058E+02  0.19987011596E+02  0.00000000000E+00 0.  1.
</event>
<event>
 8    1  0.6386856E-011  0.9118800E+02  0.7816164E-02  0.1184000E+00
        -11   -1    0    0    0    0  0.00000000000E+00  0.00000000000E+00  0.45593999997E+02  0.45594000000E+02  0.51100000000E-03 0. -1.
         11   -1    0    0    0    0 -0.00000000000E+00 -0.00000000000E+00 -0.45593999997E+02  0.45594000000E+02  0.51100000000E-03 0.  1.
         23    2    1    2    0    0  0.00000000000E+00  0.00000000000E+00  0.00000000000E+00  0.91188000000E+02  0.91188000000E+02 0.  0.
    9900012    2    3    3    0    0  0.16066007070E+02 -0.11523687651E+02 -0.38635621624E+02  0.47787271682E+02  0.20000002907E+02 0.  0.
         12    1    3    3    0    0 -0.16066007070E+02  0.11523687651E+02  0.38635621624E+02  0.43400728318E+02  0.00000000000E+00 0. -1.
         11    1    4    4    0    0  0.19557159659E+01 -0.32345354781E+01 -0.11258131898E+01  0.39439194081E+01  0.51100000000E-03 0. -1.
        -11    1    4    4    0    0  0.83335645238E+00 -0.92675561740E+01 -0.17279994328E+02  0.19626010411E+02  0.51100000000E-03 0.  1.
        -12    1    4    4    0    0  0.13276934652E+02  0.97840400095E+00 -0.20229814106E+02  0.24217341863E+02  0.00000000000E+00 0.  1.
</event>
<event>
 8    1  0.5331800E-011  0.9118800E+02  0.7816164E-02  0.1184000E+00
        -11   -1    0    0    0    0  0.00000000000E+00  0.00000000000E+00  0.45593999997E+02  0.45594000000E+02  0.51100000000E-03 0. -1.
         11   -1    0    0    0    0 -0.00000000000E+00 -0.00000000000E+00 -0.45593999997E+02  0.45594000000E+02  0.51100000000E-03 0.  1.
         23    2    1    2    0    0 -0.66613381478E-15  0.00000000000E+00  0.00000000000E+00  0.91188000000E+02  0.91188000000E+02 0.  0.
    9900012    2    3    3    0    0  0.13484518464E+01 -0.52007656831E+01  0.43066888063E+02  0.47787272661E+02  0.20000007372E+02 0.  0.
        -12    1    3    3    0    0 -0.13484518464E+01  0.52007656831E+01 -0.43066888063E+02  0.43400727339E+02  0.00000000000E+00 0.  1.
         11    1    4    4    0    0  0.73718446427E+01 -0.23046214476E+01  0.18273696397E+02  0.19838935297E+02  0.51100000000E-03 0. -1.
        -11    1    4    4    0    0 -0.59804969606E+01 -0.34766620667E+01  0.25840343627E+02  0.26750268822E+02  0.51100000000E-03 0.  1.
        -12    1    4    4    0    0 -0.42895835760E-01  0.58051783115E+00 -0.10471519602E+01  0.11980685426E+01  0.00000000000E+00 0.  1.
</event>
<event>
 8    1  0.5331800E-011  0.9118800E+02  0.7816164E-02  0.1184000E+00
        -11   -1    0    0    0    0  0.00000000000E+00  0.00000000000E+00  0.45593999997E+02  0.45594000000E+02  0.51100000000E-03 0. -1.
         11   -1    0    0    0    0 -0.00000000000E+00 -0.00000000000E+00 -0.45593999997E+02  0.45594000000E+02  0.51100000000E-03 0.  1.
         23    2    1    2    0    0  0.00000000000E+00  0.00000000000E+00  0.00000000000E+00  0.91188000000E+02  0.91188000000E+02 0.  0.
    9900012    2    3    3    0    0 -0.35091626519E+01  0.37802329992E+02  0.21030756287E+02  0.47787273216E+02  0.20000009902E+02 0.  0.
        -12    1    3    3    0    0  0.35091626519E+01 -0.37802329992E+02 -0.21030756287E+02  0.43400726784E+02  0.00000000000E+00 0.  1.
         11    1    4    4    0    0  0.35459950682E+01  0.78189682353E+01  0.88917193064E+01  0.12360138259E+02  0.51100000000E-03 0. -1.
        -11    1    4    4    0    0 -0.45230261145E+01  0.57458574064E+01 -0.15516832759E+01  0.74753169710E+01  0.51100000000E-03 0.  1.
        -12    1    4    4    0    0 -0.25321316056E+01  0.24237504351E+02  0.13690720256E+02  0.27951817986E+02  0.00000000000E+00 0.  1.
</event>
<event>
 8    1  0.5331800E-011  0.9118800E+02  0.7816164E-02  0.1184000E+00
        -11   -1    0    0    0    0  0.00000000000E+00  0.00000000000E+00  0.45593999997E+02  0.45594000000E+02  0.51100000000E-03 0. -1.
         11   -1    0    0    0    0 -0.00000000000E+00 -0.00000000000E+00 -0.45593999997E+02  0.45594000000E+02  0.51100000000E-03 0.  1.
         23    2    1    2    0    0 -0.15543122345E-14  0.00000000000E+00  0.00000000000E+00  0.91188000000E+02  0.91188000000E+02 0.  0.
    9900012    2    3    3    0    0  0.11590209213E+01 -0.15087742632E+02 -0.40677266763E+02  0.47787270300E+02  0.19999996604E+02 0.  0.
         12    1    3    3    0    0 -0.11590209213E+01  0.15087742632E+02  0.40677266763E+02  0.43400729700E+02  0.00000000000E+00 0. -1.
         11    1    4    4    0    0  0.11593834452E+01 -0.21731791480E+01 -0.27568472386E+01  0.36969020193E+01  0.51100000000E-03 0.  1.
        -11    1    4    4    0    0  0.74485611281E+01 -0.76925661548E+01 -0.97290390257E+01  0.14467578842E+02  0.51100000000E-03 0. -1.
        -12    1    4    4    0    0 -0.74489236520E+01 -0.52219973297E+01 -0.28191380499E+02  0.29622789438E+02  0.00000000000E+00 0.  1.
</event>
<event>
 8    1  0.5331800E-011  0.9118800E+02  0.7816164E-02  0.1184000E+00
        -11   -1    0    0    0    0  0.00000000000E+00  0.00000000000E+00  0.45593999997E+02  0.45594000000E+02  0.51100000000E-03 0. -1.
         11   -1    0    0    0    0 -0.00000000000E+00 -0.00000000000E+00 -0.45593999997E+02  0.45594000000E+02  0.51100000000E-03 0.  1.
         23    2    1    2    0    0  0.17763568394E-14  0.35527136788E-14  0.00000000000E+00  0.91188000000E+02  0.91188000000E+02 0.  0.
    9900012    2    3    3    0    0 -0.11535247335E+02 -0.24602749407E+02 -0.33841771875E+02  0.47787277275E+02  0.20000028407E+02 0.  0.
         12    1    3    3    0    0  0.11535247335E+02  0.24602749407E+02  0.33841771875E+02  0.43400722725E+02  0.00000000000E+00 0. -1.
         11    1    4    4    0    0  0.21907275264E+00 -0.63035169492E+01 -0.15669093769E+02  0.16890909348E+02  0.51100000000E-03 0. -1.
        -11    1    4    4    0    0 -0.38446167992E+01 -0.11324570626E+02 -0.16250778749E+02  0.20177085726E+02  0.51100000000E-03 0.  1.
         12    1    4    4    0    0 -0.79097032880E+01 -0.69746618318E+01 -0.19218993573E+01  0.10719282201E+02  0.00000000000E+00 0. -1.
</event>
<event>
 8    1  0.5331800E-011  0.9118800E+02  0.7816164E-02  0.1184000E+00
        -11   -1    0    0    0    0  0.00000000000E+00  0.00000000000E+00  0.45593999997E+02  0.45594000000E+02  0.51100000000E-03 0. -1.
         11   -1    0    0    0    0 -0.00000000000E+00 -0.00000000000E+00 -0.45593999997E+02  0.45594000000E+02  0.51100000000E-03 0.  1.
         23    2    1    2    0    0  0.00000000000E+00  0.00000000000E+00  0.17763568394E-14  0.91188000000E+02  0.91188000000E+02 0.  0.
    9900012    2    3    3    0    0 -0.33301073927E+02 -0.23236917809E+02  0.15320254971E+02  0.47787238644E+02  0.19999852271E+02 0.  0.
        -12    1    3    3    0    0  0.33301073927E+02  0.23236917809E+02 -0.15320254971E+02  0.43400761356E+02  0.00000000000E+00 0.  1.
         11    1    4    4    0    0 -0.45406733780E+01  0.14310634455E+00  0.44865868780E+01  0.63849554600E+01  0.51100000000E-03 0. -1.
        -11    1    4    4    0    0 -0.19843997868E+02 -0.23368438416E+02  0.59269410866E+01  0.31224938692E+02  0.51100000000E-03 0.  1.
        -12    1    4    4    0    0 -0.89164026806E+01 -0.11585737602E-01  0.49067270064E+01  0.10177344492E+02  0.00000000000E+00 0.  1.
</event>
<event>
 8    1  0.5331800E-011  0.9118800E+02  0.7816164E-02  0.1184000E+00
        -11   -1    0    0    0    0  0.00000000000E+00  0.00000000000E+00  0.45593999997E+02  0.45594000000E+02  0.51100000000E-03 0. -1.
         11   -1    0    0    0    0 -0.00000000000E+00 -0.00000000000E+00 -0.45593999997E+02  0.45594000000E+02  0.51100000000E-03 0.  1.
         23    2    1    2    0    0  0.00000000000E+00  0.00000000000E+00  0.00000000000E+00  0.91188000000E+02  0.91188000000E+02 0.  0.
    9900012    2    3    3    0    0 -0.77227000634E+01  0.19038312700E+02 -0.38229907101E+02  0.47787271392E+02  0.20000001587E+02 0.  0.
         12    1    3    3    0    0  0.77227000634E+01 -0.19038312700E+02  0.38229907101E+02  0.43400728608E+02  0.00000000000E+00 0. -1.
         11    1    4    4    0    0 -0.12257722114E+02  0.11818190535E+02 -0.17718305551E+02  0.24573557553E+02  0.51100000000E-03 0. -1.
        -11    1    4    4    0    0  0.37498520837E+01  0.79373502893E+01 -0.20317280770E+02  0.22132664060E+02  0.51100000000E-03 0.  1.
         12    1    4    4    0    0  0.78516996715E+00 -0.71722812437E+00 -0.19432078019E+00  0.10810497793E+01  0.00000000000E+00 0. -1.
</event>
<event>
 8    1  0.5331800E-011  0.9118800E+02  0.7816164E-02  0.1184000E+00
        -11   -1    0    0    0    0  0.00000000000E+00  0.00000000000E+00  0.45593999997E+02  0.45594000000E+02  0.51100000000E-03 0. -1.
         11   -1    0    0    0    0 -0.00000000000E+00 -0.00000000000E+00 -0.45593999997E+02  0.45594000000E+02  0.51100000000E-03 0.  1.
         23    2    1    2    0    0  0.00000000000E+00  0.44408920985E-15  0.00000000000E+00  0.91188000000E+02  0.91188000000E+02 0.  0.
    9900012    2    3    3    0    0  0.93472508826E+00 -0.35585961993E+01  0.43244483278E+02  0.47787278210E+02  0.20000032670E+02 0.  0.
        -12    1    3    3    0    0 -0.93472508826E+00  0.35585961993E+01 -0.43244483278E+02  0.43400721790E+02  0.00000000000E+00 0.  1.
         11    1    4    4    0    0  0.81573635378E+01 -0.75330364957E+00  0.15756908155E+02  0.17759228619E+02  0.51100000000E-03 0.  1.
        -11    1    4    4    0    0 -0.81706338859E+01 -0.50471583385E+01  0.20763457215E+02  0.22876936446E+02  0.51100000000E-03 0. -1.
        -12    1    4    4    0    0  0.94799543638E+00  0.22418657888E+01  0.67241179078E+01  0.71511131441E+01  0.00000000000E+00 0.  1.
</event>
<event>
 8    1  0.5331800E-011  0.9118800E+02  0.7816164E-02  0.1184000E+00
        -11   -1    0    0    0    0  0.00000000000E+00  0.00000000000E+00  0.45593999997E+02  0.45594000000E+02  0.51100000000E-03 0. -1.
         11   -1    0    0    0    0 -0.00000000000E+00 -0.00000000000E+00 -0.45593999997E+02  0.45594000000E+02  0.51100000000E-03 0.  1.
         23    2    1    2    0    0 -0.35527136788E-14  0.00000000000E+00  0.00000000000E+00  0.91188000000E+02  0.91188000000E+02 0.  0.
    9900012    2    3    3    0    0 -0.28060358096E+02  0.21295177510E+02  0.25352610753E+02  0.47787272429E+02  0.20000006315E+02 0.  0.
        -12    1    3    3    0    0  0.28060358096E+02 -0.21295177510E+02 -0.25352610753E+02  0.43400727571E+02  0.00000000000E+00 0.  1.
         11    1    4    4    0    0 -0.14131986979E+02  0.34976807364E+01  0.48001592623E+01  0.15329329918E+02  0.51100000000E-03 0. -1.
        -11    1    4    4    0    0 -0.51897894272E+01  0.41750698542E+01  0.48633306649E+00  0.66784461291E+01  0.51100000000E-03 0.  1.
         12    1    4    4    0    0 -0.87385816890E+01  0.13622426920E+02  0.20066118424E+02  0.25779496383E+02  0.00000000000E+00 0. -1.
</event>
<event>
 8    1  0.5331800E-011  0.9118800E+02  0.7816164E-02  0.1184000E+00
        -11   -1    0    0    0    0  0.00000000000E+00  0.00000000000E+00  0.45593999997E+02  0.45594000000E+02  0.51100000000E-03 0. -1.
         11   -1    0    0    0    0 -0.00000000000E+00 -0.00000000000E+00 -0.45593999997E+02  0.45594000000E+02  0.51100000000E-03 0.  1.
         23    2    1    2    0    0  0.00000000000E+00  0.00000000000E+00  0.00000000000E+00  0.91188000000E+02  0.91188000000E+02 0.  0.
    9900012    2    3    3    0    0 -0.11254624810E+02 -0.10863176068E+02 -0.40483924670E+02  0.47787270391E+02  0.19999997022E+02 0.  0.
         12    1    3    3    0    0  0.11254624810E+02  0.10863176068E+02  0.40483924670E+02  0.43400729609E+02  0.00000000000E+00 0. -1.
         11    1    4    4    0    0 -0.12094318874E+02 -0.44586002686E+01 -0.14781676142E+02  0.19612486207E+02  0.51100000000E-03 0. -1.
        -11    1    4    4    0    0 -0.30694773679E+01 -0.16261482068E+01 -0.28196547080E+01  0.44739805806E+01  0.51100000000E-03 0.  1.
         12    1    4    4    0    0  0.39091714324E+01 -0.47784275928E+01 -0.22882593820E+02  0.23700803604E+02  0.00000000000E+00 0. -1.
</event>
<event>
 8    1  0.5331800E-011  0.9118800E+02  0.7816164E-02  0.1184000E+00
        -11   -1    0    0    0    0  0.00000000000E+00  0.00000000000E+00  0.45593999997E+02  0.45594000000E+02  0.51100000000E-03 0.  1.
         11   -1    0    0    0    0 -0.00000000000E+00 -0.00000000000E+00 -0.45593999997E+02  0.45594000000E+02  0.51100000000E-03 0. -1.
         23    2    1    2    0    0  0.00000000000E+00 -0.71054273576E-14  0.00000000000E+00  0.91188000000E+02  0.91188000000E+02 0.  0.
    9900012    2    3    3    0    0  0.15623681533E+02 -0.37203304154E+02 -0.15982434332E+02  0.47787268764E+02  0.19999989602E+02 0.  0.
        -12    1    3    3    0    0 -0.15623681533E+02  0.37203304154E+02  0.15982434332E+02  0.43400731236E+02  0.00000000000E+00 0.  1.
         11    1    4    4    0    0  0.37626202080E+01 -0.18546671375E+02 -0.88238084833E+01  0.20880515471E+02  0.51100000000E-03 0. -1.
        -11    1    4    4    0    0  0.75743504244E+01 -0.13486932838E+01 -0.25874809896E-02  0.76934884728E+01  0.51100000000E-03 0.  1.
        -12    1    4    4    0    0  0.42867109009E+01 -0.17307939496E+02 -0.71560383678E+01  0.19213264820E+02  0.00000000000E+00 0.  1.
</event>
<event>
 8    1  0.5331800E-011  0.9118800E+02  0.7816164E-02  0.1184000E+00
        -11   -1    0    0    0    0  0.00000000000E+00  0.00000000000E+00  0.45593999997E+02  0.45594000000E+02  0.51100000000E-03 0. -1.
         11   -1    0    0    0    0 -0.00000000000E+00 -0.00000000000E+00 -0.45593999997E+02  0.45594000000E+02  0.51100000000E-03 0.  1.
         23    2    1    2    0    0  0.00000000000E+00  0.00000000000E+00  0.00000000000E+00  0.91188000000E+02  0.91188000000E+02 0.  0.
    9900012    2    3    3    0    0 -0.33103034218E+02 -0.17638632732E+02  0.21833257652E+02  0.47787269836E+02  0.19999994490E+02 0.  0.
        -12    1    3    3    0    0  0.33103034218E+02  0.17638632732E+02 -0.21833257652E+02  0.43400730164E+02  0.00000000000E+00 0.  1.
         11    1    4    4    0    0 -0.17299026741E+01  0.15215598258E+01  0.38601563872E+01  0.44953882102E+01  0.51100000000E-03 0. -1.
        -11    1    4    4    0    0 -0.22665533860E+02 -0.16134428936E+02  0.64939841197E+01  0.28569530137E+02  0.51100000000E-03 0.  1.
        -12    1    4    4    0    0 -0.87075976835E+01 -0.30257636217E+01  0.11479117146E+02  0.14722351489E+02  0.00000000000E+00 0.  1.
</event>
<event>
 8    1  0.5331800E-011  0.9118800E+02  0.7816164E-02  0.1184000E+00
        -11   -1    0    0    0    0  0.00000000000E+00  0.00000000000E+00  0.45593999997E+02  0.45594000000E+02  0.51100000000E-03 0. -1.
         11   -1    0    0    0    0 -0.00000000000E+00 -0.00000000000E+00 -0.45593999997E+02  0.45594000000E+02  0.51100000000E-03 0.  1.
         23    2    1    2    0    0  0.88817841970E-15  0.00000000000E+00  0.14210854715E-13  0.91188000000E+02  0.91188000000E+02 0.  0.
    9900012    2    3    3    0    0 -0.78501369684E+01  0.22602984368E+02 -0.36209165239E+02  0.47787271895E+02  0.20000003879E+02 0.  0.
         12    1    3    3    0    0  0.78501369684E+01 -0.22602984368E+02  0.36209165239E+02  0.43400728105E+02  0.00000000000E+00 0. -1.
         11    1    4    4    0    0 -0.10446493322E+01  0.12983762017E+02 -0.21761887772E+02  0.25362356515E+02  0.51100000000E-03 0. -1.
        -11    1    4    4    0    0 -0.27508354768E+01  0.81783789676E+01 -0.14701370869E+01  0.87529584527E+01  0.51100000000E-03 0.  1.
        -12    1    4    4    0    0 -0.40546521593E+01  0.14408433834E+01 -0.12977140380E+02  0.13671956927E+02  0.00000000000E+00 0.  1.
</event>
<event>
 8    1  0.5331800E-011  0.9118800E+02  0.7816164E-02  0.1184000E+00
        -11   -1    0    0    0    0  0.00000000000E+00  0.00000000000E+00  0.45593999997E+02  0.45594000000E+02  0.51100000000E-03 0. -1.
         11   -1    0    0    0    0 -0.00000000000E+00 -0.00000000000E+00 -0.45593999997E+02  0.45594000000E+02  0.51100000000E-03 0.  1.
         23    2    1    2    0    0  0.00000000000E+00  0.00000000000E+00  0.35527136788E-14  0.91188000000E+02  0.91188000000E+02 0.  0.
    9900012    2    3    3    0    0 -0.21014410049E+02  0.31593271778E+02 -0.21068528433E+02  0.47787272567E+02  0.20000006944E+02 0.  0.
         12    1    3    3    0    0  0.21014410049E+02 -0.31593271778E+02  0.21068528433E+02  0.43400727433E+02  0.00000000000E+00 0. -1.
         11    1    4    4    0    0 -0.92686376023E+01  0.22139643293E+02 -0.72821169649E+01  0.25081879433E+02  0.51100000000E-03 0. -1.
        -11    1    4    4    0    0 -0.46962896141E+01  0.98592498171E+01 -0.74667640272E+01  0.13229229320E+02  0.51100000000E-03 0.  1.
         12    1    4    4    0    0 -0.70494828321E+01 -0.40562133183E+00 -0.63196474414E+01  0.94761638150E+01  0.00000000000E+00 0. -1.
</event>
<event>
 8    1  0.5331800E-011  0.9118800E+02  0.7816164E-02  0.1184000E+00
        -11   -1    0    0    0    0  0.00000000000E+00  0.00000000000E+00  0.45593999997E+02  0.45594000000E+02  0.51100000000E-03 0. -1.
         11   -1    0    0    0    0 -0.00000000000E+00 -0.00000000000E+00 -0.45593999997E+02  0.45594000000E+02  0.51100000000E-03 0.  1.
         23    2    1    2    0    0  0.00000000000E+00 -0.88817841970E-15  0.00000000000E+00  0.91188000000E+02  0.91188000000E+02 0.  0.
    9900012    2    3    3    0    0 -0.21586404831E+02  0.53751525318E+01 -0.37266046504E+02  0.47787270048E+02  0.19999995459E+02 0.  0.
         12    1    3    3    0    0  0.21586404831E+02 -0.53751525318E+01  0.37266046504E+02  0.43400729952E+02  0.00000000000E+00 0. -1.
         11    1    4    4    0    0 -0.12163830890E+02  0.93595991422E+01 -0.15428665457E+02  0.21762458410E+02  0.51100000000E-03 0. -1.
        -11    1    4    4    0    0 -0.71518051429E+01 -0.79646359816E+00 -0.20750273545E+02  0.21962616500E+02  0.51100000000E-03 0.  1.
         12    1    4    4    0    0 -0.22707687976E+01 -0.31879830122E+01 -0.10871075027E+01  0.40621951382E+01  0.00000000000E+00 0. -1.
</event>
<event>
 8    1  0.5331800E-011  0.9118800E+02  0.7816164E-02  0.1184000E+00
        -11   -1    0    0    0    0  0.00000000000E+00  0.00000000000E+00  0.45593999997E+02  0.45594000000E+02  0.51100000000E-03 0.  1.
         11   -1    0    0    0    0 -0.00000000000E+00 -0.00000000000E+00 -0.45593999997E+02  0.45594000000E+02  0.51100000000E-03 0. -1.
         23    2    1    2    0    0 -0.35527136788E-14 -0.35527136788E-14  0.88817841970E-15  0.91188000000E+02  0.91188000000E+02 0.  0.
    9900012    2    3    3    0    0  0.30546710898E+02  0.30315121527E+02 -0.56138278704E+01  0.47787271858E+02  0.20000003711E+02 0.  0.
         12    1    3    3    0    0 -0.30546710898E+02 -0.30315121527E+02  0.56138278704E+01  0.43400728142E+02  0.00000000000E+00 0. -1.
         11    1    4    4    0    0  0.73356929136E+00  0.77529693142E+01 -0.66525411357E+01  0.10242214649E+02  0.51100000000E-03 0. -1.
        -11    1    4    4    0    0  0.19977938430E+02  0.16997547920E+02  0.73382683626E+00  0.26240677607E+02  0.51100000000E-03 0.  1.
         12    1    4    4    0    0  0.98352031765E+01  0.55646042926E+01  0.30488642898E+00  0.11304379602E+02  0.00000000000E+00 0. -1.
</event>
<event>
 8    1  0.5331800E-011  0.9118800E+02  0.7816164E-02  0.1184000E+00
        -11   -1    0    0    0    0  0.00000000000E+00  0.00000000000E+00  0.45593999997E+02  0.45594000000E+02  0.51100000000E-03 0. -1.
         11   -1    0    0    0    0 -0.00000000000E+00 -0.00000000000E+00 -0.45593999997E+02  0.45594000000E+02  0.51100000000E-03 0.  1.
         23    2    1    2    0    0  0.00000000000E+00 -0.35527136788E-14  0.00000000000E+00  0.91188000000E+02  0.91188000000E+02 0.  0.
    9900012    2    3    3    0    0  0.13731255792E+02  0.14009839486E+02  0.38714343081E+02  0.47787270187E+02  0.19999996093E+02 0.  0.
        -12    1    3    3    0    0 -0.13731255792E+02 -0.14009839486E+02 -0.38714343081E+02  0.43400729813E+02  0.00000000000E+00 0.  1.
         11    1    4    4    0    0  0.54179828931E+01 -0.24488390203E+01  0.48027453891E+01  0.76431482198E+01  0.51100000000E-03 0. -1.
        -11    1    4    4    0    0  0.77147883355E+01  0.16601722867E+02  0.34646481888E+02  0.39185633448E+02  0.51100000000E-03 0.  1.
        -12    1    4    4    0    0  0.59848456294E+00 -0.14304436033E+00 -0.73488419602E+00  0.95848851984E+00  0.00000000000E+00 0.  1.
</event>
<event>
 8    1  0.5331800E-011  0.9118800E+02  0.7816164E-02  0.1184000E+00
        -11   -1    0    0    0    0  0.00000000000E+00  0.00000000000E+00  0.45593999997E+02  0.45594000000E+02  0.51100000000E-03 0. -1.
         11   -1    0    0    0    0 -0.00000000000E+00 -0.00000000000E+00 -0.45593999997E+02  0.45594000000E+02  0.51100000000E-03 0.  1.
         23    2    1    2    0    0 -0.35527136788E-14  0.00000000000E+00  0.00000000000E+00  0.91188000000E+02  0.91188000000E+02 0.  0.
    9900012    2    3    3    0    0  0.19353210208E+02 -0.36462492839E+02  0.13400110496E+02  0.47787273154E+02  0.20000009619E+02 0.  0.
        -12    1    3    3    0    0 -0.19353210208E+02  0.36462492839E+02 -0.13400110496E+02  0.43400726846E+02  0.00000000000E+00 0.  1.
         11    1    4    4    0    0  0.65260858330E+01 -0.21983211915E+02  0.14002771526E+02  0.26868736723E+02  0.51100000000E-03 0. -1.
        -11    1    4    4    0    0  0.68525699063E+01 -0.21312443571E+01 -0.59602596623E+00  0.72010529816E+01  0.51100000000E-03 0.  1.
         12    1    4    4    0    0  0.59745544691E+01 -0.12348036567E+02 -0.66350637782E-02  0.13717483450E+02  0.00000000000E+00 0. -1.
</event>
<event>
 8    1  0.5331800E-011  0.9118800E+02  0.7816164E-02  0.1184000E+00
        -11   -1    0    0    0    0  0.00000000000E+00  0.00000000000E+00  0.45593999997E+02  0.45594000000E+02  0.51100000000E-03 0. -1.
         11   -1    0    0    0    0 -0.00000000000E+00 -0.00000000000E+00 -0.45593999997E+02  0.45594000000E+02  0.51100000000E-03 0.  1.
         23    2    1    2    0    0  0.17763568394E-14  0.35527136788E-14  0.00000000000E+00  0.91188000000E+02  0.91188000000E+02 0.  0.
    9900012    2    3    3    0    0 -0.14959803883E+02 -0.23817100757E+02 -0.33054096173E+02  0.47787270807E+02  0.19999998917E+02 0.  0.
         12    1    3    3    0    0  0.14959803883E+02  0.23817100757E+02  0.33054096173E+02  0.43400729193E+02  0.00000000000E+00 0. -1.
         11    1    4    4    0    0 -0.32792135443E+01 -0.19193885075E+02 -0.18163748800E+02  0.26628560541E+02  0.51100000000E-03 0. -1.
        -11    1    4    4    0    0 -0.82957256637E+01 -0.68401773611E+01 -0.12378590205E+02  0.16396236956E+02  0.51100000000E-03 0.  1.
         12    1    4    4    0    0 -0.33848646755E+01  0.22169616788E+01 -0.25117571677E+01  0.47624733097E+01  0.00000000000E+00 0. -1.
</event>
<event>
 8    1  0.5331800E-011  0.9118800E+02  0.7816164E-02  0.1184000E+00
        -11   -1    0    0    0    0  0.00000000000E+00  0.00000000000E+00  0.45593999997E+02  0.45594000000E+02  0.51100000000E-03 0. -1.
         11   -1    0    0    0    0 -0.00000000000E+00 -0.00000000000E+00 -0.45593999997E+02  0.45594000000E+02  0.51100000000E-03 0.  1.
         23    2    1    2    0    0  0.35527136788E-14  0.00000000000E+00 -0.71054273576E-14  0.91188000000E+02  0.91188000000E+02 0.  0.
    9900012    2    3    3    0    0  0.16689855380E+02  0.22184732012E+02 -0.33360279736E+02  0.47787287205E+02  0.20000073680E+02 0.  0.
         12    1    3    3    0    0 -0.16689855380E+02 -0.22184732012E+02  0.33360279736E+02  0.43400712795E+02  0.00000000000E+00 0. -1.
         11    1    4    4    0    0  0.40774054939E+01  0.11447605507E+02 -0.23500482240E+02  0.26456484520E+02  0.51100000000E-03 0. -1.
        -11    1    4    4    0    0  0.11685220446E+02  0.10303568006E+02 -0.49961398813E+01  0.16360602205E+02  0.51100000000E-03 0.  1.
        -12    1    4    4    0    0  0.92722943983E+00  0.43355849940E+00 -0.48636576153E+01  0.49702004794E+01  0.00000000000E+00 0.  1.
</event>
<event>
 8    1  0.5331800E-011  0.9118800E+02  0.7816164E-02  0.1184000E+00
        -11   -1    0    0    0    0  0.00000000000E+00  0.00000000000E+00  0.45593999997E+02  0.45594000000E+02  0.51100000000E-03 0. -1.
         11   -1    0    0    0    0 -0.00000000000E+00 -0.00000000000E+00 -0.45593999997E+02  0.45594000000E+02  0.51100000000E-03 0.  1.
         23    2    1    2    0    0 -0.35527136788E-14  0.00000000000E+00 -0.35527136788E-14  0.91188000000E+02  0.91188000000E+02 0.  0.
    9900012    2    3    3    0    0  0.30849872664E+02 -0.99888321220E+01  0.28846691276E+02  0.47787274106E+02  0.20000013960E+02 0.  0.
        -12    1    3    3    0    0 -0.30849872664E+02  0.99888321220E+01 -0.28846691276E+02  0.43400725894E+02  0.00000000000E+00 0.  1.
         11    1    4    4    0    0  0.20824656820E+01  0.12045404461E+01  0.51939977852E+01  0.57240889456E+01  0.51100000000E-03 0. -1.
        -11    1    4    4    0    0  0.31407935840E+01 -0.44645742073E+01 -0.13610008651E+01  0.56257737962E+01  0.51100000000E-03 0.  1.
        -12    1    4    4    0    0  0.25626613398E+02 -0.67287983608E+01  0.25013694356E+02  0.36437411364E+02  0.00000000000E+00 0.  1.
</event>
<event>
 8    1  0.5331800E-011  0.9118800E+02  0.7816164E-02  0.1184000E+00
        -11   -1    0    0    0    0  0.00000000000E+00  0.00000000000E+00  0.45593999997E+02  0.45594000000E+02  0.51100000000E-03 0. -1.
         11   -1    0    0    0    0 -0.00000000000E+00 -0.00000000000E+00 -0.45593999997E+02  0.45594000000E+02  0.51100000000E-03 0.  1.
         23    2    1    2    0    0 -0.17763568394E-14  0.00000000000E+00  0.71054273576E-14  0.91188000000E+02  0.91188000000E+02 0.  0.
    9900012    2    3    3    0    0  0.13457538553E+02  0.13647176881E+02 -0.38939343876E+02  0.47787270948E+02  0.19999999562E+02 0.  0.
         12    1    3    3    0    0 -0.13457538553E+02 -0.13647176881E+02  0.38939343876E+02  0.43400729052E+02  0.00000000000E+00 0. -1.
         11    1    4    4    0    0 -0.29835124437E+01  0.56240556466E+01 -0.91184635587E+01  0.11121048797E+02  0.51100000000E-03 0. -1.
        -11    1    4    4    0    0  0.16574183673E+02  0.98825291138E+01 -0.25653819071E+02  0.32101189687E+02  0.51100000000E-03 0.  1.
         12    1    4    4    0    0 -0.13313267672E+00 -0.18594078794E+01 -0.41670612462E+01  0.45650324644E+01  0.00000000000E+00 0. -1.
</event>
<event>
 8    1  0.5331800E-011  0.9118800E+02  0.7816164E-02  0.1184000E+00
        -11   -1    0    0    0    0  0.00000000000E+00  0.00000000000E+00  0.45593999997E+02  0.45594000000E+02  0.51100000000E-03 0. -1.
         11   -1    0    0    0    0 -0.00000000000E+00 -0.00000000000E+00 -0.45593999997E+02  0.45594000000E+02  0.51100000000E-03 0.  1.
         23    2    1    2    0    0  0.00000000000E+00  0.00000000000E+00  0.35527136788E-14  0.91188000000E+02  0.91188000000E+02 0.  0.
    9900012    2    3    3    0    0  0.25796426514E+02 -0.16334116054E+02 -0.30844198427E+02  0.47787267924E+02  0.19999985771E+02 0.  0.
         12    1    3    3    0    0 -0.25796426514E+02  0.16334116054E+02  0.30844198427E+02  0.43400732076E+02  0.00000000000E+00 0. -1.
         11    1    4    4    0    0  0.73327714120E+01 -0.24300177890E+01 -0.81699750389E+01  0.11243798977E+02  0.51100000000E-03 0.  1.
        -11    1    4    4    0    0  0.20878038482E+02 -0.10813011524E+02 -0.14899453344E+02  0.27835362748E+02  0.51100000000E-03 0. -1.
        -12    1    4    4    0    0 -0.24143833797E+01 -0.30910867409E+01 -0.77747700435E+01  0.87081061991E+01  0.00000000000E+00 0.  1.
</event>
<event>
 8    1  0.5331800E-011  0.9118800E+02  0.7816164E-02  0.1184000E+00
        -11   -1    0    0    0    0  0.00000000000E+00  0.00000000000E+00  0.45593999997E+02  0.45594000000E+02  0.51100000000E-03 0. -1.
         11   -1    0    0    0    0 -0.00000000000E+00 -0.00000000000E+00 -0.45593999997E+02  0.45594000000E+02  0.51100000000E-03 0.  1.
         23    2    1    2    0    0  0.00000000000E+00  0.00000000000E+00  0.71054273576E-14  0.91188000000E+02  0.91188000000E+02 0.  0.
    9900012    2    3    3    0    0 -0.27924617306E+00  0.25592416601E+02 -0.35051021574E+02  0.47787264070E+02  0.19999968202E+02 0.  0.
         12    1    3    3    0    0  0.27924617306E+00 -0.25592416601E+02  0.35051021574E+02  0.43400735930E+02  0.00000000000E+00 0. -1.
         11    1    4    4    0    0  0.58295491202E+00  0.45325887563E+01  0.95381117859E+00  0.46683994355E+01  0.51100000000E-03 0. -1.
        -11    1    4    4    0    0 -0.23652646874E+00  0.96226370389E+01 -0.26633317572E+02  0.28319334270E+02  0.51100000000E-03 0.  1.
        -12    1    4    4    0    0 -0.62567461634E+00  0.11437190805E+02 -0.93715151805E+01  0.14799530365E+02  0.00000000000E+00 0.  1.
</event>
<event>
 8    1  0.5331800E-011  0.9118800E+02  0.7816164E-02  0.1184000E+00
        -11   -1    0    0    0    0  0.00000000000E+00  0.00000000000E+00  0.45593999997E+02  0.45594000000E+02  0.51100000000E-03 0. -1.
         11   -1    0    0    0    0 -0.00000000000E+00 -0.00000000000E+00 -0.45593999997E+02  0.45594000000E+02  0.51100000000E-03 0.  1.
         23    2    1    2    0    0  0.17763568394E-14  0.88817841970E-15  0.71054273576E-14  0.91188000000E+02  0.91188000000E+02 0.  0.
    9900012    2    3    3    0    0  0.12584249722E+02  0.70500960035E+01  0.40933551561E+02  0.47787276065E+02  0.20000022889E+02 0.  0.
        -12    1    3    3    0    0 -0.12584249722E+02 -0.70500960035E+01 -0.40933551561E+02  0.43400723935E+02  0.00000000000E+00 0.  1.
         11    1    4    4    0    0  0.69962897970E+01  0.11327619406E+00  0.23950477386E+01  0.73957525886E+01  0.51100000000E-03 0.  1.
        -11    1    4    4    0    0  0.74006127248E+01  0.60334549913E+01  0.35327766453E+02  0.36595392205E+02  0.51100000000E-03 0. -1.
        -12    1    4    4    0    0 -0.18126528003E+01  0.90336481807E+00  0.32107373695E+01  0.37961312708E+01  0.00000000000E+00 0.  1.
</event>
<event>
 8    1  0.6981111E-011  0.9118800E+02  0.7816164E-02  0.1184000E+00
        -11   -1    0    0    0    0  0.00000000000E+00  0.00000000000E+00  0.45593999997E+02  0.45594000000E+02  0.51100000000E-03 0. -1.
         11   -1    0    0    0    0 -0.00000000000E+00 -0.00000000000E+00 -0.45593999997E+02  0.45594000000E+02  0.51100000000E-03 0.  1.
         23    2    1    2    0    0 -0.71054273576E-14  0.88817841970E-15 -0.35527136788E-14  0.91188000000E+02  0.91188000000E+02 0.  0.
    9900012    2    3    3    0    0 -0.35567816431E+02  0.41903113305E+01 -0.24515192940E+02  0.47787274665E+02  0.20000016509E+02 0.  0.
         12    1    3    3    0    0  0.35567816431E+02 -0.41903113305E+01  0.24515192940E+02  0.43400725335E+02  0.00000000000E+00 0. -1.
         11    1    4    4    0    0  0.18268876137E+01  0.19294208656E-02 -0.11219423975E+01  0.21438929731E+01  0.51100000000E-03 0. -1.
        -11    1    4    4    0    0 -0.25313398780E+02  0.19119567449E+00 -0.10138728515E+02  0.27269003094E+02  0.51100000000E-03 0.  1.
        -12    1    4    4    0    0 -0.12081305264E+02  0.39971862352E+01 -0.13254522027E+02  0.18374378598E+02  0.00000000000E+00 0.  1.
</event>
<event>
 8    1  0.5331800E-011  0.9118800E+02  0.7816164E-02  0.1184000E+00
        -11   -1    0    0    0    0  0.00000000000E+00  0.00000000000E+00  0.45593999997E+02  0.45594000000E+02  0.51100000000E-03 0.  1.
         11   -1    0    0    0    0 -0.00000000000E+00 -0.00000000000E+00 -0.45593999997E+02  0.45594000000E+02  0.51100000000E-03 0. -1.
         23    2    1    2    0    0  0.00000000000E+00  0.00000000000E+00 -0.88817841970E-15  0.91188000000E+02  0.91188000000E+02 0.  0.
    9900012    2    3    3    0    0  0.38986141413E+02  0.17583662545E+02 -0.73836813160E+01  0.47787272350E+02  0.20000005952E+02 0.  0.
         12    1    3    3    0    0 -0.38986141413E+02 -0.17583662545E+02  0.73836813160E+01  0.43400727650E+02  0.00000000000E+00 0. -1.
         11    1    4    4    0    0  0.55783823283E+01  0.57242549147E+01 -0.81990922189E+01  0.11450351838E+02  0.51100000000E-03 0. -1.
        -11    1    4    4    0    0  0.29107266905E+02  0.10268004964E+02 -0.20441034463E+01  0.30932883341E+02  0.51100000000E-03 0.  1.
         12    1    4    4    0    0  0.43004921794E+01  0.15914026665E+01  0.28595143492E+01  0.54040371710E+01  0.00000000000E+00 0. -1.
</event>
<event>
 8    1  0.5331800E-011  0.9118800E+02  0.7816164E-02  0.1184000E+00
        -11   -1    0    0    0    0  0.00000000000E+00  0.00000000000E+00  0.45593999997E+02  0.45594000000E+02  0.51100000000E-03 0. -1.
         11   -1    0    0    0    0 -0.00000000000E+00 -0.00000000000E+00 -0.45593999997E+02  0.45594000000E+02  0.51100000000E-03 0.  1.
         23    2    1    2    0    0  0.00000000000E+00  0.00000000000E+00 -0.35527136788E-14  0.91188000000E+02  0.91188000000E+02 0.  0.
    9900012    2    3    3    0    0  0.29156478996E+02  0.70925880475E+01 -0.31356307931E+02  0.47787272820E+02  0.20000008096E+02 0.  0.
         12    1    3    3    0    0 -0.29156478996E+02 -0.70925880475E+01  0.31356307931E+02  0.43400727180E+02  0.00000000000E+00 0. -1.
         11    1    4    4    0    0  0.24189378855E+01  0.53108543042E+01 -0.10151939451E+02  0.11709752722E+02  0.51100000000E-03 0. -1.
        -11    1    4    4    0    0  0.17631065528E+02 -0.44053504193E+01 -0.13553677382E+02  0.22670768730E+02  0.51100000000E-03 0.  1.
         12    1    4    4    0    0  0.91064755829E+01  0.61870841625E+01 -0.76506910981E+01  0.13406751368E+02  0.00000000000E+00 0. -1.
</event>
<event>
 8    1  0.5331800E-011  0.9118800E+02  0.7816164E-02  0.1184000E+00
        -11   -1    0    0    0    0  0.00000000000E+00  0.00000000000E+00  0.45593999997E+02  0.45594000000E+02  0.51100000000E-03 0. -1.
         11   -1    0    0    0    0 -0.00000000000E+00 -0.00000000000E+00 -0.45593999997E+02  0.45594000000E+02  0.51100000000E-03 0.  1.
         23    2    1    2    0    0 -0.17763568394E-14  0.88817841970E-15  0.00000000000E+00  0.91188000000E+02  0.91188000000E+02 0.  0.
    9900012    2    3    3    0    0 -0.92941285587E+01 -0.32414798782E+01 -0.42269798136E+02  0.47787264385E+02  0.19999969639E+02 0.  0.
         12    1    3    3    0    0  0.92941285587E+01  0.32414798782E+01  0.42269798136E+02  0.43400735615E+02  0.00000000000E+00 0. -1.
         11    1    4    4    0    0  0.30412639227E+01  0.74539513525E+00 -0.36673245503E+01  0.48222577465E+01  0.51100000000E-03 0. -1.
        -11    1    4    4    0    0 -0.88918468137E+01  0.40409928280E+01 -0.16157582514E+02  0.18880202217E+02  0.51100000000E-03 0.  1.
        -12    1    4    4    0    0 -0.34435456677E+01 -0.80278678415E+01 -0.22444891072E+02  0.24084804422E+02  0.00000000000E+00 0.  1.
</event>
<event>
 8    1  0.5331800E-011  0.9118800E+02  0.7816164E-02  0.1184000E+00
        -11   -1    0    0    0    0  0.00000000000E+00  0.00000000000E+00  0.45593999997E+02  0.45594000000E+02  0.51100000000E-03 0. -1.
         11   -1    0    0    0    0 -0.00000000000E+00 -0.00000000000E+00 -0.45593999997E+02  0.45594000000E+02  0.51100000000E-03 0.  1.
         23    2    1    2    0    0  0.00000000000E+00  0.00000000000E+00  0.00000000000E+00  0.91188000000E+02  0.91188000000E+02 0.  0.
    9900012    2    3    3    0    0  0.89778707493E+01  0.10960501593E+02  0.41023026658E+02  0.47787268733E+02  0.19999989462E+02 0.  0.
        -12    1    3    3    0    0 -0.89778707493E+01 -0.10960501593E+02 -0.41023026658E+02  0.43400731267E+02  0.00000000000E+00 0.  1.
         11    1    4    4    0    0 -0.19046859546E+01  0.72418674597E+01  0.29787514268E+02  0.30714304150E+02  0.51100000000E-03 0. -1.
        -11    1    4    4    0    0  0.76564171768E+01  0.52487515516E+01  0.79952666437E+01  0.12251302208E+02  0.51100000000E-03 0.  1.
        -12    1    4    4    0    0  0.32261395271E+01 -0.15301174186E+01  0.32402457460E+01  0.48216623749E+01  0.00000000000E+00 0.  1.
</event>
<event>
 8    1  0.5331800E-011  0.9118800E+02  0.7816164E-02  0.1184000E+00
        -11   -1    0    0    0    0  0.00000000000E+00  0.00000000000E+00  0.45593999997E+02  0.45594000000E+02  0.51100000000E-03 0. -1.
         11   -1    0    0    0    0 -0.00000000000E+00 -0.00000000000E+00 -0.45593999997E+02  0.45594000000E+02  0.51100000000E-03 0.  1.
         23    2    1    2    0    0  0.00000000000E+00  0.00000000000E+00  0.00000000000E+00  0.91188000000E+02  0.91188000000E+02 0.  0.
    9900012    2    3    3    0    0  0.21416006700E+02 -0.17488658057E+02 -0.33453324980E+02  0.47787268948E+02  0.19999990443E+02 0.  0.
         12    1    3    3    0    0 -0.21416006700E+02  0.17488658057E+02  0.33453324980E+02  0.43400731052E+02  0.00000000000E+00 0. -1.
         11    1    4    4    0    0  0.58725462357E+01 -0.49961971157E+01 -0.22723224638E+02  0.23995702180E+02  0.51100000000E-03 0. -1.
        -11    1    4    4    0    0  0.32987897993E+00 -0.31098220077E+01 -0.29445490403E+01  0.42953675481E+01  0.51100000000E-03 0.  1.
         12    1    4    4    0    0  0.15213581485E+02 -0.93826389337E+01 -0.77855513012E+01  0.19496199220E+02  0.00000000000E+00 0. -1.
</event>
<event>
 8    1  0.5331800E-011  0.9118800E+02  0.7816164E-02  0.1184000E+00
        -11   -1    0    0    0    0  0.00000000000E+00  0.00000000000E+00  0.45593999997E+02  0.45594000000E+02  0.51100000000E-03 0. -1.
         11   -1    0    0    0    0 -0.00000000000E+00 -0.00000000000E+00 -0.45593999997E+02  0.45594000000E+02  0.51100000000E-03 0.  1.
         23    2    1    2    0    0  0.00000000000E+00  0.71054273576E-14  0.00000000000E+00  0.91188000000E+02  0.91188000000E+02 0.  0.
    9900012    2    3    3    0    0 -0.88815467207E+01 -0.38052585852E+02  0.18887615854E+02  0.47787271955E+02  0.20000004152E+02 0.  0.
        -12    1    3    3    0    0  0.88815467207E+01  0.38052585852E+02 -0.18887615854E+02  0.43400728045E+02  0.00000000000E+00 0.  1.
         11    1    4    4    0    0 -0.27301425666E+01 -0.34958845985E+02  0.18546707916E+02  0.39668059769E+02  0.51100000000E-03 0. -1.
        -11    1    4    4    0    0 -0.49644386068E+01 -0.37818334880E+01  0.13879873106E+01  0.63933108987E+01  0.51100000000E-03 0.  1.
         12    1    4    4    0    0 -0.11869655473E+01  0.68809362152E+00 -0.10470793719E+01  0.17259012873E+01  0.00000000000E+00 0. -1.
</event>
<event>
 8    1  0.5331800E-011  0.9118800E+02  0.7816164E-02  0.1184000E+00
        -11   -1    0    0    0    0  0.00000000000E+00  0.00000000000E+00  0.45593999997E+02  0.45594000000E+02  0.51100000000E-03 0. -1.
         11   -1    0    0    0    0 -0.00000000000E+00 -0.00000000000E+00 -0.45593999997E+02  0.45594000000E+02  0.51100000000E-03 0.  1.
         23    2    1    2    0    0  0.35527136788E-14  0.00000000000E+00  0.00000000000E+00  0.91188000000E+02  0.91188000000E+02 0.  0.
    9900012    2    3    3    0    0  0.19294993780E+02 -0.36617706060E+02  0.13056422787E+02  0.47787270075E+02  0.19999995578E+02 0.  0.
        -12    1    3    3    0    0 -0.19294993780E+02  0.36617706060E+02 -0.13056422787E+02  0.43400729925E+02  0.00000000000E+00 0.  1.
         11    1    4    4    0    0 -0.68290023744E+00 -0.10420882777E+00 -0.17378610353E+01  0.18701265875E+01  0.51100000000E-03 0.  1.
        -11    1    4    4    0    0  0.14990228397E+02 -0.35070929039E+02  0.14171042252E+02  0.40687780105E+02  0.51100000000E-03 0. -1.
         12    1    4    4    0    0  0.49876656203E+01 -0.14425681928E+01  0.62324157020E+00  0.52293633825E+01  0.00000000000E+00 0. -1.
</event>
<event>
 8    1  0.5331800E-011  0.9118800E+02  0.7816164E-02  0.1184000E+00
        -11   -1    0    0    0    0  0.00000000000E+00  0.00000000000E+00  0.45593999997E+02  0.45594000000E+02  0.51100000000E-03 0. -1.
         11   -1    0    0    0    0 -0.00000000000E+00 -0.00000000000E+00 -0.45593999997E+02  0.45594000000E+02  0.51100000000E-03 0.  1.
         23    2    1    2    0    0 -0.88817841970E-15  0.00000000000E+00  0.00000000000E+00  0.91188000000E+02  0.91188000000E+02 0.  0.
    9900012    2    3    3    0    0 -0.75202624264E+01 -0.13313609121E+02 -0.40617937041E+02  0.47787270234E+02  0.19999996304E+02 0.  0.
         12    1    3    3    0    0  0.75202624264E+01  0.13313609121E+02  0.40617937041E+02  0.43400729766E+02  0.00000000000E+00 0. -1.
         11    1    4    4    0    0 -0.13911260017E+01  0.18181624980E+01  0.42329772831E+00  0.23281167603E+01  0.51100000000E-03 0. -1.
        -11    1    4    4    0    0 -0.55287886358E+00 -0.13798573706E+02 -0.29493035951E+02  0.32566017276E+02  0.51100000000E-03 0.  1.
        -12    1    4    4    0    0 -0.55762575610E+01 -0.13331979127E+01 -0.11548198818E+02  0.12893136198E+02  0.00000000000E+00 0.  1.
</event>
<event>
 8    1  0.5331800E-011  0.9118800E+02  0.7816164E-02  0.1184000E+00
        -11   -1    0    0    0    0  0.00000000000E+00  0.00000000000E+00  0.45593999997E+02  0.45594000000E+02  0.51100000000E-03 0. -1.
         11   -1    0    0    0    0 -0.00000000000E+00 -0.00000000000E+00 -0.45593999997E+02  0.45594000000E+02  0.51100000000E-03 0.  1.
         23    2    1    2    0    0  0.35527136788E-14  0.00000000000E+00  0.00000000000E+00  0.91188000000E+02  0.91188000000E+02 0.  0.
    9900012    2    3    3    0    0  0.17095826973E+02  0.12934121753E+02 -0.37736780536E+02  0.47787269468E+02  0.19999992815E+02 0.  0.
         12    1    3    3    0    0 -0.17095826973E+02 -0.12934121753E+02  0.37736780536E+02  0.43400730532E+02  0.00000000000E+00 0. -1.
         11    1    4    4    0    0  0.34307451297E+01  0.16398310094E+01  0.14464551023E+01  0.40683277287E+01  0.51100000000E-03 0. -1.
        -11    1    4    4    0    0  0.89931864066E+01  0.56283946855E+01 -0.30790093129E+02  0.32566640349E+02  0.51100000000E-03 0.  1.
        -12    1    4    4    0    0  0.46718954366E+01  0.56658960584E+01 -0.83931425094E+01  0.11152301390E+02  0.00000000000E+00 0.  1.
</event>
<event>
 8    1  0.5331800E-011  0.9118800E+02  0.7816164E-02  0.1184000E+00
        -11   -1    0    0    0    0  0.00000000000E+00  0.00000000000E+00  0.45593999997E+02  0.45594000000E+02  0.51100000000E-03 0.  1.
         11   -1    0    0    0    0 -0.00000000000E+00 -0.00000000000E+00 -0.45593999997E+02  0.45594000000E+02  0.51100000000E-03 0. -1.
         23    2    1    2    0    0 -0.71054273576E-14  0.00000000000E+00  0.00000000000E+00  0.91188000000E+02  0.91188000000E+02 0.  0.
    9900012    2    3    3    0    0 -0.42675678282E+02  0.63501684923E+01  0.46994493202E+01  0.47787274423E+02  0.20000015406E+02 0.  0.
        -12    1    3    3    0    0  0.42675678282E+02 -0.63501684923E+01 -0.46994493202E+01  0.43400725577E+02  0.00000000000E+00 0.  1.
         11    1    4    4    0    0 -0.83640095569E+01  0.67195180807E+01 -0.31884884585E+01  0.11192633203E+02  0.51100000000E-03 0. -1.
        -11    1    4    4    0    0 -0.59696403417E+01 -0.36268997697E+00 -0.23984842398E+01  0.64436695088E+01  0.51100000000E-03 0.  1.
         12    1    4    4    0    0 -0.28342028383E+02 -0.66596114315E-02  0.10286422019E+02  0.30150971712E+02  0.00000000000E+00 0. -1.
</event>
<event>
 8    1  0.5331800E-011  0.9118800E+02  0.7816164E-02  0.1184000E+00
        -11   -1    0    0    0    0  0.00000000000E+00  0.00000000000E+00  0.45593999997E+02  0.45594000000E+02  0.51100000000E-03 0. -1.
         11   -1    0    0    0    0 -0.00000000000E+00 -0.00000000000E+00 -0.45593999997E+02  0.45594000000E+02  0.51100000000E-03 0.  1.
         23    2    1    2    0    0  0.00000000000E+00  0.35527136788E-14  0.00000000000E+00  0.91188000000E+02  0.91188000000E+02 0.  0.
    9900012    2    3    3    0    0 -0.84261907623E+01 -0.31517427761E+02 -0.28622968921E+02  0.47787270821E+02  0.19999998982E+02 0.  0.
         12    1    3    3    0    0  0.84261907623E+01  0.31517427761E+02  0.28622968921E+02  0.43400729179E+02  0.00000000000E+00 0. -1.
         11    1    4    4    0    0 -0.83699206752E+01 -0.21338885124E+02 -0.15003626329E+02  0.27395481265E+02  0.51100000000E-03 0.  1.
        -11    1    4    4    0    0  0.55966948115E+01 -0.53501248285E+01 -0.69649931687E+01  0.10414315080E+02  0.51100000000E-03 0. -1.
        -12    1    4    4    0    0 -0.56529648985E+01 -0.48284178080E+01 -0.66543494233E+01  0.99774744760E+01  0.00000000000E+00 0.  1.
</event>
<event>
 8    1  0.5331800E-011  0.9118800E+02  0.7816164E-02  0.1184000E+00
        -11   -1    0    0    0    0  0.00000000000E+00  0.00000000000E+00  0.45593999997E+02  0.45594000000E+02  0.51100000000E-03 0.  1.
         11   -1    0    0    0    0 -0.00000000000E+00 -0.00000000000E+00 -0.45593999997E+02  0.45594000000E+02  0.51100000000E-03 0. -1.
         23    2    1    2    0    0  0.17763568394E-14  0.35527136788E-14  0.00000000000E+00  0.91188000000E+02  0.91188000000E+02 0.  0.
    9900012    2    3    3    0    0 -0.15907292845E+02  0.22850271014E+02  0.33293337176E+02  0.47787272456E+02  0.20000006434E+02 0.  0.
        -12    1    3    3    0    0  0.15907292845E+02 -0.22850271014E+02 -0.33293337176E+02  0.43400727544E+02  0.00000000000E+00 0.  1.
         11    1    4    4    0    0  0.29005883886E+01  0.86378469310E+00  0.55676518792E+01  0.63370564701E+01  0.51100000000E-03 0. -1.
        -11    1    4    4    0    0  0.11338209307E+00  0.73216596357E+00  0.49406312845E+01  0.49958743227E+01  0.51100000000E-03 0.  1.
         12    1    4    4    0    0 -0.18921263326E+02  0.21254320357E+02  0.22785054013E+02  0.36454341663E+02  0.00000000000E+00 0. -1.
</event>
<event>
 8    1  0.5331800E-011  0.9118800E+02  0.7816164E-02  0.1184000E+00
        -11   -1    0    0    0    0  0.00000000000E+00  0.00000000000E+00  0.45593999997E+02  0.45594000000E+02  0.51100000000E-03 0. -1.
         11   -1    0    0    0    0 -0.00000000000E+00 -0.00000000000E+00 -0.45593999997E+02  0.45594000000E+02  0.51100000000E-03 0.  1.
         23    2    1    2    0    0 -0.88817841970E-15  0.00000000000E+00  0.00000000000E+00  0.91188000000E+02  0.91188000000E+02 0.  0.
    9900012    2    3    3    0    0 -0.39652526118E+01 -0.20353356314E+02  0.38126641799E+02  0.47787272398E+02  0.20000006171E+02 0.  0.
        -12    1    3    3    0    0  0.39652526118E+01  0.20353356314E+02 -0.38126641799E+02  0.43400727602E+02  0.00000000000E+00 0.  1.
         11    1    4    4    0    0 -0.71559578861E+01 -0.11977116097E+02  0.32430020826E+02  0.35303899138E+02  0.51100000000E-03 0. -1.
        -11    1    4    4    0    0  0.47020293778E+00 -0.23202829656E+01 -0.14121206354E+01  0.27566082045E+01  0.51100000000E-03 0.  1.
         12    1    4    4    0    0  0.27205023365E+01 -0.60559572516E+01  0.71087416082E+01  0.97267650557E+01  0.00000000000E+00 0. -1.
</event>
<event>
 8    1  0.5331800E-011  0.9118800E+02  0.7816164E-02  0.1184000E+00
        -11   -1    0    0    0    0  0.00000000000E+00  0.00000000000E+00  0.45593999997E+02  0.45594000000E+02  0.51100000000E-03 0. -1.
         11   -1    0    0    0    0 -0.00000000000E+00 -0.00000000000E+00 -0.45593999997E+02  0.45594000000E+02  0.51100000000E-03 0.  1.
         23    2    1    2    0    0  0.00000000000E+00  0.00000000000E+00  0.00000000000E+00  0.91188000000E+02  0.91188000000E+02 0.  0.
    9900012    2    3    3    0    0  0.19411759816E+02  0.36802255751E+02 -0.12345020853E+02  0.47787285865E+02  0.20000067575E+02 0.  0.
         12    1    3    3    0    0 -0.19411759816E+02 -0.36802255751E+02  0.12345020853E+02  0.43400714135E+02  0.00000000000E+00 0. -1.
         11    1    4    4    0    0 -0.13734539119E+01  0.51424088484E+01  0.38566962496E+01  0.65730396800E+01  0.51100000000E-03 0. -1.
        -11    1    4    4    0    0  0.11804228480E+02  0.18222682446E+02 -0.99826774844E+01  0.23896857860E+02  0.51100000000E-03 0.  1.
         12    1    4    4    0    0  0.89809852480E+01  0.13437164457E+02 -0.62190396180E+01  0.17317388326E+02  0.00000000000E+00 0. -1.
</event>
<event>
 8    1  0.5331800E-011  0.9118800E+02  0.7816164E-02  0.1184000E+00
        -11   -1    0    0    0    0  0.00000000000E+00  0.00000000000E+00  0.45593999997E+02  0.45594000000E+02  0.51100000000E-03 0. -1.
         11   -1    0    0    0    0 -0.00000000000E+00 -0.00000000000E+00 -0.45593999997E+02  0.45594000000E+02  0.51100000000E-03 0.  1.
         23    2    1    2    0    0  0.00000000000E+00  0.17763568394E-14  0.00000000000E+00  0.91188000000E+02  0.91188000000E+02 0.  0.
    9900012    2    3    3    0    0  0.23830987546E+02 -0.12960715951E+02 -0.33878122184E+02  0.47787270881E+02  0.19999999254E+02 0.  0.
         12    1    3    3    0    0 -0.23830987546E+02  0.12960715951E+02  0.33878122184E+02  0.43400729119E+02  0.00000000000E+00 0. -1.
         11    1    4    4    0    0  0.13105574252E+02 -0.55164726920E+01 -0.50653800040E+01  0.15094556048E+02  0.51100000000E-03 0. -1.
        -11    1    4    4    0    0  0.10700971604E+02 -0.84475554930E+01 -0.22556981470E+02  0.26356961137E+02  0.51100000000E-03 0.  1.
         12    1    4    4    0    0  0.24441689988E-01  0.10033122344E+01 -0.62557607096E+01  0.63357536956E+01  0.00000000000E+00 0. -1.
</event>
<event>
 8    1  0.5331800E-011  0.9118800E+02  0.7816164E-02  0.1184000E+00
        -11   -1    0    0    0    0  0.00000000000E+00  0.00000000000E+00  0.45593999997E+02  0.45594000000E+02  0.51100000000E-03 0. -1.
         11   -1    0    0    0    0 -0.00000000000E+00 -0.00000000000E+00 -0.45593999997E+02  0.45594000000E+02  0.51100000000E-03 0.  1.
         23    2    1    2    0    0  0.00000000000E+00  0.00000000000E+00  0.00000000000E+00  0.91188000000E+02  0.91188000000E+02 0.  0.
    9900012    2    3    3    0    0  0.38289507505E+02  0.16341628532E+02 -0.12267358324E+02  0.47787270878E+02  0.19999999242E+02 0.  0.
         12    1    3    3    0    0 -0.38289507505E+02 -0.16341628532E+02  0.12267358324E+02  0.43400729122E+02  0.00000000000E+00 0. -1.
         11    1    4    4    0    0  0.18329880341E+02  0.63338170087E+01  0.32174982190E+01  0.19658434482E+02  0.51100000000E-03 0. -1.
        -11    1    4    4    0    0  0.11673633387E+02  0.83612022918E+01 -0.12877387901E+02  0.19287574748E+02  0.51100000000E-03 0.  1.
         12    1    4    4    0    0  0.82859937765E+01  0.16466092314E+01 -0.26074686422E+01  0.88412616490E+01  0.00000000000E+00 0. -1.
</event>
<event>
 8    1  0.5331800E-011  0.9118800E+02  0.7816164E-02  0.1184000E+00
        -11   -1    0    0    0    0  0.00000000000E+00  0.00000000000E+00  0.45593999997E+02  0.45594000000E+02  0.51100000000E-03 0.  1.
         11   -1    0    0    0    0 -0.00000000000E+00 -0.00000000000E+00 -0.45593999997E+02  0.45594000000E+02  0.51100000000E-03 0. -1.
         23    2    1    2    0    0  0.71054273576E-14  0.53290705182E-14  0.00000000000E+00  0.91188000000E+02  0.91188000000E+02 0.  0.
    9900012    2    3    3    0    0 -0.41368865439E+02 -0.11685021846E+02 -0.59749755537E+01  0.47787273092E+02  0.20000009335E+02 0.  0.
         12    1    3    3    0    0  0.41368865439E+02  0.11685021846E+02  0.59749755537E+01  0.43400726908E+02  0.00000000000E+00 0. -1.
         11    1    4    4    0    0 -0.11757438023E+02 -0.86523239810E+01 -0.54004289596E+00  0.14607932972E+02  0.51100000000E-03 0. -1.
        -11    1    4    4    0    0 -0.14623177498E+02  0.45151233957E+01 -0.58719988806E+01  0.16392194195E+02  0.51100000000E-03 0.  1.
        -12    1    4    4    0    0 -0.14988249919E+02 -0.75478212605E+01  0.43706622284E+00  0.16787145924E+02  0.00000000000E+00 0.  1.
</event>
<event>
 8    1  0.5331800E-011  0.9118800E+02  0.7816164E-02  0.1184000E+00
        -11   -1    0    0    0    0  0.00000000000E+00  0.00000000000E+00  0.45593999997E+02  0.45594000000E+02  0.51100000000E-03 0. -1.
         11   -1    0    0    0    0 -0.00000000000E+00 -0.00000000000E+00 -0.45593999997E+02  0.45594000000E+02  0.51100000000E-03 0.  1.
         23    2    1    2    0    0  0.00000000000E+00  0.00000000000E+00  0.00000000000E+00  0.91188000000E+02  0.91188000000E+02 0.  0.
    9900012    2    3    3    0    0 -0.40478310677E+00  0.35738350723E+02 -0.24621752621E+02  0.47787259639E+02  0.19999947996E+02 0.  0.
         12    1    3    3    0    0  0.40478310677E+00 -0.35738350723E+02  0.24621752621E+02  0.43400740361E+02  0.00000000000E+00 0. -1.
         11    1    4    4    0    0 -0.61544619353E+01  0.18025920677E+02 -0.71739364911E+01  0.20353785471E+02  0.51100000000E-03 0. -1.
        -11    1    4    4    0    0  0.54185274145E+01  0.17293416147E+02 -0.18719250394E+02  0.26054424134E+02  0.51100000000E-03 0.  1.
        -12    1    4    4    0    0  0.33115141407E+00  0.41901389853E+00  0.12714342638E+01  0.13790500329E+01  0.00000000000E+00 0.  1.
</event>
<event>
 8    1  0.5331800E-011  0.9118800E+02  0.7816164E-02  0.1184000E+00
        -11   -1    0    0    0    0  0.00000000000E+00  0.00000000000E+00  0.45593999997E+02  0.45594000000E+02  0.51100000000E-03 0. -1.
         11   -1    0    0    0    0 -0.00000000000E+00 -0.00000000000E+00 -0.45593999997E+02  0.45594000000E+02  0.51100000000E-03 0.  1.
         23    2    1    2    0    0  0.00000000000E+00  0.00000000000E+00  0.00000000000E+00  0.91188000000E+02  0.91188000000E+02 0.  0.
    9900012    2    3    3    0    0 -0.63525020960E+00 -0.16487768479E+02 -0.40141910758E+02  0.47787273606E+02  0.20000011680E+02 0.  0.
         12    1    3    3    0    0  0.63525020960E+00  0.16487768479E+02  0.40141910758E+02  0.43400726394E+02  0.00000000000E+00 0. -1.
         11    1    4    4    0    0 -0.30990508243E+00 -0.35143050146E+01 -0.26484605585E+02  0.26718546259E+02  0.51100000000E-03 0. -1.
        -11    1    4    4    0    0  0.21222628454E+01 -0.92132710393E+00 -0.63618321436E+01  0.67694720401E+01  0.51100000000E-03 0.  1.
         12    1    4    4    0    0 -0.24476079726E+01 -0.12052136360E+02 -0.72954730286E+01  0.14299255307E+02  0.00000000000E+00 0. -1.
</event>
<event>
 8    1  0.5331800E-011  0.9118800E+02  0.7816164E-02  0.1184000E+00
        -11   -1    0    0    0    0  0.00000000000E+00  0.00000000000E+00  0.45593999997E+02  0.45594000000E+02  0.51100000000E-03 0. -1.
         11   -1    0    0    0    0 -0.00000000000E+00 -0.00000000000E+00 -0.45593999997E+02  0.45594000000E+02  0.51100000000E-03 0.  1.
         23    2    1    2    0    0  0.17763568394E-14  0.88817841970E-15  0.00000000000E+00  0.91188000000E+02  0.91188000000E+02 0.  0.
    9900012    2    3    3    0    0  0.14522048527E+02  0.66519692767E+01 -0.40354487627E+02  0.47787271201E+02  0.20000000713E+02 0.  0.
         12    1    3    3    0    0 -0.14522048527E+02 -0.66519692767E+01  0.40354487627E+02  0.43400728799E+02  0.00000000000E+00 0. -1.
         11    1    4    4    0    0  0.46625454433E+01 -0.56719381080E+01 -0.98938992225E+01  0.12320692107E+02  0.51100000000E-03 0. -1.
        -11    1    4    4    0    0  0.74578697590E+01  0.26128612467E+01 -0.10520001819E+02  0.13157404902E+02  0.51100000000E-03 0.  1.
         12    1    4    4    0    0  0.24016333252E+01  0.97110461380E+01 -0.19940586585E+02  0.22309174191E+02  0.00000000000E+00 0. -1.
</event>
<event>
 8    1  0.5331800E-011  0.9118800E+02  0.7816164E-02  0.1184000E+00
        -11   -1    0    0    0    0  0.00000000000E+00  0.00000000000E+00  0.45593999997E+02  0.45594000000E+02  0.51100000000E-03 0. -1.
         11   -1    0    0    0    0 -0.00000000000E+00 -0.00000000000E+00 -0.45593999997E+02  0.45594000000E+02  0.51100000000E-03 0.  1.
         23    2    1    2    0    0  0.00000000000E+00  0.35527136788E-14 -0.71054273576E-14  0.91188000000E+02  0.91188000000E+02 0.  0.
    9900012    2    3    3    0    0 -0.45279472156E+01  0.16087099550E+02 -0.40054042943E+02  0.47787269200E+02  0.19999991591E+02 0.  0.
         12    1    3    3    0    0  0.45279472156E+01 -0.16087099550E+02  0.40054042943E+02  0.43400730800E+02  0.00000000000E+00 0. -1.
         11    1    4    4    0    0 -0.26226691471E+01 -0.42174122307E+01 -0.84324151164E+01  0.97862446493E+01  0.51100000000E-03 0. -1.
        -11    1    4    4    0    0  0.11186659791E+01  0.91063562189E+01 -0.17195446477E+02  0.19490010697E+02  0.51100000000E-03 0.  1.
         12    1    4    4    0    0 -0.30239440476E+01  0.11198155562E+02 -0.14426181349E+02  0.18511013854E+02  0.00000000000E+00 0. -1.
</event>
<event>
 8    1  0.5331800E-011  0.9118800E+02  0.7816164E-02  0.1184000E+00
        -11   -1    0    0    0    0  0.00000000000E+00  0.00000000000E+00  0.45593999997E+02  0.45594000000E+02  0.51100000000E-03 0. -1.
         11   -1    0    0    0    0 -0.00000000000E+00 -0.00000000000E+00 -0.45593999997E+02  0.45594000000E+02  0.51100000000E-03 0.  1.
         23    2    1    2    0    0  0.00000000000E+00  0.00000000000E+00 -0.71054273576E-14  0.91188000000E+02  0.91188000000E+02 0.  0.
    9900012    2    3    3    0    0 -0.20219340461E+02 -0.15517639408E+01 -0.38371761401E+02  0.47787288335E+02  0.20000078835E+02 0.  0.
         12    1    3    3    0    0  0.20219340461E+02  0.15517639408E+01  0.38371761401E+02  0.43400711665E+02  0.00000000000E+00 0. -1.
         11    1    4    4    0    0 -0.15790098117E+02 -0.55197655502E+01 -0.21391141174E+02  0.27154666842E+02  0.51100000000E-03 0. -1.
        -11    1    4    4    0    0 -0.22166613889E+01  0.25611895025E+01 -0.17612784930E+02  0.17935536586E+02  0.51100000000E-03 0.  1.
         12    1    4    4    0    0 -0.22125809547E+01  0.14068121069E+01  0.63216470313E+00  0.26970849073E+01  0.00000000000E+00 0. -1.
</event>
<event>
 8    1  0.5331800E-011  0.9118800E+02  0.7816164E-02  0.1184000E+00
        -11   -1    0    0    0    0  0.00000000000E+00  0.00000000000E+00  0.45593999997E+02  0.45594000000E+02  0.51100000000E-03 0. -1.
         11   -1    0    0    0    0 -0.00000000000E+00 -0.00000000000E+00 -0.45593999997E+02  0.45594000000E+02  0.51100000000E-03 0.  1.
         23    2    1    2    0    0  0.00000000000E+00  0.00000000000E+00  0.00000000000E+00  0.91188000000E+02  0.91188000000E+02 0.  0.
    9900012    2    3    3    0    0 -0.81227569841E+01  0.27746730776E+02  0.32369173602E+02  0.47787266717E+02  0.19999980271E+02 0.  0.
        -12    1    3    3    0    0  0.81227569841E+01 -0.27746730776E+02 -0.32369173602E+02  0.43400733283E+02  0.00000000000E+00 0.  1.
         11    1    4    4    0    0  0.50025969649E+01  0.11943970696E+02  0.10369936449E+02  0.16589755712E+02  0.51100000000E-03 0. -1.
        -11    1    4    4    0    0 -0.10233201485E+01 -0.67342338761E+00  0.84601910154E-01  0.12279417452E+01  0.51100000000E-03 0.  1.
         12    1    4    4    0    0 -0.12102033801E+02  0.16476183468E+02  0.21914635243E+02  0.29969569260E+02  0.00000000000E+00 0. -1.
</event>
<event>
 8    1  0.5331800E-011  0.9118800E+02  0.7816164E-02  0.1184000E+00
        -11   -1    0    0    0    0  0.00000000000E+00  0.00000000000E+00  0.45593999997E+02  0.45594000000E+02  0.51100000000E-03 0. -1.
         11   -1    0    0    0    0 -0.00000000000E+00 -0.00000000000E+00 -0.45593999997E+02  0.45594000000E+02  0.51100000000E-03 0.  1.
         23    2    1    2    0    0  0.17763568394E-14  0.00000000000E+00  0.71054273576E-14  0.91188000000E+02  0.91188000000E+02 0.  0.
    9900012    2    3    3    0    0  0.11868979455E+02  0.25791129638E+02 -0.32826271577E+02  0.47787318589E+02  0.20000216772E+02 0.  0.
         12    1    3    3    0    0 -0.11868979455E+02 -0.25791129638E+02  0.32826271577E+02  0.43400681411E+02  0.00000000000E+00 0. -1.
         11    1    4    4    0    0 -0.29289707871E+01 -0.48690658173E+00 -0.61294062616E+01  0.68106952121E+01  0.51100000000E-03 0. -1.
        -11    1    4    4    0    0  0.13075073326E+02  0.22629810077E+02 -0.26031152125E+02  0.36887487416E+02  0.51100000000E-03 0.  1.
         12    1    4    4    0    0  0.17228769157E+01  0.36482261429E+01 -0.66571319030E+00  0.40891359611E+01  0.00000000000E+00 0. -1.
</event>
<event>
 8    1  0.5331800E-011  0.9118800E+02  0.7816164E-02  0.1184000E+00
        -11   -1    0    0    0    0  0.00000000000E+00  0.00000000000E+00  0.45593999997E+02  0.45594000000E+02  0.51100000000E-03 0. -1.
         11   -1    0    0    0    0 -0.00000000000E+00 -0.00000000000E+00 -0.45593999997E+02  0.45594000000E+02  0.51100000000E-03 0.  1.
         23    2    1    2    0    0 -0.71054273576E-14 -0.88817841970E-15  0.35527136788E-14  0.91188000000E+02  0.91188000000E+02 0.  0.
    9900012    2    3    3    0    0  0.31277234515E+02  0.25293661603E+01 -0.29982663608E+02  0.47787271790E+02  0.20000003400E+02 0.  0.
         12    1    3    3    0    0 -0.31277234515E+02 -0.25293661603E+01  0.29982663608E+02  0.43400728210E+02  0.00000000000E+00 0. -1.
         11    1    4    4    0    0  0.55741940323E+01  0.70455548510E+01 -0.32321307352E+01  0.95476778129E+01  0.51100000000E-03 0.  1.
        -11    1    4    4    0    0  0.24169717872E+02 -0.25546777669E+01 -0.26105080552E+02  0.35667588528E+02  0.51100000000E-03 0. -1.
         12    1    4    4    0    0  0.15333226113E+01 -0.19615109237E+01 -0.64545232063E+00  0.25720054495E+01  0.00000000000E+00 0. -1.
</event>
<event>
 8    1  0.5331800E-011  0.9118800E+02  0.7816164E-02  0.1184000E+00
        -11   -1    0    0    0    0  0.00000000000E+00  0.00000000000E+00  0.45593999997E+02  0.45594000000E+02  0.51100000000E-03 0. -1.
         11   -1    0    0    0    0 -0.00000000000E+00 -0.00000000000E+00 -0.45593999997E+02  0.45594000000E+02  0.51100000000E-03 0.  1.
         23    2    1    2    0    0  0.00000000000E+00  0.00000000000E+00  0.00000000000E+00  0.91188000000E+02  0.91188000000E+02 0.  0.
    9900012    2    3    3    0    0 -0.30493902228E+01  0.20032777825E+02 -0.38379843198E+02  0.47787270375E+02  0.19999996946E+02 0.  0.
         12    1    3    3    0    0  0.30493902228E+01 -0.20032777825E+02  0.38379843198E+02  0.43400729625E+02  0.00000000000E+00 0. -1.
         11    1    4    4    0    0  0.56799103766E+01  0.43428148687E+01 -0.10175384935E+02  0.12436232617E+02  0.51100000000E-03 0. -1.
        -11    1    4    4    0    0 -0.11360923591E+02  0.14388637336E+02 -0.25047336157E+02  0.31039853705E+02  0.51100000000E-03 0.  1.
        -12    1    4    4    0    0  0.26316229917E+01  0.13013256207E+01 -0.31571221060E+01  0.43111840524E+01  0.00000000000E+00 0.  1.
</event>
<event>
 8    1  0.5331800E-011  0.9118800E+02  0.7816164E-02  0.1184000E+00
        -11   -1    0    0    0    0  0.00000000000E+00  0.00000000000E+00  0.45593999997E+02  0.45594000000E+02  0.51100000000E-03 0. -1.
         11   -1    0    0    0    0 -0.00000000000E+00 -0.00000000000E+00 -0.45593999997E+02  0.45594000000E+02  0.51100000000E-03 0.  1.
         23    2    1    2    0    0  0.00000000000E+00  0.00000000000E+00  0.44408920985E-15  0.91188000000E+02  0.91188000000E+02 0.  0.
    9900012    2    3    3    0    0  0.41180885892E+02  0.13236312343E+02 -0.35437495868E+01  0.47787268572E+02  0.19999988729E+02 0.  0.
        -12    1    3    3    0    0 -0.41180885892E+02 -0.13236312343E+02  0.35437495868E+01  0.43400731428E+02  0.00000000000E+00 0.  1.
         11    1    4    4    0    0  0.29041168321E+02  0.12795734211E+02 -0.82766313534E+00  0.31745949316E+02  0.51100000000E-03 0. -1.
        -11    1    4    4    0    0  0.12534820276E+02 -0.13973087047E+01 -0.45567299590E+01  0.13410368345E+02  0.51100000000E-03 0.  1.
        -12    1    4    4    0    0 -0.39510270524E+00  0.18378868373E+01  0.18406435076E+01  0.26309509111E+01  0.00000000000E+00 0.  1.
</event>
<event>
 8    1  0.5331800E-011  0.9118800E+02  0.7816164E-02  0.1184000E+00
        -11   -1    0    0    0    0  0.00000000000E+00  0.00000000000E+00  0.45593999997E+02  0.45594000000E+02  0.51100000000E-03 0. -1.
         11   -1    0    0    0    0 -0.00000000000E+00 -0.00000000000E+00 -0.45593999997E+02  0.45594000000E+02  0.51100000000E-03 0.  1.
         23    2    1    2    0    0  0.44408920985E-15 -0.17763568394E-14 -0.71054273576E-14  0.91188000000E+02  0.91188000000E+02 0.  0.
    9900012    2    3    3    0    0  0.20385090637E+01 -0.15912856283E+02 -0.40326778789E+02  0.47787267267E+02  0.19999982778E+02 0.  0.
         12    1    3    3    0    0 -0.20385090637E+01  0.15912856283E+02  0.40326778789E+02  0.43400732733E+02  0.00000000000E+00 0. -1.
         11    1    4    4    0    0 -0.18423033657E+01  0.24062290059E+01 -0.62595575249E-01  0.30311611945E+01  0.51100000000E-03 0. -1.
        -11    1    4    4    0    0  0.17193224814E+01 -0.15398668627E+02 -0.28447240617E+02  0.32393217875E+02  0.51100000000E-03 0.  1.
        -12    1    4    4    0    0  0.21614899481E+01 -0.29204166616E+01 -0.11816942596E+02  0.12362888198E+02  0.00000000000E+00 0.  1.
</event>
<event>
 8    1  0.5331800E-011  0.9118800E+02  0.7816164E-02  0.1184000E+00
        -11   -1    0    0    0    0  0.00000000000E+00  0.00000000000E+00  0.45593999997E+02  0.45594000000E+02  0.51100000000E-03 0.  1.
         11   -1    0    0    0    0 -0.00000000000E+00 -0.00000000000E+00 -0.45593999997E+02  0.45594000000E+02  0.51100000000E-03 0. -1.
         23    2    1    2    0    0  0.00000000000E+00  0.00000000000E+00  0.00000000000E+00  0.91188000000E+02  0.91188000000E+02 0.  0.
    9900012    2    3    3    0    0  0.31233620156E+01 -0.41985109844E+02 -0.10541270586E+02  0.47787271614E+02  0.20000002596E+02 0.  0.
         12    1    3    3    0    0 -0.31233620156E+01  0.41985109844E+02  0.10541270586E+02  0.43400728386E+02  0.00000000000E+00 0. -1.
         11    1    4    4    0    0  0.81471310301E+00 -0.19299202323E+01  0.30108261078E+01  0.36678909002E+01  0.51100000000E-03 0. -1.
        -11    1    4    4    0    0  0.14933719564E+01 -0.27519465803E+02 -0.15160541385E+02  0.31454620857E+02  0.51100000000E-03 0.  1.
        -12    1    4    4    0    0  0.81527695619E+00 -0.12535723808E+02  0.16084446910E+01  0.12664759857E+02  0.00000000000E+00 0.  1.
</event>
<event>
 8    1  0.5331800E-011  0.9118800E+02  0.7816164E-02  0.1184000E+00
        -11   -1    0    0    0    0  0.00000000000E+00  0.00000000000E+00  0.45593999997E+02  0.45594000000E+02  0.51100000000E-03 0. -1.
         11   -1    0    0    0    0 -0.00000000000E+00 -0.00000000000E+00 -0.45593999997E+02  0.45594000000E+02  0.51100000000E-03 0.  1.
         23    2    1    2    0    0  0.00000000000E+00  0.00000000000E+00  0.00000000000E+00  0.91188000000E+02  0.91188000000E+02 0.  0.
    9900012    2    3    3    0    0  0.15199544574E+02 -0.19223642341E+02 -0.35819664077E+02  0.47787275183E+02  0.20000018869E+02 0.  0.
         12    1    3    3    0    0 -0.15199544574E+02  0.19223642341E+02  0.35819664077E+02  0.43400724817E+02  0.00000000000E+00 0. -1.
         11    1    4    4    0    0 -0.23092966037E+01  0.74436358044E+00 -0.43120319604E+01  0.49477821124E+01  0.51100000000E-03 0. -1.
        -11    1    4    4    0    0  0.11091380531E+02 -0.14375625557E+02 -0.12589856174E+02  0.22094836749E+02  0.51100000000E-03 0.  1.
        -12    1    4    4    0    0  0.64174606461E+01 -0.55923803644E+01 -0.18917775942E+02  0.20744656321E+02  0.00000000000E+00 0.  1.
</event>
<event>
 8    1  0.5331800E-011  0.9118800E+02  0.7816164E-02  0.1184000E+00
        -11   -1    0    0    0    0  0.00000000000E+00  0.00000000000E+00  0.45593999997E+02  0.45594000000E+02  0.51100000000E-03 0.  1.
         11   -1    0    0    0    0 -0.00000000000E+00 -0.00000000000E+00 -0.45593999997E+02  0.45594000000E+02  0.51100000000E-03 0. -1.
         23    2    1    2    0    0  0.00000000000E+00  0.00000000000E+00 -0.35527136788E-14  0.91188000000E+02  0.91188000000E+02 0.  0.
    9900012    2    3    3    0    0  0.37814977344E+02 -0.39482941024E+01  0.20929920514E+02  0.47787272926E+02  0.20000008577E+02 0.  0.
        -12    1    3    3    0    0 -0.37814977344E+02  0.39482941024E+01 -0.20929920514E+02  0.43400727074E+02  0.00000000000E+00 0.  1.
         11    1    4    4    0    0  0.19460787992E+02  0.24980736555E+01  0.56900537131E+01  0.20428885256E+02  0.51100000000E-03 0. -1.
        -11    1    4    4    0    0  0.90709124963E+01 -0.69339517647E+00  0.13529870401E+02  0.16303976316E+02  0.51100000000E-03 0.  1.
        -12    1    4    4    0    0  0.92832768555E+01 -0.57529725815E+01  0.17099964002E+01  0.11054411354E+02  0.00000000000E+00 0.  1.
</event>
<event>
 8    1  0.5331800E-011  0.9118800E+02  0.7816164E-02  0.1184000E+00
        -11   -1    0    0    0    0  0.00000000000E+00  0.00000000000E+00  0.45593999997E+02  0.45594000000E+02  0.51100000000E-03 0. -1.
         11   -1    0    0    0    0 -0.00000000000E+00 -0.00000000000E+00 -0.45593999997E+02  0.45594000000E+02  0.51100000000E-03 0.  1.
         23    2    1    2    0    0  0.71054273576E-14  0.12212453271E-14  0.00000000000E+00  0.91188000000E+02  0.91188000000E+02 0.  0.
    9900012    2    3    3    0    0 -0.21855635479E+02 -0.82243766174E+00 -0.37487042221E+02  0.47787267974E+02  0.19999986002E+02 0.  0.
         12    1    3    3    0    0  0.21855635479E+02  0.82243766174E+00  0.37487042221E+02  0.43400732026E+02  0.00000000000E+00 0. -1.
         11    1    4    4    0    0 -0.52088466586E+01  0.57014522826E+01 -0.28463177296E+01  0.82304414537E+01  0.51100000000E-03 0. -1.
        -11    1    4    4    0    0 -0.16186872937E+02 -0.46609882344E+01 -0.28316326083E+02  0.32947746355E+02  0.51100000000E-03 0.  1.
         12    1    4    4    0    0 -0.45991588295E+00 -0.18629017099E+01 -0.63243984089E+01  0.66090801655E+01  0.00000000000E+00 0. -1.
</event>
<event>
 8    1  0.5331800E-011  0.9118800E+02  0.7816164E-02  0.1184000E+00
        -11   -1    0    0    0    0  0.00000000000E+00  0.00000000000E+00  0.45593999997E+02  0.45594000000E+02  0.51100000000E-03 0. -1.
         11   -1    0    0    0    0 -0.00000000000E+00 -0.00000000000E+00 -0.45593999997E+02  0.45594000000E+02  0.51100000000E-03 0.  1.
         23    2    1    2    0    0 -0.35527136788E-14  0.00000000000E+00 -0.35527136788E-14  0.91188000000E+02  0.91188000000E+02 0.  0.
    9900012    2    3    3    0    0  0.29196335267E+02  0.12100022568E+02  0.29745364851E+02  0.47787271097E+02  0.20000000240E+02 0.  0.
        -12    1    3    3    0    0 -0.29196335267E+02 -0.12100022568E+02 -0.29745364851E+02  0.43400728903E+02  0.00000000000E+00 0.  1.
         11    1    4    4    0    0  0.91826502090E+01 -0.31757932976E+01  0.13953596616E+02  0.17003222833E+02  0.51100000000E-03 0.  1.
        -11    1    4    4    0    0  0.19815929396E+02  0.15781449894E+02  0.16230693442E+02  0.30085887530E+02  0.51100000000E-03 0. -1.
         12    1    4    4    0    0  0.19775566182E+00 -0.50563402882E+00 -0.43892520690E+00  0.69816073374E+00  0.00000000000E+00 0. -1.
</event>
<event>
 8    1  0.5331800E-011  0.9118800E+02  0.7816164E-02  0.1184000E+00
        -11   -1    0    0    0    0  0.00000000000E+00  0.00000000000E+00  0.45593999997E+02  0.45594000000E+02  0.51100000000E-03 0. -1.
         11   -1    0    0    0    0 -0.00000000000E+00 -0.00000000000E+00 -0.45593999997E+02  0.45594000000E+02  0.51100000000E-03 0.  1.
         23    2    1    2    0    0  0.00000000000E+00  0.35527136788E-14  0.13322676296E-14  0.91188000000E+02  0.91188000000E+02 0.  0.
    9900012    2    3    3    0    0  0.39608765384E+02  0.17538185553E+02  0.26796591380E+01  0.47787276264E+02  0.20000023798E+02 0.  0.
        -12    1    3    3    0    0 -0.39608765384E+02 -0.17538185553E+02 -0.26796591380E+01  0.43400723736E+02  0.00000000000E+00 0.  1.
         11    1    4    4    0    0  0.18849731373E+02  0.10869661586E+02  0.84826356947E+01  0.23354165034E+02  0.51100000000E-03 0. -1.
        -11    1    4    4    0    0  0.18768521271E+02  0.26617871480E+01 -0.31058727521E+01  0.19209085021E+02  0.51100000000E-03 0.  1.
         12    1    4    4    0    0  0.19905127393E+01  0.40067368184E+01 -0.26971038046E+01  0.52240262087E+01  0.00000000000E+00 0. -1.
</event>
<event>
 8    1  0.5331800E-011  0.9118800E+02  0.7816164E-02  0.1184000E+00
        -11   -1    0    0    0    0  0.00000000000E+00  0.00000000000E+00  0.45593999997E+02  0.45594000000E+02  0.51100000000E-03 0. -1.
         11   -1    0    0    0    0 -0.00000000000E+00 -0.00000000000E+00 -0.45593999997E+02  0.45594000000E+02  0.51100000000E-03 0.  1.
         23    2    1    2    0    0 -0.17763568394E-14  0.00000000000E+00  0.00000000000E+00  0.91188000000E+02  0.91188000000E+02 0.  0.
    9900012    2    3    3    0    0  0.14578693590E+02 -0.13947493061E+02  0.38425934221E+02  0.47787270856E+02  0.19999999139E+02 0.  0.
        -12    1    3    3    0    0 -0.14578693590E+02  0.13947493061E+02 -0.38425934221E+02  0.43400729144E+02  0.00000000000E+00 0.  1.
         11    1    4    4    0    0  0.83877731839E+01 -0.65230058258E+01  0.17931735803E+02  0.20843500022E+02  0.51100000000E-03 0. -1.
        -11    1    4    4    0    0  0.30156531125E+01 -0.11663949467E+02  0.15778319878E+02  0.19851883016E+02  0.51100000000E-03 0.  1.
        -12    1    4    4    0    0  0.31752672936E+01  0.42394622320E+01  0.47158785403E+01  0.70918878170E+01  0.00000000000E+00 0.  1.
</event>
<event>
 8    1  0.5331800E-011  0.9118800E+02  0.7816164E-02  0.1184000E+00
        -11   -1    0    0    0    0  0.00000000000E+00  0.00000000000E+00  0.45593999997E+02  0.45594000000E+02  0.51100000000E-03 0. -1.
         11   -1    0    0    0    0 -0.00000000000E+00 -0.00000000000E+00 -0.45593999997E+02  0.45594000000E+02  0.51100000000E-03 0.  1.
         23    2    1    2    0    0  0.35527136788E-14 -0.35527136788E-14 -0.35527136788E-14  0.91188000000E+02  0.91188000000E+02 0.  0.
    9900012    2    3    3    0    0 -0.25254542510E+02  0.27643481559E+02  0.21946972993E+02  0.47787267130E+02  0.19999982153E+02 0.  0.
        -12    1    3    3    0    0  0.25254542510E+02 -0.27643481559E+02 -0.21946972993E+02  0.43400732870E+02  0.00000000000E+00 0.  1.
         11    1    4    4    0    0 -0.10383070316E+02  0.13249855882E+01  0.74130442924E+01  0.12826416567E+02  0.51100000000E-03 0.  1.
        -11    1    4    4    0    0 -0.91581635823E+01  0.23896166156E+02  0.11718633500E+02  0.28146493361E+02  0.51100000000E-03 0. -1.
         12    1    4    4    0    0 -0.57133086108E+01  0.24223298155E+01  0.28152952002E+01  0.68143572024E+01  0.00000000000E+00 0. -1.
</event>
<event>
 8    1  0.5331800E-011  0.9118800E+02  0.7816164E-02  0.1184000E+00
        -11   -1    0    0    0    0  0.00000000000E+00  0.00000000000E+00  0.45593999997E+02  0.45594000000E+02  0.51100000000E-03 0.  1.
         11   -1    0    0    0    0 -0.00000000000E+00 -0.00000000000E+00 -0.45593999997E+02  0.45594000000E+02  0.51100000000E-03 0. -1.
         23    2    1    2    0    0  0.00000000000E+00  0.00000000000E+00  0.17763568394E-14  0.91188000000E+02  0.91188000000E+02 0.  0.
    9900012    2    3    3    0    0 -0.35445498765E+02 -0.22625609841E+02  0.10738781904E+02  0.47787273737E+02  0.20000012277E+02 0.  0.
        -12    1    3    3    0    0  0.35445498765E+02  0.22625609841E+02 -0.10738781904E+02  0.43400726263E+02  0.00000000000E+00 0.  1.
         11    1    4    4    0    0 -0.26686857724E+02 -0.18597332725E+02  0.12059916747E+02  0.34691364226E+02  0.51100000000E-03 0. -1.
        -11    1    4    4    0    0 -0.72692731126E+01 -0.45747308846E+01 -0.43865590281E+01  0.96442933707E+01  0.51100000000E-03 0.  1.
         12    1    4    4    0    0 -0.14893679285E+01  0.54645376808E+00  0.30654241850E+01  0.34516161405E+01  0.00000000000E+00 0. -1.
</event>
<event>
 8    1  0.5331800E-011  0.9118800E+02  0.7816164E-02  0.1184000E+00
        -11   -1    0    0    0    0  0.00000000000E+00  0.00000000000E+00  0.45593999997E+02  0.45594000000E+02  0.51100000000E-03 0. -1.
         11   -1    0    0    0    0 -0.00000000000E+00 -0.00000000000E+00 -0.45593999997E+02  0.45594000000E+02  0.51100000000E-03 0.  1.
         23    2    1    2    0    0 -0.88817841970E-15  0.00000000000E+00  0.00000000000E+00  0.91188000000E+02  0.91188000000E+02 0.  0.
    9900012    2    3    3    0    0  0.61963098867E+01  0.86110243999E+01  0.42084171425E+02  0.47787291688E+02  0.20000094122E+02 0.  0.
        -12    1    3    3    0    0 -0.61963098867E+01 -0.86110243999E+01 -0.42084171425E+02  0.43400708312E+02  0.00000000000E+00 0.  1.
         11    1    4    4    0    0  0.83200087495E+01  0.61382924465E+01  0.11433186038E+02  0.15414892896E+02  0.51100000000E-03 0. -1.
        -11    1    4    4    0    0 -0.10550994392E+01 -0.15053424500E+01  0.26361114105E+02  0.26425132503E+02  0.51100000000E-03 0.  1.
        -12    1    4    4    0    0 -0.10685994236E+01  0.39780744034E+01  0.42898712825E+01  0.59472662886E+01  0.00000000000E+00 0.  1.
</event>
<event>
 8    1  0.5331800E-011  0.9118800E+02  0.7816164E-02  0.1184000E+00
        -11   -1    0    0    0    0  0.00000000000E+00  0.00000000000E+00  0.45593999997E+02  0.45594000000E+02  0.51100000000E-03 0. -1.
         11   -1    0    0    0    0 -0.00000000000E+00 -0.00000000000E+00 -0.45593999997E+02  0.45594000000E+02  0.51100000000E-03 0.  1.
         23    2    1    2    0    0  0.00000000000E+00  0.44408920985E-15 -0.71054273576E-14  0.91188000000E+02  0.91188000000E+02 0.  0.
    9900012    2    3    3    0    0  0.26446758860E+02  0.35297046940E+01 -0.34230585047E+02  0.47787276249E+02  0.20000023731E+02 0.  0.
         12    1    3    3    0    0 -0.26446758860E+02 -0.35297046940E+01  0.34230585047E+02  0.43400723751E+02  0.00000000000E+00 0. -1.
         11    1    4    4    0    0  0.17032761659E+02  0.10211646011E+02 -0.17700515826E+02  0.26602649206E+02  0.51100000000E-03 0.  1.
        -11    1    4    4    0    0  0.16020381418E+01 -0.49329804341E+01 -0.74766721505E+01  0.90995301460E+01  0.51100000000E-03 0. -1.
        -12    1    4    4    0    0  0.78119590591E+01 -0.17489608833E+01 -0.90533970701E+01  0.12085096897E+02  0.00000000000E+00 0.  1.
</event>
<event>
 8    1  0.5331800E-011  0.9118800E+02  0.7816164E-02  0.1184000E+00
        -11   -1    0    0    0    0  0.00000000000E+00  0.00000000000E+00  0.45593999997E+02  0.45594000000E+02  0.51100000000E-03 0. -1.
         11   -1    0    0    0    0 -0.00000000000E+00 -0.00000000000E+00 -0.45593999997E+02  0.45594000000E+02  0.51100000000E-03 0.  1.
         23    2    1    2    0    0 -0.88817841970E-15  0.00000000000E+00  0.00000000000E+00  0.91188000000E+02  0.91188000000E+02 0.  0.
    9900012    2    3    3    0    0 -0.56371926676E+01  0.39454025524E+02  0.17182111303E+02  0.47787273968E+02  0.20000013331E+02 0.  0.
        -12    1    3    3    0    0  0.56371926676E+01 -0.39454025524E+02 -0.17182111303E+02  0.43400726032E+02  0.00000000000E+00 0.  1.
         11    1    4    4    0    0  0.55289404586E+01  0.27863642483E+02  0.10356829096E+02  0.30235999474E+02  0.51100000000E-03 0. -1.
        -11    1    4    4    0    0 -0.86443625955E+01  0.91045535598E+01  0.60034672765E+01  0.13916160383E+02  0.51100000000E-03 0.  1.
         12    1    4    4    0    0 -0.25217705307E+01  0.24858294820E+01  0.82181492978E+00  0.36351141112E+01  0.00000000000E+00 0. -1.
</event>
<event>
 8    1  0.5331800E-011  0.9118800E+02  0.7816164E-02  0.1184000E+00
        -11   -1    0    0    0    0  0.00000000000E+00  0.00000000000E+00  0.45593999997E+02  0.45594000000E+02  0.51100000000E-03 0. -1.
         11   -1    0    0    0    0 -0.00000000000E+00 -0.00000000000E+00 -0.45593999997E+02  0.45594000000E+02  0.51100000000E-03 0.  1.
         23    2    1    2    0    0  0.00000000000E+00 -0.17763568394E-14  0.00000000000E+00  0.91188000000E+02  0.91188000000E+02 0.  0.
    9900012    2    3    3    0    0 -0.30486735646E+02  0.80847376929E+01 -0.29813074748E+02  0.47787268902E+02  0.19999990231E+02 0.  0.
         12    1    3    3    0    0  0.30486735646E+02 -0.80847376929E+01  0.29813074748E+02  0.43400731098E+02  0.00000000000E+00 0. -1.
         11    1    4    4    0    0  0.22189375488E+01 -0.12818080650E+01 -0.31781359875E+01  0.40825561082E+01  0.51100000000E-03 0. -1.
        -11    1    4    4    0    0 -0.25907976584E+02  0.94175505617E+01 -0.18989051248E+02  0.33473834212E+02  0.51100000000E-03 0.  1.
         12    1    4    4    0    0 -0.67976966104E+01 -0.51004803758E-01 -0.76458875123E+01  0.10230878581E+02  0.00000000000E+00 0. -1.
</event>
<event>
 8    1  0.5331800E-011  0.9118800E+02  0.7816164E-02  0.1184000E+00
        -11   -1    0    0    0    0  0.00000000000E+00  0.00000000000E+00  0.45593999997E+02  0.45594000000E+02  0.51100000000E-03 0. -1.
         11   -1    0    0    0    0 -0.00000000000E+00 -0.00000000000E+00 -0.45593999997E+02  0.45594000000E+02  0.51100000000E-03 0.  1.
         23    2    1    2    0    0  0.00000000000E+00  0.35527136788E-14  0.00000000000E+00  0.91188000000E+02  0.91188000000E+02 0.  0.
    9900012    2    3    3    0    0 -0.22721130754E+02  0.25285445467E+02 -0.26981841039E+02  0.47787270962E+02  0.19999999623E+02 0.  0.
         12    1    3    3    0    0  0.22721130754E+02 -0.25285445467E+02  0.26981841039E+02  0.43400729038E+02  0.00000000000E+00 0. -1.
         11    1    4    4    0    0 -0.22352133047E+02  0.18089338060E+02 -0.17069296376E+02  0.33439540700E+02  0.51100000000E-03 0.  1.
        -11    1    4    4    0    0  0.33616849121E+01  0.43201774189E+01 -0.39569004935E+01  0.67544000589E+01  0.51100000000E-03 0. -1.
        -12    1    4    4    0    0 -0.37306826195E+01  0.28759299880E+01 -0.59556441689E+01  0.75933302029E+01  0.00000000000E+00 0.  1.
</event>
<event>
 8    1  0.5331800E-011  0.9118800E+02  0.7816164E-02  0.1184000E+00
        -11   -1    0    0    0    0  0.00000000000E+00  0.00000000000E+00  0.45593999997E+02  0.45594000000E+02  0.51100000000E-03 0.  1.
         11   -1    0    0    0    0 -0.00000000000E+00 -0.00000000000E+00 -0.45593999997E+02  0.45594000000E+02  0.51100000000E-03 0. -1.
         23    2    1    2    0    0  0.00000000000E+00  0.00000000000E+00  0.00000000000E+00  0.91188000000E+02  0.91188000000E+02 0.  0.
    9900012    2    3    3    0    0  0.25306376125E+02  0.32314893972E+02  0.14105248018E+02  0.47787273432E+02  0.20000010886E+02 0.  0.
        -12    1    3    3    0    0 -0.25306376125E+02 -0.32314893972E+02 -0.14105248018E+02  0.43400726568E+02  0.00000000000E+00 0.  1.
         11    1    4    4    0    0  0.29059607097E+01  0.40233189720E+01  0.51645696808E+00  0.49898327885E+01  0.51100000000E-03 0. -1.
        -11    1    4    4    0    0  0.31220621221E+01  0.50963047729E+00  0.78959335673E+01  0.85060426920E+01  0.51100000000E-03 0.  1.
        -12    1    4    4    0    0  0.19278353293E+02  0.27781944523E+02  0.56928574828E+01  0.34291397951E+02  0.00000000000E+00 0.  1.
</event>
<event>
 8    1  0.5331800E-011  0.9118800E+02  0.7816164E-02  0.1184000E+00
        -11   -1    0    0    0    0  0.00000000000E+00  0.00000000000E+00  0.45593999997E+02  0.45594000000E+02  0.51100000000E-03 0. -1.
         11   -1    0    0    0    0 -0.00000000000E+00 -0.00000000000E+00 -0.45593999997E+02  0.45594000000E+02  0.51100000000E-03 0.  1.
         23    2    1    2    0    0 -0.35527136788E-14  0.00000000000E+00  0.00000000000E+00  0.91188000000E+02  0.91188000000E+02 0.  0.
    9900012    2    3    3    0    0 -0.21610642779E+02 -0.19148336635E+02 -0.32402848740E+02  0.47787270932E+02  0.19999999487E+02 0.  0.
         12    1    3    3    0    0  0.21610642779E+02  0.19148336635E+02  0.32402848740E+02  0.43400729068E+02  0.00000000000E+00 0. -1.
         11    1    4    4    0    0 -0.69409826932E+00 -0.11082567413E+01 -0.51849501966E+01  0.53473090629E+01  0.51100000000E-03 0. -1.
        -11    1    4    4    0    0 -0.15246750268E+02 -0.19266393970E+02 -0.27180041355E+02  0.36638940741E+02  0.51100000000E-03 0.  1.
        -12    1    4    4    0    0 -0.56697942415E+01  0.12263140770E+01 -0.37857188759E-01  0.58010211276E+01  0.00000000000E+00 0.  1.
</event>
<event>
 8    1  0.5331800E-011  0.9118800E+02  0.7816164E-02  0.1184000E+00
        -11   -1    0    0    0    0  0.00000000000E+00  0.00000000000E+00  0.45593999997E+02  0.45594000000E+02  0.51100000000E-03 0. -1.
         11   -1    0    0    0    0 -0.00000000000E+00 -0.00000000000E+00 -0.45593999997E+02  0.45594000000E+02  0.51100000000E-03 0.  1.
         23    2    1    2    0    0  0.00000000000E+00 -0.71054273576E-14  0.00000000000E+00  0.91188000000E+02  0.91188000000E+02 0.  0.
    9900012    2    3    3    0    0 -0.11681665597E+02  0.41407326047E+02 -0.57093286203E+01  0.47787258131E+02  0.19999941123E+02 0.  0.
         12    1    3    3    0    0  0.11681665597E+02 -0.41407326047E+02  0.57093286203E+01  0.43400741869E+02  0.00000000000E+00 0. -1.
         11    1    4    4    0    0 -0.89173011169E+01  0.14886386500E+02 -0.58020687552E+01  0.18297179136E+02  0.51100000000E-03 0.  1.
        -11    1    4    4    0    0  0.12430296048E+01  0.18779598732E+02  0.50175164207E+01  0.19478036924E+02  0.51100000000E-03 0. -1.
         12    1    4    4    0    0 -0.40073940845E+01  0.77413408152E+01 -0.49247762858E+01  0.10012042071E+02  0.00000000000E+00 0. -1.
</event>
<event>
 8    1  0.5331800E-011  0.9118800E+02  0.7816164E-02  0.1184000E+00
        -11   -1    0    0    0    0  0.00000000000E+00  0.00000000000E+00  0.45593999997E+02  0.45594000000E+02  0.51100000000E-03 0. -1.
         11   -1    0    0    0    0 -0.00000000000E+00 -0.00000000000E+00 -0.45593999997E+02  0.45594000000E+02  0.51100000000E-03 0.  1.
         23    2    1    2    0    0  0.17763568394E-14  0.00000000000E+00  0.00000000000E+00  0.91188000000E+02  0.91188000000E+02 0.  0.
    9900012    2    3    3    0    0  0.10744514908E+02  0.26827440831E+02  0.32380043141E+02  0.47787269869E+02  0.19999994640E+02 0.  0.
        -12    1    3    3    0    0 -0.10744514908E+02 -0.26827440831E+02 -0.32380043141E+02  0.43400730131E+02  0.00000000000E+00 0.  1.
         11    1    4    4    0    0  0.91470486352E+00  0.51167920110E+00  0.11782224056E+02  0.11828749070E+02  0.51100000000E-03 0. -1.
        -11    1    4    4    0    0  0.75975155399E+01  0.23333005512E+02  0.20883185892E+02  0.32222024174E+02  0.51100000000E-03 0.  1.
         12    1    4    4    0    0  0.22322945043E+01  0.29827561181E+01 -0.28536680760E+00  0.37364966250E+01  0.00000000000E+00 0. -1.
</event>
<event>
 8    1  0.5331800E-011  0.9118800E+02  0.7816164E-02  0.1184000E+00
        -11   -1    0    0    0    0  0.00000000000E+00  0.00000000000E+00  0.45593999997E+02  0.45594000000E+02  0.51100000000E-03 0. -1.
         11   -1    0    0    0    0 -0.00000000000E+00 -0.00000000000E+00 -0.45593999997E+02  0.45594000000E+02  0.51100000000E-03 0.  1.
         23    2    1    2    0    0 -0.35527136788E-14  0.00000000000E+00  0.35527136788E-14  0.91188000000E+02  0.91188000000E+02 0.  0.
    9900012    2    3    3    0    0 -0.25327871172E+02  0.23959359239E+02 -0.25847065543E+02  0.47787277075E+02  0.20000027496E+02 0.  0.
         12    1    3    3    0    0  0.25327871172E+02 -0.23959359239E+02  0.25847065543E+02  0.43400722925E+02  0.00000000000E+00 0. -1.
         11    1    4    4    0    0 -0.18530469085E+02  0.55599208032E+01 -0.16322073552E+02  0.25312073980E+02  0.51100000000E-03 0. -1.
        -11    1    4    4    0    0 -0.48808712529E+01  0.58056431665E+01 -0.41822023970E+01  0.86613632827E+01  0.51100000000E-03 0.  1.
         12    1    4    4    0    0 -0.19165308339E+01  0.12593795269E+02 -0.53427895932E+01  0.13813839812E+02  0.00000000000E+00 0. -1.
</event>
<event>
 8    1  0.5331800E-011  0.9118800E+02  0.7816164E-02  0.1184000E+00
        -11   -1    0    0    0    0  0.00000000000E+00  0.00000000000E+00  0.45593999997E+02  0.45594000000E+02  0.51100000000E-03 0.  1.
         11   -1    0    0    0    0 -0.00000000000E+00 -0.00000000000E+00 -0.45593999997E+02  0.45594000000E+02  0.51100000000E-03 0. -1.
         23    2    1    2    0    0  0.11102230246E-14  0.00000000000E+00  0.00000000000E+00  0.91188000000E+02  0.91188000000E+02 0.  0.
    9900012    2    3    3    0    0 -0.35166431581E+00  0.32132565121E+02 -0.29171868233E+02  0.47787270683E+02  0.19999998351E+02 0.  0.
        -12    1    3    3    0    0  0.35166431581E+00 -0.32132565121E+02  0.29171868233E+02  0.43400729317E+02  0.00000000000E+00 0.  1.
         11    1    4    4    0    0  0.71584594343E+00  0.13788789149E+02 -0.12555829234E+02  0.18662582609E+02  0.51100000000E-03 0. -1.
        -11    1    4    4    0    0  0.70483163171E+01  0.85886878802E+01 -0.92129762779E+01  0.14433407587E+02  0.51100000000E-03 0.  1.
        -12    1    4    4    0    0 -0.81158265764E+01  0.97550880915E+01 -0.74030627220E+01  0.14691280487E+02  0.00000000000E+00 0.  1.
</event>
<event>
 8    1  0.5331800E-011  0.9118800E+02  0.7816164E-02  0.1184000E+00
        -11   -1    0    0    0    0  0.00000000000E+00  0.00000000000E+00  0.45593999997E+02  0.45594000000E+02  0.51100000000E-03 0. -1.
         11   -1    0    0    0    0 -0.00000000000E+00 -0.00000000000E+00 -0.45593999997E+02  0.45594000000E+02  0.51100000000E-03 0.  1.
         23    2    1    2    0    0 -0.35527136788E-14  0.35527136788E-14  0.00000000000E+00  0.91188000000E+02  0.91188000000E+02 0.  0.
    9900012    2    3    3    0    0 -0.18859657123E+02  0.30445112204E+02  0.24515902246E+02  0.47787297393E+02  0.20000120131E+02 0.  0.
        -12    1    3    3    0    0  0.18859657123E+02 -0.30445112204E+02 -0.24515902246E+02  0.43400702607E+02  0.00000000000E+00 0.  1.
         11    1    4    4    0    0 -0.32146658955E+01  0.98816838807E+01  0.83480070470E+01  0.13329327630E+02  0.51100000000E-03 0.  1.
        -11    1    4    4    0    0 -0.11089832148E+02  0.18101153052E+02  0.45102046136E+01  0.21702029048E+02  0.51100000000E-03 0. -1.
        -12    1    4    4    0    0 -0.45551590797E+01  0.24622752712E+01  0.11657690585E+02  0.12755940715E+02  0.00000000000E+00 0.  1.
</event>
<event>
 8    1  0.5331800E-011  0.9118800E+02  0.7816164E-02  0.1184000E+00
        -11   -1    0    0    0    0  0.00000000000E+00  0.00000000000E+00  0.45593999997E+02  0.45594000000E+02  0.51100000000E-03 0. -1.
         11   -1    0    0    0    0 -0.00000000000E+00 -0.00000000000E+00 -0.45593999997E+02  0.45594000000E+02  0.51100000000E-03 0.  1.
         23    2    1    2    0    0  0.00000000000E+00  0.00000000000E+00  0.00000000000E+00  0.91188000000E+02  0.91188000000E+02 0.  0.
    9900012    2    3    3    0    0  0.29046334620E+02  0.16120777710E+02 -0.27929450036E+02  0.47787271801E+02  0.20000003451E+02 0.  0.
         12    1    3    3    0    0 -0.29046334620E+02 -0.16120777710E+02  0.27929450036E+02  0.43400728199E+02  0.00000000000E+00 0. -1.
         11    1    4    4    0    0 -0.10370792790E+01 -0.18771044598E+01 -0.48491827721E+01  0.53022286260E+01  0.51100000000E-03 0. -1.
        -11    1    4    4    0    0  0.25366429805E+02  0.12066474083E+02 -0.18272226739E+02  0.33510145153E+02  0.51100000000E-03 0.  1.
        -12    1    4    4    0    0  0.47169840937E+01  0.59314080866E+01 -0.48080405246E+01  0.89748980227E+01  0.00000000000E+00 0.  1.
</event>
<event>
 8    1  0.5331800E-011  0.9118800E+02  0.7816164E-02  0.1184000E+00
        -11   -1    0    0    0    0  0.00000000000E+00  0.00000000000E+00  0.45593999997E+02  0.45594000000E+02  0.51100000000E-03 0. -1.
         11   -1    0    0    0    0 -0.00000000000E+00 -0.00000000000E+00 -0.45593999997E+02  0.45594000000E+02  0.51100000000E-03 0.  1.
         23    2    1    2    0    0  0.00000000000E+00  0.00000000000E+00  0.00000000000E+00  0.91188000000E+02  0.91188000000E+02 0.  0.
    9900012    2    3    3    0    0  0.20518619968E+02 -0.25065823400E+02  0.28884495138E+02  0.47787270427E+02  0.19999997184E+02 0.  0.
        -12    1    3    3    0    0 -0.20518619968E+02  0.25065823400E+02 -0.28884495138E+02  0.43400729573E+02  0.00000000000E+00 0.  1.
         11    1    4    4    0    0  0.10603069100E+02 -0.81391186530E+01  0.23203583095E+02  0.26778285895E+02  0.51100000000E-03 0. -1.
        -11    1    4    4    0    0  0.41867567109E+01 -0.10322742248E+02  0.12548513366E+01  0.11209932712E+02  0.51100000000E-03 0.  1.
         12    1    4    4    0    0  0.57287941570E+01 -0.66039624989E+01  0.44260607073E+01  0.97990518197E+01  0.00000000000E+00 0. -1.
</event>
<event>
 8    1  0.5331800E-011  0.9118800E+02  0.7816164E-02  0.1184000E+00
        -11   -1    0    0    0    0  0.00000000000E+00  0.00000000000E+00  0.45593999997E+02  0.45594000000E+02  0.51100000000E-03 0. -1.
         11   -1    0    0    0    0 -0.00000000000E+00 -0.00000000000E+00 -0.45593999997E+02  0.45594000000E+02  0.51100000000E-03 0.  1.
         23    2    1    2    0    0  0.14432899320E-14  0.00000000000E+00  0.00000000000E+00  0.91188000000E+02  0.91188000000E+02 0.  0.
    9900012    2    3    3    0    0  0.79946248184E+00  0.93090960284E+01 -0.42383075441E+02  0.47787268520E+02  0.19999988492E+02 0.  0.
         12    1    3    3    0    0 -0.79946248184E+00 -0.93090960284E+01  0.42383075441E+02  0.43400731480E+02  0.00000000000E+00 0. -1.
         11    1    4    4    0    0  0.66459202966E+01  0.38758965828E+01 -0.25442883382E+02  0.26580653603E+02  0.51100000000E-03 0. -1.
        -11    1    4    4    0    0 -0.35813323107E+01  0.79382980979E+01 -0.87399782890E+01  0.12338141617E+02  0.51100000000E-03 0.  1.
        -12    1    4    4    0    0 -0.22651255040E+01 -0.25050986523E+01 -0.82002137694E+01  0.88684732999E+01  0.00000000000E+00 0.  1.
</event>
<event>
 8    1  0.5331800E-011  0.9118800E+02  0.7816164E-02  0.1184000E+00
        -11   -1    0    0    0    0  0.00000000000E+00  0.00000000000E+00  0.45593999997E+02  0.45594000000E+02  0.51100000000E-03 0. -1.
         11   -1    0    0    0    0 -0.00000000000E+00 -0.00000000000E+00 -0.45593999997E+02  0.45594000000E+02  0.51100000000E-03 0.  1.
         23    2    1    2    0    0  0.35527136788E-14  0.00000000000E+00  0.71054273576E-14  0.91188000000E+02  0.91188000000E+02 0.  0.
    9900012    2    3    3    0    0 -0.25818371243E+02  0.92028448953E+01 -0.33650296192E+02  0.47787273259E+02  0.20000010099E+02 0.  0.
         12    1    3    3    0    0  0.25818371243E+02 -0.92028448953E+01  0.33650296192E+02  0.43400726741E+02  0.00000000000E+00 0. -1.
         11    1    4    4    0    0 -0.19333442915E+01  0.17024925150E+01 -0.52572975029E+00  0.26292000579E+01  0.51100000000E-03 0. -1.
        -11    1    4    4    0    0 -0.13439699119E+02  0.53182039179E+01 -0.53634047146E+01  0.15416708978E+02  0.51100000000E-03 0.  1.
        -12    1    4    4    0    0 -0.10445327833E+02  0.21821484625E+01 -0.27761161727E+02  0.29741364223E+02  0.00000000000E+00 0.  1.
</event>
<event>
 8    1  0.5331800E-011  0.9118800E+02  0.7816164E-02  0.1184000E+00
        -11   -1    0    0    0    0  0.00000000000E+00  0.00000000000E+00  0.45593999997E+02  0.45594000000E+02  0.51100000000E-03 0. -1.
         11   -1    0    0    0    0 -0.00000000000E+00 -0.00000000000E+00 -0.45593999997E+02  0.45594000000E+02  0.51100000000E-03 0.  1.
         23    2    1    2    0    0  0.00000000000E+00  0.33306690739E-15  0.00000000000E+00  0.91188000000E+02  0.91188000000E+02 0.  0.
    9900012    2    3    3    0    0 -0.15039899050E+02  0.56310261920E+00 -0.40707580201E+02  0.47787277267E+02  0.20000028370E+02 0.  0.
         12    1    3    3    0    0  0.15039899050E+02 -0.56310261920E+00  0.40707580201E+02  0.43400722733E+02  0.00000000000E+00 0. -1.
         11    1    4    4    0    0 -0.16444507048E+01  0.32746947904E+01  0.74956878068E+00  0.37402804318E+01  0.51100000000E-03 0. -1.
        -11    1    4    4    0    0  0.17166643384E-01 -0.13041252851E+01 -0.24701625663E+01  0.27933386507E+01  0.51100000000E-03 0.  1.
         12    1    4    4    0    0 -0.13412614988E+02 -0.14074668861E+01 -0.38986986415E+02  0.41253658184E+02  0.00000000000E+00 0. -1.
</event>
<event>
 8    1  0.5331800E-011  0.9118800E+02  0.7816164E-02  0.1184000E+00
        -11   -1    0    0    0    0  0.00000000000E+00  0.00000000000E+00  0.45593999997E+02  0.45594000000E+02  0.51100000000E-03 0. -1.
         11   -1    0    0    0    0 -0.00000000000E+00 -0.00000000000E+00 -0.45593999997E+02  0.45594000000E+02  0.51100000000E-03 0.  1.
         23    2    1    2    0    0  0.00000000000E+00  0.00000000000E+00 -0.17763568394E-14  0.91188000000E+02  0.91188000000E+02 0.  0.
    9900012    2    3    3    0    0 -0.40657807934E+02 -0.94132549816E+01 -0.11914550836E+02  0.47787271469E+02  0.20000001937E+02 0.  0.
         12    1    3    3    0    0  0.40657807934E+02  0.94132549816E+01  0.11914550836E+02  0.43400728531E+02  0.00000000000E+00 0. -1.
         11    1    4    4    0    0 -0.61277237025E+01 -0.16630597412E+01  0.42509628337E+01  0.76410372825E+01  0.51100000000E-03 0. -1.
        -11    1    4    4    0    0 -0.35162444970E+02 -0.73749239007E+01 -0.16198018737E+02  0.39410187136E+02  0.51100000000E-03 0.  1.
         12    1    4    4    0    0  0.63236073838E+00 -0.37527133971E+00  0.32505067240E-01  0.73604705097E+00  0.00000000000E+00 0. -1.
</event>
<event>
 8    1  0.5331800E-011  0.9118800E+02  0.7816164E-02  0.1184000E+00
        -11   -1    0    0    0    0  0.00000000000E+00  0.00000000000E+00  0.45593999997E+02  0.45594000000E+02  0.51100000000E-03 0. -1.
         11   -1    0    0    0    0 -0.00000000000E+00 -0.00000000000E+00 -0.45593999997E+02  0.45594000000E+02  0.51100000000E-03 0.  1.
         23    2    1    2    0    0  0.00000000000E+00  0.00000000000E+00  0.35527136788E-14  0.91188000000E+02  0.91188000000E+02 0.  0.
    9900012    2    3    3    0    0 -0.35638611564E+02  0.17847183860E+02  0.17175295124E+02  0.47787269954E+02  0.19999995027E+02 0.  0.
        -12    1    3    3    0    0  0.35638611564E+02 -0.17847183860E+02 -0.17175295124E+02  0.43400730046E+02  0.00000000000E+00 0.  1.
         11    1    4    4    0    0 -0.22994605277E+02  0.29071250866E+01  0.62681334544E+01  0.24010263335E+02  0.51100000000E-03 0. -1.
        -11    1    4    4    0    0 -0.96538561622E+01  0.91531039538E+01  0.11000824156E+02  0.17262513814E+02  0.51100000000E-03 0.  1.
         12    1    4    4    0    0 -0.29901501248E+01  0.57869548193E+01 -0.93662487026E-01  0.65144928053E+01  0.00000000000E+00 0. -1.
</event>
<event>
 8    1  0.5331800E-011  0.9118800E+02  0.7816164E-02  0.1184000E+00
        -11   -1    0    0    0    0  0.00000000000E+00  0.00000000000E+00  0.45593999997E+02  0.45594000000E+02  0.51100000000E-03 0. -1.
         11   -1    0    0    0    0 -0.00000000000E+00 -0.00000000000E+00 -0.45593999997E+02  0.45594000000E+02  0.51100000000E-03 0.  1.
         23    2    1    2    0    0 -0.44408920985E-15 -0.35527136788E-14 -0.35527136788E-14  0.91188000000E+02  0.91188000000E+02 0.  0.
    9900012    2    3    3    0    0  0.39124283958E+01  0.30277093106E+02  0.30848238985E+02  0.47787270612E+02  0.19999998030E+02 0.  0.
        -12    1    3    3    0    0 -0.39124283958E+01 -0.30277093106E+02 -0.30848238985E+02  0.43400729388E+02  0.00000000000E+00 0.  1.
         11    1    4    4    0    0 -0.26490962474E+01 -0.51381317948E+00 -0.78139024483E+00  0.28093212503E+01  0.51100000000E-03 0. -1.
        -11    1    4    4    0    0  0.13553770578E+01  0.41169113029E+01  0.20047259113E+01  0.47754509615E+01  0.51100000000E-03 0.  1.
         12    1    4    4    0    0  0.52061475853E+01  0.26673994983E+02  0.29624903318E+02  0.40202498401E+02  0.00000000000E+00 0. -1.
</event>
<event>
 8    1  0.5331800E-011  0.9118800E+02  0.7816164E-02  0.1184000E+00
        -11   -1    0    0    0    0  0.00000000000E+00  0.00000000000E+00  0.45593999997E+02  0.45594000000E+02  0.51100000000E-03 0. -1.
         11   -1    0    0    0    0 -0.00000000000E+00 -0.00000000000E+00 -0.45593999997E+02  0.45594000000E+02  0.51100000000E-03 0.  1.
         23    2    1    2    0    0  0.00000000000E+00  0.00000000000E+00  0.00000000000E+00  0.91188000000E+02  0.91188000000E+02 0.  0.
    9900012    2    3    3    0    0  0.16408252870E+02  0.25323899031E+02  0.31194444324E+02  0.47787262897E+02  0.19999962854E+02 0.  0.
        -12    1    3    3    0    0 -0.16408252870E+02 -0.25323899031E+02 -0.31194444324E+02  0.43400737103E+02  0.00000000000E+00 0.  1.
         11    1    4    4    0    0  0.15413693924E+02  0.26424120173E+02  0.29033257795E+02  0.42175184003E+02  0.51100000000E-03 0. -1.
        -11    1    4    4    0    0  0.15232539738E+01 -0.12801899065E+01  0.35752902178E+01  0.40916853823E+01  0.51100000000E-03 0.  1.
         12    1    4    4    0    0 -0.52869502731E+00  0.17996876462E+00 -0.14141036887E+01  0.15203935117E+01  0.00000000000E+00 0. -1.
</event>
<event>
 8    1  0.5331800E-011  0.9118800E+02  0.7816164E-02  0.1184000E+00
        -11   -1    0    0    0    0  0.00000000000E+00  0.00000000000E+00  0.45593999997E+02  0.45594000000E+02  0.51100000000E-03 0. -1.
         11   -1    0    0    0    0 -0.00000000000E+00 -0.00000000000E+00 -0.45593999997E+02  0.45594000000E+02  0.51100000000E-03 0.  1.
         23    2    1    2    0    0 -0.88817841970E-15 -0.44408920985E-15  0.00000000000E+00  0.91188000000E+02  0.91188000000E+02 0.  0.
    9900012    2    3    3    0    0 -0.67419441350E+01  0.29764386855E+01 -0.42770437134E+02  0.47787270852E+02  0.19999999121E+02 0.  0.
         12    1    3    3    0    0  0.67419441350E+01 -0.29764386855E+01  0.42770437134E+02  0.43400729148E+02  0.00000000000E+00 0. -1.
         11    1    4    4    0    0  0.15605684094E+01  0.76471694470E+01 -0.22576915904E+02  0.23887898742E+02  0.51100000000E-03 0. -1.
        -11    1    4    4    0    0 -0.28977738273E+00  0.11410270305E+01 -0.84898597442E+01  0.85710928331E+01  0.51100000000E-03 0.  1.
         12    1    4    4    0    0 -0.80127351616E+01 -0.58117577919E+01 -0.11703661485E+02  0.15328279276E+02  0.00000000000E+00 0. -1.
</event>
<event>
 8    1  0.5331800E-011  0.9118800E+02  0.7816164E-02  0.1184000E+00
        -11   -1    0    0    0    0  0.00000000000E+00  0.00000000000E+00  0.45593999997E+02  0.45594000000E+02  0.51100000000E-03 0. -1.
         11   -1    0    0    0    0 -0.00000000000E+00 -0.00000000000E+00 -0.45593999997E+02  0.45594000000E+02  0.51100000000E-03 0.  1.
         23    2    1    2    0    0 -0.35527136788E-14  0.17763568394E-14  0.00000000000E+00  0.91188000000E+02  0.91188000000E+02 0.  0.
    9900012    2    3    3    0    0 -0.31092673505E+02  0.12606002740E+02  0.27531045874E+02  0.47787261093E+02  0.19999954625E+02 0.  0.
        -12    1    3    3    0    0  0.31092673505E+02 -0.12606002740E+02 -0.27531045874E+02  0.43400738907E+02  0.00000000000E+00 0.  1.
         11    1    4    4    0    0 -0.60340359742E+01  0.18894218257E+01  0.10096385955E+02  0.11912871802E+02  0.51100000000E-03 0. -1.
        -11    1    4    4    0    0 -0.18029168404E+02  0.10525659803E+02  0.48105643844E+01  0.21423864208E+02  0.51100000000E-03 0.  1.
        -12    1    4    4    0    0 -0.70294691267E+01  0.19092111136E+00  0.12624095535E+02  0.14450525083E+02  0.00000000000E+00 0.  1.
</event>
<event>
 8    1  0.5331800E-011  0.9118800E+02  0.7816164E-02  0.1184000E+00
        -11   -1    0    0    0    0  0.00000000000E+00  0.00000000000E+00  0.45593999997E+02  0.45594000000E+02  0.51100000000E-03 0.  1.
         11   -1    0    0    0    0 -0.00000000000E+00 -0.00000000000E+00 -0.45593999997E+02  0.45594000000E+02  0.51100000000E-03 0. -1.
         23    2    1    2    0    0 -0.71054273576E-14 -0.17763568394E-14  0.00000000000E+00  0.91188000000E+02  0.91188000000E+02 0.  0.
    9900012    2    3    3    0    0  0.38714931793E+02  0.13463496523E+02  0.14265750504E+02  0.47787270515E+02  0.19999997588E+02 0.  0.
        -12    1    3    3    0    0 -0.38714931793E+02 -0.13463496523E+02 -0.14265750504E+02  0.43400729485E+02  0.00000000000E+00 0.  1.
         11    1    4    4    0    0  0.25511789284E+02  0.12466129110E+01  0.43094717478E+01  0.25903223414E+02  0.51100000000E-03 0. -1.
        -11    1    4    4    0    0  0.94536522208E+01  0.10102402853E+02  0.37570602001E+01  0.14336861069E+02  0.51100000000E-03 0.  1.
         12    1    4    4    0    0  0.37494902876E+01  0.21144807598E+01  0.61992185559E+01  0.75471860322E+01  0.00000000000E+00 0. -1.
</event>
<event>
 8    1  0.5331800E-011  0.9118800E+02  0.7816164E-02  0.1184000E+00
        -11   -1    0    0    0    0  0.00000000000E+00  0.00000000000E+00  0.45593999997E+02  0.45594000000E+02  0.51100000000E-03 0. -1.
         11   -1    0    0    0    0 -0.00000000000E+00 -0.00000000000E+00 -0.45593999997E+02  0.45594000000E+02  0.51100000000E-03 0.  1.
         23    2    1    2    0    0  0.17763568394E-14  0.71054273576E-14  0.00000000000E+00  0.91188000000E+02  0.91188000000E+02 0.  0.
    9900012    2    3    3    0    0 -0.12223494828E+02  0.39749544267E+02  0.12417025392E+02  0.47787278637E+02  0.20000034618E+02 0.  0.
        -12    1    3    3    0    0  0.12223494828E+02 -0.39749544267E+02 -0.12417025392E+02  0.43400721363E+02  0.00000000000E+00 0.  1.
         11    1    4    4    0    0  0.14180565792E+01  0.71897043431E+01  0.90633715263E+01  0.11655360856E+02  0.51100000000E-03 0. -1.
        -11    1    4    4    0    0 -0.10222945385E+01  0.82017154329E-01 -0.36987437531E+00  0.10902386215E+01  0.51100000000E-03 0.  1.
         12    1    4    4    0    0 -0.12619256869E+02  0.32477822769E+02  0.37235282409E+01  0.35041679160E+02  0.00000000000E+00 0. -1.
</event>
<event>
 8    1  0.5331800E-011  0.9118800E+02  0.7816164E-02  0.1184000E+00
        -11   -1    0    0    0    0  0.00000000000E+00  0.00000000000E+00  0.45593999997E+02  0.45594000000E+02  0.51100000000E-03 0. -1.
         11   -1    0    0    0    0 -0.00000000000E+00 -0.00000000000E+00 -0.45593999997E+02  0.45594000000E+02  0.51100000000E-03 0.  1.
         23    2    1    2    0    0 -0.88817841970E-15  0.00000000000E+00  0.00000000000E+00  0.91188000000E+02  0.91188000000E+02 0.  0.
    9900012    2    3    3    0    0 -0.73544208902E+01  0.24326765429E+02 -0.35181590208E+02  0.47787270600E+02  0.19999997973E+02 0.  0.
         12    1    3    3    0    0  0.73544208902E+01 -0.24326765429E+02  0.35181590208E+02  0.43400729400E+02  0.00000000000E+00 0. -1.
         11    1    4    4    0    0 -0.11091147775E+02  0.16539615101E+02 -0.17582913386E+02  0.26565603138E+02  0.51100000000E-03 0.  1.
        -11    1    4    4    0    0  0.49096861303E+01  0.87626464846E+01 -0.13344641167E+02  0.16702348321E+02  0.51100000000E-03 0. -1.
        -12    1    4    4    0    0 -0.11729592452E+01 -0.97549615620E+00 -0.42540356552E+01  0.45193191409E+01  0.00000000000E+00 0.  1.
</event>
<event>
 8    1  0.5331800E-011  0.9118800E+02  0.7816164E-02  0.1184000E+00
        -11   -1    0    0    0    0  0.00000000000E+00  0.00000000000E+00  0.45593999997E+02  0.45594000000E+02  0.51100000000E-03 0.  1.
         11   -1    0    0    0    0 -0.00000000000E+00 -0.00000000000E+00 -0.45593999997E+02  0.45594000000E+02  0.51100000000E-03 0. -1.
         23    2    1    2    0    0 -0.44408920985E-15  0.71054273576E-14  0.00000000000E+00  0.91188000000E+02  0.91188000000E+02 0.  0.
    9900012    2    3    3    0    0  0.78041258153E+00  0.37469107483E+02  0.21887920335E+02  0.47787261343E+02  0.19999955767E+02 0.  0.
        -12    1    3    3    0    0 -0.78041258153E+00 -0.37469107483E+02 -0.21887920335E+02  0.43400738657E+02  0.00000000000E+00 0.  1.
         11    1    4    4    0    0  0.21936199299E+01  0.20617900155E+02  0.12946238498E+01  0.20774643832E+02  0.51100000000E-03 0. -1.
        -11    1    4    4    0    0 -0.14438632455E+01  0.72886546508E+01  0.12222584357E+02  0.14303873472E+02  0.51100000000E-03 0.  1.
        -12    1    4    4    0    0  0.30655897163E-01  0.95625526777E+01  0.83707121282E+01  0.12708744038E+02  0.00000000000E+00 0.  1.
</event>
<event>
 8    1  0.5331800E-011  0.9118800E+02  0.7816164E-02  0.1184000E+00
        -11   -1    0    0    0    0  0.00000000000E+00  0.00000000000E+00  0.45593999997E+02  0.45594000000E+02  0.51100000000E-03 0. -1.
         11   -1    0    0    0    0 -0.00000000000E+00 -0.00000000000E+00 -0.45593999997E+02  0.45594000000E+02  0.51100000000E-03 0.  1.
         23    2    1    2    0    0 -0.35527136788E-14 -0.22204460493E-15 -0.71054273576E-14  0.91188000000E+02  0.91188000000E+02 0.  0.
    9900012    2    3    3    0    0 -0.18013449552E+02 -0.11935789926E+01 -0.39467871057E+02  0.47787287548E+02  0.20000075244E+02 0.  0.
         12    1    3    3    0    0  0.18013449552E+02  0.11935789926E+01  0.39467871057E+02  0.43400712452E+02  0.00000000000E+00 0. -1.
         11    1    4    4    0    0  0.29832050147E+01 -0.43249248610E+01 -0.51690134713E+01  0.73704265644E+01  0.51100000000E-03 0. -1.
        -11    1    4    4    0    0 -0.18202898803E+02  0.29908971847E+01 -0.28072638050E+02  0.33591129754E+02  0.51100000000E-03 0.  1.
         12    1    4    4    0    0 -0.27937557638E+01  0.14044868376E+00 -0.62262195360E+01  0.68257312290E+01  0.00000000000E+00 0. -1.
</event>
<event>
 8    1  0.5331800E-011  0.9118800E+02  0.7816164E-02  0.1184000E+00
        -11   -1    0    0    0    0  0.00000000000E+00  0.00000000000E+00  0.45593999997E+02  0.45594000000E+02  0.51100000000E-03 0. -1.
         11   -1    0    0    0    0 -0.00000000000E+00 -0.00000000000E+00 -0.45593999997E+02  0.45594000000E+02  0.51100000000E-03 0.  1.
         23    2    1    2    0    0  0.88817841970E-15  0.00000000000E+00  0.00000000000E+00  0.91188000000E+02  0.91188000000E+02 0.  0.
    9900012    2    3    3    0    0  0.75154212339E+01  0.18559994278E+02  0.38505430970E+02  0.47787272378E+02  0.20000006079E+02 0.  0.
        -12    1    3    3    0    0 -0.75154212339E+01 -0.18559994278E+02 -0.38505430970E+02  0.43400727622E+02  0.00000000000E+00 0.  1.
         11    1    4    4    0    0  0.92898914006E+01  0.85056025388E+01  0.10223919267E+02  0.16222696515E+02  0.51100000000E-03 0. -1.
        -11    1    4    4    0    0 -0.90649376623E+00 -0.12100707870E+00  0.13877665716E+02  0.13907766883E+02  0.51100000000E-03 0.  1.
         12    1    4    4    0    0 -0.86797640045E+00  0.10175398818E+02  0.14403845987E+02  0.17656808980E+02  0.00000000000E+00 0. -1.
</event>
<event>
 8    1  0.5331800E-011  0.9118800E+02  0.7816164E-02  0.1184000E+00
        -11   -1    0    0    0    0  0.00000000000E+00  0.00000000000E+00  0.45593999997E+02  0.45594000000E+02  0.51100000000E-03 0.  1.
         11   -1    0    0    0    0 -0.00000000000E+00 -0.00000000000E+00 -0.45593999997E+02  0.45594000000E+02  0.51100000000E-03 0. -1.
         23    2    1    2    0    0  0.00000000000E+00  0.35527136788E-14  0.35527136788E-14  0.91188000000E+02  0.91188000000E+02 0.  0.
    9900012    2    3    3    0    0  0.46365694724E+01 -0.30886799767E+02  0.30135218921E+02  0.47787267337E+02  0.19999983095E+02 0.  0.
        -12    1    3    3    0    0 -0.46365694724E+01  0.30886799767E+02 -0.30135218921E+02  0.43400732663E+02  0.00000000000E+00 0.  1.
         11    1    4    4    0    0  0.29491313476E+01 -0.16918895397E+02  0.47351752397E+01  0.17814833200E+02  0.51100000000E-03 0. -1.
        -11    1    4    4    0    0 -0.28084473035E+01 -0.67113564841E+01  0.10026907253E+02  0.12388242467E+02  0.51100000000E-03 0.  1.
         12    1    4    4    0    0  0.44958854283E+01 -0.72565478859E+01  0.15373136429E+02  0.17584191669E+02  0.00000000000E+00 0. -1.
</event>
<event>
 8    1  0.5331800E-011  0.9118800E+02  0.7816164E-02  0.1184000E+00
        -11   -1    0    0    0    0  0.00000000000E+00  0.00000000000E+00  0.45593999997E+02  0.45594000000E+02  0.51100000000E-03 0. -1.
         11   -1    0    0    0    0 -0.00000000000E+00 -0.00000000000E+00 -0.45593999997E+02  0.45594000000E+02  0.51100000000E-03 0.  1.
         23    2    1    2    0    0 -0.88817841970E-15 -0.17763568394E-14 -0.71054273576E-14  0.91188000000E+02  0.91188000000E+02 0.  0.
    9900012    2    3    3    0    0  0.65533860641E+01 -0.12358159337E+02  0.41084698296E+02  0.47787269532E+02  0.19999993103E+02 0.  0.
        -12    1    3    3    0    0 -0.65533860641E+01  0.12358159337E+02 -0.41084698296E+02  0.43400730468E+02  0.00000000000E+00 0.  1.
         11    1    4    4    0    0 -0.54129082589E+01 -0.61124947746E+00  0.71841418154E+01  0.90158247336E+01  0.51100000000E-03 0.  1.
        -11    1    4    4    0    0  0.10915208050E+02 -0.60652076110E+01  0.18474811616E+02  0.22299039770E+02  0.51100000000E-03 0. -1.
         12    1    4    4    0    0  0.10510862733E+01 -0.56817022488E+01  0.15425744864E+02  0.16472405028E+02  0.00000000000E+00 0. -1.
</event>
<event>
 8    1  0.5331800E-011  0.9118800E+02  0.7816164E-02  0.1184000E+00
        -11   -1    0    0    0    0  0.00000000000E+00  0.00000000000E+00  0.45593999997E+02  0.45594000000E+02  0.51100000000E-03 0. -1.
         11   -1    0    0    0    0 -0.00000000000E+00 -0.00000000000E+00 -0.45593999997E+02  0.45594000000E+02  0.51100000000E-03 0.  1.
         23    2    1    2    0    0 -0.22204460493E-15  0.35527136788E-14  0.00000000000E+00  0.91188000000E+02  0.91188000000E+02 0.  0.
    9900012    2    3    3    0    0 -0.13826280935E+01 -0.28282969933E+02  0.32890511162E+02  0.47787265292E+02  0.19999973773E+02 0.  0.
        -12    1    3    3    0    0  0.13826280935E+01  0.28282969933E+02 -0.32890511162E+02  0.43400734708E+02  0.00000000000E+00 0.  1.
         11    1    4    4    0    0  0.46352076452E+01 -0.93153291666E+01  0.93031436982E+01  0.13957399125E+02  0.51100000000E-03 0. -1.
        -11    1    4    4    0    0 -0.48984602244E+01 -0.53175944758E+01  0.17319349515E+02  0.18767833958E+02  0.51100000000E-03 0.  1.
        -12    1    4    4    0    0 -0.11193755143E+01 -0.13650046291E+02  0.62680179490E+01  0.15062032210E+02  0.00000000000E+00 0.  1.
</event>
<event>
 8    1  0.5331800E-011  0.9118800E+02  0.7816164E-02  0.1184000E+00
        -11   -1    0    0    0    0  0.00000000000E+00  0.00000000000E+00  0.45593999997E+02  0.45594000000E+02  0.51100000000E-03 0. -1.
         11   -1    0    0    0    0 -0.00000000000E+00 -0.00000000000E+00 -0.45593999997E+02  0.45594000000E+02  0.51100000000E-03 0.  1.
         23    2    1    2    0    0  0.00000000000E+00  0.00000000000E+00  0.00000000000E+00  0.91188000000E+02  0.91188000000E+02 0.  0.
    9900012    2    3    3    0    0  0.15732751918E+02 -0.35627913092E+02  0.19150860845E+02  0.47787272526E+02  0.20000006754E+02 0.  0.
        -12    1    3    3    0    0 -0.15732751918E+02  0.35627913092E+02 -0.19150860845E+02  0.43400727474E+02  0.00000000000E+00 0.  1.
         11    1    4    4    0    0  0.49809205134E+01  0.32935367583E+00  0.49105452509E+01  0.70022494905E+01  0.51100000000E-03 0.  1.
        -11    1    4    4    0    0  0.42568368865E+01 -0.22731069067E+02  0.11382141505E+02  0.25775478787E+02  0.51100000000E-03 0. -1.
         12    1    4    4    0    0  0.64949945177E+01 -0.13226197701E+02  0.28581740890E+01  0.15009544248E+02  0.00000000000E+00 0. -1.
</event>
<event>
 8    1  0.5331800E-011  0.9118800E+02  0.7816164E-02  0.1184000E+00
        -11   -1    0    0    0    0  0.00000000000E+00  0.00000000000E+00  0.45593999997E+02  0.45594000000E+02  0.51100000000E-03 0. -1.
         11   -1    0    0    0    0 -0.00000000000E+00 -0.00000000000E+00 -0.45593999997E+02  0.45594000000E+02  0.51100000000E-03 0.  1.
         23    2    1    2    0    0  0.00000000000E+00 -0.88817841970E-15 -0.71054273576E-14  0.91188000000E+02  0.91188000000E+02 0.  0.
    9900012    2    3    3    0    0  0.17758227272E+02 -0.75632130808E+01 -0.38872438583E+02  0.47787270636E+02  0.19999998137E+02 0.  0.
         12    1    3    3    0    0 -0.17758227272E+02  0.75632130808E+01  0.38872438583E+02  0.43400729364E+02  0.00000000000E+00 0. -1.
         11    1    4    4    0    0 -0.24359602754E+01  0.13912840566E+01 -0.20492204285E+01  0.34740291327E+01  0.51100000000E-03 0. -1.
        -11    1    4    4    0    0  0.19986408970E+02 -0.10018938459E+02 -0.36984517371E+02  0.43216781426E+02  0.51100000000E-03 0.  1.
        -12    1    4    4    0    0  0.20777857721E+00  0.10644413212E+01  0.16129921680E+00  0.10964600771E+01  0.00000000000E+00 0.  1.
</event>
<event>
 8    1  0.5331800E-011  0.9118800E+02  0.7816164E-02  0.1184000E+00
        -11   -1    0    0    0    0  0.00000000000E+00  0.00000000000E+00  0.45593999997E+02  0.45594000000E+02  0.51100000000E-03 0. -1.
         11   -1    0    0    0    0 -0.00000000000E+00 -0.00000000000E+00 -0.45593999997E+02  0.45594000000E+02  0.51100000000E-03 0.  1.
         23    2    1    2    0    0  0.00000000000E+00 -0.71054273576E-14  0.17763568394E-14  0.91188000000E+02  0.91188000000E+02 0.  0.
    9900012    2    3    3    0    0 -0.53619094965E+01 -0.42965132332E+02  0.29785454198E+01  0.47787258041E+02  0.19999940712E+02 0.  0.
        -12    1    3    3    0    0  0.53619094965E+01  0.42965132332E+02 -0.29785454198E+01  0.43400741959E+02  0.00000000000E+00 0.  1.
         11    1    4    4    0    0  0.19416081461E+01 -0.15338009706E+02  0.59623912686E+01  0.16570289492E+02  0.51100000000E-03 0. -1.
        -11    1    4    4    0    0 -0.86363311746E+01 -0.11030193071E+02 -0.38991084953E+01  0.14541472507E+02  0.51100000000E-03 0.  1.
        -12    1    4    4    0    0  0.13328135319E+01 -0.16596929554E+02  0.91526264655E+00  0.16675496042E+02  0.00000000000E+00 0.  1.
</event>
<event>
 8    1  0.5331800E-011  0.9118800E+02  0.7816164E-02  0.1184000E+00
        -11   -1    0    0    0    0  0.00000000000E+00  0.00000000000E+00  0.45593999997E+02  0.45594000000E+02  0.51100000000E-03 0. -1.
         11   -1    0    0    0    0 -0.00000000000E+00 -0.00000000000E+00 -0.45593999997E+02  0.45594000000E+02  0.51100000000E-03 0.  1.
         23    2    1    2    0    0  0.00000000000E+00  0.35527136788E-14  0.35527136788E-14  0.91188000000E+02  0.91188000000E+02 0.  0.
    9900012    2    3    3    0    0  0.16520366860E+02  0.25961912436E+02  0.30605227143E+02  0.47787270202E+02  0.19999996158E+02 0.  0.
        -12    1    3    3    0    0 -0.16520366860E+02 -0.25961912436E+02 -0.30605227143E+02  0.43400729798E+02  0.00000000000E+00 0.  1.
         11    1    4    4    0    0  0.26119860383E+01  0.31628787896E+01  0.16906197432E+02  0.17396717655E+02  0.51100000000E-03 0. -1.
        -11    1    4    4    0    0  0.63469549532E+01  0.97828260480E+01  0.33843100798E+01  0.12142531764E+02  0.51100000000E-03 0.  1.
         12    1    4    4    0    0  0.75614258689E+01  0.13016207599E+02  0.10314719631E+02  0.18248020783E+02  0.00000000000E+00 0. -1.
</event>
<event>
 8    1  0.5331800E-011  0.9118800E+02  0.7816164E-02  0.1184000E+00
        -11   -1    0    0    0    0  0.00000000000E+00  0.00000000000E+00  0.45593999997E+02  0.45594000000E+02  0.51100000000E-03 0. -1.
         11   -1    0    0    0    0 -0.00000000000E+00 -0.00000000000E+00 -0.45593999997E+02  0.45594000000E+02  0.51100000000E-03 0.  1.
         23    2    1    2    0    0 -0.22204460493E-15  0.71054273576E-14  0.00000000000E+00  0.91188000000E+02  0.91188000000E+02 0.  0.
    9900012    2    3    3    0    0 -0.17623044370E+01  0.25787005310E+02 -0.34864714866E+02  0.47787266107E+02  0.19999977487E+02 0.  0.
         12    1    3    3    0    0  0.17623044370E+01 -0.25787005310E+02  0.34864714866E+02  0.43400733893E+02  0.00000000000E+00 0. -1.
         11    1    4    4    0    0 -0.15154752723E+01 -0.22633682458E+01 -0.47906975413E+00  0.27656842205E+01  0.51100000000E-03 0. -1.
        -11    1    4    4    0    0 -0.79795787877E+00  0.62056429753E+01 -0.13094114162E+02  0.14512152406E+02  0.51100000000E-03 0.  1.
         12    1    4    4    0    0  0.55112871412E+00  0.21844730580E+02 -0.21291530950E+02  0.30509429480E+02  0.00000000000E+00 0. -1.
</event>
<event>
 8    1  0.5640620E-011  0.9118800E+02  0.7816164E-02  0.1184000E+00
        -11   -1    0    0    0    0  0.00000000000E+00  0.00000000000E+00  0.45593999997E+02  0.45594000000E+02  0.51100000000E-03 0. -1.
         11   -1    0    0    0    0 -0.00000000000E+00 -0.00000000000E+00 -0.45593999997E+02  0.45594000000E+02  0.51100000000E-03 0.  1.
         23    2    1    2    0    0  0.00000000000E+00  0.35527136788E-14 -0.71054273576E-14  0.91188000000E+02  0.91188000000E+02 0.  0.
    9900012    2    3    3    0    0 -0.21984647689E+02  0.18698270338E+02 -0.32414093509E+02  0.47787268375E+02  0.19999987828E+02 0.  0.
         12    1    3    3    0    0  0.21984647689E+02 -0.18698270338E+02  0.32414093509E+02  0.43400731625E+02  0.00000000000E+00 0. -1.
         11    1    4    4    0    0 -0.87152469157E+00 -0.15669228460E+01 -0.17135526394E+01  0.24801341501E+01  0.51100000000E-03 0. -1.
        -11    1    4    4    0    0 -0.15866970568E+01  0.26833044629E+01 -0.13609960023E+02  0.13962404609E+02  0.51100000000E-03 0.  1.
        -12    1    4    4    0    0 -0.19526425940E+02  0.17581888721E+02 -0.17090580846E+02  0.31344729615E+02  0.00000000000E+00 0.  1.
</event>
<event>
 8    1  0.5331800E-011  0.9118800E+02  0.7816164E-02  0.1184000E+00
        -11   -1    0    0    0    0  0.00000000000E+00  0.00000000000E+00  0.45593999997E+02  0.45594000000E+02  0.51100000000E-03 0. -1.
         11   -1    0    0    0    0 -0.00000000000E+00 -0.00000000000E+00 -0.45593999997E+02  0.45594000000E+02  0.51100000000E-03 0.  1.
         23    2    1    2    0    0  0.00000000000E+00  0.00000000000E+00  0.00000000000E+00  0.91188000000E+02  0.91188000000E+02 0.  0.
    9900012    2    3    3    0    0  0.18495403000E+02 -0.17039137003E+02 -0.35372462960E+02  0.47787271230E+02  0.20000000845E+02 0.  0.
         12    1    3    3    0    0 -0.18495403000E+02  0.17039137003E+02  0.35372462960E+02  0.43400728770E+02  0.00000000000E+00 0. -1.
         11    1    4    4    0    0  0.49427073196E+01  0.44005097254E+01 -0.87163019072E+01  0.10943891478E+02  0.51100000000E-03 0. -1.
        -11    1    4    4    0    0  0.61556643809E+01 -0.10886066337E+02 -0.14163702125E+02  0.18894684502E+02  0.51100000000E-03 0.  1.
         12    1    4    4    0    0  0.73970312998E+01 -0.10553580391E+02 -0.12492458927E+02  0.17948695250E+02  0.00000000000E+00 0. -1.
</event>
<event>
 8    1  0.5331800E-011  0.9118800E+02  0.7816164E-02  0.1184000E+00
        -11   -1    0    0    0    0  0.00000000000E+00  0.00000000000E+00  0.45593999997E+02  0.45594000000E+02  0.51100000000E-03 0. -1.
         11   -1    0    0    0    0 -0.00000000000E+00 -0.00000000000E+00 -0.45593999997E+02  0.45594000000E+02  0.51100000000E-03 0.  1.
         23    2    1    2    0    0  0.35527136788E-14  0.35527136788E-14  0.35527136788E-14  0.91188000000E+02  0.91188000000E+02 0.  0.
    9900012    2    3    3    0    0 -0.16345080052E+02 -0.25384676012E+02 -0.31178223513E+02  0.47787250702E+02  0.19999907252E+02 0.  0.
         12    1    3    3    0    0  0.16345080052E+02  0.25384676012E+02  0.31178223513E+02  0.43400749298E+02  0.00000000000E+00 0. -1.
         11    1    4    4    0    0  0.24295024796E+01 -0.80663567695E+01 -0.35694594354E+01  0.91492969540E+01  0.51100000000E-03 0. -1.
        -11    1    4    4    0    0 -0.19444243927E+02 -0.17613248257E+02 -0.26361242500E+02  0.37191668993E+02  0.51100000000E-03 0.  1.
        -12    1    4    4    0    0  0.66966139523E+00  0.29492901401E+00 -0.12475215776E+01  0.14462847556E+01  0.00000000000E+00 0.  1.
</event>
<event>
 8    1  0.5331800E-011  0.9118800E+02  0.7816164E-02  0.1184000E+00
        -11   -1    0    0    0    0  0.00000000000E+00  0.00000000000E+00  0.45593999997E+02  0.45594000000E+02  0.51100000000E-03 0.  1.
         11   -1    0    0    0    0 -0.00000000000E+00 -0.00000000000E+00 -0.45593999997E+02  0.45594000000E+02  0.51100000000E-03 0. -1.
         23    2    1    2    0    0  0.71054273576E-14  0.71054273576E-14 -0.88817841970E-15  0.91188000000E+02  0.91188000000E+02 0.  0.
    9900012    2    3    3    0    0  0.38633799201E+02  0.18840470651E+02  0.60074476549E+01  0.47787271868E+02  0.20000003755E+02 0.  0.
         12    1    3    3    0    0 -0.38633799201E+02 -0.18840470651E+02 -0.60074476549E+01  0.43400728132E+02  0.00000000000E+00 0. -1.
         11    1    4    4    0    0  0.37721678834E+01  0.20445038889E+01 -0.50650623265E+01  0.66380797920E+01  0.51100000000E-03 0. -1.
        -11    1    4    4    0    0  0.18966966061E+02  0.90610581566E+01  0.10418077479E+02  0.23460283782E+02  0.51100000000E-03 0.  1.
         12    1    4    4    0    0  0.15894665256E+02  0.77349086056E+01  0.65443250207E+00  0.17688908294E+02  0.00000000000E+00 0. -1.
</event>
<event>
 8    1  0.5331800E-011  0.9118800E+02  0.7816164E-02  0.1184000E+00
        -11   -1    0    0    0    0  0.00000000000E+00  0.00000000000E+00  0.45593999997E+02  0.45594000000E+02  0.51100000000E-03 0. -1.
         11   -1    0    0    0    0 -0.00000000000E+00 -0.00000000000E+00 -0.45593999997E+02  0.45594000000E+02  0.51100000000E-03 0.  1.
         23    2    1    2    0    0  0.17763568394E-14  0.00000000000E+00  0.35527136788E-14  0.91188000000E+02  0.91188000000E+02 0.  0.
    9900012    2    3    3    0    0 -0.13052659962E+02 -0.30003112760E+02 -0.28514269676E+02  0.47787282465E+02  0.20000052072E+02 0.  0.
         12    1    3    3    0    0  0.13052659962E+02  0.30003112760E+02  0.28514269676E+02  0.43400717535E+02  0.00000000000E+00 0. -1.
         11    1    4    4    0    0  0.25409981378E+01 -0.19311185656E+01  0.62405725879E+00  0.32519745040E+01  0.51100000000E-03 0.  1.
        -11    1    4    4    0    0 -0.59655734339E+01 -0.20726641929E+02 -0.18428695591E+02  0.28368972020E+02  0.51100000000E-03 0. -1.
         12    1    4    4    0    0 -0.96280846654E+01 -0.73453522653E+01 -0.10709631344E+02  0.16166335941E+02  0.00000000000E+00 0. -1.
</event>
<event>
 8    1  0.5331800E-011  0.9118800E+02  0.7816164E-02  0.1184000E+00
        -11   -1    0    0    0    0  0.00000000000E+00  0.00000000000E+00  0.45593999997E+02  0.45594000000E+02  0.51100000000E-03 0. -1.
         11   -1    0    0    0    0 -0.00000000000E+00 -0.00000000000E+00 -0.45593999997E+02  0.45594000000E+02  0.51100000000E-03 0.  1.
         23    2    1    2    0    0  0.00000000000E+00  0.44408920985E-15  0.71054273576E-14  0.91188000000E+02  0.91188000000E+02 0.  0.
    9900012    2    3    3    0    0  0.22408222395E+02  0.24109598526E+01  0.37090180501E+02  0.47787278256E+02  0.20000032881E+02 0.  0.
        -12    1    3    3    0    0 -0.22408222395E+02 -0.24109598526E+01 -0.37090180501E+02  0.43400721744E+02  0.00000000000E+00 0.  1.
         11    1    4    4    0    0  0.15837230337E+02 -0.43438901461E+01  0.29804277500E+02  0.34029137572E+02  0.51100000000E-03 0. -1.
        -11    1    4    4    0    0  0.80286113587E+01  0.57824554365E+01  0.58622965021E+01  0.11500517891E+02  0.51100000000E-03 0.  1.
         12    1    4    4    0    0 -0.14576193010E+01  0.97239456216E+00  0.14236064991E+01  0.22576227930E+01  0.00000000000E+00 0. -1.
</event>
<event>
 8    1  0.5908599E-011  0.9118800E+02  0.7816164E-02  0.1184000E+00
        -11   -1    0    0    0    0  0.00000000000E+00  0.00000000000E+00  0.45593999997E+02  0.45594000000E+02  0.51100000000E-03 0. -1.
         11   -1    0    0    0    0 -0.00000000000E+00 -0.00000000000E+00 -0.45593999997E+02  0.45594000000E+02  0.51100000000E-03 0.  1.
         23    2    1    2    0    0 -0.17763568394E-14  0.00000000000E+00  0.00000000000E+00  0.91188000000E+02  0.91188000000E+02 0.  0.
    9900012    2    3    3    0    0  0.64778717824E+01  0.26912882202E+02  0.33426887070E+02  0.47787276153E+02  0.20000023293E+02 0.  0.
        -12    1    3    3    0    0 -0.64778717824E+01 -0.26912882202E+02 -0.33426887070E+02  0.43400723847E+02  0.00000000000E+00 0.  1.
         11    1    4    4    0    0  0.11763117852E+01  0.75807001580E+01  0.17539410442E+02  0.19143710278E+02  0.51100000000E-03 0. -1.
        -11    1    4    4    0    0 -0.11691412180E+01  0.12733645276E+02  0.36299979663E+01  0.13292460220E+02  0.51100000000E-03 0.  1.
        -12    1    4    4    0    0  0.64707012152E+01  0.65985367677E+01  0.12257478661E+02  0.15351105655E+02  0.00000000000E+00 0.  1.
</event>
<event>
 8    1  0.5331800E-011  0.9118800E+02  0.7816164E-02  0.1184000E+00
        -11   -1    0    0    0    0  0.00000000000E+00  0.00000000000E+00  0.45593999997E+02  0.45594000000E+02  0.51100000000E-03 0. -1.
         11   -1    0    0    0    0 -0.00000000000E+00 -0.00000000000E+00 -0.45593999997E+02  0.45594000000E+02  0.51100000000E-03 0.  1.
         23    2    1    2    0    0  0.00000000000E+00  0.22204460493E-15  0.00000000000E+00  0.91188000000E+02  0.91188000000E+02 0.  0.
    9900012    2    3    3    0    0  0.28807023856E+02  0.14532634983E+01 -0.32429411716E+02  0.47787270254E+02  0.19999996396E+02 0.  0.
         12    1    3    3    0    0 -0.28807023856E+02 -0.14532634983E+01  0.32429411716E+02  0.43400729746E+02  0.00000000000E+00 0. -1.
         11    1    4    4    0    0  0.19953116008E+02 -0.73841784693E+00 -0.26676132479E+02  0.33320986535E+02  0.51100000000E-03 0. -1.
        -11    1    4    4    0    0  0.49710415560E+01  0.58398217533E+01 -0.19287900728E+01  0.79079076669E+01  0.51100000000E-03 0.  1.
         12    1    4    4    0    0  0.38828662919E+01 -0.36481404080E+01 -0.38244891643E+01  0.65583760525E+01  0.00000000000E+00 0. -1.
</event>
<event>
 8    1  0.5331800E-011  0.9118800E+02  0.7816164E-02  0.1184000E+00
        -11   -1    0    0    0    0  0.00000000000E+00  0.00000000000E+00  0.45593999997E+02  0.45594000000E+02  0.51100000000E-03 0. -1.
         11   -1    0    0    0    0 -0.00000000000E+00 -0.00000000000E+00 -0.45593999997E+02  0.45594000000E+02  0.51100000000E-03 0.  1.
         23    2    1    2    0    0  0.00000000000E+00  0.35527136788E-14  0.00000000000E+00  0.91188000000E+02  0.91188000000E+02 0.  0.
    9900012    2    3    3    0    0  0.24363714220E+02  0.22309575503E+02  0.28148098351E+02  0.47787272236E+02  0.20000005431E+02 0.  0.
        -12    1    3    3    0    0 -0.24363714220E+02 -0.22309575503E+02 -0.28148098351E+02  0.43400727764E+02  0.00000000000E+00 0.  1.
         11    1    4    4    0    0  0.15839515790E+02  0.78860857022E+01  0.17846503423E+02  0.25131221475E+02  0.51100000000E-03 0. -1.
        -11    1    4    4    0    0  0.88811545068E+01  0.13743058636E+02  0.47316435870E+01  0.17033350150E+02  0.51100000000E-03 0.  1.
        -12    1    4    4    0    0 -0.35695607659E+00  0.68043116455E+00  0.55699513408E+01  0.56227006100E+01  0.00000000000E+00 0.  1.
</event>
<event>
 8    1  0.5331800E-011  0.9118800E+02  0.7816164E-02  0.1184000E+00
        -11   -1    0    0    0    0  0.00000000000E+00  0.00000000000E+00  0.45593999997E+02  0.45594000000E+02  0.51100000000E-03 0. -1.
         11   -1    0    0    0    0 -0.00000000000E+00 -0.00000000000E+00 -0.45593999997E+02  0.45594000000E+02  0.51100000000E-03 0.  1.
         23    2    1    2    0    0  0.00000000000E+00  0.00000000000E+00  0.00000000000E+00  0.91188000000E+02  0.91188000000E+02 0.  0.
    9900012    2    3    3    0    0  0.16800459476E+02  0.57943527725E+01 -0.39595369762E+02  0.47787271097E+02  0.20000000241E+02 0.  0.
         12    1    3    3    0    0 -0.16800459476E+02 -0.57943527725E+01  0.39595369762E+02  0.43400728903E+02  0.00000000000E+00 0. -1.
         11    1    4    4    0    0  0.11404889922E+02 -0.33884848445E+01 -0.12189129514E+02  0.17033150684E+02  0.51100000000E-03 0. -1.
        -11    1    4    4    0    0  0.61092140280E+01  0.92830347529E+01 -0.27795750939E+02  0.29934946146E+02  0.51100000000E-03 0.  1.
        -12    1    4    4    0    0 -0.71364447383E+00 -0.10019713586E+00  0.38951069023E+00  0.81917426649E+00  0.00000000000E+00 0.  1.
</event>
<event>
 8    1  0.5331800E-011  0.9118800E+02  0.7816164E-02  0.1184000E+00
        -11   -1    0    0    0    0  0.00000000000E+00  0.00000000000E+00  0.45593999997E+02  0.45594000000E+02  0.51100000000E-03 0. -1.
         11   -1    0    0    0    0 -0.00000000000E+00 -0.00000000000E+00 -0.45593999997E+02  0.45594000000E+02  0.51100000000E-03 0.  1.
         23    2    1    2    0    0 -0.35527136788E-14  0.00000000000E+00 -0.35527136788E-14  0.91188000000E+02  0.91188000000E+02 0.  0.
    9900012    2    3    3    0    0  0.18380022115E+02 -0.24973593832E+02  0.30366397665E+02  0.47787266032E+02  0.19999977146E+02 0.  0.
        -12    1    3    3    0    0 -0.18380022115E+02  0.24973593832E+02 -0.30366397665E+02  0.43400733968E+02  0.00000000000E+00 0.  1.
         11    1    4    4    0    0  0.14849758266E+02 -0.11867398568E+02  0.15290504248E+02  0.24395696132E+02  0.51100000000E-03 0. -1.
        -11    1    4    4    0    0 -0.33375568123E+01 -0.94059227104E+01  0.72038012766E+01  0.12308753820E+02  0.51100000000E-03 0.  1.
        -12    1    4    4    0    0  0.68678206611E+01 -0.37002725540E+01  0.78720921400E+01  0.11082816080E+02  0.00000000000E+00 0.  1.
</event>
<event>
 8    1  0.5331800E-011  0.9118800E+02  0.7816164E-02  0.1184000E+00
        -11   -1    0    0    0    0  0.00000000000E+00  0.00000000000E+00  0.45593999997E+02  0.45594000000E+02  0.51100000000E-03 0. -1.
         11   -1    0    0    0    0 -0.00000000000E+00 -0.00000000000E+00 -0.45593999997E+02  0.45594000000E+02  0.51100000000E-03 0.  1.
         23    2    1    2    0    0  0.35527136788E-14 -0.35527136788E-14  0.00000000000E+00  0.91188000000E+02  0.91188000000E+02 0.  0.
    9900012    2    3    3    0    0 -0.29131949320E+02  0.14094799002E+02 -0.28918680448E+02  0.47787263728E+02  0.19999966643E+02 0.  0.
         12    1    3    3    0    0  0.29131949320E+02 -0.14094799002E+02  0.28918680448E+02  0.43400736272E+02  0.00000000000E+00 0. -1.
         11    1    4    4    0    0 -0.19279088509E+02  0.10859577482E+01 -0.16804858246E+02  0.25598160459E+02  0.51100000000E-03 0. -1.
        -11    1    4    4    0    0 -0.36952442069E+01  0.26202053934E+01 -0.84186136596E+01  0.95599875661E+01  0.51100000000E-03 0.  1.
         12    1    4    4    0    0 -0.61576166047E+01  0.10388635860E+02 -0.36952085419E+01  0.12629115703E+02  0.00000000000E+00 0. -1.
</event>
<event>
 8    1  0.5331800E-011  0.9118800E+02  0.7816164E-02  0.1184000E+00
        -11   -1    0    0    0    0  0.00000000000E+00  0.00000000000E+00  0.45593999997E+02  0.45594000000E+02  0.51100000000E-03 0. -1.
         11   -1    0    0    0    0 -0.00000000000E+00 -0.00000000000E+00 -0.45593999997E+02  0.45594000000E+02  0.51100000000E-03 0.  1.
         23    2    1    2    0    0  0.17763568394E-14  0.71054273576E-14 -0.88817841970E-15  0.91188000000E+02  0.91188000000E+02 0.  0.
    9900012    2    3    3    0    0 -0.12881669760E+02 -0.40769451889E+02  0.74523497790E+01  0.47787272582E+02  0.20000007012E+02 0.  0.
        -12    1    3    3    0    0  0.12881669760E+02  0.40769451889E+02 -0.74523497790E+01  0.43400727418E+02  0.00000000000E+00 0.  1.
         11    1    4    4    0    0 -0.13882754005E+01 -0.17769223441E+02  0.29593268095E+01  0.18067380156E+02  0.51100000000E-03 0. -1.
        -11    1    4    4    0    0 -0.72630924692E+00 -0.13160652175E+01 -0.38336449258E+01  0.41178133101E+01  0.51100000000E-03 0.  1.
        -12    1    4    4    0    0 -0.10767085112E+02 -0.21684163231E+02  0.83266678953E+01  0.25602079117E+02  0.00000000000E+00 0.  1.
</event>
<event>
 8    1  0.5331800E-011  0.9118800E+02  0.7816164E-02  0.1184000E+00
        -11   -1    0    0    0    0  0.00000000000E+00  0.00000000000E+00  0.45593999997E+02  0.45594000000E+02  0.51100000000E-03 0. -1.
         11   -1    0    0    0    0 -0.00000000000E+00 -0.00000000000E+00 -0.45593999997E+02  0.45594000000E+02  0.51100000000E-03 0.  1.
         23    2    1    2    0    0  0.00000000000E+00  0.00000000000E+00  0.35527136788E-14  0.91188000000E+02  0.91188000000E+02 0.  0.
    9900012    2    3    3    0    0 -0.22873834615E+02 -0.27601270099E+02  0.24465914093E+02  0.47787269896E+02  0.19999994765E+02 0.  0.
        -12    1    3    3    0    0  0.22873834615E+02  0.27601270099E+02 -0.24465914093E+02  0.43400730104E+02  0.00000000000E+00 0.  1.
         11    1    4    4    0    0 -0.36395525074E+01 -0.10421766058E+02  0.12671160763E+02  0.16805292784E+02  0.51100000000E-03 0. -1.
        -11    1    4    4    0    0 -0.12705805757E+02 -0.77413876346E+01  0.51003007009E+00  0.14887132476E+02  0.51100000000E-03 0.  1.
        -12    1    4    4    0    0 -0.65284763513E+01 -0.94381164068E+01  0.11284723261E+02  0.16094844636E+02  0.00000000000E+00 0.  1.
</event>
<event>
 8    1  0.5331800E-011  0.9118800E+02  0.7816164E-02  0.1184000E+00
        -11   -1    0    0    0    0  0.00000000000E+00  0.00000000000E+00  0.45593999997E+02  0.45594000000E+02  0.51100000000E-03 0. -1.
         11   -1    0    0    0    0 -0.00000000000E+00 -0.00000000000E+00 -0.45593999997E+02  0.45594000000E+02  0.51100000000E-03 0.  1.
         23    2    1    2    0    0  0.00000000000E+00  0.00000000000E+00  0.00000000000E+00  0.91188000000E+02  0.91188000000E+02 0.  0.
    9900012    2    3    3    0    0 -0.57026317431E+01  0.20808958953E+02 -0.37657542535E+02  0.47787270844E+02  0.19999999086E+02 0.  0.
         12    1    3    3    0    0  0.57026317431E+01 -0.20808958953E+02  0.37657542535E+02  0.43400729156E+02  0.00000000000E+00 0. -1.
         11    1    4    4    0    0  0.15406033535E+01  0.45387544951E+01 -0.43342286820E+01  0.64621428016E+01  0.51100000000E-03 0. -1.
        -11    1    4    4    0    0 -0.10278840731E+02  0.11350404176E+02 -0.31879679215E+02  0.35366653628E+02  0.51100000000E-03 0.  1.
        -12    1    4    4    0    0  0.30356056340E+01  0.49198002818E+01 -0.14436346376E+01  0.59584744142E+01  0.00000000000E+00 0.  1.
</event>
<event>
 8    1  0.5331800E-011  0.9118800E+02  0.7816164E-02  0.1184000E+00
        -11   -1    0    0    0    0  0.00000000000E+00  0.00000000000E+00  0.45593999997E+02  0.45594000000E+02  0.51100000000E-03 0. -1.
         11   -1    0    0    0    0 -0.00000000000E+00 -0.00000000000E+00 -0.45593999997E+02  0.45594000000E+02  0.51100000000E-03 0.  1.
         23    2    1    2    0    0  0.00000000000E+00  0.17763568394E-14  0.00000000000E+00  0.91188000000E+02  0.91188000000E+02 0.  0.
    9900012    2    3    3    0    0  0.20109924378E+02  0.24664047490E+01  0.38381388439E+02  0.47787272018E+02  0.20000004438E+02 0.  0.
        -12    1    3    3    0    0 -0.20109924378E+02 -0.24664047490E+01 -0.38381388439E+02  0.43400727982E+02  0.00000000000E+00 0.  1.
         11    1    4    4    0    0  0.86336576141E+01 -0.51049055826E+01  0.26995977042E+02  0.28799008342E+02  0.51100000000E-03 0. -1.
        -11    1    4    4    0    0  0.17635900569E+01 -0.11742087656E+01  0.18021431785E+01  0.27814989504E+01  0.51100000000E-03 0.  1.
         12    1    4    4    0    0  0.97126767074E+01  0.87455190972E+01  0.95832682188E+01  0.16206764725E+02  0.00000000000E+00 0. -1.
</event>
<event>
 8    1  0.5331800E-011  0.9118800E+02  0.7816164E-02  0.1184000E+00
        -11   -1    0    0    0    0  0.00000000000E+00  0.00000000000E+00  0.45593999997E+02  0.45594000000E+02  0.51100000000E-03 0. -1.
         11   -1    0    0    0    0 -0.00000000000E+00 -0.00000000000E+00 -0.45593999997E+02  0.45594000000E+02  0.51100000000E-03 0.  1.
         23    2    1    2    0    0  0.35527136788E-14 -0.35527136788E-14  0.00000000000E+00  0.91188000000E+02  0.91188000000E+02 0.  0.
    9900012    2    3    3    0    0 -0.21885745487E+02  0.29279940602E+02 -0.23394920427E+02  0.47787273290E+02  0.20000010237E+02 0.  0.
         12    1    3    3    0    0  0.21885745487E+02 -0.29279940602E+02  0.23394920427E+02  0.43400726710E+02  0.00000000000E+00 0. -1.
         11    1    4    4    0    0 -0.33455770250E+01  0.82865648856E+00  0.28995023449E+01  0.45040727476E+01  0.51100000000E-03 0. -1.
        -11    1    4    4    0    0 -0.12863977470E+02  0.15820843791E+02 -0.13704608137E+02  0.24568217255E+02  0.51100000000E-03 0.  1.
         12    1    4    4    0    0 -0.56761909922E+01  0.12630440322E+02 -0.12589814635E+02  0.18714983287E+02  0.00000000000E+00 0. -1.
</event>
<event>
 8    1  0.5331800E-011  0.9118800E+02  0.7816164E-02  0.1184000E+00
        -11   -1    0    0    0    0  0.00000000000E+00  0.00000000000E+00  0.45593999997E+02  0.45594000000E+02  0.51100000000E-03 0. -1.
         11   -1    0    0    0    0 -0.00000000000E+00 -0.00000000000E+00 -0.45593999997E+02  0.45594000000E+02  0.51100000000E-03 0.  1.
         23    2    1    2    0    0 -0.17763568394E-14  0.00000000000E+00  0.00000000000E+00  0.91188000000E+02  0.91188000000E+02 0.  0.
    9900012    2    3    3    0    0  0.11404963464E+02  0.90862572979E+01 -0.40877742115E+02  0.47787273465E+02  0.20000011036E+02 0.  0.
         12    1    3    3    0    0 -0.11404963464E+02 -0.90862572979E+01  0.40877742115E+02  0.43400726535E+02  0.00000000000E+00 0. -1.
         11    1    4    4    0    0  0.85630507052E+00  0.10654531766E+00 -0.28727569532E+02  0.28740526470E+02  0.51100000000E-03 0. -1.
        -11    1    4    4    0    0  0.72618875397E+01  0.72184971863E+01 -0.11247524201E+02  0.15210145074E+02  0.51100000000E-03 0.  1.
         12    1    4    4    0    0  0.32867708541E+01  0.17612147939E+01 -0.90264838241E+00  0.38366019210E+01  0.00000000000E+00 0. -1.
</event>
<event>
 8    1  0.9718287E-011  0.9118800E+02  0.7816164E-02  0.1184000E+00
        -11   -1    0    0    0    0  0.00000000000E+00  0.00000000000E+00  0.45593999997E+02  0.45594000000E+02  0.51100000000E-03 0. -1.
         11   -1    0    0    0    0 -0.00000000000E+00 -0.00000000000E+00 -0.45593999997E+02  0.45594000000E+02  0.51100000000E-03 0.  1.
         23    2    1    2    0    0 -0.35527136788E-14  0.88817841970E-15  0.00000000000E+00  0.91188000000E+02  0.91188000000E+02 0.  0.
    9900012    2    3    3    0    0 -0.13855367826E+02  0.66747195670E+01 -0.40584483934E+02  0.47787269187E+02  0.19999991532E+02 0.  0.
         12    1    3    3    0    0  0.13855367826E+02 -0.66747195670E+01  0.40584483934E+02  0.43400730813E+02  0.00000000000E+00 0. -1.
         11    1    4    4    0    0 -0.39640121740E+00 -0.15100052709E+01 -0.35162501713E+00  0.16002781812E+01  0.51100000000E-03 0. -1.
        -11    1    4    4    0    0  0.98755447846E+00 -0.31996321385E+01 -0.12258226798E+02  0.12707361416E+02  0.51100000000E-03 0.  1.
        -12    1    4    4    0    0 -0.14446521087E+02  0.11384356976E+02 -0.27974632119E+02  0.33479629590E+02  0.00000000000E+00 0.  1.
</event>
<event>
 8    1  0.5331800E-011  0.9118800E+02  0.7816164E-02  0.1184000E+00
        -11   -1    0    0    0    0  0.00000000000E+00  0.00000000000E+00  0.45593999997E+02  0.45594000000E+02  0.51100000000E-03 0. -1.
         11   -1    0    0    0    0 -0.00000000000E+00 -0.00000000000E+00 -0.45593999997E+02  0.45594000000E+02  0.51100000000E-03 0.  1.
         23    2    1    2    0    0  0.00000000000E+00  0.00000000000E+00  0.00000000000E+00  0.91188000000E+02  0.91188000000E+02 0.  0.
    9900012    2    3    3    0    0 -0.22048360733E+02 -0.23092178396E+02  0.29398067187E+02  0.47787248066E+02  0.19999895232E+02 0.  0.
        -12    1    3    3    0    0  0.22048360733E+02  0.23092178396E+02 -0.29398067187E+02  0.43400751934E+02  0.00000000000E+00 0.  1.
         11    1    4    4    0    0 -0.10904987132E+02 -0.41750735102E+01  0.21346481935E+02  0.24331507854E+02  0.51100000000E-03 0.  1.
        -11    1    4    4    0    0 -0.10136126173E+02 -0.16732551632E+02  0.77026280110E+01  0.21024980772E+02  0.51100000000E-03 0. -1.
        -12    1    4    4    0    0 -0.10072474286E+01 -0.21845532540E+01  0.34895724053E+00  0.24307594405E+01  0.00000000000E+00 0.  1.
</event>
<event>
 8    1  0.5331800E-011  0.9118800E+02  0.7816164E-02  0.1184000E+00
        -11   -1    0    0    0    0  0.00000000000E+00  0.00000000000E+00  0.45593999997E+02  0.45594000000E+02  0.51100000000E-03 0. -1.
         11   -1    0    0    0    0 -0.00000000000E+00 -0.00000000000E+00 -0.45593999997E+02  0.45594000000E+02  0.51100000000E-03 0.  1.
         23    2    1    2    0    0  0.00000000000E+00  0.00000000000E+00  0.00000000000E+00  0.91188000000E+02  0.91188000000E+02 0.  0.
    9900012    2    3    3    0    0  0.13134461363E+02  0.23754976867E+02 -0.33864597148E+02  0.47787263356E+02  0.19999964946E+02 0.  0.
         12    1    3    3    0    0 -0.13134461363E+02 -0.23754976867E+02  0.33864597148E+02  0.43400736644E+02  0.00000000000E+00 0. -1.
         11    1    4    4    0    0  0.25205538533E+01  0.92980080660E+01 -0.30990622221E+01  0.10119799041E+02  0.51100000000E-03 0. -1.
        -11    1    4    4    0    0  0.12172332331E+02  0.14995686108E+02 -0.30337551628E+02  0.35963916851E+02  0.51100000000E-03 0.  1.
        -12    1    4    4    0    0 -0.15584248207E+01 -0.53871730628E+00 -0.42798329710E+00  0.17035474635E+01  0.00000000000E+00 0.  1.
</event>
<event>
 8    1  0.5331800E-011  0.9118800E+02  0.7816164E-02  0.1184000E+00
        -11   -1    0    0    0    0  0.00000000000E+00  0.00000000000E+00  0.45593999997E+02  0.45594000000E+02  0.51100000000E-03 0. -1.
         11   -1    0    0    0    0 -0.00000000000E+00 -0.00000000000E+00 -0.45593999997E+02  0.45594000000E+02  0.51100000000E-03 0.  1.
         23    2    1    2    0    0  0.44408920985E-15 -0.71054273576E-14  0.00000000000E+00  0.91188000000E+02  0.91188000000E+02 0.  0.
    9900012    2    3    3    0    0 -0.38589101387E+01 -0.40207975944E+02  0.15876103485E+02  0.47787272139E+02  0.20000004991E+02 0.  0.
        -12    1    3    3    0    0  0.38589101387E+01  0.40207975944E+02 -0.15876103485E+02  0.43400727861E+02  0.00000000000E+00 0.  1.
         11    1    4    4    0    0 -0.93972245445E+01 -0.31979974696E+02  0.14019625927E+02  0.36160427571E+02  0.51100000000E-03 0. -1.
        -11    1    4    4    0    0  0.51874122982E+01 -0.48215371268E+01  0.34172333191E+01  0.78634566467E+01  0.51100000000E-03 0.  1.
        -12    1    4    4    0    0  0.35090210757E+00 -0.34064641212E+01 -0.15607557619E+01  0.37633879213E+01  0.00000000000E+00 0.  1.
</event>
<event>
 8    1  0.5331800E-011  0.9118800E+02  0.7816164E-02  0.1184000E+00
        -11   -1    0    0    0    0  0.00000000000E+00  0.00000000000E+00  0.45593999997E+02  0.45594000000E+02  0.51100000000E-03 0. -1.
         11   -1    0    0    0    0 -0.00000000000E+00 -0.00000000000E+00 -0.45593999997E+02  0.45594000000E+02  0.51100000000E-03 0.  1.
         23    2    1    2    0    0  0.00000000000E+00  0.00000000000E+00  0.00000000000E+00  0.91188000000E+02  0.91188000000E+02 0.  0.
    9900012    2    3    3    0    0  0.27492574511E+02 -0.80336767998E+00 -0.33572850828E+02  0.47787269988E+02  0.19999995182E+02 0.  0.
         12    1    3    3    0    0 -0.27492574511E+02  0.80336767998E+00  0.33572850828E+02  0.43400730012E+02  0.00000000000E+00 0. -1.
         11    1    4    4    0    0  0.17884870137E+02 -0.38962703618E+01 -0.84300040651E+01  0.20152282038E+02  0.51100000000E-03 0. -1.
        -11    1    4    4    0    0  0.94694014903E+01  0.37354157351E+01 -0.19913370786E+02  0.22364374161E+02  0.51100000000E-03 0.  1.
         12    1    4    4    0    0  0.13830288392E+00 -0.64251305331E+00 -0.52294759773E+01  0.52706137886E+01  0.00000000000E+00 0. -1.
</event>
<event>
 8    1  0.5331800E-011  0.9118800E+02  0.7816164E-02  0.1184000E+00
        -11   -1    0    0    0    0  0.00000000000E+00  0.00000000000E+00  0.45593999997E+02  0.45594000000E+02  0.51100000000E-03 0. -1.
         11   -1    0    0    0    0 -0.00000000000E+00 -0.00000000000E+00 -0.45593999997E+02  0.45594000000E+02  0.51100000000E-03 0.  1.
         23    2    1    2    0    0 -0.88817841970E-15  0.00000000000E+00  0.00000000000E+00  0.91188000000E+02  0.91188000000E+02 0.  0.
    9900012    2    3    3    0    0 -0.66874314935E+01 -0.42130730445E+01  0.42674954079E+02  0.47787269244E+02  0.19999991792E+02 0.  0.
        -12    1    3    3    0    0  0.66874314935E+01  0.42130730445E+01 -0.42674954079E+02  0.43400730756E+02  0.00000000000E+00 0.  1.
         11    1    4    4    0    0 -0.38304410066E+01 -0.30912005259E+01  0.83028606252E+01  0.96522170416E+01  0.51100000000E-03 0. -1.
        -11    1    4    4    0    0 -0.22877271489E+01  0.62388323690E+01  0.26591899149E+02  0.27409593676E+02  0.51100000000E-03 0.  1.
        -12    1    4    4    0    0 -0.56926333801E+00 -0.73607048875E+01  0.77801943051E+01  0.10725458527E+02  0.00000000000E+00 0.  1.
</event>
<event>
 8    1  0.5331800E-011  0.9118800E+02  0.7816164E-02  0.1184000E+00
        -11   -1    0    0    0    0  0.00000000000E+00  0.00000000000E+00  0.45593999997E+02  0.45594000000E+02  0.51100000000E-03 0.  1.
         11   -1    0    0    0    0 -0.00000000000E+00 -0.00000000000E+00 -0.45593999997E+02  0.45594000000E+02  0.51100000000E-03 0. -1.
         23    2    1    2    0    0  0.00000000000E+00  0.00000000000E+00  0.00000000000E+00  0.91188000000E+02  0.91188000000E+02 0.  0.
    9900012    2    3    3    0    0 -0.39474671021E+02  0.17178410329E+02 -0.55023451233E+01  0.47787271486E+02  0.20000002014E+02 0.  0.
         12    1    3    3    0    0  0.39474671021E+02 -0.17178410329E+02  0.55023451233E+01  0.43400728514E+02  0.00000000000E+00 0. -1.
         11    1    4    4    0    0 -0.22216865002E+01 -0.24614939221E+00 -0.44149740198E+01  0.49485832604E+01  0.51100000000E-03 0. -1.
        -11    1    4    4    0    0 -0.17406806827E+02  0.64011347227E+01  0.52377689734E+01  0.19271888173E+02  0.51100000000E-03 0.  1.
        -12    1    4    4    0    0 -0.19846177694E+02  0.11023424999E+02 -0.63251400769E+01  0.23566800053E+02  0.00000000000E+00 0.  1.
</event>
<event>
 8    1  0.5331800E-011  0.9118800E+02  0.7816164E-02  0.1184000E+00
        -11   -1    0    0    0    0  0.00000000000E+00  0.00000000000E+00  0.45593999997E+02  0.45594000000E+02  0.51100000000E-03 0. -1.
         11   -1    0    0    0    0 -0.00000000000E+00 -0.00000000000E+00 -0.45593999997E+02  0.45594000000E+02  0.51100000000E-03 0.  1.
         23    2    1    2    0    0  0.00000000000E+00  0.00000000000E+00  0.00000000000E+00  0.91188000000E+02  0.91188000000E+02 0.  0.
    9900012    2    3    3    0    0 -0.11948334500E+02 -0.17255538079E+02 -0.37988236099E+02  0.47787281416E+02  0.20000047286E+02 0.  0.
         12    1    3    3    0    0  0.11948334500E+02  0.17255538079E+02  0.37988236099E+02  0.43400718584E+02  0.00000000000E+00 0. -1.
         11    1    4    4    0    0 -0.98298894852E+01 -0.95360771826E+01 -0.23703314181E+02  0.27375364815E+02  0.51100000000E-03 0. -1.
        -11    1    4    4    0    0 -0.27125874137E+01 -0.95274390094E+01 -0.15321397449E+02  0.18244874475E+02  0.51100000000E-03 0.  1.
         12    1    4    4    0    0  0.59414239894E+00  0.18079781134E+01  0.10364755307E+01  0.21670421257E+01  0.00000000000E+00 0. -1.
</event>
<event>
 8    1  0.5331800E-011  0.9118800E+02  0.7816164E-02  0.1184000E+00
        -11   -1    0    0    0    0  0.00000000000E+00  0.00000000000E+00  0.45593999997E+02  0.45594000000E+02  0.51100000000E-03 0. -1.
         11   -1    0    0    0    0 -0.00000000000E+00 -0.00000000000E+00 -0.45593999997E+02  0.45594000000E+02  0.51100000000E-03 0.  1.
         23    2    1    2    0    0  0.00000000000E+00  0.00000000000E+00  0.00000000000E+00  0.91188000000E+02  0.91188000000E+02 0.  0.
    9900012    2    3    3    0    0  0.37216089699E+02 -0.18780142920E+02 -0.12078579032E+02  0.47787272218E+02  0.20000005352E+02 0.  0.
         12    1    3    3    0    0 -0.37216089699E+02  0.18780142920E+02  0.12078579032E+02  0.43400727782E+02  0.00000000000E+00 0. -1.
         11    1    4    4    0    0  0.10553246786E+02 -0.11119154242E+02 -0.96075056273E+01  0.18091732184E+02  0.51100000000E-03 0. -1.
        -11    1    4    4    0    0  0.11719356986E+02 -0.86553364703E+01 -0.20543717074E+01  0.14713212462E+02  0.51100000000E-03 0.  1.
         12    1    4    4    0    0  0.14943485927E+02  0.99434779239E+00 -0.41670169680E+00  0.14982327572E+02  0.00000000000E+00 0. -1.
</event>
<event>
 8    1  0.5331800E-011  0.9118800E+02  0.7816164E-02  0.1184000E+00
        -11   -1    0    0    0    0  0.00000000000E+00  0.00000000000E+00  0.45593999997E+02  0.45594000000E+02  0.51100000000E-03 0. -1.
         11   -1    0    0    0    0 -0.00000000000E+00 -0.00000000000E+00 -0.45593999997E+02  0.45594000000E+02  0.51100000000E-03 0.  1.
         23    2    1    2    0    0  0.00000000000E+00  0.00000000000E+00 -0.35527136788E-14  0.91188000000E+02  0.91188000000E+02 0.  0.
    9900012    2    3    3    0    0  0.11113676197E+02 -0.32694097939E+02  0.26290779646E+02  0.47787274971E+02  0.20000017903E+02 0.  0.
        -12    1    3    3    0    0 -0.11113676197E+02  0.32694097939E+02 -0.26290779646E+02  0.43400725029E+02  0.00000000000E+00 0.  1.
         11    1    4    4    0    0  0.21732675491E+01 -0.62932058259E+01 -0.11084536727E+01  0.67495334071E+01  0.51100000000E-03 0.  1.
        -11    1    4    4    0    0  0.24541242600E+00 -0.15951061804E+02  0.19924276863E+02  0.25523977134E+02  0.51100000000E-03 0. -1.
         12    1    4    4    0    0  0.86949962219E+01 -0.10449830309E+02  0.74749564556E+01  0.15513764430E+02  0.00000000000E+00 0. -1.
</event>
<event>
 8    1  0.5331800E-011  0.9118800E+02  0.7816164E-02  0.1184000E+00
        -11   -1    0    0    0    0  0.00000000000E+00  0.00000000000E+00  0.45593999997E+02  0.45594000000E+02  0.51100000000E-03 0.  1.
         11   -1    0    0    0    0 -0.00000000000E+00 -0.00000000000E+00 -0.45593999997E+02  0.45594000000E+02  0.51100000000E-03 0. -1.
         23    2    1    2    0    0  0.00000000000E+00  0.00000000000E+00 -0.88817841970E-15  0.91188000000E+02  0.91188000000E+02 0.  0.
    9900012    2    3    3    0    0 -0.42844937683E+02  0.24608379482E+01 -0.64713728136E+01  0.47787273340E+02  0.20000010467E+02 0.  0.
        -12    1    3    3    0    0  0.42844937683E+02 -0.24608379482E+01  0.64713728136E+01  0.43400726660E+02  0.00000000000E+00 0.  1.
         11    1    4    4    0    0 -0.22004035001E+02  0.26420477981E+01  0.39033352885E+01  0.22503199762E+02  0.51100000000E-03 0. -1.
        -11    1    4    4    0    0 -0.19575429832E+02 -0.29294703221E+01 -0.10165540925E+02  0.22251235293E+02  0.51100000000E-03 0.  1.
         12    1    4    4    0    0 -0.12654728498E+01  0.27482604722E+01 -0.20916717710E+00  0.30328382853E+01  0.00000000000E+00 0. -1.
</event>
<event>
 8    1  0.5331800E-011  0.9118800E+02  0.7816164E-02  0.1184000E+00
        -11   -1    0    0    0    0  0.00000000000E+00  0.00000000000E+00  0.45593999997E+02  0.45594000000E+02  0.51100000000E-03 0. -1.
         11   -1    0    0    0    0 -0.00000000000E+00 -0.00000000000E+00 -0.45593999997E+02  0.45594000000E+02  0.51100000000E-03 0.  1.
         23    2    1    2    0    0 -0.71054273576E-14  0.00000000000E+00  0.35527136788E-14  0.91188000000E+02  0.91188000000E+02 0.  0.
    9900012    2    3    3    0    0 -0.35438537714E+02  0.29925342603E+01  0.24875140442E+02  0.47787333777E+02  0.20000286020E+02 0.  0.
        -12    1    3    3    0    0  0.35438537714E+02 -0.29925342603E+01 -0.24875140442E+02  0.43400666223E+02  0.00000000000E+00 0.  1.
         11    1    4    4    0    0  0.13995285287E+01 -0.20836070735E+01  0.14304602144E+01  0.28889990006E+01  0.51100000000E-03 0. -1.
        -11    1    4    4    0    0 -0.61279160202E+01  0.12945283063E+01  0.32281714591E+00  0.62714726706E+01  0.51100000000E-03 0.  1.
         12    1    4    4    0    0 -0.30710150222E+02  0.37816130274E+01  0.23121863082E+02  0.38626862106E+02  0.00000000000E+00 0. -1.
</event>
<event>
 8    1  0.6559795E-011  0.9118800E+02  0.7816164E-02  0.1184000E+00
        -11   -1    0    0    0    0  0.00000000000E+00  0.00000000000E+00  0.45593999997E+02  0.45594000000E+02  0.51100000000E-03 0.  1.
         11   -1    0    0    0    0 -0.00000000000E+00 -0.00000000000E+00 -0.45593999997E+02  0.45594000000E+02  0.51100000000E-03 0. -1.
         23    2    1    2    0    0  0.00000000000E+00  0.71054273576E-14 -0.35527136788E-14  0.91188000000E+02  0.91188000000E+02 0.  0.
    9900012    2    3    3    0    0  0.76886430257E+01  0.35552303288E+02 -0.23675762833E+02  0.47787271361E+02  0.20000001442E+02 0.  0.
         12    1    3    3    0    0 -0.76886430257E+01 -0.35552303288E+02  0.23675762833E+02  0.43400728639E+02  0.00000000000E+00 0. -1.
         11    1    4    4    0    0  0.33515557549E+01 -0.80609402511E+00 -0.46283005570E+01  0.57709513828E+01  0.51100000000E-03 0. -1.
        -11    1    4    4    0    0  0.65658874499E+01  0.24670419485E+02 -0.12301547692E+02  0.28338464169E+02  0.51100000000E-03 0.  1.
        -12    1    4    4    0    0 -0.22288001791E+01  0.11687977828E+02 -0.67459145840E+01  0.13677855809E+02  0.00000000000E+00 0.  1.
</event>
<event>
 8    1  0.5331800E-011  0.9118800E+02  0.7816164E-02  0.1184000E+00
        -11   -1    0    0    0    0  0.00000000000E+00  0.00000000000E+00  0.45593999997E+02  0.45594000000E+02  0.51100000000E-03 0. -1.
         11   -1    0    0    0    0 -0.00000000000E+00 -0.00000000000E+00 -0.45593999997E+02  0.45594000000E+02  0.51100000000E-03 0.  1.
         23    2    1    2    0    0  0.00000000000E+00 -0.35527136788E-14  0.00000000000E+00  0.91188000000E+02  0.91188000000E+02 0.  0.
    9900012    2    3    3    0    0  0.29451935807E+02  0.23328825956E+02 -0.21724945451E+02  0.47787263853E+02  0.19999967211E+02 0.  0.
         12    1    3    3    0    0 -0.29451935807E+02 -0.23328825956E+02  0.21724945451E+02  0.43400736147E+02  0.00000000000E+00 0. -1.
         11    1    4    4    0    0  0.37190571892E+01  0.40764387793E+01 -0.94498614046E+00  0.55983692773E+01  0.51100000000E-03 0. -1.
        -11    1    4    4    0    0  0.26425144291E+02  0.18155937588E+02 -0.13488661235E+02  0.34783189944E+02  0.51100000000E-03 0.  1.
        -12    1    4    4    0    0 -0.69226567301E+00  0.10964495883E+01 -0.72912980760E+01  0.74057046319E+01  0.00000000000E+00 0.  1.
</event>
<event>
 8    1  0.5331800E-011  0.9118800E+02  0.7816164E-02  0.1184000E+00
        -11   -1    0    0    0    0  0.00000000000E+00  0.00000000000E+00  0.45593999997E+02  0.45594000000E+02  0.51100000000E-03 0. -1.
         11   -1    0    0    0    0 -0.00000000000E+00 -0.00000000000E+00 -0.45593999997E+02  0.45594000000E+02  0.51100000000E-03 0.  1.
         23    2    1    2    0    0  0.88817841970E-15  0.88817841970E-15  0.00000000000E+00  0.91188000000E+02  0.91188000000E+02 0.  0.
    9900012    2    3    3    0    0  0.58196155155E+01  0.14174415329E+01 -0.42985419388E+02  0.47787270223E+02  0.19999996254E+02 0.  0.
         12    1    3    3    0    0 -0.58196155155E+01 -0.14174415329E+01  0.42985419388E+02  0.43400729777E+02  0.00000000000E+00 0. -1.
         11    1    4    4    0    0  0.39185575981E+01 -0.73022862724E+01 -0.20861890530E+02  0.22447649213E+02  0.51100000000E-03 0.  1.
        -11    1    4    4    0    0 -0.16472953271E+01 -0.39332675682E+00 -0.78933083715E+01  0.80729551678E+01  0.51100000000E-03 0. -1.
         12    1    4    4    0    0  0.35483532445E+01  0.91130545622E+01 -0.14230220486E+02  0.17266665842E+02  0.00000000000E+00 0. -1.
</event>
<event>
 8    1  0.5331800E-011  0.9118800E+02  0.7816164E-02  0.1184000E+00
        -11   -1    0    0    0    0  0.00000000000E+00  0.00000000000E+00  0.45593999997E+02  0.45594000000E+02  0.51100000000E-03 0. -1.
         11   -1    0    0    0    0 -0.00000000000E+00 -0.00000000000E+00 -0.45593999997E+02  0.45594000000E+02  0.51100000000E-03 0.  1.
         23    2    1    2    0    0  0.35527136788E-14 -0.17763568394E-14  0.71054273576E-14  0.91188000000E+02  0.91188000000E+02 0.  0.
    9900012    2    3    3    0    0 -0.16904750971E+02 -0.83490746767E+01 -0.39091505246E+02  0.47787269180E+02  0.19999991498E+02 0.  0.
         12    1    3    3    0    0  0.16904750971E+02  0.83490746767E+01  0.39091505246E+02  0.43400730820E+02  0.00000000000E+00 0. -1.
         11    1    4    4    0    0 -0.43192788890E+01  0.36893719129E+01 -0.10754885673E+02  0.12162861561E+02  0.51100000000E-03 0. -1.
        -11    1    4    4    0    0 -0.90138893456E+01 -0.21542226553E+01 -0.20554096423E+02  0.22546879084E+02  0.51100000000E-03 0.  1.
        -12    1    4    4    0    0 -0.35715827364E+01 -0.98842239342E+01 -0.77825231493E+01  0.13077528535E+02  0.00000000000E+00 0.  1.
</event>
<event>
 8    1  0.5331800E-011  0.9118800E+02  0.7816164E-02  0.1184000E+00
        -11   -1    0    0    0    0  0.00000000000E+00  0.00000000000E+00  0.45593999997E+02  0.45594000000E+02  0.51100000000E-03 0. -1.
         11   -1    0    0    0    0 -0.00000000000E+00 -0.00000000000E+00 -0.45593999997E+02  0.45594000000E+02  0.51100000000E-03 0.  1.
         23    2    1    2    0    0  0.00000000000E+00 -0.71054273576E-14 -0.35527136788E-14  0.91188000000E+02  0.91188000000E+02 0.  0.
    9900012    2    3    3    0    0 -0.56342184095E+01  0.38936357489E+02  0.18325890342E+02  0.47787278711E+02  0.20000034953E+02 0.  0.
        -12    1    3    3    0    0  0.56342184095E+01 -0.38936357489E+02 -0.18325890342E+02  0.43400721289E+02  0.00000000000E+00 0.  1.
         11    1    4    4    0    0 -0.89515021334E+01  0.27759602065E+02  0.18187461077E+02  0.34373080134E+02  0.51100000000E-03 0. -1.
        -11    1    4    4    0    0  0.48600617534E+01  0.10541616839E+02 -0.52223461200E+00  0.11619751076E+02  0.51100000000E-03 0.  1.
         12    1    4    4    0    0 -0.15427780294E+01  0.63513858539E+00  0.66066387741E+00  0.17944474998E+01  0.00000000000E+00 0. -1.
</event>
<event>
 8    1  0.5331800E-011  0.9118800E+02  0.7816164E-02  0.1184000E+00
        -11   -1    0    0    0    0  0.00000000000E+00  0.00000000000E+00  0.45593999997E+02  0.45594000000E+02  0.51100000000E-03 0.  1.
         11   -1    0    0    0    0 -0.00000000000E+00 -0.00000000000E+00 -0.45593999997E+02  0.45594000000E+02  0.51100000000E-03 0. -1.
         23    2    1    2    0    0  0.17763568394E-14  0.00000000000E+00  0.00000000000E+00  0.91188000000E+02  0.91188000000E+02 0.  0.
    9900012    2    3    3    0    0 -0.12407517837E+02  0.41274992279E+02  0.51040477343E+01  0.47787276622E+02  0.20000025429E+02 0.  0.
         12    1    3    3    0    0  0.12407517837E+02 -0.41274992279E+02 -0.51040477343E+01  0.43400723378E+02  0.00000000000E+00 0. -1.
         11    1    4    4    0    0 -0.69589602756E+01  0.29478713473E+02  0.19060751719E-01  0.30288975547E+02  0.51100000000E-03 0. -1.
        -11    1    4    4    0    0  0.25349715647E+01  0.42339780165E+01  0.41752113215E+01  0.64641349397E+01  0.51100000000E-03 0.  1.
        -12    1    4    4    0    0 -0.79835291259E+01  0.75623007897E+01  0.90977566113E+00  0.11034166135E+02  0.00000000000E+00 0.  1.
</event>
<event>
 8    1  0.5331800E-011  0.9118800E+02  0.7816164E-02  0.1184000E+00
        -11   -1    0    0    0    0  0.00000000000E+00  0.00000000000E+00  0.45593999997E+02  0.45594000000E+02  0.51100000000E-03 0. -1.
         11   -1    0    0    0    0 -0.00000000000E+00 -0.00000000000E+00 -0.45593999997E+02  0.45594000000E+02  0.51100000000E-03 0.  1.
         23    2    1    2    0    0  0.00000000000E+00 -0.35527136788E-14  0.00000000000E+00  0.91188000000E+02  0.91188000000E+02 0.  0.
    9900012    2    3    3    0    0 -0.65460895925E+01  0.25011757412E+02 -0.34859487834E+02  0.47787272013E+02  0.20000004414E+02 0.  0.
         12    1    3    3    0    0  0.65460895925E+01 -0.25011757412E+02  0.34859487834E+02  0.43400727987E+02  0.00000000000E+00 0. -1.
         11    1    4    4    0    0 -0.12563509767E+02  0.14995050215E+02 -0.20589605061E+02  0.28401146904E+02  0.51100000000E-03 0. -1.
        -11    1    4    4    0    0  0.34134869375E+01  0.87290362389E+01 -0.13402144405E+02  0.16354370720E+02  0.51100000000E-03 0.  1.
         12    1    4    4    0    0  0.26039332371E+01  0.12876709583E+01 -0.86773836824E+00  0.30317543891E+01  0.00000000000E+00 0. -1.
</event>
<event>
 8    1  0.5331800E-011  0.9118800E+02  0.7816164E-02  0.1184000E+00
        -11   -1    0    0    0    0  0.00000000000E+00  0.00000000000E+00  0.45593999997E+02  0.45594000000E+02  0.51100000000E-03 0. -1.
         11   -1    0    0    0    0 -0.00000000000E+00 -0.00000000000E+00 -0.45593999997E+02  0.45594000000E+02  0.51100000000E-03 0.  1.
         23    2    1    2    0    0 -0.44408920985E-15  0.00000000000E+00  0.00000000000E+00  0.91188000000E+02  0.91188000000E+02 0.  0.
    9900012    2    3    3    0    0  0.34009847789E+01 -0.95951485833E+01 -0.42189941750E+02  0.47787253939E+02  0.19999922009E+02 0.  0.
         12    1    3    3    0    0 -0.34009847789E+01  0.95951485833E+01  0.42189941750E+02  0.43400746061E+02  0.00000000000E+00 0. -1.
         11    1    4    4    0    0 -0.58839700008E+01  0.85081173393E-01 -0.99439687473E+01  0.11554689805E+02  0.51100000000E-03 0. -1.
        -11    1    4    4    0    0  0.47140662747E+01 -0.10758054710E+02 -0.24586417827E+02  0.27247937606E+02  0.51100000000E-03 0.  1.
         12    1    4    4    0    0  0.45708885049E+01  0.10778249531E+01 -0.76595551760E+01  0.89846265280E+01  0.00000000000E+00 0. -1.
</event>
<event>
 8    1  0.5331800E-011  0.9118800E+02  0.7816164E-02  0.1184000E+00
        -11   -1    0    0    0    0  0.00000000000E+00  0.00000000000E+00  0.45593999997E+02  0.45594000000E+02  0.51100000000E-03 0.  1.
         11   -1    0    0    0    0 -0.00000000000E+00 -0.00000000000E+00 -0.45593999997E+02  0.45594000000E+02  0.51100000000E-03 0. -1.
         23    2    1    2    0    0  0.71054273576E-14  0.00000000000E+00  0.00000000000E+00  0.91188000000E+02  0.91188000000E+02 0.  0.
    9900012    2    3    3    0    0 -0.37931087074E+02 -0.16334341103E+02  0.13343338522E+02  0.47787277094E+02  0.20000027580E+02 0.  0.
         12    1    3    3    0    0  0.37931087074E+02  0.16334341103E+02 -0.13343338522E+02  0.43400722906E+02  0.00000000000E+00 0. -1.
         11    1    4    4    0    0 -0.55896941223E+01 -0.33700278549E+00  0.11875967610E+01  0.57243897130E+01  0.51100000000E-03 0. -1.
        -11    1    4    4    0    0 -0.37324127900E+01  0.23391323983E+01 -0.24903610775E+01  0.50600735340E+01  0.51100000000E-03 0.  1.
        -12    1    4    4    0    0 -0.28608980162E+02 -0.18336470715E+02  0.14646102839E+02  0.37002813847E+02  0.00000000000E+00 0.  1.
</event>
<event>
 8    1  0.5331800E-011  0.9118800E+02  0.7816164E-02  0.1184000E+00
        -11   -1    0    0    0    0  0.00000000000E+00  0.00000000000E+00  0.45593999997E+02  0.45594000000E+02  0.51100000000E-03 0. -1.
         11   -1    0    0    0    0 -0.00000000000E+00 -0.00000000000E+00 -0.45593999997E+02  0.45594000000E+02  0.51100000000E-03 0.  1.
         23    2    1    2    0    0  0.35527136788E-14  0.00000000000E+00  0.00000000000E+00  0.91188000000E+02  0.91188000000E+02 0.  0.
    9900012    2    3    3    0    0 -0.27467269706E+02 -0.19796787805E+02  0.27152522495E+02  0.47787272007E+02  0.20000004387E+02 0.  0.
        -12    1    3    3    0    0  0.27467269706E+02  0.19796787805E+02 -0.27152522495E+02  0.43400727993E+02  0.00000000000E+00 0.  1.
         11    1    4    4    0    0 -0.68360518637E+01 -0.16036638494E+02  0.16598337832E+02  0.24070940952E+02  0.51100000000E-03 0. -1.
        -11    1    4    4    0    0 -0.14781272414E+02 -0.27458609103E+01  0.92030571119E+01  0.17627309119E+02  0.51100000000E-03 0.  1.
         12    1    4    4    0    0 -0.58499454279E+01 -0.10142884004E+01  0.13511275519E+01  0.60890219354E+01  0.00000000000E+00 0. -1.
</event>
<event>
 8    1  0.5331800E-011  0.9118800E+02  0.7816164E-02  0.1184000E+00
        -11   -1    0    0    0    0  0.00000000000E+00  0.00000000000E+00  0.45593999997E+02  0.45594000000E+02  0.51100000000E-03 0. -1.
         11   -1    0    0    0    0 -0.00000000000E+00 -0.00000000000E+00 -0.45593999997E+02  0.45594000000E+02  0.51100000000E-03 0.  1.
         23    2    1    2    0    0  0.00000000000E+00  0.00000000000E+00  0.00000000000E+00  0.91188000000E+02  0.91188000000E+02 0.  0.
    9900012    2    3    3    0    0  0.28907446120E+02 -0.22771950764E+02  0.23009157353E+02  0.47787268384E+02  0.19999987868E+02 0.  0.
        -12    1    3    3    0    0 -0.28907446120E+02  0.22771950764E+02 -0.23009157353E+02  0.43400731616E+02  0.00000000000E+00 0.  1.
         11    1    4    4    0    0  0.73713881785E+01 -0.54814387876E+01 -0.18645667982E+00  0.91879432527E+01  0.51100000000E-03 0.  1.
        -11    1    4    4    0    0  0.12944203497E+02 -0.70429968609E+01  0.20012889421E+02  0.24853006904E+02  0.51100000000E-03 0. -1.
        -12    1    4    4    0    0  0.85918544446E+01 -0.10247515115E+02  0.31827246113E+01  0.13746318227E+02  0.00000000000E+00 0.  1.
</event>
<event>
 8    1  0.5331800E-011  0.9118800E+02  0.7816164E-02  0.1184000E+00
        -11   -1    0    0    0    0  0.00000000000E+00  0.00000000000E+00  0.45593999997E+02  0.45594000000E+02  0.51100000000E-03 0. -1.
         11   -1    0    0    0    0 -0.00000000000E+00 -0.00000000000E+00 -0.45593999997E+02  0.45594000000E+02  0.51100000000E-03 0.  1.
         23    2    1    2    0    0 -0.11102230246E-15  0.00000000000E+00  0.00000000000E+00  0.91188000000E+02  0.91188000000E+02 0.  0.
    9900012    2    3    3    0    0  0.40111650857E+00  0.41880817470E+02  0.11378019268E+02  0.47787273176E+02  0.20000009719E+02 0.  0.
        -12    1    3    3    0    0 -0.40111650857E+00 -0.41880817470E+02 -0.11378019268E+02  0.43400726824E+02  0.00000000000E+00 0.  1.
         11    1    4    4    0    0  0.68446430253E+00  0.51575702207E+01  0.30648625315E+01  0.60384107645E+01  0.51100000000E-03 0. -1.
        -11    1    4    4    0    0 -0.22576178354E+01  0.30366691581E+02 -0.80332388247E+00  0.30461091993E+02  0.51100000000E-03 0.  1.
        -12    1    4    4    0    0  0.19742700414E+01  0.63565556682E+01  0.91164806187E+01  0.11287770419E+02  0.00000000000E+00 0.  1.
</event>
<event>
 8    1  0.5331800E-011  0.9118800E+02  0.7816164E-02  0.1184000E+00
        -11   -1    0    0    0    0  0.00000000000E+00  0.00000000000E+00  0.45593999997E+02  0.45594000000E+02  0.51100000000E-03 0.  1.
         11   -1    0    0    0    0 -0.00000000000E+00 -0.00000000000E+00 -0.45593999997E+02  0.45594000000E+02  0.51100000000E-03 0. -1.
         23    2    1    2    0    0  0.00000000000E+00  0.00000000000E+00 -0.35527136788E-14  0.91188000000E+02  0.91188000000E+02 0.  0.
    9900012    2    3    3    0    0 -0.19310346989E+02  0.34189235480E+02  0.18488647050E+02  0.47787269669E+02  0.19999993727E+02 0.  0.
        -12    1    3    3    0    0  0.19310346989E+02 -0.34189235480E+02 -0.18488647050E+02  0.43400730331E+02  0.00000000000E+00 0.  1.
         11    1    4    4    0    0 -0.77597085200E+01  0.21171803296E+02  0.47001025806E+01  0.23033655716E+02  0.51100000000E-03 0. -1.
        -11    1    4    4    0    0 -0.51794431013E+01 -0.61622310886E+00  0.54716235783E+01  0.75594329551E+01  0.51100000000E-03 0.  1.
         12    1    4    4    0    0 -0.63711953679E+01  0.13633655293E+02  0.83169208907E+01  0.17194180998E+02  0.00000000000E+00 0. -1.
</event>
<event>
 8    1  0.5331800E-011  0.9118800E+02  0.7816164E-02  0.1184000E+00
        -11   -1    0    0    0    0  0.00000000000E+00  0.00000000000E+00  0.45593999997E+02  0.45594000000E+02  0.51100000000E-03 0. -1.
         11   -1    0    0    0    0 -0.00000000000E+00 -0.00000000000E+00 -0.45593999997E+02  0.45594000000E+02  0.51100000000E-03 0.  1.
         23    2    1    2    0    0  0.17763568394E-14  0.00000000000E+00 -0.35527136788E-14  0.91188000000E+02  0.91188000000E+02 0.  0.
    9900012    2    3    3    0    0 -0.14906341780E+02  0.28477902213E+02  0.29162184219E+02  0.47787275027E+02  0.20000018159E+02 0.  0.
        -12    1    3    3    0    0  0.14906341780E+02 -0.28477902213E+02 -0.29162184219E+02  0.43400724973E+02  0.00000000000E+00 0.  1.
         11    1    4    4    0    0 -0.76113678537E+01  0.19734408196E+02  0.70435022751E+01  0.22293288497E+02  0.51100000000E-03 0.  1.
        -11    1    4    4    0    0 -0.74472842183E+01  0.62927715356E+01  0.14368907561E+02  0.17364519014E+02  0.51100000000E-03 0. -1.
        -12    1    4    4    0    0  0.15231029226E+00  0.24507224813E+01  0.77497743828E+01  0.81294675157E+01  0.00000000000E+00 0.  1.
</event>
<event>
 8    1  0.5331800E-011  0.9118800E+02  0.7816164E-02  0.1184000E+00
        -11   -1    0    0    0    0  0.00000000000E+00  0.00000000000E+00  0.45593999997E+02  0.45594000000E+02  0.51100000000E-03 0.  1.
         11   -1    0    0    0    0 -0.00000000000E+00 -0.00000000000E+00 -0.45593999997E+02  0.45594000000E+02  0.51100000000E-03 0. -1.
         23    2    1    2    0    0  0.00000000000E+00  0.00000000000E+00  0.00000000000E+00  0.91188000000E+02  0.91188000000E+02 0.  0.
    9900012    2    3    3    0    0  0.23551451485E+02 -0.16430365082E+02  0.32542210963E+02  0.47787271226E+02  0.20000000827E+02 0.  0.
        -12    1    3    3    0    0 -0.23551451485E+02  0.16430365082E+02 -0.32542210963E+02  0.43400728774E+02  0.00000000000E+00 0.  1.
         11    1    4    4    0    0 -0.41886957368E+00 -0.30056511927E+01 -0.12226573696E+01  0.32717399219E+01  0.51100000000E-03 0. -1.
        -11    1    4    4    0    0  0.19812508839E+01 -0.36327804621E+01  0.93767990441E+01  0.10249234582E+02  0.51100000000E-03 0.  1.
         12    1    4    4    0    0  0.21989070174E+02 -0.97919334271E+01  0.24388069289E+02  0.34266296722E+02  0.00000000000E+00 0. -1.
</event>
<event>
 8    1  0.5331800E-011  0.9118800E+02  0.7816164E-02  0.1184000E+00
        -11   -1    0    0    0    0  0.00000000000E+00  0.00000000000E+00  0.45593999997E+02  0.45594000000E+02  0.51100000000E-03 0. -1.
         11   -1    0    0    0    0 -0.00000000000E+00 -0.00000000000E+00 -0.45593999997E+02  0.45594000000E+02  0.51100000000E-03 0.  1.
         23    2    1    2    0    0  0.00000000000E+00 -0.88817841970E-15  0.00000000000E+00  0.91188000000E+02  0.91188000000E+02 0.  0.
    9900012    2    3    3    0    0  0.24458668863E+02  0.21150845414E+01 -0.35789987353E+02  0.47787271206E+02  0.20000000735E+02 0.  0.
         12    1    3    3    0    0 -0.24458668863E+02 -0.21150845414E+01  0.35789987353E+02  0.43400728794E+02  0.00000000000E+00 0. -1.
         11    1    4    4    0    0 -0.16245905840E+01  0.16980806079E+01 -0.48729883999E+01  0.54100636339E+01  0.51100000000E-03 0. -1.
        -11    1    4    4    0    0  0.19847780203E+02 -0.44245294240E+01 -0.26255125767E+02  0.33209072087E+02  0.51100000000E-03 0.  1.
         12    1    4    4    0    0  0.62354792442E+01  0.48415333575E+01 -0.46618731860E+01  0.91681354843E+01  0.00000000000E+00 0. -1.
</event>
<event>
 8    1  0.5331800E-011  0.9118800E+02  0.7816164E-02  0.1184000E+00
        -11   -1    0    0    0    0  0.00000000000E+00  0.00000000000E+00  0.45593999997E+02  0.45594000000E+02  0.51100000000E-03 0.  1.
         11   -1    0    0    0    0 -0.00000000000E+00 -0.00000000000E+00 -0.45593999997E+02  0.45594000000E+02  0.51100000000E-03 0. -1.
         23    2    1    2    0    0  0.00000000000E+00  0.00000000000E+00  0.10547118734E-14  0.91188000000E+02  0.91188000000E+02 0.  0.
    9900012    2    3    3    0    0 -0.12950965247E+02 -0.41421533646E+02  0.38832888965E+00  0.47787288603E+02  0.20000080056E+02 0.  0.
         12    1    3    3    0    0  0.12950965247E+02  0.41421533646E+02 -0.38832888965E+00  0.43400711397E+02  0.00000000000E+00 0. -1.
         11    1    4    4    0    0 -0.12132937183E+02 -0.26063179626E+02 -0.74725396214E+01  0.29704146942E+02  0.51100000000E-03 0. -1.
        -11    1    4    4    0    0 -0.29658126288E+01 -0.11409342590E+02  0.55861010301E+01  0.13045062969E+02  0.51100000000E-03 0.  1.
        -12    1    4    4    0    0  0.21477845648E+01 -0.39490114306E+01  0.22747674810E+01  0.50380786922E+01  0.00000000000E+00 0.  1.
</event>
<event>
 8    1  0.5331800E-011  0.9118800E+02  0.7816164E-02  0.1184000E+00
        -11   -1    0    0    0    0  0.00000000000E+00  0.00000000000E+00  0.45593999997E+02  0.45594000000E+02  0.51100000000E-03 0. -1.
         11   -1    0    0    0    0 -0.00000000000E+00 -0.00000000000E+00 -0.45593999997E+02  0.45594000000E+02  0.51100000000E-03 0.  1.
         23    2    1    2    0    0 -0.35527136788E-14  0.00000000000E+00  0.35527136788E-14  0.91188000000E+02  0.91188000000E+02 0.  0.
    9900012    2    3    3    0    0 -0.31865471641E+02  0.47709220410E+01  0.29076675519E+02  0.47787273747E+02  0.20000012322E+02 0.  0.
        -12    1    3    3    0    0  0.31865471641E+02 -0.47709220410E+01 -0.29076675519E+02  0.43400726253E+02  0.00000000000E+00 0.  1.
         11    1    4    4    0    0 -0.34573399876E+01  0.53322192272E+01  0.12434232927E+02  0.13964093613E+02  0.51100000000E-03 0. -1.
        -11    1    4    4    0    0 -0.18324952094E+02  0.31749059761E+01  0.92268179155E+01  0.20760974599E+02  0.51100000000E-03 0.  1.
         12    1    4    4    0    0 -0.10083179560E+02 -0.37362031622E+01  0.74156246765E+01  0.13062205535E+02  0.00000000000E+00 0. -1.
</event>
<event>
 8    1  0.5331800E-011  0.9118800E+02  0.7816164E-02  0.1184000E+00
        -11   -1    0    0    0    0  0.00000000000E+00  0.00000000000E+00  0.45593999997E+02  0.45594000000E+02  0.51100000000E-03 0. -1.
         11   -1    0    0    0    0 -0.00000000000E+00 -0.00000000000E+00 -0.45593999997E+02  0.45594000000E+02  0.51100000000E-03 0.  1.
         23    2    1    2    0    0  0.35527136788E-14  0.88817841970E-15  0.00000000000E+00  0.91188000000E+02  0.91188000000E+02 0.  0.
    9900012    2    3    3    0    0  0.30784953589E+02 -0.69686569808E+01 -0.29788382717E+02  0.47787270830E+02  0.19999999021E+02 0.  0.
         12    1    3    3    0    0 -0.30784953589E+02  0.69686569808E+01  0.29788382717E+02  0.43400729170E+02  0.00000000000E+00 0. -1.
         11    1    4    4    0    0  0.15053024134E+02 -0.77903131769E+01 -0.61797092532E+01  0.18040823753E+02  0.51100000000E-03 0. -1.
        -11    1    4    4    0    0  0.83301934836E+01  0.41806287126E+01 -0.16489471589E+02  0.18941289646E+02  0.51100000000E-03 0.  1.
        -12    1    4    4    0    0  0.74017359722E+01 -0.33589725164E+01 -0.71192018746E+01  0.10805157431E+02  0.00000000000E+00 0.  1.
</event>
<event>
 8    1  0.5331800E-011  0.9118800E+02  0.7816164E-02  0.1184000E+00
        -11   -1    0    0    0    0  0.00000000000E+00  0.00000000000E+00  0.45593999997E+02  0.45594000000E+02  0.51100000000E-03 0. -1.
         11   -1    0    0    0    0 -0.00000000000E+00 -0.00000000000E+00 -0.45593999997E+02  0.45594000000E+02  0.51100000000E-03 0.  1.
         23    2    1    2    0    0  0.35527136788E-14  0.00000000000E+00  0.00000000000E+00  0.91188000000E+02  0.91188000000E+02 0.  0.
    9900012    2    3    3    0    0 -0.18968347155E+02 -0.36336281912E+02 -0.14265320559E+02  0.47787274803E+02  0.20000017136E+02 0.  0.
         12    1    3    3    0    0  0.18968347155E+02  0.36336281912E+02  0.14265320559E+02  0.43400725197E+02  0.00000000000E+00 0. -1.
         11    1    4    4    0    0 -0.79555013310E+01 -0.27458862959E+02 -0.14962706216E+02  0.32267037887E+02  0.51100000000E-03 0. -1.
        -11    1    4    4    0    0 -0.24811758048E+01 -0.45749363600E+01 -0.20254956011E+01  0.55847031044E+01  0.51100000000E-03 0.  1.
         12    1    4    4    0    0 -0.85316700188E+01 -0.43024825932E+01  0.27228812577E+01  0.99355338115E+01  0.00000000000E+00 0. -1.
</event>
<event>
 8    1  0.5331800E-011  0.9118800E+02  0.7816164E-02  0.1184000E+00
        -11   -1    0    0    0    0  0.00000000000E+00  0.00000000000E+00  0.45593999997E+02  0.45594000000E+02  0.51100000000E-03 0. -1.
         11   -1    0    0    0    0 -0.00000000000E+00 -0.00000000000E+00 -0.45593999997E+02  0.45594000000E+02  0.51100000000E-03 0.  1.
         23    2    1    2    0    0  0.71054273576E-14 -0.52735593670E-15  0.00000000000E+00  0.91188000000E+02  0.91188000000E+02 0.  0.
    9900012    2    3    3    0    0 -0.28673885865E+02  0.21971476826E+00 -0.32578875543E+02  0.47787272623E+02  0.20000007198E+02 0.  0.
         12    1    3    3    0    0  0.28673885865E+02 -0.21971476826E+00  0.32578875543E+02  0.43400727377E+02  0.00000000000E+00 0. -1.
         11    1    4    4    0    0  0.21514412431E+01  0.72449104570E+00 -0.32348214944E+00  0.22930825672E+01  0.51100000000E-03 0. -1.
        -11    1    4    4    0    0 -0.15057226568E+02 -0.46827583204E+01 -0.16112785516E+02  0.22544847632E+02  0.51100000000E-03 0.  1.
         12    1    4    4    0    0 -0.15768100540E+02  0.41779820430E+01 -0.16142607878E+02  0.22949342424E+02  0.00000000000E+00 0. -1.
</event>
<event>
 8    1  0.5331800E-011  0.9118800E+02  0.7816164E-02  0.1184000E+00
        -11   -1    0    0    0    0  0.00000000000E+00  0.00000000000E+00  0.45593999997E+02  0.45594000000E+02  0.51100000000E-03 0. -1.
         11   -1    0    0    0    0 -0.00000000000E+00 -0.00000000000E+00 -0.45593999997E+02  0.45594000000E+02  0.51100000000E-03 0.  1.
         23    2    1    2    0    0  0.00000000000E+00  0.00000000000E+00  0.00000000000E+00  0.91188000000E+02  0.91188000000E+02 0.  0.
    9900012    2    3    3    0    0  0.10752092346E+02  0.33013705507E+02  0.26040550341E+02  0.47787279923E+02  0.20000040481E+02 0.  0.
        -12    1    3    3    0    0 -0.10752092346E+02 -0.33013705507E+02 -0.26040550341E+02  0.43400720077E+02  0.00000000000E+00 0.  1.
         11    1    4    4    0    0  0.45186026456E+01  0.26258643540E+02  0.20498716744E+02  0.33617428796E+02  0.51100000000E-03 0. -1.
        -11    1    4    4    0    0  0.32406611391E+00 -0.12945519263E+01  0.38073706903E+01  0.40344708910E+01  0.51100000000E-03 0.  1.
         12    1    4    4    0    0  0.59094235867E+01  0.80496138932E+01  0.17344629071E+01  0.10135380236E+02  0.00000000000E+00 0. -1.
</event>
<event>
 8    1  0.5331800E-011  0.9118800E+02  0.7816164E-02  0.1184000E+00
        -11   -1    0    0    0    0  0.00000000000E+00  0.00000000000E+00  0.45593999997E+02  0.45594000000E+02  0.51100000000E-03 0.  1.
         11   -1    0    0    0    0 -0.00000000000E+00 -0.00000000000E+00 -0.45593999997E+02  0.45594000000E+02  0.51100000000E-03 0. -1.
         23    2    1    2    0    0  0.71054273576E-14 -0.35527136788E-14  0.00000000000E+00  0.91188000000E+02  0.91188000000E+02 0.  0.
    9900012    2    3    3    0    0  0.41073629540E+02 -0.11268844560E+02  0.83422611614E+01  0.47787271635E+02  0.20000002692E+02 0.  0.
        -12    1    3    3    0    0 -0.41073629540E+02  0.11268844560E+02 -0.83422611614E+01  0.43400728365E+02  0.00000000000E+00 0.  1.
         11    1    4    4    0    0  0.58966361732E+01  0.41937205734E+01  0.12591823511E+01  0.73446001158E+01  0.51100000000E-03 0. -1.
        -11    1    4    4    0    0  0.19195547675E+02 -0.12993305584E+02  0.71969182409E+01  0.24271190185E+02  0.51100000000E-03 0.  1.
         12    1    4    4    0    0  0.15981445692E+02 -0.24692595493E+01 -0.11383943062E+00  0.16171481334E+02  0.00000000000E+00 0. -1.
</event>
<event>
 8    1  0.5331800E-011  0.9118800E+02  0.7816164E-02  0.1184000E+00
        -11   -1    0    0    0    0  0.00000000000E+00  0.00000000000E+00  0.45593999997E+02  0.45594000000E+02  0.51100000000E-03 0. -1.
         11   -1    0    0    0    0 -0.00000000000E+00 -0.00000000000E+00 -0.45593999997E+02  0.45594000000E+02  0.51100000000E-03 0.  1.
         23    2    1    2    0    0  0.00000000000E+00  0.00000000000E+00  0.00000000000E+00  0.91188000000E+02  0.91188000000E+02 0.  0.
    9900012    2    3    3    0    0  0.51177634636E+01  0.10220523099E+02  0.41868513852E+02  0.47787273653E+02  0.20000011892E+02 0.  0.
        -12    1    3    3    0    0 -0.51177634636E+01 -0.10220523099E+02 -0.41868513852E+02  0.43400726347E+02  0.00000000000E+00 0.  1.
         11    1    4    4    0    0  0.64729349254E+01  0.79678881552E+01  0.40403848494E+02  0.41687613287E+02  0.51100000000E-03 0. -1.
        -11    1    4    4    0    0  0.18150800010E+01  0.80919053328E+00 -0.56763184543E+00  0.20667633881E+01  0.51100000000E-03 0.  1.
         12    1    4    4    0    0 -0.31702514628E+01  0.14434444110E+01  0.20322972034E+01  0.40328969771E+01  0.00000000000E+00 0. -1.
</event>
<event>
 8    1  0.5331800E-011  0.9118800E+02  0.7816164E-02  0.1184000E+00
        -11   -1    0    0    0    0  0.00000000000E+00  0.00000000000E+00  0.45593999997E+02  0.45594000000E+02  0.51100000000E-03 0. -1.
         11   -1    0    0    0    0 -0.00000000000E+00 -0.00000000000E+00 -0.45593999997E+02  0.45594000000E+02  0.51100000000E-03 0.  1.
         23    2    1    2    0    0  0.00000000000E+00  0.88817841970E-15  0.00000000000E+00  0.91188000000E+02  0.91188000000E+02 0.  0.
    9900012    2    3    3    0    0  0.29927887902E+02 -0.52501025021E+01  0.30990023516E+02  0.47787267194E+02  0.19999982445E+02 0.  0.
        -12    1    3    3    0    0 -0.29927887902E+02  0.52501025021E+01 -0.30990023516E+02  0.43400732806E+02  0.00000000000E+00 0.  1.
         11    1    4    4    0    0  0.24408068040E+02 -0.91791503215E+01  0.23016286131E+02  0.34781604529E+02  0.51100000000E-03 0. -1.
        -11    1    4    4    0    0  0.14959175242E+01 -0.21640964090E+01  0.75303019628E+00  0.27364460975E+01  0.51100000000E-03 0.  1.
         12    1    4    4    0    0  0.40239023374E+01  0.60931442284E+01  0.72207071893E+01  0.10269216568E+02  0.00000000000E+00 0. -1.
</event>
<event>
 8    1  0.5331800E-011  0.9118800E+02  0.7816164E-02  0.1184000E+00
        -11   -1    0    0    0    0  0.00000000000E+00  0.00000000000E+00  0.45593999997E+02  0.45594000000E+02  0.51100000000E-03 0. -1.
         11   -1    0    0    0    0 -0.00000000000E+00 -0.00000000000E+00 -0.45593999997E+02  0.45594000000E+02  0.51100000000E-03 0.  1.
         23    2    1    2    0    0  0.00000000000E+00 -0.17763568394E-14  0.00000000000E+00  0.91188000000E+02  0.91188000000E+02 0.  0.
    9900012    2    3    3    0    0 -0.11757119604E+02  0.11159418898E+02  0.40259882392E+02  0.47787301599E+02  0.20000139309E+02 0.  0.
        -12    1    3    3    0    0  0.11757119604E+02 -0.11159418898E+02 -0.40259882392E+02  0.43400698401E+02  0.00000000000E+00 0.  1.
         11    1    4    4    0    0  0.19926574999E-01  0.34642619549E+01  0.73065354693E+01  0.80862209212E+01  0.51100000000E-03 0. -1.
        -11    1    4    4    0    0 -0.72326494886E+01  0.13111055076E+02  0.24075538761E+02  0.28352117217E+02  0.51100000000E-03 0.  1.
        -12    1    4    4    0    0 -0.45443966907E+01 -0.54158981326E+01  0.88778081617E+01  0.11348963460E+02  0.00000000000E+00 0.  1.
</event>
<event>
 8    1  0.5331800E-011  0.9118800E+02  0.7816164E-02  0.1184000E+00
        -11   -1    0    0    0    0  0.00000000000E+00  0.00000000000E+00  0.45593999997E+02  0.45594000000E+02  0.51100000000E-03 0. -1.
         11   -1    0    0    0    0 -0.00000000000E+00 -0.00000000000E+00 -0.45593999997E+02  0.45594000000E+02  0.51100000000E-03 0.  1.
         23    2    1    2    0    0  0.00000000000E+00  0.00000000000E+00  0.00000000000E+00  0.91188000000E+02  0.91188000000E+02 0.  0.
    9900012    2    3    3    0    0 -0.75343021531E+01  0.40578281295E+02 -0.13426071045E+02  0.47787285657E+02  0.20000066625E+02 0.  0.
         12    1    3    3    0    0  0.75343021531E+01 -0.40578281295E+02  0.13426071045E+02  0.43400714343E+02  0.00000000000E+00 0. -1.
         11    1    4    4    0    0 -0.10403852221E+02  0.14393872978E+02 -0.48829481184E+01  0.18419199302E+02  0.51100000000E-03 0. -1.
        -11    1    4    4    0    0  0.38095799812E+01  0.55023191890E+01  0.63294051870E+00  0.67222786355E+01  0.51100000000E-03 0.  1.
         12    1    4    4    0    0 -0.94002991324E+00  0.20682089127E+02 -0.91760634451E+01  0.22645807719E+02  0.00000000000E+00 0. -1.
</event>
<event>
 8    1  0.5331800E-011  0.9118800E+02  0.7816164E-02  0.1184000E+00
        -11   -1    0    0    0    0  0.00000000000E+00  0.00000000000E+00  0.45593999997E+02  0.45594000000E+02  0.51100000000E-03 0. -1.
         11   -1    0    0    0    0 -0.00000000000E+00 -0.00000000000E+00 -0.45593999997E+02  0.45594000000E+02  0.51100000000E-03 0.  1.
         23    2    1    2    0    0 -0.71054273576E-14  0.00000000000E+00  0.00000000000E+00  0.91188000000E+02  0.91188000000E+02 0.  0.
    9900012    2    3    3    0    0  0.33776229527E+02 -0.14308695623E+02  0.23195926199E+02  0.47787269088E+02  0.19999991081E+02 0.  0.
        -12    1    3    3    0    0 -0.33776229527E+02  0.14308695623E+02 -0.23195926199E+02  0.43400730912E+02  0.00000000000E+00 0.  1.
         11    1    4    4    0    0  0.38343265356E+01  0.36873239245E+01  0.80656834672E+01  0.96619701800E+01  0.51100000000E-03 0. -1.
        -11    1    4    4    0    0  0.16201728164E+02 -0.10357148399E+02  0.73681977779E+01  0.20592640851E+02  0.51100000000E-03 0.  1.
        -12    1    4    4    0    0  0.13740174827E+02 -0.76388711479E+01  0.77620449535E+01  0.17532658057E+02  0.00000000000E+00 0.  1.
</event>
<event>
 8    1  0.5331800E-011  0.9118800E+02  0.7816164E-02  0.1184000E+00
        -11   -1    0    0    0    0  0.00000000000E+00  0.00000000000E+00  0.45593999997E+02  0.45594000000E+02  0.51100000000E-03 0. -1.
         11   -1    0    0    0    0 -0.00000000000E+00 -0.00000000000E+00 -0.45593999997E+02  0.45594000000E+02  0.51100000000E-03 0.  1.
         23    2    1    2    0    0  0.00000000000E+00 -0.17763568394E-14  0.71054273576E-14  0.91188000000E+02  0.91188000000E+02 0.  0.
    9900012    2    3    3    0    0  0.25203706872E+02 -0.96491679464E+01  0.33989552492E+02  0.47787274652E+02  0.20000016448E+02 0.  0.
        -12    1    3    3    0    0 -0.25203706872E+02  0.96491679464E+01 -0.33989552492E+02  0.43400725348E+02  0.00000000000E+00 0.  1.
         11    1    4    4    0    0  0.11406800945E+02  0.38299048447E+00  0.36790468323E+01  0.11991545996E+02  0.51100000000E-03 0. -1.
        -11    1    4    4    0    0  0.56498539937E+01 -0.83104249713E+01  0.11804419445E+02  0.15502526634E+02  0.51100000000E-03 0.  1.
         12    1    4    4    0    0  0.81470519329E+01 -0.17217334595E+01  0.18506086215E+02  0.20293202022E+02  0.00000000000E+00 0. -1.
</event>
<event>
 8    1  0.5331800E-011  0.9118800E+02  0.7816164E-02  0.1184000E+00
        -11   -1    0    0    0    0  0.00000000000E+00  0.00000000000E+00  0.45593999997E+02  0.45594000000E+02  0.51100000000E-03 0.  1.
         11   -1    0    0    0    0 -0.00000000000E+00 -0.00000000000E+00 -0.45593999997E+02  0.45594000000E+02  0.51100000000E-03 0. -1.
         23    2    1    2    0    0  0.00000000000E+00 -0.35527136788E-14  0.00000000000E+00  0.91188000000E+02  0.91188000000E+02 0.  0.
    9900012    2    3    3    0    0 -0.29466311474E+02  0.26815465068E+02  0.17213101367E+02  0.47787268009E+02  0.19999986162E+02 0.  0.
        -12    1    3    3    0    0  0.29466311474E+02 -0.26815465068E+02 -0.17213101367E+02  0.43400731991E+02  0.00000000000E+00 0.  1.
         11    1    4    4    0    0 -0.63760782540E+01  0.75808679173E+01  0.52664319988E+01  0.11218700394E+02  0.51100000000E-03 0.  1.
        -11    1    4    4    0    0 -0.17226746468E+02  0.17875139936E+02  0.15795560873E+02  0.29424159549E+02  0.51100000000E-03 0. -1.
        -12    1    4    4    0    0 -0.58634867514E+01  0.13594572142E+01 -0.38488915044E+01  0.71444080660E+01  0.00000000000E+00 0.  1.
</event>
<event>
 8    1  0.5331800E-011  0.9118800E+02  0.7816164E-02  0.1184000E+00
        -11   -1    0    0    0    0  0.00000000000E+00  0.00000000000E+00  0.45593999997E+02  0.45594000000E+02  0.51100000000E-03 0. -1.
         11   -1    0    0    0    0 -0.00000000000E+00 -0.00000000000E+00 -0.45593999997E+02  0.45594000000E+02  0.51100000000E-03 0.  1.
         23    2    1    2    0    0 -0.66613381478E-15  0.17763568394E-14  0.71054273576E-14  0.91188000000E+02  0.91188000000E+02 0.  0.
    9900012    2    3    3    0    0  0.15747427969E+01 -0.15777260949E+02 -0.40400759663E+02  0.47787272365E+02  0.20000006019E+02 0.  0.
         12    1    3    3    0    0 -0.15747427969E+01  0.15777260949E+02  0.40400759663E+02  0.43400727635E+02  0.00000000000E+00 0. -1.
         11    1    4    4    0    0 -0.25121409147E+01 -0.99189291283E+01 -0.13917870511E+02  0.17274348811E+02  0.51100000000E-03 0. -1.
        -11    1    4    4    0    0  0.73121026012E+01  0.18623102846E+00 -0.81986181748E+01  0.10987213782E+02  0.51100000000E-03 0.  1.
        -12    1    4    4    0    0 -0.32252188896E+01 -0.60445628492E+01 -0.18284270977E+02  0.19525709772E+02  0.00000000000E+00 0.  1.
</event>
<event>
 8    1  0.5331800E-011  0.9118800E+02  0.7816164E-02  0.1184000E+00
        -11   -1    0    0    0    0  0.00000000000E+00  0.00000000000E+00  0.45593999997E+02  0.45594000000E+02  0.51100000000E-03 0. -1.
         11   -1    0    0    0    0 -0.00000000000E+00 -0.00000000000E+00 -0.45593999997E+02  0.45594000000E+02  0.51100000000E-03 0.  1.
         23    2    1    2    0    0  0.00000000000E+00  0.17763568394E-14  0.00000000000E+00  0.91188000000E+02  0.91188000000E+02 0.  0.
    9900012    2    3    3    0    0  0.18210713896E+01 -0.15056941566E+02  0.40664421743E+02  0.47787274361E+02  0.20000015122E+02 0.  0.
        -12    1    3    3    0    0 -0.18210713896E+01  0.15056941566E+02 -0.40664421743E+02  0.43400725639E+02  0.00000000000E+00 0.  1.
         11    1    4    4    0    0  0.22183511393E+00 -0.90640089345E+01  0.29592823958E+01  0.95374431239E+01  0.51100000000E-03 0. -1.
        -11    1    4    4    0    0  0.96835644630E+00 -0.53087278762E+01  0.29249232277E+02  0.29742862924E+02  0.51100000000E-03 0.  1.
         12    1    4    4    0    0  0.63087982941E+00 -0.68420475518E+00  0.84559070695E+01  0.85069683127E+01  0.00000000000E+00 0. -1.
</event>
<event>
 8    1  0.5331800E-011  0.9118800E+02  0.7816164E-02  0.1184000E+00
        -11   -1    0    0    0    0  0.00000000000E+00  0.00000000000E+00  0.45593999997E+02  0.45594000000E+02  0.51100000000E-03 0.  1.
         11   -1    0    0    0    0 -0.00000000000E+00 -0.00000000000E+00 -0.45593999997E+02  0.45594000000E+02  0.51100000000E-03 0. -1.
         23    2    1    2    0    0  0.00000000000E+00  0.00000000000E+00  0.88817841970E-15  0.91188000000E+02  0.91188000000E+02 0.  0.
    9900012    2    3    3    0    0 -0.20902520390E+02  0.37557650241E+02 -0.60109160911E+01  0.47787267719E+02  0.19999984837E+02 0.  0.
        -12    1    3    3    0    0  0.20902520390E+02 -0.37557650241E+02  0.60109160911E+01  0.43400732281E+02  0.00000000000E+00 0.  1.
         11    1    4    4    0    0 -0.66733483334E+01  0.12456127762E+02 -0.34916836747E+01  0.14556117338E+02  0.51100000000E-03 0. -1.
        -11    1    4    4    0    0 -0.58223733516E-01  0.16605791263E+02 -0.16072646918E+01  0.16683494644E+02  0.51100000000E-03 0.  1.
        -12    1    4    4    0    0 -0.14170948323E+02  0.84957312156E+01 -0.91196772453E+00  0.16547655737E+02  0.00000000000E+00 0.  1.
</event>
<event>
 8    1  0.5331800E-011  0.9118800E+02  0.7816164E-02  0.1184000E+00
        -11   -1    0    0    0    0  0.00000000000E+00  0.00000000000E+00  0.45593999997E+02  0.45594000000E+02  0.51100000000E-03 0. -1.
         11   -1    0    0    0    0 -0.00000000000E+00 -0.00000000000E+00 -0.45593999997E+02  0.45594000000E+02  0.51100000000E-03 0.  1.
         23    2    1    2    0    0  0.00000000000E+00 -0.71054273576E-14  0.35527136788E-14  0.91188000000E+02  0.91188000000E+02 0.  0.
    9900012    2    3    3    0    0  0.20605591440E+02 -0.26264804248E+02  0.27734327488E+02  0.47787271182E+02  0.20000000625E+02 0.  0.
        -12    1    3    3    0    0 -0.20605591440E+02  0.26264804248E+02 -0.27734327488E+02  0.43400728818E+02  0.00000000000E+00 0.  1.
         11    1    4    4    0    0  0.26074445019E+01 -0.13700103987E+01  0.56830810168E+01  0.64010237796E+01  0.51100000000E-03 0. -1.
        -11    1    4    4    0    0  0.55808033183E+00 -0.20519536479E+01  0.99980159475E+01  0.10221657917E+02  0.51100000000E-03 0.  1.
         12    1    4    4    0    0  0.17440066606E+02 -0.22842840201E+02  0.12053230524E+02  0.31164589485E+02  0.00000000000E+00 0. -1.
</event>
<event>
 8    1  0.5331800E-011  0.9118800E+02  0.7816164E-02  0.1184000E+00
        -11   -1    0    0    0    0  0.00000000000E+00  0.00000000000E+00  0.45593999997E+02  0.45594000000E+02  0.51100000000E-03 0. -1.
         11   -1    0    0    0    0 -0.00000000000E+00 -0.00000000000E+00 -0.45593999997E+02  0.45594000000E+02  0.51100000000E-03 0.  1.
         23    2    1    2    0    0 -0.13322676296E-14  0.00000000000E+00  0.00000000000E+00  0.91188000000E+02  0.91188000000E+02 0.  0.
    9900012    2    3    3    0    0 -0.34484010058E+01 -0.40175406036E+02 -0.16052086896E+02  0.47787260221E+02  0.19999950650E+02 0.  0.
         12    1    3    3    0    0  0.34484010058E+01  0.40175406036E+02  0.16052086896E+02  0.43400739779E+02  0.00000000000E+00 0. -1.
         11    1    4    4    0    0  0.58378079133E+01 -0.13849419772E+02 -0.45778827878E+01  0.15711252030E+02  0.51100000000E-03 0. -1.
        -11    1    4    4    0    0 -0.10886024577E+02 -0.21170487916E+02 -0.11988238325E+02  0.26653572896E+02  0.51100000000E-03 0.  1.
        -12    1    4    4    0    0  0.15998156582E+01 -0.51554983478E+01  0.51403421670E+00  0.54224352952E+01  0.00000000000E+00 0.  1.
</event>
<event>
 8    1  0.5331800E-011  0.9118800E+02  0.7816164E-02  0.1184000E+00
        -11   -1    0    0    0    0  0.00000000000E+00  0.00000000000E+00  0.45593999997E+02  0.45594000000E+02  0.51100000000E-03 0. -1.
         11   -1    0    0    0    0 -0.00000000000E+00 -0.00000000000E+00 -0.45593999997E+02  0.45594000000E+02  0.51100000000E-03 0.  1.
         23    2    1    2    0    0 -0.17763568394E-14 -0.35527136788E-14  0.00000000000E+00  0.91188000000E+02  0.91188000000E+02 0.  0.
    9900012    2    3    3    0    0  0.10206678423E+02  0.30396058835E+02 -0.29249392229E+02  0.47787267024E+02  0.19999981667E+02 0.  0.
         12    1    3    3    0    0 -0.10206678423E+02 -0.30396058835E+02  0.29249392229E+02  0.43400732976E+02  0.00000000000E+00 0. -1.
         11    1    4    4    0    0  0.68076416571E+01  0.26505761028E+02 -0.21229966677E+02  0.34635398626E+02  0.51100000000E-03 0.  1.
        -11    1    4    4    0    0 -0.11990736260E+01  0.54303507093E+01 -0.46196077067E+01  0.72296100871E+01  0.51100000000E-03 0. -1.
         12    1    4    4    0    0  0.45981103920E+01 -0.15400529022E+01 -0.33998178454E+01  0.59222583108E+01  0.00000000000E+00 0. -1.
</event>
<event>
 8    1  0.5331800E-011  0.9118800E+02  0.7816164E-02  0.1184000E+00
        -11   -1    0    0    0    0  0.00000000000E+00  0.00000000000E+00  0.45593999997E+02  0.45594000000E+02  0.51100000000E-03 0. -1.
         11   -1    0    0    0    0 -0.00000000000E+00 -0.00000000000E+00 -0.45593999997E+02  0.45594000000E+02  0.51100000000E-03 0.  1.
         23    2    1    2    0    0  0.66613381478E-15  0.00000000000E+00 -0.71054273576E-14  0.91188000000E+02  0.91188000000E+02 0.  0.
    9900012    2    3    3    0    0  0.18871161296E+01 -0.27194891697E+02  0.33771288754E+02  0.47787270907E+02  0.19999999375E+02 0.  0.
        -12    1    3    3    0    0 -0.18871161296E+01  0.27194891697E+02 -0.33771288754E+02  0.43400729093E+02  0.00000000000E+00 0.  1.
         11    1    4    4    0    0  0.15833403194E+01 -0.79338767681E+01  0.99859524903E+01  0.12851949834E+02  0.51100000000E-03 0. -1.
        -11    1    4    4    0    0  0.77124732736E+01 -0.14014215574E+02  0.11692559519E+02  0.19814046293E+02  0.51100000000E-03 0.  1.
        -12    1    4    4    0    0 -0.74086974633E+01 -0.52467993550E+01  0.12092776745E+02  0.15121274780E+02  0.00000000000E+00 0.  1.
</event>
<event>
 8    1  0.5331800E-011  0.9118800E+02  0.7816164E-02  0.1184000E+00
        -11   -1    0    0    0    0  0.00000000000E+00  0.00000000000E+00  0.45593999997E+02  0.45594000000E+02  0.51100000000E-03 0.  1.
         11   -1    0    0    0    0 -0.00000000000E+00 -0.00000000000E+00 -0.45593999997E+02  0.45594000000E+02  0.51100000000E-03 0. -1.
         23    2    1    2    0    0  0.71054273576E-14  0.00000000000E+00  0.00000000000E+00  0.91188000000E+02  0.91188000000E+02 0.  0.
    9900012    2    3    3    0    0  0.37007122890E+02 -0.14182371433E+02  0.17690567448E+02  0.47787274422E+02  0.20000015400E+02 0.  0.
        -12    1    3    3    0    0 -0.37007122890E+02  0.14182371433E+02 -0.17690567448E+02  0.43400725578E+02  0.00000000000E+00 0.  1.
         11    1    4    4    0    0  0.70508876611E+01 -0.50475890348E+01  0.62369131048E+01  0.10681397718E+02  0.51100000000E-03 0. -1.
        -11    1    4    4    0    0  0.12577107862E+01  0.65378442140E+00  0.61653695399E+01  0.63262194331E+01  0.51100000000E-03 0.  1.
        -12    1    4    4    0    0  0.28698524442E+02 -0.97885668198E+01  0.52882848036E+01  0.30779657271E+02  0.00000000000E+00 0.  1.
</event>
<event>
 8    1  0.5331800E-011  0.9118800E+02  0.7816164E-02  0.1184000E+00
        -11   -1    0    0    0    0  0.00000000000E+00  0.00000000000E+00  0.45593999997E+02  0.45594000000E+02  0.51100000000E-03 0. -1.
         11   -1    0    0    0    0 -0.00000000000E+00 -0.00000000000E+00 -0.45593999997E+02  0.45594000000E+02  0.51100000000E-03 0.  1.
         23    2    1    2    0    0 -0.71054273576E-14 -0.44408920985E-15  0.00000000000E+00  0.91188000000E+02  0.91188000000E+02 0.  0.
    9900012    2    3    3    0    0 -0.33880521593E+02  0.30589911773E+01  0.26951369073E+02  0.47787268839E+02  0.19999989943E+02 0.  0.
        -12    1    3    3    0    0  0.33880521593E+02 -0.30589911773E+01 -0.26951369073E+02  0.43400731161E+02  0.00000000000E+00 0.  1.
         11    1    4    4    0    0 -0.98478682890E+01  0.60272810120E+01  0.14995668281E+02  0.18925609467E+02  0.51100000000E-03 0. -1.
        -11    1    4    4    0    0 -0.18642034259E+02  0.11119695974E+01  0.53899721431E+01  0.19437430840E+02  0.51100000000E-03 0.  1.
         12    1    4    4    0    0 -0.53906190442E+01 -0.40802594321E+01  0.65657286490E+01  0.94242285310E+01  0.00000000000E+00 0. -1.
</event>
<event>
 8    1  0.5331800E-011  0.9118800E+02  0.7816164E-02  0.1184000E+00
        -11   -1    0    0    0    0  0.00000000000E+00  0.00000000000E+00  0.45593999997E+02  0.45594000000E+02  0.51100000000E-03 0. -1.
         11   -1    0    0    0    0 -0.00000000000E+00 -0.00000000000E+00 -0.45593999997E+02  0.45594000000E+02  0.51100000000E-03 0.  1.
         23    2    1    2    0    0 -0.35527136788E-14  0.00000000000E+00  0.00000000000E+00  0.91188000000E+02  0.91188000000E+02 0.  0.
    9900012    2    3    3    0    0  0.26631015717E+02 -0.15627457631E+02 -0.30499095938E+02  0.47787270937E+02  0.19999999511E+02 0.  0.
         12    1    3    3    0    0 -0.26631015717E+02  0.15627457631E+02  0.30499095938E+02  0.43400729063E+02  0.00000000000E+00 0. -1.
         11    1    4    4    0    0  0.36287970872E+01  0.18395250864E+01 -0.32880837373E+01  0.52310147934E+01  0.51100000000E-03 0. -1.
        -11    1    4    4    0    0  0.14829985753E+02 -0.28197953603E+01 -0.17742698378E+02  0.23295559004E+02  0.51100000000E-03 0.  1.
        -12    1    4    4    0    0  0.81722328764E+01 -0.14647187357E+02 -0.94683138234E+01  0.19260697140E+02  0.00000000000E+00 0.  1.
</event>
<event>
 8    1  0.5331800E-011  0.9118800E+02  0.7816164E-02  0.1184000E+00
        -11   -1    0    0    0    0  0.00000000000E+00  0.00000000000E+00  0.45593999997E+02  0.45594000000E+02  0.51100000000E-03 0. -1.
         11   -1    0    0    0    0 -0.00000000000E+00 -0.00000000000E+00 -0.45593999997E+02  0.45594000000E+02  0.51100000000E-03 0.  1.
         23    2    1    2    0    0  0.00000000000E+00  0.00000000000E+00  0.00000000000E+00  0.91188000000E+02  0.91188000000E+02 0.  0.
    9900012    2    3    3    0    0 -0.19191924118E+02 -0.34983520543E+02 -0.17071813715E+02  0.47787268618E+02  0.19999988939E+02 0.  0.
         12    1    3    3    0    0  0.19191924118E+02  0.34983520543E+02  0.17071813715E+02  0.43400731382E+02  0.00000000000E+00 0. -1.
         11    1    4    4    0    0  0.19970682280E+00  0.10626725672E+00 -0.14021934311E+00  0.26615271974E+00  0.51100000000E-03 0. -1.
        -11    1    4    4    0    0 -0.20962438464E+01 -0.18311991810E+02 -0.14206843072E+02  0.23271391721E+02  0.51100000000E-03 0.  1.
        -12    1    4    4    0    0 -0.17295387095E+02 -0.16777795990E+02 -0.27247512997E+01  0.24249724177E+02  0.00000000000E+00 0.  1.
</event>
<event>
 8    1  0.5331800E-011  0.9118800E+02  0.7816164E-02  0.1184000E+00
        -11   -1    0    0    0    0  0.00000000000E+00  0.00000000000E+00  0.45593999997E+02  0.45594000000E+02  0.51100000000E-03 0.  1.
         11   -1    0    0    0    0 -0.00000000000E+00 -0.00000000000E+00 -0.45593999997E+02  0.45594000000E+02  0.51100000000E-03 0. -1.
         23    2    1    2    0    0  0.00000000000E+00 -0.71054273576E-14  0.00000000000E+00  0.91188000000E+02  0.91188000000E+02 0.  0.
    9900012    2    3    3    0    0  0.17615602880E+02  0.34504473370E+02  0.19564125949E+02  0.47787272223E+02  0.20000005374E+02 0.  0.
        -12    1    3    3    0    0 -0.17615602880E+02 -0.34504473370E+02 -0.19564125949E+02  0.43400727777E+02  0.00000000000E+00 0.  1.
         11    1    4    4    0    0  0.81788313400E+01  0.19978721750E+01  0.68002261015E+00  0.84467275514E+01  0.51100000000E-03 0. -1.
        -11    1    4    4    0    0  0.11618099218E+01  0.13019468687E+02  0.48589061082E+01  0.13945082862E+02  0.51100000000E-03 0.  1.
         12    1    4    4    0    0  0.82749616186E+01  0.19487132508E+02  0.14025197231E+02  0.25395461810E+02  0.00000000000E+00 0. -1.
</event>
<event>
 8    1  0.5331800E-011  0.9118800E+02  0.7816164E-02  0.1184000E+00
        -11   -1    0    0    0    0  0.00000000000E+00  0.00000000000E+00  0.45593999997E+02  0.45594000000E+02  0.51100000000E-03 0. -1.
         11   -1    0    0    0    0 -0.00000000000E+00 -0.00000000000E+00 -0.45593999997E+02  0.45594000000E+02  0.51100000000E-03 0.  1.
         23    2    1    2    0    0 -0.35527136788E-14 -0.35527136788E-14 -0.35527136788E-14  0.91188000000E+02  0.91188000000E+02 0.  0.
    9900012    2    3    3    0    0 -0.23594930441E+02 -0.21359524495E+02 -0.29507212625E+02  0.47787243946E+02  0.19999876448E+02 0.  0.
         12    1    3    3    0    0  0.23594930441E+02  0.21359524495E+02  0.29507212625E+02  0.43400756054E+02  0.00000000000E+00 0. -1.
         11    1    4    4    0    0 -0.73171677369E-01 -0.38774288796E+01  0.18439544202E-01  0.38781631075E+01  0.51100000000E-03 0. -1.
        -11    1    4    4    0    0 -0.66349038818E+01  0.97803595406E+00 -0.27068907442E+01  0.72322722301E+01  0.51100000000E-03 0.  1.
        -12    1    4    4    0    0 -0.16886854882E+02 -0.18460131569E+02 -0.26818761425E+02  0.36676808609E+02  0.00000000000E+00 0.  1.
</event>
<event>
 8    1  0.5331800E-011  0.9118800E+02  0.7816164E-02  0.1184000E+00
        -11   -1    0    0    0    0  0.00000000000E+00  0.00000000000E+00  0.45593999997E+02  0.45594000000E+02  0.51100000000E-03 0. -1.
         11   -1    0    0    0    0 -0.00000000000E+00 -0.00000000000E+00 -0.45593999997E+02  0.45594000000E+02  0.51100000000E-03 0.  1.
         23    2    1    2    0    0  0.00000000000E+00  0.00000000000E+00  0.17763568394E-14  0.91188000000E+02  0.91188000000E+02 0.  0.
    9900012    2    3    3    0    0  0.36575439885E+02  0.18448925831E+02  0.14335204776E+02  0.47787265409E+02  0.19999974306E+02 0.  0.
        -12    1    3    3    0    0 -0.36575439885E+02 -0.18448925831E+02 -0.14335204776E+02  0.43400734591E+02  0.00000000000E+00 0.  1.
         11    1    4    4    0    0  0.61148062172E+01  0.97285934836E+01  0.73097375617E+01  0.13618687518E+02  0.51100000000E-03 0. -1.
        -11    1    4    4    0    0  0.14056157364E+02  0.36531580587E+01 -0.21822250013E+01  0.14686157764E+02  0.51100000000E-03 0.  1.
         12    1    4    4    0    0  0.16404476304E+02  0.50671742885E+01  0.92076922152E+01  0.19482420127E+02  0.00000000000E+00 0. -1.
</event>
<event>
 8    1  0.5625239E-011  0.9118800E+02  0.7816164E-02  0.1184000E+00
        -11   -1    0    0    0    0  0.00000000000E+00  0.00000000000E+00  0.45593999997E+02  0.45594000000E+02  0.51100000000E-03 0. -1.
         11   -1    0    0    0    0 -0.00000000000E+00 -0.00000000000E+00 -0.45593999997E+02  0.45594000000E+02  0.51100000000E-03 0.  1.
         23    2    1    2    0    0  0.00000000000E+00 -0.44408920985E-15  0.00000000000E+00  0.91188000000E+02  0.91188000000E+02 0.  0.
    9900012    2    3    3    0    0  0.32898210967E+02 -0.22765108519E+01  0.28216100000E+02  0.47787273212E+02  0.20000009884E+02 0.  0.
        -12    1    3    3    0    0 -0.32898210967E+02  0.22765108519E+01 -0.28216100000E+02  0.43400726788E+02  0.00000000000E+00 0.  1.
         11    1    4    4    0    0  0.17041316429E+02  0.31748327222E+00  0.21585203374E+02  0.27503241013E+02  0.51100000000E-03 0. -1.
        -11    1    4    4    0    0  0.14929619481E+01 -0.23452098449E+01 -0.20900403082E+01  0.34781048498E+01  0.51100000000E-03 0.  1.
        -12    1    4    4    0    0  0.14363932590E+02 -0.24878427920E+00  0.87209369345E+01  0.16805927350E+02  0.00000000000E+00 0.  1.
</event>
<event>
 8    1  0.5331800E-011  0.9118800E+02  0.7816164E-02  0.1184000E+00
        -11   -1    0    0    0    0  0.00000000000E+00  0.00000000000E+00  0.45593999997E+02  0.45594000000E+02  0.51100000000E-03 0. -1.
         11   -1    0    0    0    0 -0.00000000000E+00 -0.00000000000E+00 -0.45593999997E+02  0.45594000000E+02  0.51100000000E-03 0.  1.
         23    2    1    2    0    0  0.00000000000E+00  0.00000000000E+00 -0.16653345369E-15  0.91188000000E+02  0.91188000000E+02 0.  0.
    9900012    2    3    3    0    0  0.39642963799E+02  0.17664763748E+02  0.12185449602E+00  0.47787270679E+02  0.19999998335E+02 0.  0.
        -12    1    3    3    0    0 -0.39642963799E+02 -0.17664763748E+02 -0.12185449602E+00  0.43400729321E+02  0.00000000000E+00 0.  1.
         11    1    4    4    0    0  0.38053640934E+02  0.21013367162E+02 -0.19887318708E+01  0.43515471300E+02  0.51100000000E-03 0. -1.
        -11    1    4    4    0    0  0.47181617499E+00 -0.12425256826E+01  0.79535156900E+00  0.15488915244E+01  0.51100000000E-03 0.  1.
         12    1    4    4    0    0  0.11175066903E+01 -0.21060777307E+01  0.13152347979E+01  0.27229078545E+01  0.00000000000E+00 0. -1.
</event>
<event>
 8    1  0.5485025E-011  0.9118800E+02  0.7816164E-02  0.1184000E+00
        -11   -1    0    0    0    0  0.00000000000E+00  0.00000000000E+00  0.45593999997E+02  0.45594000000E+02  0.51100000000E-03 0. -1.
         11   -1    0    0    0    0 -0.00000000000E+00 -0.00000000000E+00 -0.45593999997E+02  0.45594000000E+02  0.51100000000E-03 0.  1.
         23    2    1    2    0    0  0.17763568394E-14  0.00000000000E+00 -0.14210854715E-13  0.91188000000E+02  0.91188000000E+02 0.  0.
    9900012    2    3    3    0    0 -0.13685951942E+02 -0.55748628217E+01  0.40807339744E+02  0.47787270133E+02  0.19999995843E+02 0.  0.
        -12    1    3    3    0    0  0.13685951942E+02  0.55748628217E+01 -0.40807339744E+02  0.43400729867E+02  0.00000000000E+00 0.  1.
         11    1    4    4    0    0 -0.14347540613E+02 -0.74081325822E+01  0.30322028303E+02  0.34353424148E+02  0.51100000000E-03 0. -1.
        -11    1    4    4    0    0 -0.66925945381E+00  0.45949086226E+01  0.87638995565E+01  0.99180153843E+01  0.51100000000E-03 0.  1.
        -12    1    4    4    0    0  0.13308481247E+01 -0.27616388622E+01  0.17214118842E+01  0.35158306005E+01  0.00000000000E+00 0.  1.
</event>
<event>
 8    1  0.5331800E-011  0.9118800E+02  0.7816164E-02  0.1184000E+00
        -11   -1    0    0    0    0  0.00000000000E+00  0.00000000000E+00  0.45593999997E+02  0.45594000000E+02  0.51100000000E-03 0. -1.
         11   -1    0    0    0    0 -0.00000000000E+00 -0.00000000000E+00 -0.45593999997E+02  0.45594000000E+02  0.51100000000E-03 0.  1.
         23    2    1    2    0    0  0.00000000000E+00  0.35527136788E-14  0.71054273576E-14  0.91188000000E+02  0.91188000000E+02 0.  0.
    9900012    2    3    3    0    0  0.11453036387E+02  0.26812241117E+02  0.32148970407E+02  0.47787255600E+02  0.19999929584E+02 0.  0.
        -12    1    3    3    0    0 -0.11453036387E+02 -0.26812241117E+02 -0.32148970407E+02  0.43400744400E+02  0.00000000000E+00 0.  1.
         11    1    4    4    0    0  0.32958705935E+01  0.21882620962E+02  0.28682637940E+02  0.36227138758E+02  0.51100000000E-03 0. -1.
        -11    1    4    4    0    0  0.84967366667E+01  0.48015198836E+01  0.42893994522E+01  0.10660585120E+02  0.51100000000E-03 0.  1.
         12    1    4    4    0    0 -0.33957087300E+00  0.12810027092E+00 -0.82306698511E+00  0.89953172217E+00  0.00000000000E+00 0. -1.
</event>
<event>
 8    1  0.5331800E-011  0.9118800E+02  0.7816164E-02  0.1184000E+00
        -11   -1    0    0    0    0  0.00000000000E+00  0.00000000000E+00  0.45593999997E+02  0.45594000000E+02  0.51100000000E-03 0. -1.
         11   -1    0    0    0    0 -0.00000000000E+00 -0.00000000000E+00 -0.45593999997E+02  0.45594000000E+02  0.51100000000E-03 0.  1.
         23    2    1    2    0    0  0.35527136788E-14  0.00000000000E+00  0.35527136788E-14  0.91188000000E+02  0.91188000000E+02 0.  0.
    9900012    2    3    3    0    0  0.29127759246E+02  0.25558737625E+02  0.19543483060E+02  0.47787272382E+02  0.20000006097E+02 0.  0.
        -12    1    3    3    0    0 -0.29127759246E+02 -0.25558737625E+02 -0.19543483060E+02  0.43400727618E+02  0.00000000000E+00 0.  1.
         11    1    4    4    0    0  0.16145250013E+02  0.16722893192E+02  0.19399522097E+02  0.30276487784E+02  0.51100000000E-03 0. -1.
        -11    1    4    4    0    0  0.46611870438E+01  0.48132216681E+01 -0.35197539187E+01  0.75685160628E+01  0.51100000000E-03 0.  1.
        -12    1    4    4    0    0  0.83213221888E+01  0.40226227651E+01  0.36637148819E+01  0.99422685347E+01  0.00000000000E+00 0.  1.
</event>
<event>
 8    1  0.5331800E-011  0.9118800E+02  0.7816164E-02  0.1184000E+00
        -11   -1    0    0    0    0  0.00000000000E+00  0.00000000000E+00  0.45593999997E+02  0.45594000000E+02  0.51100000000E-03 0. -1.
         11   -1    0    0    0    0 -0.00000000000E+00 -0.00000000000E+00 -0.45593999997E+02  0.45594000000E+02  0.51100000000E-03 0.  1.
         23    2    1    2    0    0  0.00000000000E+00  0.00000000000E+00 -0.71054273576E-14  0.91188000000E+02  0.91188000000E+02 0.  0.
    9900012    2    3    3    0    0  0.21274675365E+02  0.20573618063E+02  0.31744904157E+02  0.47787256780E+02  0.19999934963E+02 0.  0.
        -12    1    3    3    0    0 -0.21274675365E+02 -0.20573618063E+02 -0.31744904157E+02  0.43400743220E+02  0.00000000000E+00 0.  1.
         11    1    4    4    0    0  0.49309012294E+01  0.33761051252E+01  0.79365553183E+01  0.99348267892E+01  0.51100000000E-03 0. -1.
        -11    1    4    4    0    0  0.12141560160E+02  0.27904016132E+01  0.17710808878E+02  0.21653558037E+02  0.51100000000E-03 0.  1.
        -12    1    4    4    0    0  0.42022139758E+01  0.14407111324E+02  0.60975399612E+01  0.16198871954E+02  0.00000000000E+00 0.  1.
</event>
<event>
 8    1  0.5331800E-011  0.9118800E+02  0.7816164E-02  0.1184000E+00
        -11   -1    0    0    0    0  0.00000000000E+00  0.00000000000E+00  0.45593999997E+02  0.45594000000E+02  0.51100000000E-03 0.  1.
         11   -1    0    0    0    0 -0.00000000000E+00 -0.00000000000E+00 -0.45593999997E+02  0.45594000000E+02  0.51100000000E-03 0. -1.
         23    2    1    2    0    0  0.00000000000E+00  0.00000000000E+00  0.88817841970E-15  0.91188000000E+02  0.91188000000E+02 0.  0.
    9900012    2    3    3    0    0 -0.12871743598E+02 -0.41221910552E+02 -0.43237970528E+01  0.47787275193E+02  0.20000018913E+02 0.  0.
         12    1    3    3    0    0  0.12871743598E+02  0.41221910552E+02  0.43237970528E+01  0.43400724807E+02  0.00000000000E+00 0. -1.
         11    1    4    4    0    0  0.91864086458E-03  0.91906161230E-01  0.26989715703E+01  0.27005361291E+01  0.51100000000E-03 0. -1.
        -11    1    4    4    0    0 -0.14454877310E+02 -0.32404086042E+02 -0.58769915834E+01  0.35965362512E+02  0.51100000000E-03 0.  1.
        -12    1    4    4    0    0  0.15822150711E+01 -0.89097306720E+01 -0.11457770397E+01  0.91213765520E+01  0.00000000000E+00 0.  1.
</event>
<event>
 8    1  0.5494239E-011  0.9118800E+02  0.7816164E-02  0.1184000E+00
        -11   -1    0    0    0    0  0.00000000000E+00  0.00000000000E+00  0.45593999997E+02  0.45594000000E+02  0.51100000000E-03 0. -1.
         11   -1    0    0    0    0 -0.00000000000E+00 -0.00000000000E+00 -0.45593999997E+02  0.45594000000E+02  0.51100000000E-03 0.  1.
         23    2    1    2    0    0  0.11102230246E-15 -0.88817841970E-15  0.00000000000E+00  0.91188000000E+02  0.91188000000E+02 0.  0.
    9900012    2    3    3    0    0 -0.50740652599E+00  0.73613588601E+01  0.42768869778E+02  0.47787270884E+02  0.19999999270E+02 0.  0.
        -12    1    3    3    0    0  0.50740652599E+00 -0.73613588601E+01 -0.42768869778E+02  0.43400729116E+02  0.00000000000E+00 0.  1.
         11    1    4    4    0    0  0.11762128624E+01  0.31188387126E+01  0.36692072197E+02  0.36843164820E+02  0.51100000000E-03 0. -1.
        -11    1    4    4    0    0 -0.35252228054E+01  0.52557767198E+01  0.25183117416E+01  0.68111877852E+01  0.51100000000E-03 0.  1.
        -12    1    4    4    0    0  0.18416034171E+01 -0.10132565723E+01  0.35584858403E+01  0.41329182792E+01  0.00000000000E+00 0.  1.
</event>
<event>
 8    1  0.5331800E-011  0.9118800E+02  0.7816164E-02  0.1184000E+00
        -11   -1    0    0    0    0  0.00000000000E+00  0.00000000000E+00  0.45593999997E+02  0.45594000000E+02  0.51100000000E-03 0.  1.
         11   -1    0    0    0    0 -0.00000000000E+00 -0.00000000000E+00 -0.45593999997E+02  0.45594000000E+02  0.51100000000E-03 0. -1.
         23    2    1    2    0    0  0.00000000000E+00 -0.71054273576E-14  0.17763568394E-14  0.91188000000E+02  0.91188000000E+02 0.  0.
    9900012    2    3    3    0    0  0.54930319911E+01  0.41411169120E+02 -0.11771376803E+02  0.47787266824E+02  0.19999980759E+02 0.  0.
         12    1    3    3    0    0 -0.54930319911E+01 -0.41411169120E+02  0.11771376803E+02  0.43400733176E+02  0.00000000000E+00 0. -1.
         11    1    4    4    0    0 -0.56075763908E+00  0.28167477301E+01  0.43285973711E+01  0.51947350623E+01  0.51100000000E-03 0. -1.
        -11    1    4    4    0    0  0.54687972599E+01  0.29833883574E+02 -0.10141371383E+02  0.31981490996E+02  0.51100000000E-03 0.  1.
         12    1    4    4    0    0  0.58499237022E+00  0.87605378164E+01 -0.59586027915E+01  0.10611040766E+02  0.00000000000E+00 0. -1.
</event>
<event>
 8    1  0.5331800E-011  0.9118800E+02  0.7816164E-02  0.1184000E+00
        -11   -1    0    0    0    0  0.00000000000E+00  0.00000000000E+00  0.45593999997E+02  0.45594000000E+02  0.51100000000E-03 0. -1.
         11   -1    0    0    0    0 -0.00000000000E+00 -0.00000000000E+00 -0.45593999997E+02  0.45594000000E+02  0.51100000000E-03 0.  1.
         23    2    1    2    0    0  0.00000000000E+00  0.00000000000E+00  0.00000000000E+00  0.91188000000E+02  0.91188000000E+02 0.  0.
    9900012    2    3    3    0    0 -0.23276348433E+02  0.28040680408E+02 -0.23570187104E+02  0.47787287169E+02  0.20000073517E+02 0.  0.
         12    1    3    3    0    0  0.23276348433E+02 -0.28040680408E+02  0.23570187104E+02  0.43400712831E+02  0.00000000000E+00 0. -1.
         11    1    4    4    0    0 -0.10964305682E+01 -0.36777338821E+00 -0.28178189699E+01  0.30459023727E+01  0.51100000000E-03 0.  1.
        -11    1    4    4    0    0 -0.35046469099E+01 -0.16290320398E+01 -0.41437386102E+01  0.56662920222E+01  0.51100000000E-03 0. -1.
        -12    1    4    4    0    0 -0.18675270955E+02  0.30037485836E+02 -0.16608629524E+02  0.39075092774E+02  0.00000000000E+00 0.  1.
</event>
<event>
 8    1  0.5331800E-011  0.9118800E+02  0.7816164E-02  0.1184000E+00
        -11   -1    0    0    0    0  0.00000000000E+00  0.00000000000E+00  0.45593999997E+02  0.45594000000E+02  0.51100000000E-03 0. -1.
         11   -1    0    0    0    0 -0.00000000000E+00 -0.00000000000E+00 -0.45593999997E+02  0.45594000000E+02  0.51100000000E-03 0.  1.
         23    2    1    2    0    0 -0.17763568394E-14  0.00000000000E+00  0.00000000000E+00  0.91188000000E+02  0.91188000000E+02 0.  0.
    9900012    2    3    3    0    0  0.15862992519E+02 -0.35382694837E+02 -0.19494967226E+02  0.47787269905E+02  0.19999994807E+02 0.  0.
         12    1    3    3    0    0 -0.15862992519E+02  0.35382694837E+02  0.19494967226E+02  0.43400730095E+02  0.00000000000E+00 0. -1.
         11    1    4    4    0    0  0.89674106336E+01 -0.36132394669E+01  0.42528139818E-01  0.96680795311E+01  0.51100000000E-03 0. -1.
        -11    1    4    4    0    0  0.28695635508E+01 -0.16841679123E+02 -0.82235607115E+01  0.18960577568E+02  0.51100000000E-03 0.  1.
         12    1    4    4    0    0  0.40260183349E+01 -0.14927776247E+02 -0.11313934654E+02  0.19158612807E+02  0.00000000000E+00 0. -1.
</event>
<event>
 8    1  0.5331800E-011  0.9118800E+02  0.7816164E-02  0.1184000E+00
        -11   -1    0    0    0    0  0.00000000000E+00  0.00000000000E+00  0.45593999997E+02  0.45594000000E+02  0.51100000000E-03 0. -1.
         11   -1    0    0    0    0 -0.00000000000E+00 -0.00000000000E+00 -0.45593999997E+02  0.45594000000E+02  0.51100000000E-03 0.  1.
         23    2    1    2    0    0  0.88817841970E-15  0.00000000000E+00  0.00000000000E+00  0.91188000000E+02  0.91188000000E+02 0.  0.
    9900012    2    3    3    0    0 -0.77037598097E+01 -0.39057853211E+02  0.17284663687E+02  0.47787269459E+02  0.19999992773E+02 0.  0.
        -12    1    3    3    0    0  0.77037598097E+01  0.39057853211E+02 -0.17284663687E+02  0.43400730541E+02  0.00000000000E+00 0.  1.
         11    1    4    4    0    0 -0.63456273726E+01 -0.25770469508E+02  0.74474651515E+01  0.27565355482E+02  0.51100000000E-03 0. -1.
        -11    1    4    4    0    0  0.13910652886E+01  0.18076481452E+01  0.81287088287E+00  0.24214486959E+01  0.51100000000E-03 0.  1.
         12    1    4    4    0    0 -0.27491977257E+01 -0.15095031849E+02  0.90243276530E+01  0.17800465281E+02  0.00000000000E+00 0. -1.
</event>
<event>
 8    1  0.5331800E-011  0.9118800E+02  0.7816164E-02  0.1184000E+00
        -11   -1    0    0    0    0  0.00000000000E+00  0.00000000000E+00  0.45593999997E+02  0.45594000000E+02  0.51100000000E-03 0. -1.
         11   -1    0    0    0    0 -0.00000000000E+00 -0.00000000000E+00 -0.45593999997E+02  0.45594000000E+02  0.51100000000E-03 0.  1.
         23    2    1    2    0    0  0.00000000000E+00  0.17763568394E-14  0.00000000000E+00  0.91188000000E+02  0.91188000000E+02 0.  0.
    9900012    2    3    3    0    0  0.34015208087E+02 -0.93321726470E+01 -0.25288320410E+02  0.47787274469E+02  0.20000015612E+02 0.  0.
         12    1    3    3    0    0 -0.34015208087E+02  0.93321726470E+01  0.25288320410E+02  0.43400725531E+02  0.00000000000E+00 0. -1.
         11    1    4    4    0    0  0.24823005533E+02 -0.11264649462E+02 -0.10007829079E+02  0.29038432711E+02  0.51100000000E-03 0. -1.
        -11    1    4    4    0    0  0.71414079311E+01 -0.44642057757E+00 -0.13095158756E+02  0.14922539384E+02  0.51100000000E-03 0.  1.
        -12    1    4    4    0    0  0.20507946223E+01  0.23788973922E+01 -0.21853325758E+01  0.38263023733E+01  0.00000000000E+00 0.  1.
</event>
<event>
 8    1  0.5331800E-011  0.9118800E+02  0.7816164E-02  0.1184000E+00
        -11   -1    0    0    0    0  0.00000000000E+00  0.00000000000E+00  0.45593999997E+02  0.45594000000E+02  0.51100000000E-03 0.  1.
         11   -1    0    0    0    0 -0.00000000000E+00 -0.00000000000E+00 -0.45593999997E+02  0.45594000000E+02  0.51100000000E-03 0. -1.
         23    2    1    2    0    0 -0.35527136788E-14  0.17763568394E-14  0.71054273576E-14  0.91188000000E+02  0.91188000000E+02 0.  0.
    9900012    2    3    3    0    0 -0.16171125784E+02 -0.15953653891E+02 -0.36981040244E+02  0.47787288955E+02  0.20000081663E+02 0.  0.
         12    1    3    3    0    0  0.16171125784E+02  0.15953653891E+02  0.36981040244E+02  0.43400711045E+02  0.00000000000E+00 0. -1.
         11    1    4    4    0    0  0.41854142644E+01 -0.64309527936E+00 -0.25317008476E+01  0.49336369492E+01  0.51100000000E-03 0. -1.
        -11    1    4    4    0    0 -0.10313019125E+02 -0.71804202933E+01 -0.16843491014E+02  0.21014756455E+02  0.51100000000E-03 0.  1.
         12    1    4    4    0    0 -0.10043520924E+02 -0.81301383185E+01 -0.17605848383E+02  0.21838895552E+02  0.00000000000E+00 0. -1.
</event>
<event>
 8    1  0.5331800E-011  0.9118800E+02  0.7816164E-02  0.1184000E+00
        -11   -1    0    0    0    0  0.00000000000E+00  0.00000000000E+00  0.45593999997E+02  0.45594000000E+02  0.51100000000E-03 0. -1.
         11   -1    0    0    0    0 -0.00000000000E+00 -0.00000000000E+00 -0.45593999997E+02  0.45594000000E+02  0.51100000000E-03 0.  1.
         23    2    1    2    0    0  0.17763568394E-14 -0.35527136788E-14 -0.35527136788E-14  0.91188000000E+02  0.91188000000E+02 0.  0.
    9900012    2    3    3    0    0 -0.87131323272E+01  0.28811409027E+02  0.31266710577E+02  0.47787272410E+02  0.20000006224E+02 0.  0.
        -12    1    3    3    0    0  0.87131323272E+01 -0.28811409027E+02 -0.31266710577E+02  0.43400727590E+02  0.00000000000E+00 0.  1.
         11    1    4    4    0    0  0.86329957345E-01  0.17396092941E+02  0.27716443935E+02  0.32723581209E+02  0.51100000000E-03 0. -1.
        -11    1    4    4    0    0 -0.51436100995E+00 -0.20607137738E-01  0.18023716346E+00  0.54541507029E+00  0.51100000000E-03 0.  1.
         12    1    4    4    0    0 -0.82851012746E+01  0.11435923223E+02  0.33700294782E+01  0.14518276130E+02  0.00000000000E+00 0. -1.
</event>
<event>
 8    1  0.5331800E-011  0.9118800E+02  0.7816164E-02  0.1184000E+00
        -11   -1    0    0    0    0  0.00000000000E+00  0.00000000000E+00  0.45593999997E+02  0.45594000000E+02  0.51100000000E-03 0. -1.
         11   -1    0    0    0    0 -0.00000000000E+00 -0.00000000000E+00 -0.45593999997E+02  0.45594000000E+02  0.51100000000E-03 0.  1.
         23    2    1    2    0    0  0.35527136788E-14  0.00000000000E+00 -0.44408920985E-15  0.91188000000E+02  0.91188000000E+02 0.  0.
    9900012    2    3    3    0    0 -0.29718335577E+02  0.31622498800E+02 -0.67939995348E+00  0.47787268622E+02  0.19999988954E+02 0.  0.
         12    1    3    3    0    0  0.29718335577E+02 -0.31622498800E+02  0.67939995348E+00  0.43400731378E+02  0.00000000000E+00 0. -1.
         11    1    4    4    0    0 -0.99338711287E+01  0.10229681682E+01  0.15888462469E+01  0.10112007325E+02  0.51100000000E-03 0.  1.
        -11    1    4    4    0    0 -0.16520684452E+02  0.23193778768E+02 -0.54252860696E+01  0.28988241021E+02  0.51100000000E-03 0. -1.
        -12    1    4    4    0    0 -0.32637799962E+01  0.74057518646E+01  0.31570398692E+01  0.86870202762E+01  0.00000000000E+00 0.  1.
</event>
<event>
 8    1  0.5331800E-011  0.9118800E+02  0.7816164E-02  0.1184000E+00
        -11   -1    0    0    0    0  0.00000000000E+00  0.00000000000E+00  0.45593999997E+02  0.45594000000E+02  0.51100000000E-03 0. -1.
         11   -1    0    0    0    0 -0.00000000000E+00 -0.00000000000E+00 -0.45593999997E+02  0.45594000000E+02  0.51100000000E-03 0.  1.
         23    2    1    2    0    0  0.17763568394E-14  0.17763568394E-14  0.00000000000E+00  0.91188000000E+02  0.91188000000E+02 0.  0.
    9900012    2    3    3    0    0 -0.93256270493E+01  0.15930664292E+02 -0.39279387427E+02  0.47787266581E+02  0.19999979651E+02 0.  0.
         12    1    3    3    0    0  0.93256270493E+01 -0.15930664292E+02  0.39279387427E+02  0.43400733419E+02  0.00000000000E+00 0. -1.
         11    1    4    4    0    0 -0.11779407451E+02  0.70869743765E+01 -0.18098821906E+02  0.22727670368E+02  0.51100000000E-03 0. -1.
        -11    1    4    4    0    0 -0.31408107605E+01  0.28770487113E+01 -0.32701229391E+01  0.53698981199E+01  0.51100000000E-03 0.  1.
         12    1    4    4    0    0  0.55945911622E+01  0.59666412043E+01 -0.17910442582E+02  0.19689698094E+02  0.00000000000E+00 0. -1.
</event>
<event>
 8    1  0.5331800E-011  0.9118800E+02  0.7816164E-02  0.1184000E+00
        -11   -1    0    0    0    0  0.00000000000E+00  0.00000000000E+00  0.45593999997E+02  0.45594000000E+02  0.51100000000E-03 0. -1.
         11   -1    0    0    0    0 -0.00000000000E+00 -0.00000000000E+00 -0.45593999997E+02  0.45594000000E+02  0.51100000000E-03 0.  1.
         23    2    1    2    0    0  0.00000000000E+00  0.00000000000E+00  0.00000000000E+00  0.91188000000E+02  0.91188000000E+02 0.  0.
    9900012    2    3    3    0    0  0.30922834040E+02  0.29856067588E+02  0.60013986091E+01  0.47787271640E+02  0.20000002717E+02 0.  0.
        -12    1    3    3    0    0 -0.30922834040E+02 -0.29856067588E+02 -0.60013986091E+01  0.43400728360E+02  0.00000000000E+00 0.  1.
         11    1    4    4    0    0  0.15048162199E+02  0.15364055003E+02  0.57536773388E+01  0.22262214061E+02  0.51100000000E-03 0. -1.
        -11    1    4    4    0    0  0.40635425099E+01  0.93382587890E+01 -0.53167715926E+01  0.11488407869E+02  0.51100000000E-03 0.  1.
        -12    1    4    4    0    0  0.11811129331E+02  0.51537537951E+01  0.55644928629E+01  0.14036649710E+02  0.00000000000E+00 0.  1.
</event>
<event>
 8    1  0.5331800E-011  0.9118800E+02  0.7816164E-02  0.1184000E+00
        -11   -1    0    0    0    0  0.00000000000E+00  0.00000000000E+00  0.45593999997E+02  0.45594000000E+02  0.51100000000E-03 0. -1.
         11   -1    0    0    0    0 -0.00000000000E+00 -0.00000000000E+00 -0.45593999997E+02  0.45594000000E+02  0.51100000000E-03 0.  1.
         23    2    1    2    0    0 -0.88817841970E-15  0.00000000000E+00 -0.35527136788E-14  0.91188000000E+02  0.91188000000E+02 0.  0.
    9900012    2    3    3    0    0 -0.73662094143E+01  0.35194311595E+02 -0.24304788333E+02  0.47787270217E+02  0.19999996227E+02 0.  0.
         12    1    3    3    0    0  0.73662094143E+01 -0.35194311595E+02  0.24304788333E+02  0.43400729783E+02  0.00000000000E+00 0. -1.
         11    1    4    4    0    0 -0.75899297085E+01  0.20438143383E+02 -0.21169960603E+02  0.30389010680E+02  0.51100000000E-03 0.  1.
        -11    1    4    4    0    0  0.27459212775E+01  0.11729081186E+02 -0.49953961869E+01  0.13040913022E+02  0.51100000000E-03 0. -1.
         12    1    4    4    0    0 -0.25222009833E+01  0.30270870259E+01  0.18605684572E+01  0.43573465144E+01  0.00000000000E+00 0. -1.
</event>
<event>
 8    1  0.5331800E-011  0.9118800E+02  0.7816164E-02  0.1184000E+00
        -11   -1    0    0    0    0  0.00000000000E+00  0.00000000000E+00  0.45593999997E+02  0.45594000000E+02  0.51100000000E-03 0. -1.
         11   -1    0    0    0    0 -0.00000000000E+00 -0.00000000000E+00 -0.45593999997E+02  0.45594000000E+02  0.51100000000E-03 0.  1.
         23    2    1    2    0    0  0.17763568394E-14  0.44408920985E-15  0.00000000000E+00  0.91188000000E+02  0.91188000000E+02 0.  0.
    9900012    2    3    3    0    0  0.10816452735E+02  0.24718064855E+01 -0.41958521626E+02  0.47787274037E+02  0.20000013643E+02 0.  0.
         12    1    3    3    0    0 -0.10816452735E+02 -0.24718064855E+01  0.41958521626E+02  0.43400725963E+02  0.00000000000E+00 0. -1.
         11    1    4    4    0    0  0.91138667495E+01 -0.14097539326E+01 -0.12122031953E+02  0.15231337177E+02  0.51100000000E-03 0. -1.
        -11    1    4    4    0    0 -0.46029672485E+01 -0.13514694027E+01 -0.98966669704E+01  0.10998081397E+02  0.51100000000E-03 0.  1.
        -12    1    4    4    0    0  0.63055532338E+01  0.52330298208E+01 -0.19939822703E+02  0.21557855462E+02  0.00000000000E+00 0.  1.
</event>
<event>
 8    1  0.5331800E-011  0.9118800E+02  0.7816164E-02  0.1184000E+00
        -11   -1    0    0    0    0  0.00000000000E+00  0.00000000000E+00  0.45593999997E+02  0.45594000000E+02  0.51100000000E-03 0. -1.
         11   -1    0    0    0    0 -0.00000000000E+00 -0.00000000000E+00 -0.45593999997E+02  0.45594000000E+02  0.51100000000E-03 0.  1.
         23    2    1    2    0    0 -0.17763568394E-14  0.49960036108E-15 -0.71054273576E-14  0.91188000000E+02  0.91188000000E+02 0.  0.
    9900012    2    3    3    0    0 -0.12181967233E+02 -0.19861083292E+00  0.41655512046E+02  0.47787291990E+02  0.20000095501E+02 0.  0.
        -12    1    3    3    0    0  0.12181967233E+02  0.19861083292E+00 -0.41655512046E+02  0.43400708010E+02  0.00000000000E+00 0.  1.
         11    1    4    4    0    0 -0.11002628077E+02 -0.79413457453E+01  0.34319862200E+02  0.36904955474E+02  0.51100000000E-03 0. -1.
        -11    1    4    4    0    0  0.29202204071E+00  0.39491230724E+01  0.33552042785E+01  0.51902067324E+01  0.51100000000E-03 0.  1.
         12    1    4    4    0    0 -0.14713611971E+01  0.37936118400E+01  0.39804455677E+01  0.56921297844E+01  0.00000000000E+00 0. -1.
</event>
<event>
 8    1  0.6874233E-011  0.9118800E+02  0.7816164E-02  0.1184000E+00
        -11   -1    0    0    0    0  0.00000000000E+00  0.00000000000E+00  0.45593999997E+02  0.45594000000E+02  0.51100000000E-03 0. -1.
         11   -1    0    0    0    0 -0.00000000000E+00 -0.00000000000E+00 -0.45593999997E+02  0.45594000000E+02  0.51100000000E-03 0.  1.
         23    2    1    2    0    0  0.88817841970E-15 -0.44408920985E-15 -0.71054273576E-14  0.91188000000E+02  0.91188000000E+02 0.  0.
    9900012    2    3    3    0    0  0.66074670427E+01 -0.27965279341E+01 -0.42803550036E+02  0.47787273222E+02  0.20000009927E+02 0.  0.
         12    1    3    3    0    0 -0.66074670427E+01  0.27965279341E+01  0.42803550036E+02  0.43400726778E+02  0.00000000000E+00 0. -1.
         11    1    4    4    0    0  0.40945688715E+01  0.76120294732E+00 -0.10535751268E+01  0.42959219010E+01  0.51100000000E-03 0. -1.
        -11    1    4    4    0    0  0.24727772934E+01  0.12354266187E+01 -0.35536532576E+02  0.35643878216E+02  0.51100000000E-03 0.  1.
        -12    1    4    4    0    0  0.40120877693E-01 -0.47931575002E+01 -0.62134423332E+01  0.78474731050E+01  0.00000000000E+00 0.  1.
</event>
<event>
 8    1  0.5331800E-011  0.9118800E+02  0.7816164E-02  0.1184000E+00
        -11   -1    0    0    0    0  0.00000000000E+00  0.00000000000E+00  0.45593999997E+02  0.45594000000E+02  0.51100000000E-03 0. -1.
         11   -1    0    0    0    0 -0.00000000000E+00 -0.00000000000E+00 -0.45593999997E+02  0.45594000000E+02  0.51100000000E-03 0.  1.
         23    2    1    2    0    0 -0.17763568394E-14 -0.71054273576E-14  0.00000000000E+00  0.91188000000E+02  0.91188000000E+02 0.  0.
    9900012    2    3    3    0    0  0.13994112744E+02  0.40834148857E+02  0.45122500823E+01  0.47787270684E+02  0.19999998355E+02 0.  0.
        -12    1    3    3    0    0 -0.13994112744E+02 -0.40834148857E+02 -0.45122500823E+01  0.43400729316E+02  0.00000000000E+00 0.  1.
         11    1    4    4    0    0  0.12612823439E+01  0.11510582299E+02  0.58239413096E+01  0.12961582876E+02  0.51100000000E-03 0. -1.
        -11    1    4    4    0    0  0.11624652657E+01  0.53460216228E+01 -0.56347411417E+01  0.78537621992E+01  0.51100000000E-03 0.  1.
        -12    1    4    4    0    0  0.11570365134E+02  0.23977544935E+02  0.43230499144E+01  0.26971925608E+02  0.00000000000E+00 0.  1.
</event>
<event>
 8    1  0.5331800E-011  0.9118800E+02  0.7816164E-02  0.1184000E+00
        -11   -1    0    0    0    0  0.00000000000E+00  0.00000000000E+00  0.45593999997E+02  0.45594000000E+02  0.51100000000E-03 0. -1.
         11   -1    0    0    0    0 -0.00000000000E+00 -0.00000000000E+00 -0.45593999997E+02  0.45594000000E+02  0.51100000000E-03 0.  1.
         23    2    1    2    0    0  0.00000000000E+00  0.00000000000E+00 -0.71054273576E-14  0.91188000000E+02  0.91188000000E+02 0.  0.
    9900012    2    3    3    0    0  0.49770023833E+01 -0.27987938958E+02  0.32795246702E+02  0.47787268600E+02  0.19999988853E+02 0.  0.
        -12    1    3    3    0    0 -0.49770023833E+01  0.27987938958E+02 -0.32795246702E+02  0.43400731400E+02  0.00000000000E+00 0.  1.
         11    1    4    4    0    0  0.57360021738E+00  0.21942857235E+01  0.88483368464E+00  0.24345097980E+01  0.51100000000E-03 0. -1.
        -11    1    4    4    0    0  0.47772752496E+01 -0.29528752098E+02  0.26722852235E+02  0.40110851289E+02  0.51100000000E-03 0.  1.
        -12    1    4    4    0    0 -0.37387308371E+00 -0.65347258311E+00  0.51875607829E+01  0.52419075131E+01  0.00000000000E+00 0.  1.
</event>
<event>
 8    1  0.5331800E-011  0.9118800E+02  0.7816164E-02  0.1184000E+00
        -11   -1    0    0    0    0  0.00000000000E+00  0.00000000000E+00  0.45593999997E+02  0.45594000000E+02  0.51100000000E-03 0. -1.
         11   -1    0    0    0    0 -0.00000000000E+00 -0.00000000000E+00 -0.45593999997E+02  0.45594000000E+02  0.51100000000E-03 0.  1.
         23    2    1    2    0    0  0.00000000000E+00  0.00000000000E+00  0.71054273576E-14  0.91188000000E+02  0.91188000000E+02 0.  0.
    9900012    2    3    3    0    0 -0.22241411927E+02 -0.17091758001E+02 -0.33118195403E+02  0.47787268868E+02  0.19999990075E+02 0.  0.
         12    1    3    3    0    0  0.22241411927E+02  0.17091758001E+02  0.33118195403E+02  0.43400731132E+02  0.00000000000E+00 0. -1.
         11    1    4    4    0    0 -0.74855311636E+01  0.20788762385E+01 -0.25576247243E+01  0.81790187496E+01  0.51100000000E-03 0. -1.
        -11    1    4    4    0    0 -0.57028678589E+01 -0.12195095274E+02 -0.19561740683E+02  0.23746678701E+02  0.51100000000E-03 0.  1.
        -12    1    4    4    0    0 -0.90530129048E+01 -0.69755389657E+01 -0.10998829996E+02  0.15861571416E+02  0.00000000000E+00 0.  1.
</event>
<event>
 8    1  0.5331800E-011  0.9118800E+02  0.7816164E-02  0.1184000E+00
        -11   -1    0    0    0    0  0.00000000000E+00  0.00000000000E+00  0.45593999997E+02  0.45594000000E+02  0.51100000000E-03 0. -1.
         11   -1    0    0    0    0 -0.00000000000E+00 -0.00000000000E+00 -0.45593999997E+02  0.45594000000E+02  0.51100000000E-03 0.  1.
         23    2    1    2    0    0  0.00000000000E+00 -0.71054273576E-14  0.00000000000E+00  0.91188000000E+02  0.91188000000E+02 0.  0.
    9900012    2    3    3    0    0  0.90333458278E+01  0.35545666271E+02  0.23206206245E+02  0.47787265723E+02  0.19999975737E+02 0.  0.
        -12    1    3    3    0    0 -0.90333458278E+01 -0.35545666271E+02 -0.23206206245E+02  0.43400734277E+02  0.00000000000E+00 0.  1.
         11    1    4    4    0    0  0.91516261958E+01  0.17995746961E+02  0.11282680815E+02  0.23127863225E+02  0.51100000000E-03 0. -1.
        -11    1    4    4    0    0 -0.41331510242E+01  0.13560625127E+01  0.49137276172E+01  0.65625118883E+01  0.51100000000E-03 0.  1.
        -12    1    4    4    0    0  0.40148706562E+01  0.16193856797E+02  0.70097978127E+01  0.18096890609E+02  0.00000000000E+00 0.  1.
</event>
<event>
 8    1  0.5331800E-011  0.9118800E+02  0.7816164E-02  0.1184000E+00
        -11   -1    0    0    0    0  0.00000000000E+00  0.00000000000E+00  0.45593999997E+02  0.45594000000E+02  0.51100000000E-03 0.  1.
         11   -1    0    0    0    0 -0.00000000000E+00 -0.00000000000E+00 -0.45593999997E+02  0.45594000000E+02  0.51100000000E-03 0. -1.
         23    2    1    2    0    0  0.00000000000E+00  0.00000000000E+00  0.17763568394E-14  0.91188000000E+02  0.91188000000E+02 0.  0.
    9900012    2    3    3    0    0  0.61598412010E+01 -0.42321839435E+02  0.73852172167E+01  0.47787272240E+02  0.20000005450E+02 0.  0.
         12    1    3    3    0    0 -0.61598412010E+01  0.42321839435E+02 -0.73852172167E+01  0.43400727760E+02  0.00000000000E+00 0. -1.
         11    1    4    4    0    0  0.28598762638E+01 -0.18226187348E+02 -0.55581918750E+01  0.19268271709E+02  0.51100000000E-03 0. -1.
        -11    1    4    4    0    0  0.20871687255E+01 -0.57745127441E+01  0.15305368024E+00  0.61420433416E+01  0.51100000000E-03 0.  1.
         12    1    4    4    0    0  0.12127962118E+01 -0.18321139343E+02  0.12790355412E+02  0.22376957189E+02  0.00000000000E+00 0. -1.
</event>
<event>
 8    1  0.5331800E-011  0.9118800E+02  0.7816164E-02  0.1184000E+00
        -11   -1    0    0    0    0  0.00000000000E+00  0.00000000000E+00  0.45593999997E+02  0.45594000000E+02  0.51100000000E-03 0. -1.
         11   -1    0    0    0    0 -0.00000000000E+00 -0.00000000000E+00 -0.45593999997E+02  0.45594000000E+02  0.51100000000E-03 0.  1.
         23    2    1    2    0    0  0.00000000000E+00  0.00000000000E+00  0.00000000000E+00  0.91188000000E+02  0.91188000000E+02 0.  0.
    9900012    2    3    3    0    0  0.29742247855E+02 -0.31586423026E+02 -0.11489636321E+01  0.47787267927E+02  0.19999985787E+02 0.  0.
         12    1    3    3    0    0 -0.29742247855E+02  0.31586423026E+02  0.11489636321E+01  0.43400732073E+02  0.00000000000E+00 0. -1.
         11    1    4    4    0    0  0.27210318631E+02 -0.20756118149E+02 -0.13382852861E+01  0.34249217340E+02  0.51100000000E-03 0. -1.
        -11    1    4    4    0    0 -0.50586169068E+00 -0.75278873196E+01  0.31351977695E+01  0.81703395805E+01  0.51100000000E-03 0.  1.
         12    1    4    4    0    0  0.30377909143E+01 -0.33024175577E+01 -0.29458761155E+01  0.53677110068E+01  0.00000000000E+00 0. -1.
</event>
<event>
 8    1  0.5331800E-011  0.9118800E+02  0.7816164E-02  0.1184000E+00
        -11   -1    0    0    0    0  0.00000000000E+00  0.00000000000E+00  0.45593999997E+02  0.45594000000E+02  0.51100000000E-03 0. -1.
         11   -1    0    0    0    0 -0.00000000000E+00 -0.00000000000E+00 -0.45593999997E+02  0.45594000000E+02  0.51100000000E-03 0.  1.
         23    2    1    2    0    0 -0.88817841970E-15  0.88817841970E-15  0.00000000000E+00  0.91188000000E+02  0.91188000000E+02 0.  0.
    9900012    2    3    3    0    0 -0.50308922592E+01  0.49306550197E+01  0.42825214152E+02  0.47787306422E+02  0.20000161300E+02 0.  0.
        -12    1    3    3    0    0  0.50308922592E+01 -0.49306550197E+01 -0.42825214152E+02  0.43400693578E+02  0.00000000000E+00 0.  1.
         11    1    4    4    0    0 -0.10867498395E+02  0.34276731852E+00  0.17269093399E+02  0.20406900742E+02  0.51100000000E-03 0. -1.
        -11    1    4    4    0    0  0.56563793246E+01  0.52280916590E+01  0.15558795018E+02  0.17360981312E+02  0.51100000000E-03 0.  1.
         12    1    4    4    0    0  0.18022681078E+00 -0.64020395784E+00  0.99973257351E+01  0.10019424368E+02  0.00000000000E+00 0. -1.
</event>
<event>
 8    1  0.5331800E-011  0.9118800E+02  0.7816164E-02  0.1184000E+00
        -11   -1    0    0    0    0  0.00000000000E+00  0.00000000000E+00  0.45593999997E+02  0.45594000000E+02  0.51100000000E-03 0. -1.
         11   -1    0    0    0    0 -0.00000000000E+00 -0.00000000000E+00 -0.45593999997E+02  0.45594000000E+02  0.51100000000E-03 0.  1.
         23    2    1    2    0    0  0.00000000000E+00  0.17763568394E-14 -0.71054273576E-14  0.91188000000E+02  0.91188000000E+02 0.  0.
    9900012    2    3    3    0    0  0.21589569413E+02  0.14673177946E+02 -0.34672919075E+02  0.47787274480E+02  0.20000015662E+02 0.  0.
         12    1    3    3    0    0 -0.21589569413E+02 -0.14673177946E+02  0.34672919075E+02  0.43400725520E+02  0.00000000000E+00 0. -1.
         11    1    4    4    0    0  0.86067574570E+00  0.32281929049E+01 -0.26900935558E+00  0.33517694528E+01  0.51100000000E-03 0. -1.
        -11    1    4    4    0    0  0.22132707304E+02  0.89119092683E+01 -0.24840169104E+02  0.34442892747E+02  0.51100000000E-03 0.  1.
        -12    1    4    4    0    0 -0.14038136369E+01  0.25330757731E+01 -0.95637406162E+01  0.99926122798E+01  0.00000000000E+00 0.  1.
</event>
<event>
 8    1  0.5331800E-011  0.9118800E+02  0.7816164E-02  0.1184000E+00
        -11   -1    0    0    0    0  0.00000000000E+00  0.00000000000E+00  0.45593999997E+02  0.45594000000E+02  0.51100000000E-03 0. -1.
         11   -1    0    0    0    0 -0.00000000000E+00 -0.00000000000E+00 -0.45593999997E+02  0.45594000000E+02  0.51100000000E-03 0.  1.
         23    2    1    2    0    0  0.00000000000E+00 -0.88817841970E-15 -0.35527136788E-14  0.91188000000E+02  0.91188000000E+02 0.  0.
    9900012    2    3    3    0    0 -0.37953328315E+02 -0.13960572636E+01 -0.21005212071E+02  0.47787273736E+02  0.20000012273E+02 0.  0.
         12    1    3    3    0    0  0.37953328315E+02  0.13960572636E+01  0.21005212071E+02  0.43400726264E+02  0.00000000000E+00 0. -1.
         11    1    4    4    0    0 -0.29679219092E+01  0.54966782279E+01 -0.20173581542E+01  0.65644319011E+01  0.51100000000E-03 0. -1.
        -11    1    4    4    0    0 -0.25368116500E+02 -0.86214386747E+01 -0.14580179651E+02  0.30503314222E+02  0.51100000000E-03 0.  1.
        -12    1    4    4    0    0 -0.96172899056E+01  0.17287031832E+01 -0.44076742658E+01  0.10719527613E+02  0.00000000000E+00 0.  1.
</event>
<event>
 8    1  0.5331800E-011  0.9118800E+02  0.7816164E-02  0.1184000E+00
        -11   -1    0    0    0    0  0.00000000000E+00  0.00000000000E+00  0.45593999997E+02  0.45594000000E+02  0.51100000000E-03 0. -1.
         11   -1    0    0    0    0 -0.00000000000E+00 -0.00000000000E+00 -0.45593999997E+02  0.45594000000E+02  0.51100000000E-03 0.  1.
         23    2    1    2    0    0  0.35527136788E-14  0.00000000000E+00  0.00000000000E+00  0.91188000000E+02  0.91188000000E+02 0.  0.
    9900012    2    3    3    0    0 -0.28068053319E+02 -0.18013060942E+02 -0.27772959541E+02  0.47787271166E+02  0.20000000556E+02 0.  0.
         12    1    3    3    0    0  0.28068053319E+02  0.18013060942E+02  0.27772959541E+02  0.43400728834E+02  0.00000000000E+00 0. -1.
         11    1    4    4    0    0 -0.39027673463E+01  0.34969119717E+01 -0.54677107059E+01  0.75733643067E+01  0.51100000000E-03 0. -1.
        -11    1    4    4    0    0 -0.16022638881E+02 -0.96121390690E+01 -0.96468531405E+01  0.21028075280E+02  0.51100000000E-03 0.  1.
         12    1    4    4    0    0 -0.81426470916E+01 -0.11897833844E+02 -0.12658395695E+02  0.19185831580E+02  0.00000000000E+00 0. -1.
</event>
<event>
 8    1  0.5331800E-011  0.9118800E+02  0.7816164E-02  0.1184000E+00
        -11   -1    0    0    0    0  0.00000000000E+00  0.00000000000E+00  0.45593999997E+02  0.45594000000E+02  0.51100000000E-03 0. -1.
         11   -1    0    0    0    0 -0.00000000000E+00 -0.00000000000E+00 -0.45593999997E+02  0.45594000000E+02  0.51100000000E-03 0.  1.
         23    2    1    2    0    0  0.00000000000E+00  0.00000000000E+00  0.00000000000E+00  0.91188000000E+02  0.91188000000E+02 0.  0.
    9900012    2    3    3    0    0 -0.83085033359E+01  0.16414683711E+02  0.39308391181E+02  0.47787277814E+02  0.20000030864E+02 0.  0.
        -12    1    3    3    0    0  0.83085033359E+01 -0.16414683711E+02 -0.39308391181E+02  0.43400722186E+02  0.00000000000E+00 0.  1.
         11    1    4    4    0    0 -0.48593294242E+01  0.63888262683E+01  0.73631046242E+01  0.10892451217E+02  0.51100000000E-03 0. -1.
        -11    1    4    4    0    0 -0.73340664317E+01  0.47336435139E+01  0.27781809536E+02  0.29120866277E+02  0.51100000000E-03 0.  1.
        -12    1    4    4    0    0  0.38848925199E+01  0.52922139287E+01  0.41634770210E+01  0.77739603204E+01  0.00000000000E+00 0.  1.
</event>
<event>
 8    1  0.5331800E-011  0.9118800E+02  0.7816164E-02  0.1184000E+00
        -11   -1    0    0    0    0  0.00000000000E+00  0.00000000000E+00  0.45593999997E+02  0.45594000000E+02  0.51100000000E-03 0. -1.
         11   -1    0    0    0    0 -0.00000000000E+00 -0.00000000000E+00 -0.45593999997E+02  0.45594000000E+02  0.51100000000E-03 0.  1.
         23    2    1    2    0    0  0.00000000000E+00  0.00000000000E+00  0.00000000000E+00  0.91188000000E+02  0.91188000000E+02 0.  0.
    9900012    2    3    3    0    0 -0.31066385704E+02  0.67860176485E+01 -0.29537317635E+02  0.47787268563E+02  0.19999988684E+02 0.  0.
         12    1    3    3    0    0  0.31066385704E+02 -0.67860176485E+01  0.29537317635E+02  0.43400731437E+02  0.00000000000E+00 0. -1.
         11    1    4    4    0    0 -0.12735077986E+02 -0.31101319637E+01 -0.12542668696E+02  0.18143143895E+02  0.51100000000E-03 0. -1.
        -11    1    4    4    0    0 -0.13018385310E+02  0.11027305520E+02 -0.17175596449E+02  0.24209108549E+02  0.51100000000E-03 0.  1.
         12    1    4    4    0    0 -0.53129224083E+01 -0.11311559076E+01  0.18094750932E+00  0.54350161182E+01  0.00000000000E+00 0. -1.
</event>
<event>
 8    1  0.5331800E-011  0.9118800E+02  0.7816164E-02  0.1184000E+00
        -11   -1    0    0    0    0  0.00000000000E+00  0.00000000000E+00  0.45593999997E+02  0.45594000000E+02  0.51100000000E-03 0. -1.
         11   -1    0    0    0    0 -0.00000000000E+00 -0.00000000000E+00 -0.45593999997E+02  0.45594000000E+02  0.51100000000E-03 0.  1.
         23    2    1    2    0    0  0.00000000000E+00  0.00000000000E+00  0.00000000000E+00  0.91188000000E+02  0.91188000000E+02 0.  0.
    9900012    2    3    3    0    0  0.26517535750E+02  0.24514895102E+02 -0.24072046276E+02  0.47787271941E+02  0.20000004088E+02 0.  0.
         12    1    3    3    0    0 -0.26517535750E+02 -0.24514895102E+02  0.24072046276E+02  0.43400728059E+02  0.00000000000E+00 0. -1.
         11    1    4    4    0    0  0.49407101802E+01  0.15554107908E+02 -0.79171967692E+01  0.18138988253E+02  0.51100000000E-03 0. -1.
        -11    1    4    4    0    0  0.14454327696E+02  0.75374149618E+01 -0.15260909032E+02  0.22330149086E+02  0.51100000000E-03 0.  1.
         12    1    4    4    0    0  0.71224978744E+01  0.14233722321E+01 -0.89394047480E+00  0.73181346021E+01  0.00000000000E+00 0. -1.
</event>
<event>
 8    1  0.5331800E-011  0.9118800E+02  0.7816164E-02  0.1184000E+00
        -11   -1    0    0    0    0  0.00000000000E+00  0.00000000000E+00  0.45593999997E+02  0.45594000000E+02  0.51100000000E-03 0. -1.
         11   -1    0    0    0    0 -0.00000000000E+00 -0.00000000000E+00 -0.45593999997E+02  0.45594000000E+02  0.51100000000E-03 0.  1.
         23    2    1    2    0    0 -0.71054273576E-14  0.00000000000E+00  0.00000000000E+00  0.91188000000E+02  0.91188000000E+02 0.  0.
    9900012    2    3    3    0    0  0.36236010741E+02  0.13057811054E+02  0.20001705519E+02  0.47787272730E+02  0.20000007684E+02 0.  0.
        -12    1    3    3    0    0 -0.36236010741E+02 -0.13057811054E+02 -0.20001705519E+02  0.43400727270E+02  0.00000000000E+00 0.  1.
         11    1    4    4    0    0  0.80570851123E+01  0.24336668470E+01  0.12359810730E+02  0.14953403505E+02  0.51100000000E-03 0. -1.
        -11    1    4    4    0    0  0.17398209237E+02  0.11616568281E+02  0.33431348727E+01  0.21185346217E+02  0.51100000000E-03 0.  1.
        -12    1    4    4    0    0  0.10780716392E+02 -0.99242407448E+00  0.42987599159E+01  0.11648523008E+02  0.00000000000E+00 0.  1.
</event>
<event>
 8    1  0.5331800E-011  0.9118800E+02  0.7816164E-02  0.1184000E+00
        -11   -1    0    0    0    0  0.00000000000E+00  0.00000000000E+00  0.45593999997E+02  0.45594000000E+02  0.51100000000E-03 0.  1.
         11   -1    0    0    0    0 -0.00000000000E+00 -0.00000000000E+00 -0.45593999997E+02  0.45594000000E+02  0.51100000000E-03 0. -1.
         23    2    1    2    0    0  0.00000000000E+00  0.00000000000E+00  0.00000000000E+00  0.91188000000E+02  0.91188000000E+02 0.  0.
    9900012    2    3    3    0    0 -0.41303464915E+02 -0.11964806234E+02 -0.58728592121E+01  0.47787271002E+02  0.19999999806E+02 0.  0.
        -12    1    3    3    0    0  0.41303464915E+02  0.11964806234E+02  0.58728592121E+01  0.43400728998E+02  0.00000000000E+00 0.  1.
         11    1    4    4    0    0 -0.84192734226E+01 -0.60305515002E+01 -0.72825452009E+01  0.12660457386E+02  0.51100000000E-03 0. -1.
        -11    1    4    4    0    0 -0.30737909057E+02 -0.65889836894E+01  0.40114153242E+01  0.31691090426E+02  0.51100000000E-03 0.  1.
         12    1    4    4    0    0 -0.21462824358E+01  0.65472895521E+00 -0.26017293353E+01  0.34357231893E+01  0.00000000000E+00 0. -1.
</event>
<event>
 8    1  0.5331800E-011  0.9118800E+02  0.7816164E-02  0.1184000E+00
        -11   -1    0    0    0    0  0.00000000000E+00  0.00000000000E+00  0.45593999997E+02  0.45594000000E+02  0.51100000000E-03 0. -1.
         11   -1    0    0    0    0 -0.00000000000E+00 -0.00000000000E+00 -0.45593999997E+02  0.45594000000E+02  0.51100000000E-03 0.  1.
         23    2    1    2    0    0  0.00000000000E+00  0.17763568394E-14  0.00000000000E+00  0.91188000000E+02  0.91188000000E+02 0.  0.
    9900012    2    3    3    0    0 -0.21555122743E+02  0.13637916671E+02  0.35114201847E+02  0.47787271216E+02  0.20000000784E+02 0.  0.
        -12    1    3    3    0    0  0.21555122743E+02 -0.13637916671E+02 -0.35114201847E+02  0.43400728784E+02  0.00000000000E+00 0.  1.
         11    1    4    4    0    0 -0.50309458019E+01  0.34587942222E+01  0.10287246950E+02  0.11962488170E+02  0.51100000000E-03 0. -1.
        -11    1    4    4    0    0 -0.18996767389E+02  0.49723547873E+01  0.16237372980E+02  0.25480458491E+02  0.51100000000E-03 0.  1.
        -12    1    4    4    0    0  0.24725904480E+01  0.52067676617E+01  0.85895819166E+01  0.10344324555E+02  0.00000000000E+00 0.  1.
</event>
<event>
 8    1  0.5331800E-011  0.9118800E+02  0.7816164E-02  0.1184000E+00
        -11   -1    0    0    0    0  0.00000000000E+00  0.00000000000E+00  0.45593999997E+02  0.45594000000E+02  0.51100000000E-03 0. -1.
         11   -1    0    0    0    0 -0.00000000000E+00 -0.00000000000E+00 -0.45593999997E+02  0.45594000000E+02  0.51100000000E-03 0.  1.
         23    2    1    2    0    0  0.00000000000E+00  0.00000000000E+00  0.00000000000E+00  0.91188000000E+02  0.91188000000E+02 0.  0.
    9900012    2    3    3    0    0  0.36682319447E+02 -0.21326324815E+02 -0.91224246011E+01  0.47787270505E+02  0.19999997539E+02 0.  0.
         12    1    3    3    0    0 -0.36682319447E+02  0.21326324815E+02  0.91224246011E+01  0.43400729495E+02  0.00000000000E+00 0. -1.
         11    1    4    4    0    0  0.63296954317E+01 -0.83500605735E+01 -0.41495781336E+01  0.11269762854E+02  0.51100000000E-03 0. -1.
        -11    1    4    4    0    0  0.14910478972E+02 -0.14107990651E+01  0.36029992142E+01  0.15404361096E+02  0.51100000000E-03 0.  1.
        -12    1    4    4    0    0  0.15442145043E+02 -0.11565465177E+02 -0.85758456817E+01  0.21113146554E+02  0.00000000000E+00 0.  1.
</event>
<event>
 8    1  0.5331800E-011  0.9118800E+02  0.7816164E-02  0.1184000E+00
        -11   -1    0    0    0    0  0.00000000000E+00  0.00000000000E+00  0.45593999997E+02  0.45594000000E+02  0.51100000000E-03 0. -1.
         11   -1    0    0    0    0 -0.00000000000E+00 -0.00000000000E+00 -0.45593999997E+02  0.45594000000E+02  0.51100000000E-03 0.  1.
         23    2    1    2    0    0  0.00000000000E+00  0.00000000000E+00  0.44408920985E-15  0.91188000000E+02  0.91188000000E+02 0.  0.
    9900012    2    3    3    0    0  0.28334340460E+02  0.32701147470E+02 -0.33798504128E+01  0.47787270928E+02  0.19999999469E+02 0.  0.
         12    1    3    3    0    0 -0.28334340460E+02 -0.32701147470E+02  0.33798504128E+01  0.43400729072E+02  0.00000000000E+00 0. -1.
         11    1    4    4    0    0  0.73067374892E+01  0.58055339098E+01  0.91034183748E+00  0.93766390160E+01  0.51100000000E-03 0. -1.
        -11    1    4    4    0    0  0.17345858624E+02  0.12420074981E+02 -0.83857899098E+01  0.22922882598E+02  0.51100000000E-03 0.  1.
        -12    1    4    4    0    0  0.36817443461E+01  0.14475538580E+02  0.40955976595E+01  0.15487749313E+02  0.00000000000E+00 0.  1.
</event>
<event>
 8    1  0.5331800E-011  0.9118800E+02  0.7816164E-02  0.1184000E+00
        -11   -1    0    0    0    0  0.00000000000E+00  0.00000000000E+00  0.45593999997E+02  0.45594000000E+02  0.51100000000E-03 0.  1.
         11   -1    0    0    0    0 -0.00000000000E+00 -0.00000000000E+00 -0.45593999997E+02  0.45594000000E+02  0.51100000000E-03 0. -1.
         23    2    1    2    0    0 -0.35527136788E-14  0.00000000000E+00 -0.88817841970E-15  0.91188000000E+02  0.91188000000E+02 0.  0.
    9900012    2    3    3    0    0 -0.17802394458E+02  0.39346274224E+02  0.43091486031E+01  0.47787270681E+02  0.19999998342E+02 0.  0.
         12    1    3    3    0    0  0.17802394458E+02 -0.39346274224E+02 -0.43091486031E+01  0.43400729319E+02  0.00000000000E+00 0. -1.
         11    1    4    4    0    0 -0.13078909173E+02  0.17375738338E+02 -0.12542585800E+01  0.21784106885E+02  0.51100000000E-03 0. -1.
        -11    1    4    4    0    0 -0.18080060305E+01  0.55807108901E+01 -0.37162675651E+01  0.69443404814E+01  0.51100000000E-03 0.  1.
        -12    1    4    4    0    0 -0.29154792552E+01  0.16389824996E+02  0.92796747482E+01  0.19058823314E+02  0.00000000000E+00 0.  1.
</event>
<event>
 8    1  0.5331800E-011  0.9118800E+02  0.7816164E-02  0.1184000E+00
        -11   -1    0    0    0    0  0.00000000000E+00  0.00000000000E+00  0.45593999997E+02  0.45594000000E+02  0.51100000000E-03 0. -1.
         11   -1    0    0    0    0 -0.00000000000E+00 -0.00000000000E+00 -0.45593999997E+02  0.45594000000E+02  0.51100000000E-03 0.  1.
         23    2    1    2    0    0  0.11102230246E-15  0.17763568394E-14  0.00000000000E+00  0.91188000000E+02  0.91188000000E+02 0.  0.
    9900012    2    3    3    0    0 -0.81509838749E+00  0.12320625767E+02  0.41607219480E+02  0.47787275150E+02  0.20000018717E+02 0.  0.
        -12    1    3    3    0    0  0.81509838749E+00 -0.12320625767E+02 -0.41607219480E+02  0.43400724850E+02  0.00000000000E+00 0.  1.
         11    1    4    4    0    0  0.52006353635E+01  0.36893124293E+01  0.26516556394E+02  0.27272429258E+02  0.51100000000E-03 0. -1.
        -11    1    4    4    0    0  0.16082952278E+01  0.23024981631E+01  0.75735121718E+01  0.80775118823E+01  0.51100000000E-03 0.  1.
         12    1    4    4    0    0 -0.76240289788E+01  0.63288151746E+01  0.75171509142E+01  0.12437334009E+02  0.00000000000E+00 0. -1.
</event>
<event>
 8    1  0.5331800E-011  0.9118800E+02  0.7816164E-02  0.1184000E+00
        -11   -1    0    0    0    0  0.00000000000E+00  0.00000000000E+00  0.45593999997E+02  0.45594000000E+02  0.51100000000E-03 0. -1.
         11   -1    0    0    0    0 -0.00000000000E+00 -0.00000000000E+00 -0.45593999997E+02  0.45594000000E+02  0.51100000000E-03 0.  1.
         23    2    1    2    0    0 -0.17763568394E-14  0.00000000000E+00 -0.71054273576E-14  0.91188000000E+02  0.91188000000E+02 0.  0.
    9900012    2    3    3    0    0  0.96106677947E+01 -0.61063140102E+01  0.41880439340E+02  0.47787271832E+02  0.20000003590E+02 0.  0.
        -12    1    3    3    0    0 -0.96106677947E+01  0.61063140102E+01 -0.41880439340E+02  0.43400728168E+02  0.00000000000E+00 0.  1.
         11    1    4    4    0    0  0.88336228355E+00 -0.45140348369E+00  0.81825428679E+01  0.82424572838E+01  0.51100000000E-03 0. -1.
        -11    1    4    4    0    0  0.77740710910E+01 -0.43494597384E+01  0.35800809857E+02  0.36892437816E+02  0.51100000000E-03 0.  1.
        -12    1    4    4    0    0  0.95323442013E+00 -0.13054507881E+01 -0.21029133854E+01  0.26523767316E+01  0.00000000000E+00 0.  1.
</event>
<event>
 8    1  0.5331800E-011  0.9118800E+02  0.7816164E-02  0.1184000E+00
        -11   -1    0    0    0    0  0.00000000000E+00  0.00000000000E+00  0.45593999997E+02  0.45594000000E+02  0.51100000000E-03 0. -1.
         11   -1    0    0    0    0 -0.00000000000E+00 -0.00000000000E+00 -0.45593999997E+02  0.45594000000E+02  0.51100000000E-03 0.  1.
         23    2    1    2    0    0  0.00000000000E+00 -0.88817841970E-15  0.35527136788E-14  0.91188000000E+02  0.91188000000E+02 0.  0.
    9900012    2    3    3    0    0 -0.37905567611E+02 -0.35040906793E+01  0.20844964692E+02  0.47787271199E+02  0.20000000706E+02 0.  0.
        -12    1    3    3    0    0  0.37905567611E+02  0.35040906793E+01 -0.20844964692E+02  0.43400728801E+02  0.00000000000E+00 0.  1.
         11    1    4    4    0    0 -0.10756963522E+02  0.55814347806E+01  0.92198584681E+01  0.15227293550E+02  0.51100000000E-03 0. -1.
        -11    1    4    4    0    0 -0.24029437033E+02 -0.10408259088E+02  0.12563227114E+02  0.29044455188E+02  0.51100000000E-03 0.  1.
        -12    1    4    4    0    0 -0.31191670560E+01  0.13227336283E+01 -0.93812088974E+00  0.35155224617E+01  0.00000000000E+00 0.  1.
</event>
<event>
 8    1  0.5488608E-011  0.9118800E+02  0.7816164E-02  0.1184000E+00
        -11   -1    0    0    0    0  0.00000000000E+00  0.00000000000E+00  0.45593999997E+02  0.45594000000E+02  0.51100000000E-03 0. -1.
         11   -1    0    0    0    0 -0.00000000000E+00 -0.00000000000E+00 -0.45593999997E+02  0.45594000000E+02  0.51100000000E-03 0.  1.
         23    2    1    2    0    0  0.00000000000E+00 -0.35527136788E-14  0.35527136788E-14  0.91188000000E+02  0.91188000000E+02 0.  0.
    9900012    2    3    3    0    0 -0.23247591888E+02  0.20958082359E+02 -0.30065456454E+02  0.47787269401E+02  0.19999992505E+02 0.  0.
         12    1    3    3    0    0  0.23247591888E+02 -0.20958082359E+02  0.30065456454E+02  0.43400730599E+02  0.00000000000E+00 0. -1.
         11    1    4    4    0    0 -0.72847453774E+01  0.13371516425E+02 -0.66089999932E+01  0.16599513484E+02  0.51100000000E-03 0. -1.
        -11    1    4    4    0    0 -0.11794863253E+02  0.12097248627E+01 -0.91404736542E+01  0.14970988353E+02  0.51100000000E-03 0.  1.
        -12    1    4    4    0    0 -0.41679832579E+01  0.63768410712E+01 -0.14315982807E+02  0.16216767564E+02  0.00000000000E+00 0.  1.
</event>
<event>
 8    1  0.5331800E-011  0.9118800E+02  0.7816164E-02  0.1184000E+00
        -11   -1    0    0    0    0  0.00000000000E+00  0.00000000000E+00  0.45593999997E+02  0.45594000000E+02  0.51100000000E-03 0. -1.
         11   -1    0    0    0    0 -0.00000000000E+00 -0.00000000000E+00 -0.45593999997E+02  0.45594000000E+02  0.51100000000E-03 0.  1.
         23    2    1    2    0    0  0.88817841970E-15  0.00000000000E+00  0.35527136788E-14  0.91188000000E+02  0.91188000000E+02 0.  0.
    9900012    2    3    3    0    0 -0.52907982953E+01  0.38096141555E+02 -0.20107575636E+02  0.47787272518E+02  0.20000006719E+02 0.  0.
         12    1    3    3    0    0  0.52907982953E+01 -0.38096141555E+02  0.20107575636E+02  0.43400727482E+02  0.00000000000E+00 0. -1.
         11    1    4    4    0    0  0.29750693691E+01  0.17733533158E+02 -0.16698340998E+01  0.18058725930E+02  0.51100000000E-03 0. -1.
        -11    1    4    4    0    0 -0.63876582471E+01  0.16465244746E+02 -0.10124950616E+02  0.20357334984E+02  0.51100000000E-03 0.  1.
         12    1    4    4    0    0 -0.18782094174E+01  0.38973636511E+01 -0.83127909202E+01  0.93712116040E+01  0.00000000000E+00 0. -1.
</event>
<event>
 8    1  0.5331800E-011  0.9118800E+02  0.7816164E-02  0.1184000E+00
        -11   -1    0    0    0    0  0.00000000000E+00  0.00000000000E+00  0.45593999997E+02  0.45594000000E+02  0.51100000000E-03 0. -1.
         11   -1    0    0    0    0 -0.00000000000E+00 -0.00000000000E+00 -0.45593999997E+02  0.45594000000E+02  0.51100000000E-03 0.  1.
         23    2    1    2    0    0 -0.88817841970E-15  0.00000000000E+00  0.00000000000E+00  0.91188000000E+02  0.91188000000E+02 0.  0.
    9900012    2    3    3    0    0 -0.76510252159E+01  0.99482676508E+01 -0.41546571333E+02  0.47787264918E+02  0.19999972068E+02 0.  0.
         12    1    3    3    0    0  0.76510252159E+01 -0.99482676508E+01  0.41546571333E+02  0.43400735082E+02  0.00000000000E+00 0. -1.
         11    1    4    4    0    0  0.52117304425E+01  0.66039249614E+00 -0.57137638690E+01  0.77617878267E+01  0.51100000000E-03 0. -1.
        -11    1    4    4    0    0 -0.23671349543E+01  0.50599169607E+01 -0.64138407730E+01  0.85054947689E+01  0.51100000000E-03 0.  1.
         12    1    4    4    0    0 -0.10495620704E+02  0.42279581940E+01 -0.29418966691E+02  0.31519982323E+02  0.00000000000E+00 0. -1.
</event>
<event>
 8    1  0.5331800E-011  0.9118800E+02  0.7816164E-02  0.1184000E+00
        -11   -1    0    0    0    0  0.00000000000E+00  0.00000000000E+00  0.45593999997E+02  0.45594000000E+02  0.51100000000E-03 0. -1.
         11   -1    0    0    0    0 -0.00000000000E+00 -0.00000000000E+00 -0.45593999997E+02  0.45594000000E+02  0.51100000000E-03 0.  1.
         23    2    1    2    0    0 -0.71054273576E-14 -0.12212453271E-14  0.00000000000E+00  0.91188000000E+02  0.91188000000E+02 0.  0.
    9900012    2    3    3    0    0  0.32246459153E+02 -0.71793626408E+00  0.29039177368E+02  0.47787269792E+02  0.19999994291E+02 0.  0.
        -12    1    3    3    0    0 -0.32246459153E+02  0.71793626408E+00 -0.29039177368E+02  0.43400730208E+02  0.00000000000E+00 0.  1.
         11    1    4    4    0    0 -0.13872821083E+00  0.43046432097E+01  0.10831292742E+01  0.44409872737E+01  0.51100000000E-03 0.  1.
        -11    1    4    4    0    0  0.27587059495E+02 -0.57242831659E+01  0.25000027884E+02  0.37667156301E+02  0.51100000000E-03 0. -1.
        -12    1    4    4    0    0  0.47981278689E+01  0.70170369210E+00  0.29560202095E+01  0.56791262177E+01  0.00000000000E+00 0.  1.
</event>
<event>
 8    1  0.7171187E-011  0.9118800E+02  0.7816164E-02  0.1184000E+00
        -11   -1    0    0    0    0  0.00000000000E+00  0.00000000000E+00  0.45593999997E+02  0.45594000000E+02  0.51100000000E-03 0. -1.
         11   -1    0    0    0    0 -0.00000000000E+00 -0.00000000000E+00 -0.45593999997E+02  0.45594000000E+02  0.51100000000E-03 0.  1.
         23    2    1    2    0    0 -0.17763568394E-14  0.17763568394E-14  0.00000000000E+00  0.91188000000E+02  0.91188000000E+02 0.  0.
    9900012    2    3    3    0    0  0.97609896096E+01 -0.10029421256E+02 -0.41082318550E+02  0.47787272974E+02  0.20000008799E+02 0.  0.
         12    1    3    3    0    0 -0.97609896096E+01  0.10029421256E+02  0.41082318550E+02  0.43400727026E+02  0.00000000000E+00 0. -1.
         11    1    4    4    0    0 -0.96951195429E+00  0.17869234513E+01 -0.57881721628E-01  0.20338140045E+01  0.51100000000E-03 0. -1.
        -11    1    4    4    0    0  0.14956495295E+01 -0.94889689101E+01 -0.28118228735E+02  0.29713839973E+02  0.51100000000E-03 0.  1.
        -12    1    4    4    0    0  0.92348520344E+01 -0.23273757972E+01 -0.12906208093E+02  0.16039618996E+02  0.00000000000E+00 0.  1.
</event>
<event>
 8    1  0.5331800E-011  0.9118800E+02  0.7816164E-02  0.1184000E+00
        -11   -1    0    0    0    0  0.00000000000E+00  0.00000000000E+00  0.45593999997E+02  0.45594000000E+02  0.51100000000E-03 0. -1.
         11   -1    0    0    0    0 -0.00000000000E+00 -0.00000000000E+00 -0.45593999997E+02  0.45594000000E+02  0.51100000000E-03 0.  1.
         23    2    1    2    0    0  0.00000000000E+00  0.00000000000E+00  0.00000000000E+00  0.91188000000E+02  0.91188000000E+02 0.  0.
    9900012    2    3    3    0    0 -0.51421173620E+01 -0.23888082316E+02  0.35868393771E+02  0.47787268216E+02  0.19999987102E+02 0.  0.
        -12    1    3    3    0    0  0.51421173620E+01  0.23888082316E+02 -0.35868393771E+02  0.43400731784E+02  0.00000000000E+00 0.  1.
         11    1    4    4    0    0 -0.47532228292E+01 -0.39324506768E+01  0.59357090193E+01  0.85609542349E+01  0.51100000000E-03 0. -1.
        -11    1    4    4    0    0 -0.17143511386E+00 -0.15274304348E+02  0.89022196684E+01  0.17680024847E+02  0.51100000000E-03 0.  1.
        -12    1    4    4    0    0 -0.21745941897E+00 -0.46813272914E+01  0.21030465084E+02  0.21546289134E+02  0.00000000000E+00 0.  1.
</event>
<event>
 8    1  0.5331800E-011  0.9118800E+02  0.7816164E-02  0.1184000E+00
        -11   -1    0    0    0    0  0.00000000000E+00  0.00000000000E+00  0.45593999997E+02  0.45594000000E+02  0.51100000000E-03 0. -1.
         11   -1    0    0    0    0 -0.00000000000E+00 -0.00000000000E+00 -0.45593999997E+02  0.45594000000E+02  0.51100000000E-03 0.  1.
         23    2    1    2    0    0 -0.71054273576E-14 -0.17763568394E-14  0.88817841970E-15  0.91188000000E+02  0.91188000000E+02 0.  0.
    9900012    2    3    3    0    0  0.41420331506E+02  0.12379582298E+02 -0.38373004614E+01  0.47787276564E+02  0.20000025166E+02 0.  0.
         12    1    3    3    0    0 -0.41420331506E+02 -0.12379582298E+02  0.38373004614E+01  0.43400723436E+02  0.00000000000E+00 0. -1.
         11    1    4    4    0    0  0.20680395445E+02 -0.28139474538E+01  0.18773303947E+01  0.20955224306E+02  0.51100000000E-03 0. -1.
        -11    1    4    4    0    0  0.96665346606E+01  0.94360567958E+01 -0.12074526023E+01  0.13562411373E+02  0.51100000000E-03 0.  1.
        -12    1    4    4    0    0  0.11073401400E+02  0.57574729556E+01 -0.45071782537E+01  0.13269640885E+02  0.00000000000E+00 0.  1.
</event>
<event>
 8    1  0.5331800E-011  0.9118800E+02  0.7816164E-02  0.1184000E+00
        -11   -1    0    0    0    0  0.00000000000E+00  0.00000000000E+00  0.45593999997E+02  0.45594000000E+02  0.51100000000E-03 0. -1.
         11   -1    0    0    0    0 -0.00000000000E+00 -0.00000000000E+00 -0.45593999997E+02  0.45594000000E+02  0.51100000000E-03 0.  1.
         23    2    1    2    0    0  0.00000000000E+00  0.00000000000E+00  0.00000000000E+00  0.91188000000E+02  0.91188000000E+02 0.  0.
    9900012    2    3    3    0    0 -0.69340923716E+01  0.15497606419E+02 -0.39942031556E+02  0.47787270438E+02  0.19999997233E+02 0.  0.
         12    1    3    3    0    0  0.69340923716E+01 -0.15497606419E+02  0.39942031556E+02  0.43400729562E+02  0.00000000000E+00 0. -1.
         11    1    4    4    0    0 -0.50450967808E+01  0.11057601095E+02 -0.31450036044E+02  0.33716884656E+02  0.51100000000E-03 0.  1.
        -11    1    4    4    0    0  0.75039382808E+00  0.25603710605E+01  0.18407795447E+01  0.32414596184E+01  0.51100000000E-03 0. -1.
         12    1    4    4    0    0 -0.26393894188E+01  0.18796342635E+01 -0.10332775057E+02  0.10828926163E+02  0.00000000000E+00 0. -1.
</event>
<event>
 8    1  0.5331800E-011  0.9118800E+02  0.7816164E-02  0.1184000E+00
        -11   -1    0    0    0    0  0.00000000000E+00  0.00000000000E+00  0.45593999997E+02  0.45594000000E+02  0.51100000000E-03 0. -1.
         11   -1    0    0    0    0 -0.00000000000E+00 -0.00000000000E+00 -0.45593999997E+02  0.45594000000E+02  0.51100000000E-03 0.  1.
         23    2    1    2    0    0  0.00000000000E+00  0.00000000000E+00  0.35527136788E-14  0.91188000000E+02  0.91188000000E+02 0.  0.
    9900012    2    3    3    0    0 -0.20134486492E+02 -0.27504133456E+02  0.26865378603E+02  0.47787268775E+02  0.19999989651E+02 0.  0.
        -12    1    3    3    0    0  0.20134486492E+02  0.27504133456E+02 -0.26865378603E+02  0.43400731225E+02  0.00000000000E+00 0.  1.
         11    1    4    4    0    0 -0.63865198691E+01 -0.14591397128E+02  0.37845822759E+01  0.16371303230E+02  0.51100000000E-03 0. -1.
        -11    1    4    4    0    0 -0.63538826007E+01 -0.84871493895E+01  0.19269189869E+02  0.21993299146E+02  0.51100000000E-03 0.  1.
         12    1    4    4    0    0 -0.73940840217E+01 -0.44255869386E+01  0.38116064578E+01  0.94226663987E+01  0.00000000000E+00 0. -1.
</event>
<event>
 8    1  0.5331800E-011  0.9118800E+02  0.7816164E-02  0.1184000E+00
        -11   -1    0    0    0    0  0.00000000000E+00  0.00000000000E+00  0.45593999997E+02  0.45594000000E+02  0.51100000000E-03 0.  1.
         11   -1    0    0    0    0 -0.00000000000E+00 -0.00000000000E+00 -0.45593999997E+02  0.45594000000E+02  0.51100000000E-03 0. -1.
         23    2    1    2    0    0  0.00000000000E+00  0.00000000000E+00  0.17763568394E-14  0.91188000000E+02  0.91188000000E+02 0.  0.
    9900012    2    3    3    0    0 -0.42555774089E+02 -0.26969071481E+01  0.80842952359E+01  0.47787273670E+02  0.20000011972E+02 0.  0.
         12    1    3    3    0    0  0.42555774089E+02  0.26969071481E+01 -0.80842952359E+01  0.43400726330E+02  0.00000000000E+00 0. -1.
         11    1    4    4    0    0 -0.73708642748E+01 -0.39453748696E+01 -0.43117020502E+01  0.94067208873E+01  0.51100000000E-03 0. -1.
        -11    1    4    4    0    0 -0.27412965251E+02  0.20645272268E+01  0.56683632860E+01  0.28068902350E+02  0.51100000000E-03 0.  1.
         12    1    4    4    0    0 -0.77719445633E+01 -0.81605950530E+00  0.67276340001E+01  0.10311650433E+02  0.00000000000E+00 0. -1.
</event>
<event>
 8    1  0.5331800E-011  0.9118800E+02  0.7816164E-02  0.1184000E+00
        -11   -1    0    0    0    0  0.00000000000E+00  0.00000000000E+00  0.45593999997E+02  0.45594000000E+02  0.51100000000E-03 0. -1.
         11   -1    0    0    0    0 -0.00000000000E+00 -0.00000000000E+00 -0.45593999997E+02  0.45594000000E+02  0.51100000000E-03 0.  1.
         23    2    1    2    0    0  0.00000000000E+00  0.35527136788E-14  0.00000000000E+00  0.91188000000E+02  0.91188000000E+02 0.  0.
    9900012    2    3    3    0    0 -0.20513830756E+02 -0.18718096573E+02 -0.33353242412E+02  0.47787272230E+02  0.20000005404E+02 0.  0.
         12    1    3    3    0    0  0.20513830756E+02  0.18718096573E+02  0.33353242412E+02  0.43400727770E+02  0.00000000000E+00 0. -1.
         11    1    4    4    0    0 -0.42131132591E+01  0.33446657297E+01 -0.26453150148E+01  0.59945645351E+01  0.51100000000E-03 0. -1.
        -11    1    4    4    0    0 -0.25241232130E+01 -0.55865894262E+00 -0.45627189622E+01  0.52442065556E+01  0.51100000000E-03 0.  1.
         12    1    4    4    0    0 -0.13776594284E+02 -0.21504103360E+02 -0.26145208435E+02  0.36548501139E+02  0.00000000000E+00 0. -1.
</event>
<event>
 8    1  0.5331800E-011  0.9118800E+02  0.7816164E-02  0.1184000E+00
        -11   -1    0    0    0    0  0.00000000000E+00  0.00000000000E+00  0.45593999997E+02  0.45594000000E+02  0.51100000000E-03 0. -1.
         11   -1    0    0    0    0 -0.00000000000E+00 -0.00000000000E+00 -0.45593999997E+02  0.45594000000E+02  0.51100000000E-03 0.  1.
         23    2    1    2    0    0  0.00000000000E+00  0.00000000000E+00 -0.35527136788E-14  0.91188000000E+02  0.91188000000E+02 0.  0.
    9900012    2    3    3    0    0  0.22812945065E+02 -0.20728888488E+02  0.30553328644E+02  0.47787272222E+02  0.20000005367E+02 0.  0.
        -12    1    3    3    0    0 -0.22812945065E+02  0.20728888488E+02 -0.30553328644E+02  0.43400727778E+02  0.00000000000E+00 0.  1.
         11    1    4    4    0    0  0.25168641500E+02 -0.16234907770E+02  0.29433969001E+02  0.41992752668E+02  0.51100000000E-03 0. -1.
        -11    1    4    4    0    0 -0.21601635718E+01 -0.40098814935E+01  0.18334804679E+01  0.49098988927E+01  0.51100000000E-03 0.  1.
        -12    1    4    4    0    0 -0.19553286296E+00 -0.48409922480E+00 -0.71412082534E+00  0.88462066059E+00  0.00000000000E+00 0.  1.
</event>
<event>
 8    1  0.5331800E-011  0.9118800E+02  0.7816164E-02  0.1184000E+00
        -11   -1    0    0    0    0  0.00000000000E+00  0.00000000000E+00  0.45593999997E+02  0.45594000000E+02  0.51100000000E-03 0. -1.
         11   -1    0    0    0    0 -0.00000000000E+00 -0.00000000000E+00 -0.45593999997E+02  0.45594000000E+02  0.51100000000E-03 0.  1.
         23    2    1    2    0    0 -0.71054273576E-14  0.71054273576E-14 -0.33306690739E-15  0.91188000000E+02  0.91188000000E+02 0.  0.
    9900012    2    3    3    0    0 -0.19471703386E+02  0.38782110393E+02 -0.65180845171E+00  0.47787260680E+02  0.19999952745E+02 0.  0.
        -12    1    3    3    0    0  0.19471703386E+02 -0.38782110393E+02  0.65180845171E+00  0.43400739320E+02  0.00000000000E+00 0.  1.
         11    1    4    4    0    0  0.24900630689E+01  0.11472687649E+01  0.69906098887E+00  0.28293685220E+01  0.51100000000E-03 0. -1.
        -11    1    4    4    0    0 -0.12937763543E+02  0.31016320798E+02 -0.25486602748E+01  0.33703019906E+02  0.51100000000E-03 0.  1.
         12    1    4    4    0    0 -0.90240029119E+01  0.66185208301E+01  0.11977908343E+01  0.11254872252E+02  0.00000000000E+00 0. -1.
</event>
<event>
 8    1  0.5331800E-011  0.9118800E+02  0.7816164E-02  0.1184000E+00
        -11   -1    0    0    0    0  0.00000000000E+00  0.00000000000E+00  0.45593999997E+02  0.45594000000E+02  0.51100000000E-03 0. -1.
         11   -1    0    0    0    0 -0.00000000000E+00 -0.00000000000E+00 -0.45593999997E+02  0.45594000000E+02  0.51100000000E-03 0.  1.
         23    2    1    2    0    0 -0.17763568394E-14 -0.69388939039E-15 -0.71054273576E-14  0.91188000000E+02  0.91188000000E+02 0.  0.
    9900012    2    3    3    0    0 -0.47693568880E+01  0.22024234887E+00 -0.43137315434E+02  0.47787271266E+02  0.20000001010E+02 0.  0.
         12    1    3    3    0    0  0.47693568880E+01 -0.22024234887E+00  0.43137315434E+02  0.43400728734E+02  0.00000000000E+00 0. -1.
         11    1    4    4    0    0  0.32357518351E+01 -0.67989372339E+01 -0.19874627464E+02  0.21253151638E+02  0.51100000000E-03 0. -1.
        -11    1    4    4    0    0 -0.24956912528E+01  0.26273510442E+01 -0.16039350683E+02  0.16443607236E+02  0.51100000000E-03 0.  1.
         12    1    4    4    0    0 -0.55094174703E+01  0.43918285386E+01 -0.72233372864E+01  0.10090512392E+02  0.00000000000E+00 0. -1.
</event>
<event>
 8    1  0.5331800E-011  0.9118800E+02  0.7816164E-02  0.1184000E+00
        -11   -1    0    0    0    0  0.00000000000E+00  0.00000000000E+00  0.45593999997E+02  0.45594000000E+02  0.51100000000E-03 0. -1.
         11   -1    0    0    0    0 -0.00000000000E+00 -0.00000000000E+00 -0.45593999997E+02  0.45594000000E+02  0.51100000000E-03 0.  1.
         23    2    1    2    0    0 -0.16653345369E-15  0.00000000000E+00 -0.71054273576E-14  0.91188000000E+02  0.91188000000E+02 0.  0.
    9900012    2    3    3    0    0  0.48393804307E+00 -0.85806630889E+01 -0.42541285258E+02  0.47787275047E+02  0.20000018249E+02 0.  0.
         12    1    3    3    0    0 -0.48393804307E+00  0.85806630889E+01  0.42541285258E+02  0.43400724953E+02  0.00000000000E+00 0. -1.
         11    1    4    4    0    0 -0.50800458554E+00  0.47187400962E+01 -0.57606703319E+01  0.74639064630E+01  0.51100000000E-03 0. -1.
        -11    1    4    4    0    0 -0.27258069441E+01 -0.11332351393E+00 -0.46051242144E+01  0.53525727465E+01  0.51100000000E-03 0.  1.
         12    1    4    4    0    0  0.37177495727E+01 -0.13186079671E+02 -0.32175490711E+02  0.34970795837E+02  0.00000000000E+00 0. -1.
</event>
<event>
 8    1  0.5331800E-011  0.9118800E+02  0.7816164E-02  0.1184000E+00
        -11   -1    0    0    0    0  0.00000000000E+00  0.00000000000E+00  0.45593999997E+02  0.45594000000E+02  0.51100000000E-03 0. -1.
         11   -1    0    0    0    0 -0.00000000000E+00 -0.00000000000E+00 -0.45593999997E+02  0.45594000000E+02  0.51100000000E-03 0.  1.
         23    2    1    2    0    0  0.00000000000E+00 -0.44408920985E-15  0.00000000000E+00  0.91188000000E+02  0.91188000000E+02 0.  0.
    9900012    2    3    3    0    0 -0.19627982089E+02 -0.14230056164E+01  0.38682562363E+02  0.47787271240E+02  0.20000000893E+02 0.  0.
        -12    1    3    3    0    0  0.19627982089E+02  0.14230056164E+01 -0.38682562363E+02  0.43400728760E+02  0.00000000000E+00 0.  1.
         11    1    4    4    0    0  0.29142361908E+01  0.16033917654E+01  0.10619711059E+02  0.11128427605E+02  0.51100000000E-03 0. -1.
        -11    1    4    4    0    0 -0.49288892899E+01 -0.16490970011E+01  0.30194463370E+01  0.60108674079E+01  0.51100000000E-03 0.  1.
         12    1    4    4    0    0 -0.17613328990E+02 -0.13773003806E+01  0.25043404967E+02  0.30647976227E+02  0.00000000000E+00 0. -1.
</event>
<event>
 8    1  0.5331800E-011  0.9118800E+02  0.7816164E-02  0.1184000E+00
        -11   -1    0    0    0    0  0.00000000000E+00  0.00000000000E+00  0.45593999997E+02  0.45594000000E+02  0.51100000000E-03 0. -1.
         11   -1    0    0    0    0 -0.00000000000E+00 -0.00000000000E+00 -0.45593999997E+02  0.45594000000E+02  0.51100000000E-03 0.  1.
         23    2    1    2    0    0  0.35527136788E-14  0.00000000000E+00  0.35527136788E-14  0.91188000000E+02  0.91188000000E+02 0.  0.
    9900012    2    3    3    0    0  0.30613745348E+02  0.15577605884E+02 -0.26528471705E+02  0.47787273966E+02  0.20000013319E+02 0.  0.
         12    1    3    3    0    0 -0.30613745348E+02 -0.15577605884E+02  0.26528471705E+02  0.43400726034E+02  0.00000000000E+00 0. -1.
         11    1    4    4    0    0 -0.24344358404E+01  0.31623658979E+01 -0.16250053281E+01  0.43090229184E+01  0.51100000000E-03 0. -1.
        -11    1    4    4    0    0  0.16991774232E+02  0.37917662171E+01 -0.11832376542E+02  0.21050012292E+02  0.51100000000E-03 0.  1.
         12    1    4    4    0    0  0.16056406957E+02  0.86234737689E+01 -0.13071089834E+02  0.22428238755E+02  0.00000000000E+00 0. -1.
</event>
<event>
 8    1  0.5331800E-011  0.9118800E+02  0.7816164E-02  0.1184000E+00
        -11   -1    0    0    0    0  0.00000000000E+00  0.00000000000E+00  0.45593999997E+02  0.45594000000E+02  0.51100000000E-03 0. -1.
         11   -1    0    0    0    0 -0.00000000000E+00 -0.00000000000E+00 -0.45593999997E+02  0.45594000000E+02  0.51100000000E-03 0.  1.
         23    2    1    2    0    0  0.00000000000E+00  0.17763568394E-14 -0.71054273576E-14  0.91188000000E+02  0.91188000000E+02 0.  0.
    9900012    2    3    3    0    0 -0.50768959189E+01  0.14327839659E+02 -0.40651705916E+02  0.47787273562E+02  0.20000011480E+02 0.  0.
         12    1    3    3    0    0  0.50768959189E+01 -0.14327839659E+02  0.40651705916E+02  0.43400726438E+02  0.00000000000E+00 0. -1.
         11    1    4    4    0    0 -0.10287532590E+02  0.75212373841E+01 -0.23973486038E+02  0.27150144966E+02  0.51100000000E-03 0. -1.
        -11    1    4    4    0    0  0.14777483888E+01  0.47628161640E+01 -0.15409431652E+02  0.16196257043E+02  0.51100000000E-03 0.  1.
         12    1    4    4    0    0  0.37328882821E+01  0.20437861107E+01 -0.12687882259E+01  0.44408715535E+01  0.00000000000E+00 0. -1.
</event>
<event>
 8    1  0.5331800E-011  0.9118800E+02  0.7816164E-02  0.1184000E+00
        -11   -1    0    0    0    0  0.00000000000E+00  0.00000000000E+00  0.45593999997E+02  0.45594000000E+02  0.51100000000E-03 0. -1.
         11   -1    0    0    0    0 -0.00000000000E+00 -0.00000000000E+00 -0.45593999997E+02  0.45594000000E+02  0.51100000000E-03 0.  1.
         23    2    1    2    0    0 -0.88817841970E-15 -0.17763568394E-14  0.00000000000E+00  0.91188000000E+02  0.91188000000E+02 0.  0.
    9900012    2    3    3    0    0  0.53726188329E+01  0.74087683177E+01  0.42424848339E+02  0.47787278373E+02  0.20000033416E+02 0.  0.
        -12    1    3    3    0    0 -0.53726188329E+01 -0.74087683177E+01 -0.42424848339E+02  0.43400721627E+02  0.00000000000E+00 0.  1.
         11    1    4    4    0    0  0.99144391338E+01  0.40416046396E+01  0.36093415949E+02  0.37647912911E+02  0.51100000000E-03 0. -1.
        -11    1    4    4    0    0 -0.36246760648E+01  0.44271011452E+01  0.28620947645E+01  0.63975845307E+01  0.51100000000E-03 0.  1.
         12    1    4    4    0    0 -0.91714423614E+00 -0.10599374671E+01  0.34693376251E+01  0.37417809317E+01  0.00000000000E+00 0. -1.
</event>
<event>
 8    1  0.5331800E-011  0.9118800E+02  0.7816164E-02  0.1184000E+00
        -11   -1    0    0    0    0  0.00000000000E+00  0.00000000000E+00  0.45593999997E+02  0.45594000000E+02  0.51100000000E-03 0. -1.
         11   -1    0    0    0    0 -0.00000000000E+00 -0.00000000000E+00 -0.45593999997E+02  0.45594000000E+02  0.51100000000E-03 0.  1.
         23    2    1    2    0    0 -0.17763568394E-14  0.00000000000E+00  0.00000000000E+00  0.91188000000E+02  0.91188000000E+02 0.  0.
    9900012    2    3    3    0    0  0.89473043803E+01 -0.35181640879E+01 -0.42322469633E+02  0.47787272240E+02  0.20000005451E+02 0.  0.
         12    1    3    3    0    0 -0.89473043803E+01  0.35181640879E+01  0.42322469633E+02  0.43400727760E+02  0.00000000000E+00 0. -1.
         11    1    4    4    0    0  0.49653846679E+01  0.13504398049E-02 -0.83398164107E+01  0.97060591771E+01  0.51100000000E-03 0. -1.
        -11    1    4    4    0    0  0.84314428876E+01 -0.43169956587E+01 -0.31563416826E+02  0.32954134228E+02  0.51100000000E-03 0.  1.
        -12    1    4    4    0    0 -0.44495231752E+01  0.79748113099E+00 -0.24192363963E+01  0.51270788352E+01  0.00000000000E+00 0.  1.
</event>
<event>
 8    1  0.5331800E-011  0.9118800E+02  0.7816164E-02  0.1184000E+00
        -11   -1    0    0    0    0  0.00000000000E+00  0.00000000000E+00  0.45593999997E+02  0.45594000000E+02  0.51100000000E-03 0.  1.
         11   -1    0    0    0    0 -0.00000000000E+00 -0.00000000000E+00 -0.45593999997E+02  0.45594000000E+02  0.51100000000E-03 0. -1.
         23    2    1    2    0    0 -0.35527136788E-14  0.71054273576E-14  0.00000000000E+00  0.91188000000E+02  0.91188000000E+02 0.  0.
    9900012    2    3    3    0    0 -0.23606486160E+02  0.35690935565E+02  0.72467112873E+01  0.47787263891E+02  0.19999967384E+02 0.  0.
         12    1    3    3    0    0  0.23606486160E+02 -0.35690935565E+02 -0.72467112873E+01  0.43400736109E+02  0.00000000000E+00 0. -1.
         11    1    4    4    0    0 -0.34507213698E+01  0.15513871369E+02  0.24464931539E+01  0.16080205591E+02  0.51100000000E-03 0. -1.
        -11    1    4    4    0    0 -0.67443653092E+01  0.15885481078E+02  0.24487415843E+01  0.17430757531E+02  0.51100000000E-03 0.  1.
         12    1    4    4    0    0 -0.13411399481E+02  0.42915831186E+01  0.23514765491E+01  0.14276300769E+02  0.00000000000E+00 0. -1.
</event>
<event>
 8    1  0.5331800E-011  0.9118800E+02  0.7816164E-02  0.1184000E+00
        -11   -1    0    0    0    0  0.00000000000E+00  0.00000000000E+00  0.45593999997E+02  0.45594000000E+02  0.51100000000E-03 0. -1.
         11   -1    0    0    0    0 -0.00000000000E+00 -0.00000000000E+00 -0.45593999997E+02  0.45594000000E+02  0.51100000000E-03 0.  1.
         23    2    1    2    0    0  0.00000000000E+00 -0.17763568394E-14  0.00000000000E+00  0.91188000000E+02  0.91188000000E+02 0.  0.
    9900012    2    3    3    0    0  0.49337528955E+01 -0.11058859503E+02 -0.41677111592E+02  0.47787286621E+02  0.20000071020E+02 0.  0.
         12    1    3    3    0    0 -0.49337528955E+01  0.11058859503E+02  0.41677111592E+02  0.43400713379E+02  0.00000000000E+00 0. -1.
         11    1    4    4    0    0  0.80219339102E+00 -0.20604851680E+01 -0.28692822770E+02  0.28777894157E+02  0.51100000000E-03 0. -1.
        -11    1    4    4    0    0  0.70506525887E+01 -0.42128732751E+01 -0.86084584583E+01  0.11898132645E+02  0.51100000000E-03 0.  1.
         12    1    4    4    0    0 -0.29190930842E+01 -0.47855010599E+01 -0.43758303638E+01  0.71112598182E+01  0.00000000000E+00 0. -1.
</event>
<event>
 8    1  0.5331800E-011  0.9118800E+02  0.7816164E-02  0.1184000E+00
        -11   -1    0    0    0    0  0.00000000000E+00  0.00000000000E+00  0.45593999997E+02  0.45594000000E+02  0.51100000000E-03 0.  1.
         11   -1    0    0    0    0 -0.00000000000E+00 -0.00000000000E+00 -0.45593999997E+02  0.45594000000E+02  0.51100000000E-03 0. -1.
         23    2    1    2    0    0  0.00000000000E+00  0.00000000000E+00 -0.35527136788E-14  0.91188000000E+02  0.91188000000E+02 0.  0.
    9900012    2    3    3    0    0  0.30532623792E+02  0.26578375369E+02 -0.15651558968E+02  0.47787280524E+02  0.20000043222E+02 0.  0.
         12    1    3    3    0    0 -0.30532623792E+02 -0.26578375369E+02  0.15651558968E+02  0.43400719476E+02  0.00000000000E+00 0. -1.
         11    1    4    4    0    0  0.16720304375E+02  0.22885897637E+02 -0.11733891654E+02  0.30676002065E+02  0.51100000000E-03 0. -1.
        -11    1    4    4    0    0  0.77606822260E+01  0.23958936295E+01  0.21940265467E+01  0.84132186258E+01  0.51100000000E-03 0.  1.
        -12    1    4    4    0    0  0.60516371906E+01  0.12965841023E+01 -0.61116938612E+01  0.86980598339E+01  0.00000000000E+00 0.  1.
</event>
<event>
 8    1  0.5331800E-011  0.9118800E+02  0.7816164E-02  0.1184000E+00
        -11   -1    0    0    0    0  0.00000000000E+00  0.00000000000E+00  0.45593999997E+02  0.45594000000E+02  0.51100000000E-03 0. -1.
         11   -1    0    0    0    0 -0.00000000000E+00 -0.00000000000E+00 -0.45593999997E+02  0.45594000000E+02  0.51100000000E-03 0.  1.
         23    2    1    2    0    0  0.00000000000E+00  0.00000000000E+00  0.00000000000E+00  0.91188000000E+02  0.91188000000E+02 0.  0.
    9900012    2    3    3    0    0  0.45219908764E+01 -0.11011257619E+02  0.41736400651E+02  0.47787270338E+02  0.19999996780E+02 0.  0.
        -12    1    3    3    0    0 -0.45219908764E+01  0.11011257619E+02 -0.41736400651E+02  0.43400729662E+02  0.00000000000E+00 0.  1.
         11    1    4    4    0    0 -0.54603865086E+01 -0.80305204622E+01  0.15335253336E+02  0.18151448285E+02  0.51100000000E-03 0. -1.
        -11    1    4    4    0    0  0.89199515497E+01  0.91056914239E+00  0.14284652547E+02  0.16865526095E+02  0.51100000000E-03 0.  1.
        -12    1    4    4    0    0  0.10624258353E+01 -0.38913062997E+01  0.12116494769E+02  0.12770295958E+02  0.00000000000E+00 0.  1.
</event>
<event>
 8    1  0.5331800E-011  0.9118800E+02  0.7816164E-02  0.1184000E+00
        -11   -1    0    0    0    0  0.00000000000E+00  0.00000000000E+00  0.45593999997E+02  0.45594000000E+02  0.51100000000E-03 0. -1.
         11   -1    0    0    0    0 -0.00000000000E+00 -0.00000000000E+00 -0.45593999997E+02  0.45594000000E+02  0.51100000000E-03 0.  1.
         23    2    1    2    0    0  0.17763568394E-14 -0.17763568394E-14 -0.71054273576E-14  0.91188000000E+02  0.91188000000E+02 0.  0.
    9900012    2    3    3    0    0 -0.94759727521E+01  0.13146805008E+02  0.40261528948E+02  0.47787271265E+02  0.20000001004E+02 0.  0.
        -12    1    3    3    0    0  0.94759727521E+01 -0.13146805008E+02 -0.40261528948E+02  0.43400728735E+02  0.00000000000E+00 0.  1.
         11    1    4    4    0    0 -0.60362856898E+01  0.12172825128E+02  0.28781032199E+02  0.31827067588E+02  0.51100000000E-03 0. -1.
        -11    1    4    4    0    0  0.37184367349E+01  0.10559813150E+01  0.32328740984E+01  0.50391808349E+01  0.51100000000E-03 0.  1.
        -12    1    4    4    0    0 -0.71581237972E+01 -0.82001434997E-01  0.82476226507E+01  0.10921022842E+02  0.00000000000E+00 0.  1.
</event>
<event>
 8    1  0.5331800E-011  0.9118800E+02  0.7816164E-02  0.1184000E+00
        -11   -1    0    0    0    0  0.00000000000E+00  0.00000000000E+00  0.45593999997E+02  0.45594000000E+02  0.51100000000E-03 0. -1.
         11   -1    0    0    0    0 -0.00000000000E+00 -0.00000000000E+00 -0.45593999997E+02  0.45594000000E+02  0.51100000000E-03 0.  1.
         23    2    1    2    0    0  0.88817841970E-15  0.00000000000E+00  0.35527136788E-14  0.91188000000E+02  0.91188000000E+02 0.  0.
    9900012    2    3    3    0    0  0.70239320434E+01 -0.36755347651E+02  0.21984818287E+02  0.47787269160E+02  0.19999991409E+02 0.  0.
        -12    1    3    3    0    0 -0.70239320434E+01  0.36755347651E+02 -0.21984818287E+02  0.43400730840E+02  0.00000000000E+00 0.  1.
         11    1    4    4    0    0 -0.54281565688E+01 -0.16280667046E+02  0.11450014535E+02  0.20630749776E+02  0.51100000000E-03 0. -1.
        -11    1    4    4    0    0  0.10066501741E+02 -0.16617320017E+02  0.11418809569E+02  0.22535727059E+02  0.51100000000E-03 0.  1.
         12    1    4    4    0    0  0.23855868710E+01 -0.38573605886E+01 -0.88400581718E+00  0.46207923253E+01  0.00000000000E+00 0. -1.
</event>
<event>
 8    1  0.5331800E-011  0.9118800E+02  0.7816164E-02  0.1184000E+00
        -11   -1    0    0    0    0  0.00000000000E+00  0.00000000000E+00  0.45593999997E+02  0.45594000000E+02  0.51100000000E-03 0. -1.
         11   -1    0    0    0    0 -0.00000000000E+00 -0.00000000000E+00 -0.45593999997E+02  0.45594000000E+02  0.51100000000E-03 0.  1.
         23    2    1    2    0    0  0.22204460493E-15  0.00000000000E+00  0.00000000000E+00  0.91188000000E+02  0.91188000000E+02 0.  0.
    9900012    2    3    3    0    0 -0.28328303605E+00  0.52676404817E+01  0.43078944704E+02  0.47787265417E+02  0.19999974341E+02 0.  0.
        -12    1    3    3    0    0  0.28328303605E+00 -0.52676404817E+01 -0.43078944704E+02  0.43400734583E+02  0.00000000000E+00 0.  1.
         11    1    4    4    0    0 -0.35947720910E+01 -0.22504926452E-01  0.12154475388E+02  0.12674942409E+02  0.51100000000E-03 0. -1.
        -11    1    4    4    0    0  0.13900159492E+01  0.68625125267E+01  0.31736784699E+02  0.32499995782E+02  0.51100000000E-03 0.  1.
        -12    1    4    4    0    0  0.19214731057E+01 -0.15723671185E+01 -0.81231538283E+00  0.26123272254E+01  0.00000000000E+00 0.  1.
</event>
<event>
 8    1  0.5331800E-011  0.9118800E+02  0.7816164E-02  0.1184000E+00
        -11   -1    0    0    0    0  0.00000000000E+00  0.00000000000E+00  0.45593999997E+02  0.45594000000E+02  0.51100000000E-03 0.  1.
         11   -1    0    0    0    0 -0.00000000000E+00 -0.00000000000E+00 -0.45593999997E+02  0.45594000000E+02  0.51100000000E-03 0. -1.
         23    2    1    2    0    0  0.00000000000E+00  0.00000000000E+00  0.44408920985E-15  0.91188000000E+02  0.91188000000E+02 0.  0.
    9900012    2    3    3    0    0  0.40763004538E+02  0.14518449157E+02 -0.33489261915E+01  0.47787271763E+02  0.20000003276E+02 0.  0.
         12    1    3    3    0    0 -0.40763004538E+02 -0.14518449157E+02  0.33489261915E+01  0.43400728237E+02  0.00000000000E+00 0. -1.
         11    1    4    4    0    0  0.34341776844E+02  0.11794591447E+02  0.28694325943E+01  0.36423943607E+02  0.51100000000E-03 0. -1.
        -11    1    4    4    0    0  0.76896235272E+01  0.16916055393E+01 -0.52373003232E+01  0.94562759175E+01  0.51100000000E-03 0.  1.
         12    1    4    4    0    0 -0.12683958334E+01  0.10322521706E+01 -0.98105846272E+00  0.19070522387E+01  0.00000000000E+00 0. -1.
</event>
<event>
 8    1  0.8001058E-011  0.9118800E+02  0.7816164E-02  0.1184000E+00
        -11   -1    0    0    0    0  0.00000000000E+00  0.00000000000E+00  0.45593999997E+02  0.45594000000E+02  0.51100000000E-03 0. -1.
         11   -1    0    0    0    0 -0.00000000000E+00 -0.00000000000E+00 -0.45593999997E+02  0.45594000000E+02  0.51100000000E-03 0.  1.
         23    2    1    2    0    0  0.00000000000E+00  0.00000000000E+00 -0.71054273576E-14  0.91188000000E+02  0.91188000000E+02 0.  0.
    9900012    2    3    3    0    0  0.15853821638E+02  0.73420787035E+01 -0.39728750718E+02  0.47787269432E+02  0.19999992648E+02 0.  0.
         12    1    3    3    0    0 -0.15853821638E+02 -0.73420787035E+01  0.39728750718E+02  0.43400730568E+02  0.00000000000E+00 0. -1.
         11    1    4    4    0    0  0.32629714680E+01  0.38355580922E-01 -0.11335767012E+01  0.34544826458E+01  0.51100000000E-03 0. -1.
        -11    1    4    4    0    0  0.46752555099E+00  0.61994525894E+01 -0.33877153952E+01  0.70801418354E+01  0.51100000000E-03 0.  1.
        -12    1    4    4    0    0  0.12123324619E+02  0.11042705332E+01 -0.35207458622E+02  0.37252644951E+02  0.00000000000E+00 0.  1.
</event>
<event>
 8    1  0.5331800E-011  0.9118800E+02  0.7816164E-02  0.1184000E+00
        -11   -1    0    0    0    0  0.00000000000E+00  0.00000000000E+00  0.45593999997E+02  0.45594000000E+02  0.51100000000E-03 0. -1.
         11   -1    0    0    0    0 -0.00000000000E+00 -0.00000000000E+00 -0.45593999997E+02  0.45594000000E+02  0.51100000000E-03 0.  1.
         23    2    1    2    0    0 -0.35527136788E-14  0.00000000000E+00  0.00000000000E+00  0.91188000000E+02  0.91188000000E+02 0.  0.
    9900012    2    3    3    0    0  0.19347641508E+02  0.34872417107E+02 -0.17123280054E+02  0.47787269285E+02  0.19999991977E+02 0.  0.
         12    1    3    3    0    0 -0.19347641508E+02 -0.34872417107E+02  0.17123280054E+02  0.43400730715E+02  0.00000000000E+00 0. -1.
         11    1    4    4    0    0  0.47919659073E+01 -0.77150870838E+00 -0.53717089986E+01  0.72397113735E+01  0.51100000000E-03 0. -1.
        -11    1    4    4    0    0  0.12298067184E+02  0.26710158568E+02 -0.10617165734E+02  0.31263384904E+02  0.51100000000E-03 0.  1.
         12    1    4    4    0    0  0.22576084168E+01  0.89337672472E+01 -0.11344053218E+01  0.92841730071E+01  0.00000000000E+00 0. -1.
</event>
<event>
 8    1  0.5331800E-011  0.9118800E+02  0.7816164E-02  0.1184000E+00
        -11   -1    0    0    0    0  0.00000000000E+00  0.00000000000E+00  0.45593999997E+02  0.45594000000E+02  0.51100000000E-03 0. -1.
         11   -1    0    0    0    0 -0.00000000000E+00 -0.00000000000E+00 -0.45593999997E+02  0.45594000000E+02  0.51100000000E-03 0.  1.
         23    2    1    2    0    0 -0.17763568394E-14  0.88817841970E-15  0.71054273576E-14  0.91188000000E+02  0.91188000000E+02 0.  0.
    9900012    2    3    3    0    0  0.11068302055E+02 -0.16386278210E+01 -0.41933650981E+02  0.47787268484E+02  0.19999988327E+02 0.  0.
         12    1    3    3    0    0 -0.11068302055E+02  0.16386278210E+01  0.41933650981E+02  0.43400731516E+02  0.00000000000E+00 0. -1.
         11    1    4    4    0    0  0.90213697204E+01 -0.57568855644E+01 -0.20485410334E+02  0.23112310137E+02  0.51100000000E-03 0. -1.
        -11    1    4    4    0    0  0.72193608002E+00  0.69594994241E+01 -0.70250775204E+01  0.99150158026E+01  0.51100000000E-03 0.  1.
        -12    1    4    4    0    0  0.13249962551E+01 -0.28412416807E+01 -0.14423163126E+02  0.14759942545E+02  0.00000000000E+00 0.  1.
</event>
<event>
 8    1  0.5331800E-011  0.9118800E+02  0.7816164E-02  0.1184000E+00
        -11   -1    0    0    0    0  0.00000000000E+00  0.00000000000E+00  0.45593999997E+02  0.45594000000E+02  0.51100000000E-03 0. -1.
         11   -1    0    0    0    0 -0.00000000000E+00 -0.00000000000E+00 -0.45593999997E+02  0.45594000000E+02  0.51100000000E-03 0.  1.
         23    2    1    2    0    0  0.00000000000E+00  0.00000000000E+00  0.00000000000E+00  0.91188000000E+02  0.91188000000E+02 0.  0.
    9900012    2    3    3    0    0  0.21048751919E+02 -0.12409113564E+02 -0.35869030556E+02  0.47787269478E+02  0.19999992858E+02 0.  0.
         12    1    3    3    0    0 -0.21048751919E+02  0.12409113564E+02  0.35869030556E+02  0.43400730522E+02  0.00000000000E+00 0. -1.
         11    1    4    4    0    0  0.16601256418E+02 -0.89166654601E+01 -0.20134699743E+02  0.27577432288E+02  0.51100000000E-03 0. -1.
        -11    1    4    4    0    0 -0.32072970842E+01  0.15028558241E+01 -0.45052121656E+01  0.57308173180E+01  0.51100000000E-03 0.  1.
        -12    1    4    4    0    0  0.76547925853E+01 -0.49953039278E+01 -0.11229118648E+02  0.14479019872E+02  0.00000000000E+00 0.  1.
</event>
<event>
 8    1  0.5331800E-011  0.9118800E+02  0.7816164E-02  0.1184000E+00
        -11   -1    0    0    0    0  0.00000000000E+00  0.00000000000E+00  0.45593999997E+02  0.45594000000E+02  0.51100000000E-03 0.  1.
         11   -1    0    0    0    0 -0.00000000000E+00 -0.00000000000E+00 -0.45593999997E+02  0.45594000000E+02  0.51100000000E-03 0. -1.
         23    2    1    2    0    0  0.00000000000E+00  0.17763568394E-14  0.35527136788E-14  0.91188000000E+02  0.91188000000E+02 0.  0.
    9900012    2    3    3    0    0  0.38284468142E+02 -0.11049651591E+02 -0.17199640784E+02  0.47787274842E+02  0.20000017314E+02 0.  0.
         12    1    3    3    0    0 -0.38284468142E+02  0.11049651591E+02  0.17199640784E+02  0.43400725158E+02  0.00000000000E+00 0. -1.
         11    1    4    4    0    0 -0.47892740412E-01 -0.17375482700E+01 -0.12576009240E+01  0.21454435556E+01  0.51100000000E-03 0. -1.
        -11    1    4    4    0    0  0.80617191940E+01 -0.95343112449E+01 -0.51036807504E+01  0.13488586462E+02  0.51100000000E-03 0.  1.
        -12    1    4    4    0    0  0.30270641688E+02  0.22220792405E+00 -0.10838359109E+02  0.32153244824E+02  0.00000000000E+00 0.  1.
</event>
<event>
 8    1  0.5331800E-011  0.9118800E+02  0.7816164E-02  0.1184000E+00
        -11   -1    0    0    0    0  0.00000000000E+00  0.00000000000E+00  0.45593999997E+02  0.45594000000E+02  0.51100000000E-03 0. -1.
         11   -1    0    0    0    0 -0.00000000000E+00 -0.00000000000E+00 -0.45593999997E+02  0.45594000000E+02  0.51100000000E-03 0.  1.
         23    2    1    2    0    0  0.00000000000E+00  0.00000000000E+00  0.00000000000E+00  0.91188000000E+02  0.91188000000E+02 0.  0.
    9900012    2    3    3    0    0  0.29964473475E+02  0.21037316100E+01 -0.31326144987E+02  0.47787277459E+02  0.20000029248E+02 0.  0.
         12    1    3    3    0    0 -0.29964473475E+02 -0.21037316100E+01  0.31326144987E+02  0.43400722541E+02  0.00000000000E+00 0. -1.
         11    1    4    4    0    0  0.10049447821E+02  0.17102660170E+01 -0.75067077774E-01  0.10194216335E+02  0.51100000000E-03 0. -1.
        -11    1    4    4    0    0  0.18584204166E+02  0.62123897275E+00 -0.24769523602E+02  0.30972372884E+02  0.51100000000E-03 0.  1.
        -12    1    4    4    0    0  0.13308214886E+01 -0.22777337979E+00 -0.64815543068E+01  0.66206882405E+01  0.00000000000E+00 0.  1.
</event>
<event>
 8    1  0.5331800E-011  0.9118800E+02  0.7816164E-02  0.1184000E+00
        -11   -1    0    0    0    0  0.00000000000E+00  0.00000000000E+00  0.45593999997E+02  0.45594000000E+02  0.51100000000E-03 0. -1.
         11   -1    0    0    0    0 -0.00000000000E+00 -0.00000000000E+00 -0.45593999997E+02  0.45594000000E+02  0.51100000000E-03 0.  1.
         23    2    1    2    0    0  0.00000000000E+00  0.00000000000E+00  0.00000000000E+00  0.91188000000E+02  0.91188000000E+02 0.  0.
    9900012    2    3    3    0    0 -0.28444746868E+02  0.66877007406E+01  0.32090412984E+02  0.47787267620E+02  0.19999984388E+02 0.  0.
        -12    1    3    3    0    0  0.28444746868E+02 -0.66877007406E+01 -0.32090412984E+02  0.43400732380E+02  0.00000000000E+00 0.  1.
         11    1    4    4    0    0 -0.70880912106E+01 -0.42666184449E+01  0.34624299730E+01  0.89684720852E+01  0.51100000000E-03 0. -1.
        -11    1    4    4    0    0 -0.10385011379E+02  0.10746258810E+02  0.19347640491E+02  0.24447121151E+02  0.51100000000E-03 0.  1.
        -12    1    4    4    0    0 -0.10971644279E+02  0.20806037590E+00  0.92803425201E+01  0.14371674384E+02  0.00000000000E+00 0.  1.
</event>
<event>
 8    1  0.5331800E-011  0.9118800E+02  0.7816164E-02  0.1184000E+00
        -11   -1    0    0    0    0  0.00000000000E+00  0.00000000000E+00  0.45593999997E+02  0.45594000000E+02  0.51100000000E-03 0. -1.
         11   -1    0    0    0    0 -0.00000000000E+00 -0.00000000000E+00 -0.45593999997E+02  0.45594000000E+02  0.51100000000E-03 0.  1.
         23    2    1    2    0    0  0.00000000000E+00  0.00000000000E+00  0.00000000000E+00  0.91188000000E+02  0.91188000000E+02 0.  0.
    9900012    2    3    3    0    0  0.33820504520E+02  0.13482275024E+02 -0.23622549656E+02  0.47787272839E+02  0.20000008183E+02 0.  0.
         12    1    3    3    0    0 -0.33820504520E+02 -0.13482275024E+02  0.23622549656E+02  0.43400727161E+02  0.00000000000E+00 0. -1.
         11    1    4    4    0    0  0.16100897531E+02  0.78370954297E+01 -0.42033542677E+01  0.18393671559E+02  0.51100000000E-03 0. -1.
        -11    1    4    4    0    0  0.14389046763E+02 -0.10247965707E+01 -0.14550826866E+02  0.20489544590E+02  0.51100000000E-03 0.  1.
        -12    1    4    4    0    0  0.33305602261E+01  0.66699761654E+01 -0.48683685220E+01  0.89040566896E+01  0.00000000000E+00 0.  1.
</event>
<event>
 8    1  0.5331800E-011  0.9118800E+02  0.7816164E-02  0.1184000E+00
        -11   -1    0    0    0    0  0.00000000000E+00  0.00000000000E+00  0.45593999997E+02  0.45594000000E+02  0.51100000000E-03 0. -1.
         11   -1    0    0    0    0 -0.00000000000E+00 -0.00000000000E+00 -0.45593999997E+02  0.45594000000E+02  0.51100000000E-03 0.  1.
         23    2    1    2    0    0  0.00000000000E+00 -0.63837823916E-15  0.00000000000E+00  0.91188000000E+02  0.91188000000E+02 0.  0.
    9900012    2    3    3    0    0 -0.41874488193E+02  0.21429980330E+00  0.11406345514E+02  0.47787269548E+02  0.19999993175E+02 0.  0.
        -12    1    3    3    0    0  0.41874488193E+02 -0.21429980330E+00 -0.11406345514E+02  0.43400730452E+02  0.00000000000E+00 0.  1.
         11    1    4    4    0    0 -0.86866334284E+01  0.45107938811E+01  0.87371862434E+01  0.13120338619E+02  0.51100000000E-03 0. -1.
        -11    1    4    4    0    0 -0.10869471707E+02 -0.53727995433E+00 -0.30899976768E+01  0.11312920527E+02  0.51100000000E-03 0.  1.
         12    1    4    4    0    0 -0.22318383057E+02 -0.37592141235E+01  0.57591569472E+01  0.23354010402E+02  0.00000000000E+00 0. -1.
</event>
<event>
 8    1  0.5331800E-011  0.9118800E+02  0.7816164E-02  0.1184000E+00
        -11   -1    0    0    0    0  0.00000000000E+00  0.00000000000E+00  0.45593999997E+02  0.45594000000E+02  0.51100000000E-03 0.  1.
         11   -1    0    0    0    0 -0.00000000000E+00 -0.00000000000E+00 -0.45593999997E+02  0.45594000000E+02  0.51100000000E-03 0. -1.
         23    2    1    2    0    0  0.17763568394E-14  0.00000000000E+00  0.35527136788E-14  0.91188000000E+02  0.91188000000E+02 0.  0.
    9900012    2    3    3    0    0 -0.99443582900E+01 -0.36174713254E+02 -0.21820249540E+02  0.47787269237E+02  0.19999991758E+02 0.  0.
         12    1    3    3    0    0  0.99443582900E+01  0.36174713254E+02  0.21820249540E+02  0.43400730763E+02  0.00000000000E+00 0. -1.
         11    1    4    4    0    0  0.21487316159E+01  0.15284270032E+01 -0.82583462709E+00  0.27631756647E+01  0.51100000000E-03 0. -1.
        -11    1    4    4    0    0 -0.90612256202E+01 -0.24255808882E+02 -0.15546530918E+02  0.30201733363E+02  0.51100000000E-03 0.  1.
         12    1    4    4    0    0 -0.30318642857E+01 -0.13447331375E+02 -0.54478839944E+01  0.14822360209E+02  0.00000000000E+00 0. -1.
</event>
<event>
 8    1  0.5331800E-011  0.9118800E+02  0.7816164E-02  0.1184000E+00
        -11   -1    0    0    0    0  0.00000000000E+00  0.00000000000E+00  0.45593999997E+02  0.45594000000E+02  0.51100000000E-03 0. -1.
         11   -1    0    0    0    0 -0.00000000000E+00 -0.00000000000E+00 -0.45593999997E+02  0.45594000000E+02  0.51100000000E-03 0.  1.
         23    2    1    2    0    0  0.71054273576E-14  0.00000000000E+00 -0.88817841970E-15  0.91188000000E+02  0.91188000000E+02 0.  0.
    9900012    2    3    3    0    0 -0.42174768594E+02 -0.71626315104E+01  0.73217789475E+01  0.47787276008E+02  0.20000022630E+02 0.  0.
        -12    1    3    3    0    0  0.42174768594E+02  0.71626315104E+01 -0.73217789475E+01  0.43400723992E+02  0.00000000000E+00 0.  1.
         11    1    4    4    0    0 -0.11657532644E+02 -0.54749901014E+01  0.97512982179E+01  0.16154299773E+02  0.51100000000E-03 0. -1.
        -11    1    4    4    0    0 -0.19118416549E+02 -0.17198310319E+01 -0.52295992280E+01  0.19895235069E+02  0.51100000000E-03 0.  1.
         12    1    4    4    0    0 -0.11398819401E+02  0.32189622872E-01  0.28000799576E+01  0.11737741166E+02  0.00000000000E+00 0. -1.
</event>
<event>
 8    1  0.5331800E-011  0.9118800E+02  0.7816164E-02  0.1184000E+00
        -11   -1    0    0    0    0  0.00000000000E+00  0.00000000000E+00  0.45593999997E+02  0.45594000000E+02  0.51100000000E-03 0. -1.
         11   -1    0    0    0    0 -0.00000000000E+00 -0.00000000000E+00 -0.45593999997E+02  0.45594000000E+02  0.51100000000E-03 0.  1.
         23    2    1    2    0    0  0.00000000000E+00  0.00000000000E+00  0.00000000000E+00  0.91188000000E+02  0.91188000000E+02 0.  0.
    9900012    2    3    3    0    0  0.33926449812E+01  0.27336028013E+02 -0.33538863163E+02  0.47787264871E+02  0.19999971851E+02 0.  0.
         12    1    3    3    0    0 -0.33926449812E+01 -0.27336028013E+02  0.33538863163E+02  0.43400735129E+02  0.00000000000E+00 0. -1.
         11    1    4    4    0    0 -0.12918823040E-01  0.28343713925E+02 -0.28422840000E+02  0.40140056301E+02  0.51100000000E-03 0. -1.
        -11    1    4    4    0    0  0.34378250968E+01 -0.11365867127E+01 -0.58616660835E+01  0.68898185962E+01  0.51100000000E-03 0.  1.
         12    1    4    4    0    0 -0.32261292569E-01  0.12890080063E+00  0.74564291998E+00  0.75738997321E+00  0.00000000000E+00 0. -1.
</event>
<event>
 8    1  0.5331800E-011  0.9118800E+02  0.7816164E-02  0.1184000E+00
        -11   -1    0    0    0    0  0.00000000000E+00  0.00000000000E+00  0.45593999997E+02  0.45594000000E+02  0.51100000000E-03 0. -1.
         11   -1    0    0    0    0 -0.00000000000E+00 -0.00000000000E+00 -0.45593999997E+02  0.45594000000E+02  0.51100000000E-03 0.  1.
         23    2    1    2    0    0 -0.88817841970E-15  0.00000000000E+00  0.71054273576E-14  0.91188000000E+02  0.91188000000E+02 0.  0.
    9900012    2    3    3    0    0 -0.73102026801E+01  0.15332204433E+01  0.42753157102E+02  0.47787282605E+02  0.20000052711E+02 0.  0.
        -12    1    3    3    0    0  0.73102026801E+01 -0.15332204433E+01 -0.42753157102E+02  0.43400717395E+02  0.00000000000E+00 0.  1.
         11    1    4    4    0    0 -0.21926144042E+01  0.59619614288E+00  0.19545593697E+01  0.29972171021E+01  0.51100000000E-03 0.  1.
        -11    1    4    4    0    0 -0.97428966170E+01  0.52657266647E+01  0.18057788595E+02  0.21183381245E+02  0.51100000000E-03 0. -1.
        -12    1    4    4    0    0  0.46253083410E+01 -0.43287023644E+01  0.22740809138E+02  0.23606684258E+02  0.00000000000E+00 0.  1.
</event>
<event>
 8    1  0.5331800E-011  0.9118800E+02  0.7816164E-02  0.1184000E+00
        -11   -1    0    0    0    0  0.00000000000E+00  0.00000000000E+00  0.45593999997E+02  0.45594000000E+02  0.51100000000E-03 0. -1.
         11   -1    0    0    0    0 -0.00000000000E+00 -0.00000000000E+00 -0.45593999997E+02  0.45594000000E+02  0.51100000000E-03 0.  1.
         23    2    1    2    0    0  0.35527136788E-14 -0.17763568394E-14  0.00000000000E+00  0.91188000000E+02  0.91188000000E+02 0.  0.
    9900012    2    3    3    0    0  0.22908384756E+02 -0.14352810339E+02 -0.33953300725E+02  0.47787263982E+02  0.19999967800E+02 0.  0.
         12    1    3    3    0    0 -0.22908384756E+02  0.14352810339E+02  0.33953300725E+02  0.43400736018E+02  0.00000000000E+00 0. -1.
         11    1    4    4    0    0  0.25698308101E+01 -0.17499179420E+00 -0.26417916867E+01  0.36896769638E+01  0.51100000000E-03 0. -1.
        -11    1    4    4    0    0  0.22437480409E+02 -0.15711901198E+02 -0.24289970539E+02  0.36610203979E+02  0.51100000000E-03 0.  1.
        -12    1    4    4    0    0 -0.20989264622E+01  0.15340826534E+01 -0.70215384991E+01  0.74873830392E+01  0.00000000000E+00 0.  1.
</event>
<event>
 8    1  0.5331800E-011  0.9118800E+02  0.7816164E-02  0.1184000E+00
        -11   -1    0    0    0    0  0.00000000000E+00  0.00000000000E+00  0.45593999997E+02  0.45594000000E+02  0.51100000000E-03 0. -1.
         11   -1    0    0    0    0 -0.00000000000E+00 -0.00000000000E+00 -0.45593999997E+02  0.45594000000E+02  0.51100000000E-03 0.  1.
         23    2    1    2    0    0 -0.88817841970E-15  0.00000000000E+00  0.00000000000E+00  0.91188000000E+02  0.91188000000E+02 0.  0.
    9900012    2    3    3    0    0  0.55207848076E+01  0.40716070771E+02  0.13976623074E+02  0.47787268711E+02  0.19999989359E+02 0.  0.
        -12    1    3    3    0    0 -0.55207848076E+01 -0.40716070771E+02 -0.13976623074E+02  0.43400731289E+02  0.00000000000E+00 0.  1.
         11    1    4    4    0    0 -0.57227764274E+01  0.82625833852E+01  0.39060092947E+01  0.10783198186E+02  0.51100000000E-03 0. -1.
        -11    1    4    4    0    0  0.96459937365E+01  0.13529423049E+02  0.46856813616E+01  0.17264011506E+02  0.51100000000E-03 0.  1.
        -12    1    4    4    0    0  0.15975674986E+01  0.18924064337E+02  0.53849324176E+01  0.19740059019E+02  0.00000000000E+00 0.  1.
</event>
<event>
 8    1  0.5331800E-011  0.9118800E+02  0.7816164E-02  0.1184000E+00
        -11   -1    0    0    0    0  0.00000000000E+00  0.00000000000E+00  0.45593999997E+02  0.45594000000E+02  0.51100000000E-03 0. -1.
         11   -1    0    0    0    0 -0.00000000000E+00 -0.00000000000E+00 -0.45593999997E+02  0.45594000000E+02  0.51100000000E-03 0.  1.
         23    2    1    2    0    0 -0.71054273576E-14  0.00000000000E+00 -0.35527136788E-14  0.91188000000E+02  0.91188000000E+02 0.  0.
    9900012    2    3    3    0    0  0.26460508554E+02 -0.28716527150E+02  0.18942707948E+02  0.47787266954E+02  0.19999981351E+02 0.  0.
        -12    1    3    3    0    0 -0.26460508554E+02  0.28716527150E+02 -0.18942707948E+02  0.43400733046E+02  0.00000000000E+00 0.  1.
         11    1    4    4    0    0  0.29782109221E+00 -0.55091344587E+01 -0.21597815495E+01  0.59248558201E+01  0.51100000000E-03 0. -1.
        -11    1    4    4    0    0  0.83588983920E+01 -0.64154351076E+01  0.17925678884E+01  0.10688418491E+02  0.51100000000E-03 0.  1.
         12    1    4    4    0    0  0.17803789070E+02 -0.16791957584E+02  0.19309921609E+02  0.31173992643E+02  0.00000000000E+00 0. -1.
</event>
<event>
 8    1  0.5331800E-011  0.9118800E+02  0.7816164E-02  0.1184000E+00
        -11   -1    0    0    0    0  0.00000000000E+00  0.00000000000E+00  0.45593999997E+02  0.45594000000E+02  0.51100000000E-03 0. -1.
         11   -1    0    0    0    0 -0.00000000000E+00 -0.00000000000E+00 -0.45593999997E+02  0.45594000000E+02  0.51100000000E-03 0.  1.
         23    2    1    2    0    0  0.00000000000E+00  0.00000000000E+00  0.00000000000E+00  0.91188000000E+02  0.91188000000E+02 0.  0.
    9900012    2    3    3    0    0 -0.25186151860E+02 -0.58520166343E+01  0.34857352908E+02  0.47787269639E+02  0.19999993590E+02 0.  0.
        -12    1    3    3    0    0  0.25186151860E+02  0.58520166343E+01 -0.34857352908E+02  0.43400730361E+02  0.00000000000E+00 0.  1.
         11    1    4    4    0    0 -0.13078953825E+02  0.47253946484E+01  0.14283749447E+02  0.19935242317E+02  0.51100000000E-03 0. -1.
        -11    1    4    4    0    0 -0.13771636610E+02 -0.99308896688E+01  0.18346363651E+02  0.24997391944E+02  0.51100000000E-03 0.  1.
        -12    1    4    4    0    0  0.16644385749E+01 -0.64652161390E+00  0.22272398095E+01  0.28546353770E+01  0.00000000000E+00 0.  1.
</event>
<event>
 8    1  0.5331800E-011  0.9118800E+02  0.7816164E-02  0.1184000E+00
        -11   -1    0    0    0    0  0.00000000000E+00  0.00000000000E+00  0.45593999997E+02  0.45594000000E+02  0.51100000000E-03 0. -1.
         11   -1    0    0    0    0 -0.00000000000E+00 -0.00000000000E+00 -0.45593999997E+02  0.45594000000E+02  0.51100000000E-03 0.  1.
         23    2    1    2    0    0  0.00000000000E+00  0.00000000000E+00  0.00000000000E+00  0.91188000000E+02  0.91188000000E+02 0.  0.
    9900012    2    3    3    0    0 -0.34774261456E+02 -0.21215548415E+02  0.14975771474E+02  0.47787280126E+02  0.20000041407E+02 0.  0.
        -12    1    3    3    0    0  0.34774261456E+02  0.21215548415E+02 -0.14975771474E+02  0.43400719874E+02  0.00000000000E+00 0.  1.
         11    1    4    4    0    0 -0.19900029355E+02 -0.13930854932E+02  0.47167157927E+01  0.24745247940E+02  0.51100000000E-03 0. -1.
        -11    1    4    4    0    0 -0.14591897748E+01  0.91677261425E+00  0.67036426307E+01  0.69215989198E+01  0.51100000000E-03 0.  1.
        -12    1    4    4    0    0 -0.13415042326E+02 -0.82014660966E+01  0.35554130510E+01  0.16120433266E+02  0.00000000000E+00 0.  1.
</event>
<event>
 8    1  0.5331800E-011  0.9118800E+02  0.7816164E-02  0.1184000E+00
        -11   -1    0    0    0    0  0.00000000000E+00  0.00000000000E+00  0.45593999997E+02  0.45594000000E+02  0.51100000000E-03 0. -1.
         11   -1    0    0    0    0 -0.00000000000E+00 -0.00000000000E+00 -0.45593999997E+02  0.45594000000E+02  0.51100000000E-03 0.  1.
         23    2    1    2    0    0  0.00000000000E+00  0.35527136788E-14  0.00000000000E+00  0.91188000000E+02  0.91188000000E+02 0.  0.
    9900012    2    3    3    0    0 -0.19764830269E+02  0.98510453579E+01 -0.37362172311E+02  0.47787268093E+02  0.19999986545E+02 0.  0.
         12    1    3    3    0    0  0.19764830269E+02 -0.98510453579E+01  0.37362172311E+02  0.43400731907E+02  0.00000000000E+00 0. -1.
         11    1    4    4    0    0 -0.24451872476E+01 -0.29373539784E+01 -0.79949825021E+00  0.39046365751E+01  0.51100000000E-03 0. -1.
        -11    1    4    4    0    0 -0.18261912883E+02  0.13608128244E+02 -0.32905875999E+02  0.40018436901E+02  0.51100000000E-03 0.  1.
         12    1    4    4    0    0  0.94226986182E+00 -0.81972890799E+00 -0.36567980620E+01  0.38641946174E+01  0.00000000000E+00 0. -1.
</event>
<event>
 8    1  0.5331800E-011  0.9118800E+02  0.7816164E-02  0.1184000E+00
        -11   -1    0    0    0    0  0.00000000000E+00  0.00000000000E+00  0.45593999997E+02  0.45594000000E+02  0.51100000000E-03 0.  1.
         11   -1    0    0    0    0 -0.00000000000E+00 -0.00000000000E+00 -0.45593999997E+02  0.45594000000E+02  0.51100000000E-03 0. -1.
         23    2    1    2    0    0  0.35527136788E-14  0.71054273576E-14  0.17763568394E-14  0.91188000000E+02  0.91188000000E+02 0.  0.
    9900012    2    3    3    0    0 -0.24596196277E+02 -0.33036511567E+02 -0.13683537079E+02  0.47787272416E+02  0.20000006254E+02 0.  0.
         12    1    3    3    0    0  0.24596196277E+02  0.33036511567E+02  0.13683537079E+02  0.43400727584E+02  0.00000000000E+00 0. -1.
         11    1    4    4    0    0  0.20072344371E+01 -0.81456347984E+01 -0.60725440582E+01  0.10356454410E+02  0.51100000000E-03 0. -1.
        -11    1    4    4    0    0 -0.21356183256E+02 -0.21916815444E+02 -0.59428897345E+01  0.31172925771E+02  0.51100000000E-03 0.  1.
         12    1    4    4    0    0 -0.52472474576E+01 -0.29740613248E+01 -0.16681032860E+01  0.62578922344E+01  0.00000000000E+00 0. -1.
</event>
<event>
 8    1  0.5331800E-011  0.9118800E+02  0.7816164E-02  0.1184000E+00
        -11   -1    0    0    0    0  0.00000000000E+00  0.00000000000E+00  0.45593999997E+02  0.45594000000E+02  0.51100000000E-03 0.  1.
         11   -1    0    0    0    0 -0.00000000000E+00 -0.00000000000E+00 -0.45593999997E+02  0.45594000000E+02  0.51100000000E-03 0. -1.
         23    2    1    2    0    0  0.00000000000E+00  0.00000000000E+00  0.00000000000E+00  0.91188000000E+02  0.91188000000E+02 0.  0.
    9900012    2    3    3    0    0  0.13461661787E+02 -0.33953807349E+02 -0.23442391589E+02  0.47787273105E+02  0.20000009397E+02 0.  0.
         12    1    3    3    0    0 -0.13461661787E+02  0.33953807349E+02  0.23442391589E+02  0.43400726895E+02  0.00000000000E+00 0. -1.
         11    1    4    4    0    0  0.78152144539E+01 -0.89814327337E+01 -0.17433219104E+02  0.21110680697E+02  0.51100000000E-03 0. -1.
        -11    1    4    4    0    0  0.12922112826E+01 -0.10058369386E+02 -0.36857670646E+00  0.10147731459E+02  0.51100000000E-03 0.  1.
         12    1    4    4    0    0  0.43542360507E+01 -0.14914005229E+02 -0.56405957790E+01  0.16528860950E+02  0.00000000000E+00 0. -1.
</event>
<event>
 8    1  0.5331800E-011  0.9118800E+02  0.7816164E-02  0.1184000E+00
        -11   -1    0    0    0    0  0.00000000000E+00  0.00000000000E+00  0.45593999997E+02  0.45594000000E+02  0.51100000000E-03 0. -1.
         11   -1    0    0    0    0 -0.00000000000E+00 -0.00000000000E+00 -0.45593999997E+02  0.45594000000E+02  0.51100000000E-03 0.  1.
         23    2    1    2    0    0  0.00000000000E+00 -0.35527136788E-14  0.00000000000E+00  0.91188000000E+02  0.91188000000E+02 0.  0.
    9900012    2    3    3    0    0  0.50539934345E+01  0.29739307378E+02 -0.31203424985E+02  0.47787274387E+02  0.20000015240E+02 0.  0.
         12    1    3    3    0    0 -0.50539934345E+01 -0.29739307378E+02  0.31203424985E+02  0.43400725613E+02  0.00000000000E+00 0. -1.
         11    1    4    4    0    0  0.67698575131E+01  0.30434848674E+02 -0.24958512670E+02  0.39937931087E+02  0.51100000000E-03 0. -1.
        -11    1    4    4    0    0 -0.19975816427E+01  0.97910690423E+00 -0.56123573294E+01  0.60371796232E+01  0.51100000000E-03 0.  1.
         12    1    4    4    0    0  0.28171756411E+00 -0.16746482005E+01 -0.63255498542E+00  0.18121636766E+01  0.00000000000E+00 0. -1.
</event>
<event>
 8    1  0.5331800E-011  0.9118800E+02  0.7816164E-02  0.1184000E+00
        -11   -1    0    0    0    0  0.00000000000E+00  0.00000000000E+00  0.45593999997E+02  0.45594000000E+02  0.51100000000E-03 0. -1.
         11   -1    0    0    0    0 -0.00000000000E+00 -0.00000000000E+00 -0.45593999997E+02  0.45594000000E+02  0.51100000000E-03 0.  1.
         23    2    1    2    0    0  0.00000000000E+00  0.00000000000E+00  0.00000000000E+00  0.91188000000E+02  0.91188000000E+02 0.  0.
    9900012    2    3    3    0    0  0.16423711033E+02  0.25154487390E+02 -0.31323097208E+02  0.47787274907E+02  0.20000017609E+02 0.  0.
         12    1    3    3    0    0 -0.16423711033E+02 -0.25154487390E+02  0.31323097208E+02  0.43400725093E+02  0.00000000000E+00 0. -1.
         11    1    4    4    0    0  0.13544352081E+02  0.24353666194E+02 -0.29572084326E+02  0.40633221654E+02  0.51100000000E-03 0.  1.
        -11    1    4    4    0    0  0.33738713504E+01 -0.18693345008E+01  0.11554807792E+00  0.38588561756E+01  0.51100000000E-03 0. -1.
         12    1    4    4    0    0 -0.49451239863E+00  0.26701556965E+01 -0.18665609601E+01  0.32951970766E+01  0.00000000000E+00 0. -1.
</event>
<event>
 8    1  0.5331800E-011  0.9118800E+02  0.7816164E-02  0.1184000E+00
        -11   -1    0    0    0    0  0.00000000000E+00  0.00000000000E+00  0.45593999997E+02  0.45594000000E+02  0.51100000000E-03 0. -1.
         11   -1    0    0    0    0 -0.00000000000E+00 -0.00000000000E+00 -0.45593999997E+02  0.45594000000E+02  0.51100000000E-03 0.  1.
         23    2    1    2    0    0  0.00000000000E+00  0.00000000000E+00 -0.35527136788E-14  0.91188000000E+02  0.91188000000E+02 0.  0.
    9900012    2    3    3    0    0  0.29421284571E+02 -0.57311146829E+01 -0.31387327936E+02  0.47787285532E+02  0.20000066055E+02 0.  0.
         12    1    3    3    0    0 -0.29421284571E+02  0.57311146829E+01  0.31387327936E+02  0.43400714468E+02  0.00000000000E+00 0. -1.
         11    1    4    4    0    0  0.18415648429E+02 -0.58046710171E+01 -0.13502707202E+02  0.23561693800E+02  0.51100000000E-03 0. -1.
        -11    1    4    4    0    0  0.23187134462E+01  0.22680137485E+01 -0.14152741182E+02  0.14519655699E+02  0.51100000000E-03 0.  1.
        -12    1    4    4    0    0  0.86869226964E+01 -0.21944574142E+01 -0.37318795526E+01  0.97059360327E+01  0.00000000000E+00 0.  1.
</event>
<event>
 8    1  0.5331800E-011  0.9118800E+02  0.7816164E-02  0.1184000E+00
        -11   -1    0    0    0    0  0.00000000000E+00  0.00000000000E+00  0.45593999997E+02  0.45594000000E+02  0.51100000000E-03 0.  1.
         11   -1    0    0    0    0 -0.00000000000E+00 -0.00000000000E+00 -0.45593999997E+02  0.45594000000E+02  0.51100000000E-03 0. -1.
         23    2    1    2    0    0  0.00000000000E+00  0.00000000000E+00  0.00000000000E+00  0.91188000000E+02  0.91188000000E+02 0.  0.
    9900012    2    3    3    0    0 -0.27738689031E+02  0.28540920102E+02  0.17309088702E+02  0.47787267966E+02  0.19999985963E+02 0.  0.
        -12    1    3    3    0    0  0.27738689031E+02 -0.28540920102E+02 -0.17309088702E+02  0.43400732034E+02  0.00000000000E+00 0.  1.
         11    1    4    4    0    0 -0.15737686927E+02  0.23865818341E+02  0.42321391988E+01  0.28899188178E+02  0.51100000000E-03 0. -1.
        -11    1    4    4    0    0 -0.12150369639E+02  0.49715443363E+01  0.12090774378E+02  0.17847536547E+02  0.51100000000E-03 0.  1.
        -12    1    4    4    0    0  0.14936753501E+00 -0.29644257481E+00  0.98617512442E+00  0.10405432411E+01  0.00000000000E+00 0.  1.
</event>
<event>
 8    1  0.5331800E-011  0.9118800E+02  0.7816164E-02  0.1184000E+00
        -11   -1    0    0    0    0  0.00000000000E+00  0.00000000000E+00  0.45593999997E+02  0.45594000000E+02  0.51100000000E-03 0. -1.
         11   -1    0    0    0    0 -0.00000000000E+00 -0.00000000000E+00 -0.45593999997E+02  0.45594000000E+02  0.51100000000E-03 0.  1.
         23    2    1    2    0    0  0.00000000000E+00  0.00000000000E+00  0.00000000000E+00  0.91188000000E+02  0.91188000000E+02 0.  0.
    9900012    2    3    3    0    0 -0.12915766337E+02 -0.81345441530E+01 -0.40628012319E+02  0.47787271739E+02  0.20000003166E+02 0.  0.
         12    1    3    3    0    0  0.12915766337E+02  0.81345441530E+01  0.40628012319E+02  0.43400728261E+02  0.00000000000E+00 0. -1.
         11    1    4    4    0    0 -0.12599361845E+02 -0.11286939821E+02 -0.19182261091E+02  0.25575341058E+02  0.51100000000E-03 0. -1.
        -11    1    4    4    0    0  0.69809366901E+00 -0.93756831366E+00 -0.89220634940E+01  0.89983101950E+01  0.51100000000E-03 0.  1.
         12    1    4    4    0    0 -0.10144981605E+01  0.40899639815E+01 -0.12523687734E+02  0.13213620486E+02  0.00000000000E+00 0. -1.
</event>
<event>
 8    1  0.5331800E-011  0.9118800E+02  0.7816164E-02  0.1184000E+00
        -11   -1    0    0    0    0  0.00000000000E+00  0.00000000000E+00  0.45593999997E+02  0.45594000000E+02  0.51100000000E-03 0. -1.
         11   -1    0    0    0    0 -0.00000000000E+00 -0.00000000000E+00 -0.45593999997E+02  0.45594000000E+02  0.51100000000E-03 0.  1.
         23    2    1    2    0    0  0.00000000000E+00  0.35527136788E-14  0.00000000000E+00  0.91188000000E+02  0.91188000000E+02 0.  0.
    9900012    2    3    3    0    0 -0.26620632120E+01  0.26231342704E+02  0.34473952629E+02  0.47787270392E+02  0.19999997027E+02 0.  0.
        -12    1    3    3    0    0  0.26620632120E+01 -0.26231342704E+02 -0.34473952629E+02  0.43400729608E+02  0.00000000000E+00 0.  1.
         11    1    4    4    0    0 -0.23030767097E+00  0.13541095806E+02  0.22787594491E+02  0.26508277579E+02  0.51100000000E-03 0. -1.
        -11    1    4    4    0    0 -0.98552636758E-01  0.12675235429E+02  0.40696210185E+01  0.13312893047E+02  0.51100000000E-03 0.  1.
        -12    1    4    4    0    0 -0.23332029042E+01  0.15011469304E-01  0.76167371198E+01  0.79660997664E+01  0.00000000000E+00 0.  1.
</event>
<event>
 8    1  0.5331800E-011  0.9118800E+02  0.7816164E-02  0.1184000E+00
        -11   -1    0    0    0    0  0.00000000000E+00  0.00000000000E+00  0.45593999997E+02  0.45594000000E+02  0.51100000000E-03 0. -1.
         11   -1    0    0    0    0 -0.00000000000E+00 -0.00000000000E+00 -0.45593999997E+02  0.45594000000E+02  0.51100000000E-03 0.  1.
         23    2    1    2    0    0 -0.35527136788E-14 -0.22204460493E-15  0.00000000000E+00  0.91188000000E+02  0.91188000000E+02 0.  0.
    9900012    2    3    3    0    0  0.21499740298E+02  0.15856469816E+01 -0.37667897330E+02  0.47787267305E+02  0.19999982950E+02 0.  0.
         12    1    3    3    0    0 -0.21499740298E+02 -0.15856469816E+01  0.37667897330E+02  0.43400732695E+02  0.00000000000E+00 0. -1.
         11    1    4    4    0    0  0.77572038476E+01 -0.38913134853E+01 -0.16870703613E+01  0.88409693382E+01  0.51100000000E-03 0. -1.
        -11    1    4    4    0    0  0.10267584012E+02  0.45950836848E+01 -0.25553727301E+02  0.27920083359E+02  0.51100000000E-03 0.  1.
         12    1    4    4    0    0  0.34749524388E+01  0.88187678217E+00 -0.10427099667E+02  0.11026214608E+02  0.00000000000E+00 0. -1.
</event>
<event>
 8    1  0.5331800E-011  0.9118800E+02  0.7816164E-02  0.1184000E+00
        -11   -1    0    0    0    0  0.00000000000E+00  0.00000000000E+00  0.45593999997E+02  0.45594000000E+02  0.51100000000E-03 0. -1.
         11   -1    0    0    0    0 -0.00000000000E+00 -0.00000000000E+00 -0.45593999997E+02  0.45594000000E+02  0.51100000000E-03 0.  1.
         23    2    1    2    0    0  0.00000000000E+00  0.17763568394E-14  0.71054273576E-14  0.91188000000E+02  0.91188000000E+02 0.  0.
    9900012    2    3    3    0    0 -0.26817657939E+02  0.82871918000E+01  0.33102252887E+02  0.47787268768E+02  0.19999989620E+02 0.  0.
        -12    1    3    3    0    0  0.26817657939E+02 -0.82871918000E+01 -0.33102252887E+02  0.43400731232E+02  0.00000000000E+00 0.  1.
         11    1    4    4    0    0 -0.14237821238E+02  0.10167326793E+02  0.85097948729E+01  0.19455248566E+02  0.51100000000E-03 0. -1.
        -11    1    4    4    0    0 -0.10976165456E+02 -0.37435396134E+01  0.20734846656E+02  0.23757612739E+02  0.51100000000E-03 0.  1.
         12    1    4    4    0    0 -0.16036712452E+01  0.18634046204E+01  0.38576113583E+01  0.45744074626E+01  0.00000000000E+00 0. -1.
</event>
<event>
 8    1  0.5331800E-011  0.9118800E+02  0.7816164E-02  0.1184000E+00
        -11   -1    0    0    0    0  0.00000000000E+00  0.00000000000E+00  0.45593999997E+02  0.45594000000E+02  0.51100000000E-03 0. -1.
         11   -1    0    0    0    0 -0.00000000000E+00 -0.00000000000E+00 -0.45593999997E+02  0.45594000000E+02  0.51100000000E-03 0.  1.
         23    2    1    2    0    0  0.00000000000E+00  0.35527136788E-14 -0.35527136788E-14  0.91188000000E+02  0.91188000000E+02 0.  0.
    9900012    2    3    3    0    0 -0.32157522182E+02  0.22704442123E+02 -0.18276361133E+02  0.47787270729E+02  0.19999998563E+02 0.  0.
         12    1    3    3    0    0  0.32157522182E+02 -0.22704442123E+02  0.18276361133E+02  0.43400729271E+02  0.00000000000E+00 0. -1.
         11    1    4    4    0    0  0.46208404992E+00  0.98017889686E+00  0.52548115211E+00  0.12043268001E+01  0.51100000000E-03 0. -1.
        -11    1    4    4    0    0 -0.17482967250E+02  0.79658972362E+01 -0.63102355959E+00  0.19222587069E+02  0.51100000000E-03 0.  1.
        -12    1    4    4    0    0 -0.15136638982E+02  0.13758365990E+02 -0.18170818725E+02  0.27360356860E+02  0.00000000000E+00 0.  1.
</event>
<event>
 8    1  0.5331800E-011  0.9118800E+02  0.7816164E-02  0.1184000E+00
        -11   -1    0    0    0    0  0.00000000000E+00  0.00000000000E+00  0.45593999997E+02  0.45594000000E+02  0.51100000000E-03 0.  1.
         11   -1    0    0    0    0 -0.00000000000E+00 -0.00000000000E+00 -0.45593999997E+02  0.45594000000E+02  0.51100000000E-03 0. -1.
         23    2    1    2    0    0  0.71054273576E-14  0.00000000000E+00  0.00000000000E+00  0.91188000000E+02  0.91188000000E+02 0.  0.
    9900012    2    3    3    0    0  0.32958985229E+02  0.17198182367E+02 -0.22395336662E+02  0.47787270879E+02  0.19999999245E+02 0.  0.
         12    1    3    3    0    0 -0.32958985229E+02 -0.17198182367E+02  0.22395336662E+02  0.43400729121E+02  0.00000000000E+00 0. -1.
         11    1    4    4    0    0 -0.19720037980E+01  0.22158995919E+01 -0.26169810054E+01  0.39557047191E+01  0.51100000000E-03 0. -1.
        -11    1    4    4    0    0  0.22502107435E+02  0.14310625839E+02 -0.13317553959E+02  0.29807651613E+02  0.51100000000E-03 0.  1.
        -12    1    4    4    0    0  0.12428881591E+02  0.67165693580E+00 -0.64608016981E+01  0.14023914547E+02  0.00000000000E+00 0.  1.
</event>
<event>
 8    1  0.5331800E-011  0.9118800E+02  0.7816164E-02  0.1184000E+00
        -11   -1    0    0    0    0  0.00000000000E+00  0.00000000000E+00  0.45593999997E+02  0.45594000000E+02  0.51100000000E-03 0. -1.
         11   -1    0    0    0    0 -0.00000000000E+00 -0.00000000000E+00 -0.45593999997E+02  0.45594000000E+02  0.51100000000E-03 0.  1.
         23    2    1    2    0    0 -0.88817841970E-15  0.00000000000E+00  0.00000000000E+00  0.91188000000E+02  0.91188000000E+02 0.  0.
    9900012    2    3    3    0    0  0.67659699359E+01 -0.21009660059E+02 -0.37368942147E+02  0.47787285696E+02  0.20000066802E+02 0.  0.
         12    1    3    3    0    0 -0.67659699359E+01  0.21009660059E+02  0.37368942147E+02  0.43400714304E+02  0.00000000000E+00 0. -1.
         11    1    4    4    0    0  0.10526280732E+02 -0.83113098591E+01 -0.10652155591E+02  0.17127430532E+02  0.51100000000E-03 0. -1.
        -11    1    4    4    0    0 -0.27680079723E+01 -0.11493497230E+02 -0.26582985089E+02  0.29093254256E+02  0.51100000000E-03 0.  1.
         12    1    4    4    0    0 -0.99230282378E+00 -0.12048529695E+01 -0.13380146637E+00  0.15666009079E+01  0.00000000000E+00 0. -1.
</event>
<event>
 8    1  0.5331800E-011  0.9118800E+02  0.7816164E-02  0.1184000E+00
        -11   -1    0    0    0    0  0.00000000000E+00  0.00000000000E+00  0.45593999997E+02  0.45594000000E+02  0.51100000000E-03 0. -1.
         11   -1    0    0    0    0 -0.00000000000E+00 -0.00000000000E+00 -0.45593999997E+02  0.45594000000E+02  0.51100000000E-03 0.  1.
         23    2    1    2    0    0 -0.52735593670E-15  0.00000000000E+00  0.00000000000E+00  0.91188000000E+02  0.91188000000E+02 0.  0.
    9900012    2    3    3    0    0  0.54007145851E-01  0.27362943024E+01 -0.43314355585E+02  0.47787267022E+02  0.19999981662E+02 0.  0.
         12    1    3    3    0    0 -0.54007145851E-01 -0.27362943024E+01  0.43314355585E+02  0.43400732978E+02  0.00000000000E+00 0. -1.
         11    1    4    4    0    0 -0.76460017825E+01  0.56425272074E+01 -0.18134536888E+02  0.20473418986E+02  0.51100000000E-03 0. -1.
        -11    1    4    4    0    0  0.46007789121E+01 -0.76373588080E+00 -0.21664804452E+02  0.22161096798E+02  0.51100000000E-03 0.  1.
         12    1    4    4    0    0  0.30992300162E+01 -0.21424970241E+01 -0.35150142447E+01  0.51527512391E+01  0.00000000000E+00 0. -1.
</event>
<event>
 8    1  0.5331800E-011  0.9118800E+02  0.7816164E-02  0.1184000E+00
        -11   -1    0    0    0    0  0.00000000000E+00  0.00000000000E+00  0.45593999997E+02  0.45594000000E+02  0.51100000000E-03 0. -1.
         11   -1    0    0    0    0 -0.00000000000E+00 -0.00000000000E+00 -0.45593999997E+02  0.45594000000E+02  0.51100000000E-03 0.  1.
         23    2    1    2    0    0 -0.22204460493E-15  0.35527136788E-14  0.00000000000E+00  0.91188000000E+02  0.91188000000E+02 0.  0.
    9900012    2    3    3    0    0 -0.16268096404E+01 -0.26932868530E+02 -0.33994054133E+02  0.47787289945E+02  0.20000086175E+02 0.  0.
         12    1    3    3    0    0  0.16268096404E+01  0.26932868530E+02  0.33994054133E+02  0.43400710055E+02  0.00000000000E+00 0. -1.
         11    1    4    4    0    0 -0.41212929246E+01 -0.15575538375E+02 -0.67359640369E+01  0.17462979780E+02  0.51100000000E-03 0. -1.
        -11    1    4    4    0    0 -0.12523720763E+00 -0.95990957295E+01 -0.16258054790E+02  0.18880748635E+02  0.51100000000E-03 0.  1.
         12    1    4    4    0    0  0.26197204919E+01 -0.17582344256E+01 -0.11000035306E+02  0.11443561530E+02  0.00000000000E+00 0. -1.
</event>
<event>
 8    1  0.5347368E-011  0.9118800E+02  0.7816164E-02  0.1184000E+00
        -11   -1    0    0    0    0  0.00000000000E+00  0.00000000000E+00  0.45593999997E+02  0.45594000000E+02  0.51100000000E-03 0. -1.
         11   -1    0    0    0    0 -0.00000000000E+00 -0.00000000000E+00 -0.45593999997E+02  0.45594000000E+02  0.51100000000E-03 0.  1.
         23    2    1    2    0    0  0.00000000000E+00  0.00000000000E+00  0.00000000000E+00  0.91188000000E+02  0.91188000000E+02 0.  0.
    9900012    2    3    3    0    0 -0.15908957730E+02 -0.42919609929E+01 -0.40151056754E+02  0.47787271623E+02  0.20000002636E+02 0.  0.
         12    1    3    3    0    0  0.15908957730E+02  0.42919609929E+01  0.40151056754E+02  0.43400728377E+02  0.00000000000E+00 0. -1.
         11    1    4    4    0    0 -0.59268040411E+01 -0.83221942610E+01 -0.12409835944E+02  0.16074512493E+02  0.51100000000E-03 0. -1.
        -11    1    4    4    0    0 -0.53094059720E+01  0.49536868215E+01 -0.58942773212E+01  0.93526098123E+01  0.51100000000E-03 0.  1.
        -12    1    4    4    0    0 -0.46727477167E+01 -0.92345355336E+00 -0.21846943489E+02  0.22360149318E+02  0.00000000000E+00 0.  1.
</event>
<event>
 8    1  0.5331800E-011  0.9118800E+02  0.7816164E-02  0.1184000E+00
        -11   -1    0    0    0    0  0.00000000000E+00  0.00000000000E+00  0.45593999997E+02  0.45594000000E+02  0.51100000000E-03 0. -1.
         11   -1    0    0    0    0 -0.00000000000E+00 -0.00000000000E+00 -0.45593999997E+02  0.45594000000E+02  0.51100000000E-03 0.  1.
         23    2    1    2    0    0  0.00000000000E+00  0.35527136788E-14  0.00000000000E+00  0.91188000000E+02  0.91188000000E+02 0.  0.
    9900012    2    3    3    0    0  0.40146758509E+01  0.25417845658E+02  0.34949093575E+02  0.47787266806E+02  0.19999980675E+02 0.  0.
        -12    1    3    3    0    0 -0.40146758509E+01 -0.25417845658E+02 -0.34949093575E+02  0.43400733194E+02  0.00000000000E+00 0.  1.
         11    1    4    4    0    0  0.22317287009E+01  0.36063925176E+01  0.19363603043E+02  0.19822608381E+02  0.51100000000E-03 0. -1.
        -11    1    4    4    0    0 -0.13349505037E+01  0.46027184683E+01  0.41056281601E+00  0.48099555334E+01  0.51100000000E-03 0.  1.
         12    1    4    4    0    0  0.31178976537E+01  0.17208734672E+02  0.15174927716E+02  0.23154702891E+02  0.00000000000E+00 0. -1.
</event>
<event>
 8    1  0.5331800E-011  0.9118800E+02  0.7816164E-02  0.1184000E+00
        -11   -1    0    0    0    0  0.00000000000E+00  0.00000000000E+00  0.45593999997E+02  0.45594000000E+02  0.51100000000E-03 0. -1.
         11   -1    0    0    0    0 -0.00000000000E+00 -0.00000000000E+00 -0.45593999997E+02  0.45594000000E+02  0.51100000000E-03 0.  1.
         23    2    1    2    0    0  0.00000000000E+00  0.35527136788E-14  0.00000000000E+00  0.91188000000E+02  0.91188000000E+02 0.  0.
    9900012    2    3    3    0    0  0.16691016936E+02  0.27913681825E+02  0.28737780397E+02  0.47787266118E+02  0.19999977537E+02 0.  0.
        -12    1    3    3    0    0 -0.16691016936E+02 -0.27913681825E+02 -0.28737780397E+02  0.43400733882E+02  0.00000000000E+00 0.  1.
         11    1    4    4    0    0  0.18034448990E+02  0.22916837504E+02  0.23456368924E+02  0.37424911956E+02  0.51100000000E-03 0. -1.
        -11    1    4    4    0    0 -0.25830051511E+00  0.42739757812E+01 -0.61302219271E+00  0.43254346145E+01  0.51100000000E-03 0.  1.
         12    1    4    4    0    0 -0.10851315392E+01  0.72286854030E+00  0.58944336658E+01  0.60369195476E+01  0.00000000000E+00 0. -1.
</event>
<event>
 8    1  0.5331800E-011  0.9118800E+02  0.7816164E-02  0.1184000E+00
        -11   -1    0    0    0    0  0.00000000000E+00  0.00000000000E+00  0.45593999997E+02  0.45594000000E+02  0.51100000000E-03 0. -1.
         11   -1    0    0    0    0 -0.00000000000E+00 -0.00000000000E+00 -0.45593999997E+02  0.45594000000E+02  0.51100000000E-03 0.  1.
         23    2    1    2    0    0  0.35527136788E-14  0.88817841970E-15  0.00000000000E+00  0.91188000000E+02  0.91188000000E+02 0.  0.
    9900012    2    3    3    0    0  0.24422030984E+02 -0.70013998810E+01 -0.35187616868E+02  0.47787267535E+02  0.19999983997E+02 0.  0.
         12    1    3    3    0    0 -0.24422030984E+02  0.70013998810E+01  0.35187616868E+02  0.43400732465E+02  0.00000000000E+00 0. -1.
         11    1    4    4    0    0  0.19182602679E+01  0.11210545532E+01  0.10332608128E+01  0.24503293524E+01  0.51100000000E-03 0. -1.
        -11    1    4    4    0    0  0.21676545516E+02 -0.64008602887E+01 -0.23998504355E+02  0.32966222857E+02  0.51100000000E-03 0.  1.
        -12    1    4    4    0    0  0.82722520025E+00 -0.17215941455E+01 -0.12222373326E+02  0.12370715325E+02  0.00000000000E+00 0.  1.
</event>
<event>
 8    1  0.5331800E-011  0.9118800E+02  0.7816164E-02  0.1184000E+00
        -11   -1    0    0    0    0  0.00000000000E+00  0.00000000000E+00  0.45593999997E+02  0.45594000000E+02  0.51100000000E-03 0. -1.
         11   -1    0    0    0    0 -0.00000000000E+00 -0.00000000000E+00 -0.45593999997E+02  0.45594000000E+02  0.51100000000E-03 0.  1.
         23    2    1    2    0    0  0.00000000000E+00  0.71054273576E-14  0.35527136788E-14  0.91188000000E+02  0.91188000000E+02 0.  0.
    9900012    2    3    3    0    0  0.12434298742E+02  0.27064669447E+02  0.31567630809E+02  0.47787269218E+02  0.19999991675E+02 0.  0.
        -12    1    3    3    0    0 -0.12434298742E+02 -0.27064669447E+02 -0.31567630809E+02  0.43400730782E+02  0.00000000000E+00 0.  1.
         11    1    4    4    0    0  0.53668169564E+01  0.20451352432E+02  0.14250764522E+02  0.25497937765E+02  0.51100000000E-03 0. -1.
        -11    1    4    4    0    0  0.24192854279E+00 -0.98587117026E+00  0.91641019421E+01  0.92201537975E+01  0.51100000000E-03 0.  1.
        -12    1    4    4    0    0  0.68255532425E+01  0.75991881859E+01  0.81527643449E+01  0.13069177656E+02  0.00000000000E+00 0.  1.
</event>
<event>
 8    1  0.5331800E-011  0.9118800E+02  0.7816164E-02  0.1184000E+00
        -11   -1    0    0    0    0  0.00000000000E+00  0.00000000000E+00  0.45593999997E+02  0.45594000000E+02  0.51100000000E-03 0. -1.
         11   -1    0    0    0    0 -0.00000000000E+00 -0.00000000000E+00 -0.45593999997E+02  0.45594000000E+02  0.51100000000E-03 0.  1.
         23    2    1    2    0    0  0.00000000000E+00  0.00000000000E+00 -0.71054273576E-14  0.91188000000E+02  0.91188000000E+02 0.  0.
    9900012    2    3    3    0    0 -0.17712993464E+02  0.15208372007E+02  0.36586590132E+02  0.47787270812E+02  0.19999998942E+02 0.  0.
        -12    1    3    3    0    0  0.17712993464E+02 -0.15208372007E+02 -0.36586590132E+02  0.43400729188E+02  0.00000000000E+00 0.  1.
         11    1    4    4    0    0 -0.69822284094E+01 -0.15435230700E+01  0.32943252186E+01  0.78731541288E+01  0.51100000000E-03 0. -1.
        -11    1    4    4    0    0 -0.82943298983E+01  0.17579534916E+02  0.29696022467E+02  0.35492107671E+02  0.51100000000E-03 0.  1.
        -12    1    4    4    0    0 -0.24364351561E+01 -0.82763983928E+00  0.35962424465E+01  0.44220090126E+01  0.00000000000E+00 0.  1.
</event>
<event>
 8    1  0.5331800E-011  0.9118800E+02  0.7816164E-02  0.1184000E+00
        -11   -1    0    0    0    0  0.00000000000E+00  0.00000000000E+00  0.45593999997E+02  0.45594000000E+02  0.51100000000E-03 0. -1.
         11   -1    0    0    0    0 -0.00000000000E+00 -0.00000000000E+00 -0.45593999997E+02  0.45594000000E+02  0.51100000000E-03 0.  1.
         23    2    1    2    0    0  0.00000000000E+00  0.00000000000E+00  0.00000000000E+00  0.91188000000E+02  0.91188000000E+02 0.  0.
    9900012    2    3    3    0    0 -0.18716664333E+02  0.36836310147E+02  0.13281414264E+02  0.47787271505E+02  0.20000002102E+02 0.  0.
        -12    1    3    3    0    0  0.18716664333E+02 -0.36836310147E+02 -0.13281414264E+02  0.43400728495E+02  0.00000000000E+00 0.  1.
         11    1    4    4    0    0 -0.50520669339E+01  0.10424624745E+02 -0.39736895061E+01  0.12246893073E+02  0.51100000000E-03 0. -1.
        -11    1    4    4    0    0  0.13159813043E+01  0.26813630060E+01  0.20493963155E+01  0.36223666134E+01  0.51100000000E-03 0.  1.
         12    1    4    4    0    0 -0.14980578703E+02  0.23730322396E+02  0.15205707455E+02  0.31918011819E+02  0.00000000000E+00 0. -1.
</event>
<event>
 8    1  0.5331800E-011  0.9118800E+02  0.7816164E-02  0.1184000E+00
        -11   -1    0    0    0    0  0.00000000000E+00  0.00000000000E+00  0.45593999997E+02  0.45594000000E+02  0.51100000000E-03 0. -1.
         11   -1    0    0    0    0 -0.00000000000E+00 -0.00000000000E+00 -0.45593999997E+02  0.45594000000E+02  0.51100000000E-03 0.  1.
         23    2    1    2    0    0  0.00000000000E+00  0.88817841970E-15  0.00000000000E+00  0.91188000000E+02  0.91188000000E+02 0.  0.
    9900012    2    3    3    0    0 -0.59757870326E+01  0.61356725643E+01  0.42547246977E+02  0.47787254225E+02  0.19999923313E+02 0.  0.
        -12    1    3    3    0    0  0.59757870326E+01 -0.61356725643E+01 -0.42547246977E+02  0.43400745775E+02  0.00000000000E+00 0.  1.
         11    1    4    4    0    0 -0.48178817110E+01 -0.34897903072E+00  0.71497761482E+01  0.86286192276E+01  0.51100000000E-03 0. -1.
        -11    1    4    4    0    0 -0.66142163868E+00  0.15945844786E+01  0.34006653681E+02  0.34050443068E+02  0.51100000000E-03 0.  1.
        -12    1    4    4    0    0 -0.49648368295E+00  0.48900671165E+01  0.13908171477E+01  0.51081919296E+01  0.00000000000E+00 0.  1.
</event>
<event>
 8    1  0.5331800E-011  0.9118800E+02  0.7816164E-02  0.1184000E+00
        -11   -1    0    0    0    0  0.00000000000E+00  0.00000000000E+00  0.45593999997E+02  0.45594000000E+02  0.51100000000E-03 0. -1.
         11   -1    0    0    0    0 -0.00000000000E+00 -0.00000000000E+00 -0.45593999997E+02  0.45594000000E+02  0.51100000000E-03 0.  1.
         23    2    1    2    0    0  0.00000000000E+00  0.26645352591E-14  0.00000000000E+00  0.91188000000E+02  0.91188000000E+02 0.  0.
    9900012    2    3    3    0    0 -0.31021056298E+02  0.77422455849E+01 -0.29349189745E+02  0.47787271444E+02  0.20000001821E+02 0.  0.
         12    1    3    3    0    0  0.31021056298E+02 -0.77422455849E+01  0.29349189745E+02  0.43400728556E+02  0.00000000000E+00 0. -1.
         11    1    4    4    0    0 -0.10637259461E+02  0.81026083642E+01 -0.57383321856E+01  0.14551013974E+02  0.51100000000E-03 0. -1.
        -11    1    4    4    0    0 -0.19694323376E+02 -0.13414031938E+01 -0.24698247186E+02  0.31617544973E+02  0.51100000000E-03 0.  1.
        -12    1    4    4    0    0 -0.68947345975E+00  0.98104041446E+00  0.10873896264E+01  0.16187124964E+01  0.00000000000E+00 0.  1.
</event>
<event>
 8    1  0.5331800E-011  0.9118800E+02  0.7816164E-02  0.1184000E+00
        -11   -1    0    0    0    0  0.00000000000E+00  0.00000000000E+00  0.45593999997E+02  0.45594000000E+02  0.51100000000E-03 0. -1.
         11   -1    0    0    0    0 -0.00000000000E+00 -0.00000000000E+00 -0.45593999997E+02  0.45594000000E+02  0.51100000000E-03 0.  1.
         23    2    1    2    0    0  0.00000000000E+00  0.35527136788E-14  0.00000000000E+00  0.91188000000E+02  0.91188000000E+02 0.  0.
    9900012    2    3    3    0    0  0.45138079720E+01 -0.20848229366E+02 -0.37796821810E+02  0.47787275708E+02  0.20000021263E+02 0.  0.
         12    1    3    3    0    0 -0.45138079720E+01  0.20848229366E+02  0.37796821810E+02  0.43400724292E+02  0.00000000000E+00 0. -1.
         11    1    4    4    0    0  0.51081354278E+00 -0.14425983335E+01 -0.13760428736E+02  0.13845267050E+02  0.51100000000E-03 0. -1.
        -11    1    4    4    0    0  0.20500125372E+01 -0.93986241957E+01 -0.22372583424E+01  0.98763360274E+01  0.51100000000E-03 0.  1.
        -12    1    4    4    0    0  0.19529818920E+01 -0.10007006837E+02 -0.21799134732E+02  0.24065672631E+02  0.00000000000E+00 0.  1.
</event>
<event>
 8    1  0.5331800E-011  0.9118800E+02  0.7816164E-02  0.1184000E+00
        -11   -1    0    0    0    0  0.00000000000E+00  0.00000000000E+00  0.45593999997E+02  0.45594000000E+02  0.51100000000E-03 0. -1.
         11   -1    0    0    0    0 -0.00000000000E+00 -0.00000000000E+00 -0.45593999997E+02  0.45594000000E+02  0.51100000000E-03 0.  1.
         23    2    1    2    0    0  0.00000000000E+00 -0.44408920985E-15  0.35527136788E-14  0.91188000000E+02  0.91188000000E+02 0.  0.
    9900012    2    3    3    0    0  0.29469191236E+02  0.20866481547E+01 -0.31793648471E+02  0.47787269410E+02  0.19999992550E+02 0.  0.
         12    1    3    3    0    0 -0.29469191236E+02 -0.20866481547E+01  0.31793648471E+02  0.43400730590E+02  0.00000000000E+00 0. -1.
         11    1    4    4    0    0  0.32830208550E+01  0.61845007454E+01 -0.76647907063E+01  0.10381487959E+02  0.51100000000E-03 0. -1.
        -11    1    4    4    0    0  0.11373795071E+02 -0.60940651941E+01 -0.15422690177E+02  0.20108709990E+02  0.51100000000E-03 0.  1.
         12    1    4    4    0    0  0.14812375310E+02  0.19962126035E+01 -0.87061675874E+01  0.17297071462E+02  0.00000000000E+00 0. -1.
</event>
<event>
 8    1  0.5331800E-011  0.9118800E+02  0.7816164E-02  0.1184000E+00
        -11   -1    0    0    0    0  0.00000000000E+00  0.00000000000E+00  0.45593999997E+02  0.45594000000E+02  0.51100000000E-03 0. -1.
         11   -1    0    0    0    0 -0.00000000000E+00 -0.00000000000E+00 -0.45593999997E+02  0.45594000000E+02  0.51100000000E-03 0.  1.
         23    2    1    2    0    0  0.35527136788E-14  0.00000000000E+00  0.00000000000E+00  0.91188000000E+02  0.91188000000E+02 0.  0.
    9900012    2    3    3    0    0 -0.16246306237E+02 -0.17452799965E+02 -0.36264042286E+02  0.47787268947E+02  0.19999990437E+02 0.  0.
         12    1    3    3    0    0  0.16246306237E+02  0.17452799965E+02  0.36264042286E+02  0.43400731053E+02  0.00000000000E+00 0. -1.
         11    1    4    4    0    0 -0.27202643950E+00 -0.43444270027E+01 -0.11338131269E+02  0.12145009893E+02  0.51100000000E-03 0. -1.
        -11    1    4    4    0    0 -0.16857698560E+02 -0.93613393376E+01 -0.25259260733E+02  0.31778088803E+02  0.51100000000E-03 0.  1.
        -12    1    4    4    0    0  0.88341876193E+00 -0.37470336250E+01  0.33334971572E+00  0.38641702510E+01  0.00000000000E+00 0.  1.
</event>
<event>
 8    1  0.5331800E-011  0.9118800E+02  0.7816164E-02  0.1184000E+00
        -11   -1    0    0    0    0  0.00000000000E+00  0.00000000000E+00  0.45593999997E+02  0.45594000000E+02  0.51100000000E-03 0. -1.
         11   -1    0    0    0    0 -0.00000000000E+00 -0.00000000000E+00 -0.45593999997E+02  0.45594000000E+02  0.51100000000E-03 0.  1.
         23    2    1    2    0    0  0.00000000000E+00  0.00000000000E+00  0.00000000000E+00  0.91188000000E+02  0.91188000000E+02 0.  0.
    9900012    2    3    3    0    0 -0.21956204481E+02 -0.10801712121E+02  0.35845095069E+02  0.47787277190E+02  0.20000028018E+02 0.  0.
        -12    1    3    3    0    0  0.21956204481E+02  0.10801712121E+02 -0.35845095069E+02  0.43400722810E+02  0.00000000000E+00 0.  1.
         11    1    4    4    0    0 -0.12992940146E+02 -0.14066748982E+02  0.13805697650E+02  0.23606931364E+02  0.51100000000E-03 0. -1.
        -11    1    4    4    0    0 -0.27219554759E+01  0.12615972466E+01  0.10377596439E+02  0.10802554204E+02  0.51100000000E-03 0.  1.
         12    1    4    4    0    0 -0.62413088588E+01  0.20034396144E+01  0.11661800981E+02  0.13377791622E+02  0.00000000000E+00 0. -1.
</event>
<event>
 8    1  0.5331800E-011  0.9118800E+02  0.7816164E-02  0.1184000E+00
        -11   -1    0    0    0    0  0.00000000000E+00  0.00000000000E+00  0.45593999997E+02  0.45594000000E+02  0.51100000000E-03 0. -1.
         11   -1    0    0    0    0 -0.00000000000E+00 -0.00000000000E+00 -0.45593999997E+02  0.45594000000E+02  0.51100000000E-03 0.  1.
         23    2    1    2    0    0  0.00000000000E+00  0.00000000000E+00  0.00000000000E+00  0.91188000000E+02  0.91188000000E+02 0.  0.
    9900012    2    3    3    0    0 -0.10150642082E+02 -0.35892142545E+02  0.22188780265E+02  0.47787269582E+02  0.19999993332E+02 0.  0.
        -12    1    3    3    0    0  0.10150642082E+02  0.35892142545E+02 -0.22188780265E+02  0.43400730418E+02  0.00000000000E+00 0.  1.
         11    1    4    4    0    0 -0.56438557920E+01 -0.29832085223E+02  0.16297318830E+02  0.34458801753E+02  0.51100000000E-03 0. -1.
        -11    1    4    4    0    0 -0.29526863049E+01  0.17952200272E+01  0.36209835873E+01  0.50052666024E+01  0.51100000000E-03 0.  1.
         12    1    4    4    0    0 -0.15540999848E+01 -0.78552773498E+01  0.22704778482E+01  0.83232012269E+01  0.00000000000E+00 0. -1.
</event>
<event>
 8    1  0.5911334E-011  0.9118800E+02  0.7816164E-02  0.1184000E+00
        -11   -1    0    0    0    0  0.00000000000E+00  0.00000000000E+00  0.45593999997E+02  0.45594000000E+02  0.51100000000E-03 0. -1.
         11   -1    0    0    0    0 -0.00000000000E+00 -0.00000000000E+00 -0.45593999997E+02  0.45594000000E+02  0.51100000000E-03 0.  1.
         23    2    1    2    0    0  0.00000000000E+00  0.00000000000E+00 -0.71054273576E-14  0.91188000000E+02  0.91188000000E+02 0.  0.
    9900012    2    3    3    0    0 -0.14431400648E+02 -0.14282290426E+02 -0.38358487533E+02  0.47787277537E+02  0.20000029602E+02 0.  0.
         12    1    3    3    0    0  0.14431400648E+02  0.14282290426E+02  0.38358487533E+02  0.43400722463E+02  0.00000000000E+00 0. -1.
         11    1    4    4    0    0  0.24649946601E+01 -0.40620125884E+01 -0.64731632948E+01  0.80298186932E+01  0.51100000000E-03 0. -1.
        -11    1    4    4    0    0 -0.14799711027E+02 -0.17077813515E+01 -0.18435277332E+02  0.23702476963E+02  0.51100000000E-03 0.  1.
        -12    1    4    4    0    0 -0.20966842808E+01 -0.85124964863E+01 -0.13450046906E+02  0.16054981880E+02  0.00000000000E+00 0.  1.
</event>
<event>
 8    1  0.5331800E-011  0.9118800E+02  0.7816164E-02  0.1184000E+00
        -11   -1    0    0    0    0  0.00000000000E+00  0.00000000000E+00  0.45593999997E+02  0.45594000000E+02  0.51100000000E-03 0. -1.
         11   -1    0    0    0    0 -0.00000000000E+00 -0.00000000000E+00 -0.45593999997E+02  0.45594000000E+02  0.51100000000E-03 0.  1.
         23    2    1    2    0    0  0.00000000000E+00 -0.35527136788E-14  0.00000000000E+00  0.91188000000E+02  0.91188000000E+02 0.  0.
    9900012    2    3    3    0    0 -0.51128987755E+01 -0.25556484227E+02  0.34703711759E+02  0.47787271552E+02  0.20000002315E+02 0.  0.
        -12    1    3    3    0    0  0.51128987755E+01  0.25556484227E+02 -0.34703711759E+02  0.43400728448E+02  0.00000000000E+00 0.  1.
         11    1    4    4    0    0 -0.15670888589E+01 -0.15911188785E+02  0.75847039425E+01  0.17696028656E+02  0.51100000000E-03 0. -1.
        -11    1    4    4    0    0 -0.76785130839E-02 -0.91812754490E+01  0.22115713099E+02  0.23945785516E+02  0.51100000000E-03 0.  1.
        -12    1    4    4    0    0 -0.35381314035E+01 -0.46401999307E+00  0.50032947175E+01  0.61454573803E+01  0.00000000000E+00 0.  1.
</event>
<event>
 8    1  0.5331800E-011  0.9118800E+02  0.7816164E-02  0.1184000E+00
        -11   -1    0    0    0    0  0.00000000000E+00  0.00000000000E+00  0.45593999997E+02  0.45594000000E+02  0.51100000000E-03 0. -1.
         11   -1    0    0    0    0 -0.00000000000E+00 -0.00000000000E+00 -0.45593999997E+02  0.45594000000E+02  0.51100000000E-03 0.  1.
         23    2    1    2    0    0  0.71054273576E-14  0.35527136788E-14  0.00000000000E+00  0.91188000000E+02  0.91188000000E+02 0.  0.
    9900012    2    3    3    0    0  0.36378077111E+02  0.22937826550E+02 -0.58407651109E+01  0.47787275142E+02  0.20000018683E+02 0.  0.
        -12    1    3    3    0    0 -0.36378077111E+02 -0.22937826550E+02  0.58407651109E+01  0.43400724858E+02  0.00000000000E+00 0.  1.
         11    1    4    4    0    0  0.72354152059E+01  0.18718295873E+01 -0.25407737612E+01  0.78937007020E+01  0.51100000000E-03 0. -1.
        -11    1    4    4    0    0  0.16606993720E+01  0.72274283418E+00  0.44758005154E+01  0.48283610183E+01  0.51100000000E-03 0.  1.
        -12    1    4    4    0    0  0.27481962533E+02  0.20343254129E+02 -0.77757918650E+01  0.35065213422E+02  0.00000000000E+00 0.  1.
</event>
<event>
 8    1  0.5331800E-011  0.9118800E+02  0.7816164E-02  0.1184000E+00
        -11   -1    0    0    0    0  0.00000000000E+00  0.00000000000E+00  0.45593999997E+02  0.45594000000E+02  0.51100000000E-03 0. -1.
         11   -1    0    0    0    0 -0.00000000000E+00 -0.00000000000E+00 -0.45593999997E+02  0.45594000000E+02  0.51100000000E-03 0.  1.
         23    2    1    2    0    0  0.00000000000E+00  0.17763568394E-14  0.00000000000E+00  0.91188000000E+02  0.91188000000E+02 0.  0.
    9900012    2    3    3    0    0  0.34988553310E+02 -0.12684021421E+02  0.22328001902E+02  0.47787274994E+02  0.20000018008E+02 0.  0.
        -12    1    3    3    0    0 -0.34988553310E+02  0.12684021421E+02 -0.22328001902E+02  0.43400725006E+02  0.00000000000E+00 0.  1.
         11    1    4    4    0    0  0.72972373605E+01 -0.30094920374E+01  0.11811589574E+02  0.14206349424E+02  0.51100000000E-03 0. -1.
        -11    1    4    4    0    0  0.24894354158E+02 -0.61209513923E+01  0.44575689274E+01  0.26020469555E+02  0.51100000000E-03 0.  1.
         12    1    4    4    0    0  0.27969617914E+01 -0.35535779909E+01  0.60588434008E+01  0.75604560150E+01  0.00000000000E+00 0. -1.
</event>
<event>
 8    1  0.5331800E-011  0.9118800E+02  0.7816164E-02  0.1184000E+00
        -11   -1    0    0    0    0  0.00000000000E+00  0.00000000000E+00  0.45593999997E+02  0.45594000000E+02  0.51100000000E-03 0. -1.
         11   -1    0    0    0    0 -0.00000000000E+00 -0.00000000000E+00 -0.45593999997E+02  0.45594000000E+02  0.51100000000E-03 0.  1.
         23    2    1    2    0    0  0.00000000000E+00  0.44408920985E-15  0.00000000000E+00  0.91188000000E+02  0.91188000000E+02 0.  0.
    9900012    2    3    3    0    0  0.81774478288E+01 -0.19597067604E+01 -0.42578304187E+02  0.47787273151E+02  0.20000009607E+02 0.  0.
         12    1    3    3    0    0 -0.81774478288E+01  0.19597067604E+01  0.42578304187E+02  0.43400726849E+02  0.00000000000E+00 0. -1.
         11    1    4    4    0    0 -0.42355930898E+01  0.48414155917E+01 -0.95815106969E+01  0.11540576296E+02  0.51100000000E-03 0. -1.
        -11    1    4    4    0    0  0.51097546813E+01 -0.54178863018E+01 -0.14219740509E+02  0.16051919053E+02  0.51100000000E-03 0.  1.
         12    1    4    4    0    0  0.73032862373E+01 -0.13832360503E+01 -0.18777052981E+02  0.20194777802E+02  0.00000000000E+00 0. -1.
</event>
<event>
 8    1  0.5331800E-011  0.9118800E+02  0.7816164E-02  0.1184000E+00
        -11   -1    0    0    0    0  0.00000000000E+00  0.00000000000E+00  0.45593999997E+02  0.45594000000E+02  0.51100000000E-03 0.  1.
         11   -1    0    0    0    0 -0.00000000000E+00 -0.00000000000E+00 -0.45593999997E+02  0.45594000000E+02  0.51100000000E-03 0. -1.
         23    2    1    2    0    0  0.00000000000E+00  0.00000000000E+00  0.00000000000E+00  0.91188000000E+02  0.91188000000E+02 0.  0.
    9900012    2    3    3    0    0 -0.38977213184E+02 -0.18918373037E+02 -0.25486057187E+01  0.47787269855E+02  0.19999994577E+02 0.  0.
         12    1    3    3    0    0  0.38977213184E+02  0.18918373037E+02  0.25486057187E+01  0.43400730145E+02  0.00000000000E+00 0. -1.
         11    1    4    4    0    0 -0.28365884161E+02 -0.14600733529E+02 -0.55645062683E+01  0.32384695985E+02  0.51100000000E-03 0. -1.
        -11    1    4    4    0    0 -0.11545095042E+02 -0.57448548227E+01  0.12634711144E+01  0.12957196301E+02  0.51100000000E-03 0.  1.
         12    1    4    4    0    0  0.93376601793E+00  0.14272153144E+01  0.17524294352E+01  0.24453775690E+01  0.00000000000E+00 0. -1.
</event>
<event>
 8    1  0.5331800E-011  0.9118800E+02  0.7816164E-02  0.1184000E+00
        -11   -1    0    0    0    0  0.00000000000E+00  0.00000000000E+00  0.45593999997E+02  0.45594000000E+02  0.51100000000E-03 0.  1.
         11   -1    0    0    0    0 -0.00000000000E+00 -0.00000000000E+00 -0.45593999997E+02  0.45594000000E+02  0.51100000000E-03 0. -1.
         23    2    1    2    0    0  0.00000000000E+00  0.00000000000E+00  0.00000000000E+00  0.91188000000E+02  0.91188000000E+02 0.  0.
    9900012    2    3    3    0    0 -0.37153751438E+02 -0.21155680856E+02  0.74604711625E+01  0.47787277559E+02  0.20000029705E+02 0.  0.
        -12    1    3    3    0    0  0.37153751438E+02  0.21155680856E+02 -0.74604711625E+01  0.43400722441E+02  0.00000000000E+00 0.  1.
         11    1    4    4    0    0 -0.19595026088E+02 -0.95137998585E+01 -0.14061000908E+00  0.21782956791E+02  0.51100000000E-03 0. -1.
        -11    1    4    4    0    0 -0.95316424064E+01 -0.89826712890E+01  0.10787364738E+02  0.16967846908E+02  0.51100000000E-03 0.  1.
        -12    1    4    4    0    0 -0.80270829435E+01 -0.26592097084E+01 -0.31862835663E+01  0.90364738598E+01  0.00000000000E+00 0.  1.
</event>
<event>
 8    1  0.5331800E-011  0.9118800E+02  0.7816164E-02  0.1184000E+00
        -11   -1    0    0    0    0  0.00000000000E+00  0.00000000000E+00  0.45593999997E+02  0.45594000000E+02  0.51100000000E-03 0.  1.
         11   -1    0    0    0    0 -0.00000000000E+00 -0.00000000000E+00 -0.45593999997E+02  0.45594000000E+02  0.51100000000E-03 0. -1.
         23    2    1    2    0    0  0.71054273576E-14  0.13322676296E-14  0.35527136788E-14  0.91188000000E+02  0.91188000000E+02 0.  0.
    9900012    2    3    3    0    0 -0.39626274763E+02 -0.32056627611E+01 -0.17409920425E+02  0.47787271267E+02  0.20000001015E+02 0.  0.
        -12    1    3    3    0    0  0.39626274763E+02  0.32056627611E+01  0.17409920425E+02  0.43400728733E+02  0.00000000000E+00 0.  1.
         11    1    4    4    0    0 -0.27927905006E+02 -0.54331178430E+01 -0.17624467418E+02  0.33468022044E+02  0.51100000000E-03 0. -1.
        -11    1    4    4    0    0 -0.26669729285E+00 -0.19022061062E+01 -0.88502036978E+00  0.21148940476E+01  0.51100000000E-03 0.  1.
         12    1    4    4    0    0 -0.11431672465E+02  0.41296611881E+01  0.10995673626E+01  0.12204355176E+02  0.00000000000E+00 0. -1.
</event>
<event>
 8    1  0.5331800E-011  0.9118800E+02  0.7816164E-02  0.1184000E+00
        -11   -1    0    0    0    0  0.00000000000E+00  0.00000000000E+00  0.45593999997E+02  0.45594000000E+02  0.51100000000E-03 0. -1.
         11   -1    0    0    0    0 -0.00000000000E+00 -0.00000000000E+00 -0.45593999997E+02  0.45594000000E+02  0.51100000000E-03 0.  1.
         23    2    1    2    0    0  0.71054273576E-14  0.71054273576E-14  0.00000000000E+00  0.91188000000E+02  0.91188000000E+02 0.  0.
    9900012    2    3    3    0    0  0.28109703257E+02  0.32899404454E+02 -0.33313306302E+01  0.47787262744E+02  0.19999962153E+02 0.  0.
        -12    1    3    3    0    0 -0.28109703257E+02 -0.32899404454E+02  0.33313306302E+01  0.43400737256E+02  0.00000000000E+00 0.  1.
         11    1    4    4    0    0  0.42693244619E+01  0.91483166494E+01 -0.75043202945E+01  0.12579095843E+02  0.51100000000E-03 0.  1.
        -11    1    4    4    0    0  0.22701422997E+02  0.23231587888E+02  0.18076244216E+01  0.32531965637E+02  0.51100000000E-03 0. -1.
         12    1    4    4    0    0  0.11389557985E+01  0.51949991669E+00  0.23653652427E+01  0.26762012640E+01  0.00000000000E+00 0. -1.
</event>
<event>
 8    1  0.5331800E-011  0.9118800E+02  0.7816164E-02  0.1184000E+00
        -11   -1    0    0    0    0  0.00000000000E+00  0.00000000000E+00  0.45593999997E+02  0.45594000000E+02  0.51100000000E-03 0. -1.
         11   -1    0    0    0    0 -0.00000000000E+00 -0.00000000000E+00 -0.45593999997E+02  0.45594000000E+02  0.51100000000E-03 0.  1.
         23    2    1    2    0    0  0.35527136788E-14  0.35527136788E-14 -0.35527136788E-14  0.91188000000E+02  0.91188000000E+02 0.  0.
    9900012    2    3    3    0    0  0.20582600496E+02  0.24096214072E+02 -0.29653861920E+02  0.47787279930E+02  0.20000040515E+02 0.  0.
         12    1    3    3    0    0 -0.20582600496E+02 -0.24096214072E+02  0.29653861920E+02  0.43400720070E+02  0.00000000000E+00 0. -1.
         11    1    4    4    0    0  0.60577226031E+00  0.34629670246E+01 -0.16905323761E+01  0.39008974122E+01  0.51100000000E-03 0. -1.
        -11    1    4    4    0    0  0.33211059528E+01  0.15109440721E+02 -0.83901906095E+01  0.17598870486E+02  0.51100000000E-03 0.  1.
        -12    1    4    4    0    0  0.16655722283E+02  0.55238063263E+01 -0.19573138934E+02  0.26287512032E+02  0.00000000000E+00 0.  1.
</event>
<event>
 8    1  0.5331800E-011  0.9118800E+02  0.7816164E-02  0.1184000E+00
        -11   -1    0    0    0    0  0.00000000000E+00  0.00000000000E+00  0.45593999997E+02  0.45594000000E+02  0.51100000000E-03 0. -1.
         11   -1    0    0    0    0 -0.00000000000E+00 -0.00000000000E+00 -0.45593999997E+02  0.45594000000E+02  0.51100000000E-03 0.  1.
         23    2    1    2    0    0 -0.17763568394E-14 -0.17763568394E-14 -0.71054273576E-14  0.91188000000E+02  0.91188000000E+02 0.  0.
    9900012    2    3    3    0    0 -0.11170447508E+02 -0.11421907821E+02 -0.40353244063E+02  0.47787272101E+02  0.20000004815E+02 0.  0.
         12    1    3    3    0    0  0.11170447508E+02  0.11421907821E+02  0.40353244063E+02  0.43400727899E+02  0.00000000000E+00 0. -1.
         11    1    4    4    0    0 -0.10738494548E+02 -0.35564270319E+01 -0.13221437854E+02  0.17400283261E+02  0.51100000000E-03 0. -1.
        -11    1    4    4    0    0  0.87778748067E+00 -0.96899451331E+01 -0.13905788631E+02  0.16971638261E+02  0.51100000000E-03 0.  1.
         12    1    4    4    0    0 -0.13097404406E+01  0.18244643440E+01 -0.13226017578E+02  0.13415350579E+02  0.00000000000E+00 0. -1.
</event>
<event>
 8    1  0.5331800E-011  0.9118800E+02  0.7816164E-02  0.1184000E+00
        -11   -1    0    0    0    0  0.00000000000E+00  0.00000000000E+00  0.45593999997E+02  0.45594000000E+02  0.51100000000E-03 0. -1.
         11   -1    0    0    0    0 -0.00000000000E+00 -0.00000000000E+00 -0.45593999997E+02  0.45594000000E+02  0.51100000000E-03 0.  1.
         23    2    1    2    0    0  0.00000000000E+00 -0.88817841970E-15 -0.35527136788E-14  0.91188000000E+02  0.91188000000E+02 0.  0.
    9900012    2    3    3    0    0  0.38543973376E+02  0.62026158253E+01 -0.18960833110E+02  0.47787268221E+02  0.19999987129E+02 0.  0.
         12    1    3    3    0    0 -0.38543973376E+02 -0.62026158253E+01  0.18960833110E+02  0.43400731779E+02  0.00000000000E+00 0. -1.
         11    1    4    4    0    0  0.13229725653E+02  0.50092089658E+01  0.43324516230E+00  0.14152933157E+02  0.51100000000E-03 0. -1.
        -11    1    4    4    0    0  0.18242721734E+02 -0.13721666240E+01 -0.18568501270E+02  0.26066625735E+02  0.51100000000E-03 0.  1.
        -12    1    4    4    0    0  0.70715259886E+01  0.25655734835E+01 -0.82557700196E+00  0.75677093293E+01  0.00000000000E+00 0.  1.
</event>
<event>
 8    1  0.5331800E-011  0.9118800E+02  0.7816164E-02  0.1184000E+00
        -11   -1    0    0    0    0  0.00000000000E+00  0.00000000000E+00  0.45593999997E+02  0.45594000000E+02  0.51100000000E-03 0. -1.
         11   -1    0    0    0    0 -0.00000000000E+00 -0.00000000000E+00 -0.45593999997E+02  0.45594000000E+02  0.51100000000E-03 0.  1.
         23    2    1    2    0    0  0.00000000000E+00  0.00000000000E+00  0.17763568394E-14  0.91188000000E+02  0.91188000000E+02 0.  0.
    9900012    2    3    3    0    0 -0.25563200389E+02  0.31895593490E+02 -0.14588263219E+02  0.47787268187E+02  0.19999986971E+02 0.  0.
         12    1    3    3    0    0  0.25563200389E+02 -0.31895593490E+02  0.14588263219E+02  0.43400731813E+02  0.00000000000E+00 0. -1.
         11    1    4    4    0    0 -0.38540779433E+00  0.50965288411E+01 -0.69205545863E+01  0.86033261847E+01  0.51100000000E-03 0. -1.
        -11    1    4    4    0    0 -0.14899416866E+02  0.11229923611E+02  0.84706629830E+00  0.18676759056E+02  0.51100000000E-03 0.  1.
         12    1    4    4    0    0 -0.10278375728E+02  0.15569141037E+02 -0.85147749313E+01  0.20507182946E+02  0.00000000000E+00 0. -1.
</event>
<event>
 8    1  0.5820848E-011  0.9118800E+02  0.7816164E-02  0.1184000E+00
        -11   -1    0    0    0    0  0.00000000000E+00  0.00000000000E+00  0.45593999997E+02  0.45594000000E+02  0.51100000000E-03 0. -1.
         11   -1    0    0    0    0 -0.00000000000E+00 -0.00000000000E+00 -0.45593999997E+02  0.45594000000E+02  0.51100000000E-03 0.  1.
         23    2    1    2    0    0  0.00000000000E+00  0.00000000000E+00 -0.71054273576E-14  0.91188000000E+02  0.91188000000E+02 0.  0.
    9900012    2    3    3    0    0  0.13401654737E+02 -0.12495712464E+01 -0.41260846965E+02  0.47787271086E+02  0.20000000191E+02 0.  0.
         12    1    3    3    0    0 -0.13401654737E+02  0.12495712464E+01  0.41260846965E+02  0.43400728914E+02  0.00000000000E+00 0. -1.
         11    1    4    4    0    0 -0.19944683648E+01 -0.38303472265E+00 -0.30605893110E+01  0.36731222207E+01  0.51100000000E-03 0. -1.
        -11    1    4    4    0    0  0.31181886252E+01  0.15431997983E+01  0.43229464724E+00  0.35059156925E+01  0.51100000000E-03 0.  1.
        -12    1    4    4    0    0  0.12277934477E+02 -0.24097363221E+01 -0.38632552301E+02  0.40608233173E+02  0.00000000000E+00 0.  1.
</event>
<event>
 8    1  0.5331800E-011  0.9118800E+02  0.7816164E-02  0.1184000E+00
        -11   -1    0    0    0    0  0.00000000000E+00  0.00000000000E+00  0.45593999997E+02  0.45594000000E+02  0.51100000000E-03 0. -1.
         11   -1    0    0    0    0 -0.00000000000E+00 -0.00000000000E+00 -0.45593999997E+02  0.45594000000E+02  0.51100000000E-03 0.  1.
         23    2    1    2    0    0  0.17763568394E-14  0.00000000000E+00  0.00000000000E+00  0.91188000000E+02  0.91188000000E+02 0.  0.
    9900012    2    3    3    0    0  0.14698573159E+02  0.44196204937E+01  0.40596081895E+02  0.47787274621E+02  0.20000016305E+02 0.  0.
        -12    1    3    3    0    0 -0.14698573159E+02 -0.44196204937E+01 -0.40596081895E+02  0.43400725379E+02  0.00000000000E+00 0.  1.
         11    1    4    4    0    0 -0.10926257921E+01  0.40841953670E+01  0.25262992701E+02  0.25614317937E+02  0.51100000000E-03 0. -1.
        -11    1    4    4    0    0  0.15009168719E+02  0.92295790457E+00  0.14333776089E+02  0.20774603105E+02  0.51100000000E-03 0.  1.
         12    1    4    4    0    0  0.78203023192E+00 -0.58753277782E+00  0.99931310550E+00  0.13983535788E+01  0.00000000000E+00 0. -1.
</event>
<event>
 8    1  0.5331800E-011  0.9118800E+02  0.7816164E-02  0.1184000E+00
        -11   -1    0    0    0    0  0.00000000000E+00  0.00000000000E+00  0.45593999997E+02  0.45594000000E+02  0.51100000000E-03 0. -1.
         11   -1    0    0    0    0 -0.00000000000E+00 -0.00000000000E+00 -0.45593999997E+02  0.45594000000E+02  0.51100000000E-03 0.  1.
         23    2    1    2    0    0  0.00000000000E+00  0.88817841970E-15  0.00000000000E+00  0.91188000000E+02  0.91188000000E+02 0.  0.
    9900012    2    3    3    0    0 -0.36910205377E+02 -0.45407190510E+01 -0.22375027623E+02  0.47787271301E+02  0.20000001170E+02 0.  0.
         12    1    3    3    0    0  0.36910205377E+02  0.45407190510E+01  0.22375027623E+02  0.43400728699E+02  0.00000000000E+00 0. -1.
         11    1    4    4    0    0 -0.12938994300E+02  0.63246764555E+01 -0.80619737906E+01  0.16504984927E+02  0.51100000000E-03 0. -1.
        -11    1    4    4    0    0 -0.14284946519E+02 -0.21130433530E+01 -0.51438724688E+01  0.15329190243E+02  0.51100000000E-03 0.  1.
         12    1    4    4    0    0 -0.96862645576E+01 -0.87523521535E+01 -0.91691813640E+01  0.15953096132E+02  0.00000000000E+00 0. -1.
</event>
<event>
 8    1  0.5331800E-011  0.9118800E+02  0.7816164E-02  0.1184000E+00
        -11   -1    0    0    0    0  0.00000000000E+00  0.00000000000E+00  0.45593999997E+02  0.45594000000E+02  0.51100000000E-03 0. -1.
         11   -1    0    0    0    0 -0.00000000000E+00 -0.00000000000E+00 -0.45593999997E+02  0.45594000000E+02  0.51100000000E-03 0.  1.
         23    2    1    2    0    0  0.00000000000E+00  0.00000000000E+00  0.88817841970E-15  0.91188000000E+02  0.91188000000E+02 0.  0.
    9900012    2    3    3    0    0  0.14297617734E+02  0.40801168262E+02 -0.38041145694E+01  0.47787210928E+02  0.19999725901E+02 0.  0.
         12    1    3    3    0    0 -0.14297617734E+02 -0.40801168262E+02  0.38041145694E+01  0.43400789072E+02  0.00000000000E+00 0. -1.
         11    1    4    4    0    0  0.11589379813E+02  0.31965383691E+02  0.44939867201E+01  0.34297163087E+02  0.51100000000E-03 0. -1.
        -11    1    4    4    0    0  0.40135611749E+01  0.82636603618E+01 -0.74793417718E+01  0.11846404918E+02  0.51100000000E-03 0.  1.
         12    1    4    4    0    0 -0.13053232536E+01  0.57212420981E+00 -0.81875951772E+00  0.16436429222E+01  0.00000000000E+00 0. -1.
</event>
<event>
 8    1  0.5331800E-011  0.9118800E+02  0.7816164E-02  0.1184000E+00
        -11   -1    0    0    0    0  0.00000000000E+00  0.00000000000E+00  0.45593999997E+02  0.45594000000E+02  0.51100000000E-03 0.  1.
         11   -1    0    0    0    0 -0.00000000000E+00 -0.00000000000E+00 -0.45593999997E+02  0.45594000000E+02  0.51100000000E-03 0. -1.
         23    2    1    2    0    0  0.00000000000E+00 -0.35527136788E-14 -0.88817841970E-15  0.91188000000E+02  0.91188000000E+02 0.  0.
    9900012    2    3    3    0    0 -0.38645307386E+02  0.18885252804E+02  0.57888256905E+01  0.47787273517E+02  0.20000011271E+02 0.  0.
        -12    1    3    3    0    0  0.38645307386E+02 -0.18885252804E+02 -0.57888256905E+01  0.43400726483E+02  0.00000000000E+00 0.  1.
         11    1    4    4    0    0 -0.12263557762E+02  0.16728042262E+01 -0.59334205674E+01  0.13725837054E+02  0.51100000000E-03 0. -1.
        -11    1    4    4    0    0 -0.16240610733E+02  0.12819384241E+02  0.95942387501E+01  0.22806654002E+02  0.51100000000E-03 0.  1.
         12    1    4    4    0    0 -0.10141138891E+02  0.43930643367E+01  0.21280075078E+01  0.11254782460E+02  0.00000000000E+00 0. -1.
</event>
<event>
 8    1  0.5331800E-011  0.9118800E+02  0.7816164E-02  0.1184000E+00
        -11   -1    0    0    0    0  0.00000000000E+00  0.00000000000E+00  0.45593999997E+02  0.45594000000E+02  0.51100000000E-03 0. -1.
         11   -1    0    0    0    0 -0.00000000000E+00 -0.00000000000E+00 -0.45593999997E+02  0.45594000000E+02  0.51100000000E-03 0.  1.
         23    2    1    2    0    0  0.35527136788E-14 -0.35527136788E-14  0.00000000000E+00  0.91188000000E+02  0.91188000000E+02 0.  0.
    9900012    2    3    3    0    0 -0.29520582803E+02 -0.22058856700E+02  0.22925227980E+02  0.47787262150E+02  0.19999959449E+02 0.  0.
        -12    1    3    3    0    0  0.29520582803E+02  0.22058856700E+02 -0.22925227980E+02  0.43400737850E+02  0.00000000000E+00 0.  1.
         11    1    4    4    0    0 -0.11019001157E+02 -0.80825720356E+01  0.99006912390E+01  0.16875130947E+02  0.51100000000E-03 0. -1.
        -11    1    4    4    0    0 -0.16461062735E+02 -0.51971622898E+01  0.31579171324E+01  0.17548490622E+02  0.51100000000E-03 0.  1.
        -12    1    4    4    0    0 -0.20405189115E+01 -0.87791223750E+01  0.98666196088E+01  0.13363640582E+02  0.00000000000E+00 0.  1.
</event>
<event>
 8    1  0.5331800E-011  0.9118800E+02  0.7816164E-02  0.1184000E+00
        -11   -1    0    0    0    0  0.00000000000E+00  0.00000000000E+00  0.45593999997E+02  0.45594000000E+02  0.51100000000E-03 0.  1.
         11   -1    0    0    0    0 -0.00000000000E+00 -0.00000000000E+00 -0.45593999997E+02  0.45594000000E+02  0.51100000000E-03 0. -1.
         23    2    1    2    0    0 -0.35527136788E-14  0.17763568394E-14  0.71054273576E-14  0.91188000000E+02  0.91188000000E+02 0.  0.
    9900012    2    3    3    0    0 -0.23370973424E+02 -0.11692744671E+02  0.34651148051E+02  0.47787254177E+02  0.19999923095E+02 0.  0.
        -12    1    3    3    0    0  0.23370973424E+02  0.11692744671E+02 -0.34651148051E+02  0.43400745823E+02  0.00000000000E+00 0.  1.
         11    1    4    4    0    0 -0.17169124221E+02 -0.74102678038E+01  0.21913659015E+02  0.28807973673E+02  0.51100000000E-03 0. -1.
        -11    1    4    4    0    0  0.15734747320E+01  0.16226935577E+01 -0.70275692081E+00  0.23670286575E+01  0.51100000000E-03 0.  1.
        -12    1    4    4    0    0 -0.77753239343E+01 -0.59051704253E+01  0.13440245957E+02  0.16612251847E+02  0.00000000000E+00 0.  1.
</event>
<event>
 8    1  0.5331800E-011  0.9118800E+02  0.7816164E-02  0.1184000E+00
        -11   -1    0    0    0    0  0.00000000000E+00  0.00000000000E+00  0.45593999997E+02  0.45594000000E+02  0.51100000000E-03 0.  1.
         11   -1    0    0    0    0 -0.00000000000E+00 -0.00000000000E+00 -0.45593999997E+02  0.45594000000E+02  0.51100000000E-03 0. -1.
         23    2    1    2    0    0  0.00000000000E+00 -0.35527136788E-14 -0.88817841970E-15  0.91188000000E+02  0.91188000000E+02 0.  0.
    9900012    2    3    3    0    0  0.35930082458E+02  0.24203757890E+02 -0.26142591383E+01  0.47787227284E+02  0.19999800478E+02 0.  0.
         12    1    3    3    0    0 -0.35930082458E+02 -0.24203757890E+02  0.26142591383E+01  0.43400772716E+02  0.00000000000E+00 0. -1.
         11    1    4    4    0    0  0.16445144542E+02  0.65009210285E+01  0.49382538054E+01  0.18360040962E+02  0.51100000000E-03 0. -1.
        -11    1    4    4    0    0  0.10932077277E+02  0.52978595123E+01  0.84491436301E+00  0.12177500135E+02  0.51100000000E-03 0.  1.
         12    1    4    4    0    0  0.85528606392E+01  0.12404977350E+02 -0.83974273067E+01  0.17249686186E+02  0.00000000000E+00 0. -1.
</event>
<event>
 8    1  0.5331800E-011  0.9118800E+02  0.7816164E-02  0.1184000E+00
        -11   -1    0    0    0    0  0.00000000000E+00  0.00000000000E+00  0.45593999997E+02  0.45594000000E+02  0.51100000000E-03 0. -1.
         11   -1    0    0    0    0 -0.00000000000E+00 -0.00000000000E+00 -0.45593999997E+02  0.45594000000E+02  0.51100000000E-03 0.  1.
         23    2    1    2    0    0  0.00000000000E+00  0.00000000000E+00  0.00000000000E+00  0.91188000000E+02  0.91188000000E+02 0.  0.
    9900012    2    3    3    0    0 -0.41603507622E+02 -0.12332115466E+02  0.83106828808E+00  0.47787267370E+02  0.19999983246E+02 0.  0.
        -12    1    3    3    0    0  0.41603507622E+02  0.12332115466E+02 -0.83106828808E+00  0.43400732630E+02  0.00000000000E+00 0.  1.
         11    1    4    4    0    0 -0.74295712202E+01 -0.33451640176E+01  0.43490321695E+01  0.92359478070E+01  0.51100000000E-03 0. -1.
        -11    1    4    4    0    0 -0.26137397845E+02 -0.84465725230E+01  0.37241210275E+01  0.27719618164E+02  0.51100000000E-03 0.  1.
        -12    1    4    4    0    0 -0.80365385572E+01 -0.54037892585E+00 -0.72420849090E+01  0.10831701399E+02  0.00000000000E+00 0.  1.
</event>
<event>
 8    1  0.5331800E-011  0.9118800E+02  0.7816164E-02  0.1184000E+00
        -11   -1    0    0    0    0  0.00000000000E+00  0.00000000000E+00  0.45593999997E+02  0.45594000000E+02  0.51100000000E-03 0. -1.
         11   -1    0    0    0    0 -0.00000000000E+00 -0.00000000000E+00 -0.45593999997E+02  0.45594000000E+02  0.51100000000E-03 0.  1.
         23    2    1    2    0    0  0.00000000000E+00  0.00000000000E+00  0.00000000000E+00  0.91188000000E+02  0.91188000000E+02 0.  0.
    9900012    2    3    3    0    0  0.16759317518E+02  0.99431145171E+01  0.38779940016E+02  0.47787262707E+02  0.19999961984E+02 0.  0.
        -12    1    3    3    0    0 -0.16759317518E+02 -0.99431145171E+01 -0.38779940016E+02  0.43400737293E+02  0.00000000000E+00 0.  1.
         11    1    4    4    0    0  0.10706030231E+02  0.96484828123E+01  0.29422756323E+02  0.32762950017E+02  0.51100000000E-03 0. -1.
        -11    1    4    4    0    0  0.82403707844E+01 -0.58479107227E+00  0.40148472905E+01  0.91850253287E+01  0.51100000000E-03 0.  1.
         12    1    4    4    0    0 -0.21870834980E+01  0.87942277704E+00  0.53423364026E+01  0.58392873612E+01  0.00000000000E+00 0. -1.
</event>
<event>
 8    1  0.5331800E-011  0.9118800E+02  0.7816164E-02  0.1184000E+00
        -11   -1    0    0    0    0  0.00000000000E+00  0.00000000000E+00  0.45593999997E+02  0.45594000000E+02  0.51100000000E-03 0.  1.
         11   -1    0    0    0    0 -0.00000000000E+00 -0.00000000000E+00 -0.45593999997E+02  0.45594000000E+02  0.51100000000E-03 0. -1.
         23    2    1    2    0    0  0.00000000000E+00  0.35527136788E-14  0.00000000000E+00  0.91188000000E+02  0.91188000000E+02 0.  0.
    9900012    2    3    3    0    0  0.30834965340E+02 -0.18403702358E+02 -0.24374754783E+02  0.47787308545E+02  0.20000170981E+02 0.  0.
         12    1    3    3    0    0 -0.30834965340E+02  0.18403702358E+02  0.24374754783E+02  0.43400691455E+02  0.00000000000E+00 0. -1.
         11    1    4    4    0    0 -0.14940787228E+01 -0.53070244919E+00 -0.59736348686E+01  0.61804716749E+01  0.51100000000E-03 0. -1.
        -11    1    4    4    0    0  0.21530113788E+02 -0.10815700461E+02 -0.93350663889E+01  0.25839284838E+02  0.51100000000E-03 0.  1.
        -12    1    4    4    0    0  0.10798930275E+02 -0.70572994474E+01 -0.90660535257E+01  0.15767552033E+02  0.00000000000E+00 0.  1.
</event>
<event>
 8    1  0.5331800E-011  0.9118800E+02  0.7816164E-02  0.1184000E+00
        -11   -1    0    0    0    0  0.00000000000E+00  0.00000000000E+00  0.45593999997E+02  0.45594000000E+02  0.51100000000E-03 0. -1.
         11   -1    0    0    0    0 -0.00000000000E+00 -0.00000000000E+00 -0.45593999997E+02  0.45594000000E+02  0.51100000000E-03 0.  1.
         23    2    1    2    0    0 -0.35527136788E-14  0.00000000000E+00  0.00000000000E+00  0.91188000000E+02  0.91188000000E+02 0.  0.
    9900012    2    3    3    0    0 -0.28363956305E+02 -0.18059029728E+02 -0.27440487994E+02  0.47787274737E+02  0.20000016837E+02 0.  0.
         12    1    3    3    0    0  0.28363956305E+02  0.18059029728E+02  0.27440487994E+02  0.43400725263E+02  0.00000000000E+00 0. -1.
         11    1    4    4    0    0  0.17565512558E+01  0.12204216054E-01 -0.50918170454E+01  0.53862995036E+01  0.51100000000E-03 0. -1.
        -11    1    4    4    0    0 -0.18018277078E+02 -0.15219794282E+02 -0.14081797939E+02  0.27469937756E+02  0.51100000000E-03 0.  1.
         12    1    4    4    0    0 -0.12102230483E+02 -0.28514396620E+01 -0.82668730087E+01  0.14931037478E+02  0.00000000000E+00 0. -1.
</event>
<event>
 8    1  0.5331800E-011  0.9118800E+02  0.7816164E-02  0.1184000E+00
        -11   -1    0    0    0    0  0.00000000000E+00  0.00000000000E+00  0.45593999997E+02  0.45594000000E+02  0.51100000000E-03 0.  1.
         11   -1    0    0    0    0 -0.00000000000E+00 -0.00000000000E+00 -0.45593999997E+02  0.45594000000E+02  0.51100000000E-03 0. -1.
         23    2    1    2    0    0 -0.35527136788E-14  0.35527136788E-14  0.00000000000E+00  0.91188000000E+02  0.91188000000E+02 0.  0.
    9900012    2    3    3    0    0  0.24207087113E+02 -0.29536476887E+02  0.20621271239E+02  0.47787270042E+02  0.19999995428E+02 0.  0.
        -12    1    3    3    0    0 -0.24207087113E+02  0.29536476887E+02 -0.20621271239E+02  0.43400729958E+02  0.00000000000E+00 0.  1.
         11    1    4    4    0    0  0.15559557740E+02 -0.16528646771E+02  0.37025752320E+01  0.23000110103E+02  0.51100000000E-03 0. -1.
        -11    1    4    4    0    0  0.83994341980E+01 -0.57306898948E+01  0.13044226597E+02  0.16539139920E+02  0.51100000000E-03 0.  1.
        -12    1    4    4    0    0  0.24809517485E+00 -0.72771402213E+01  0.38744694103E+01  0.82480200187E+01  0.00000000000E+00 0.  1.
</event>
<event>
 8    1  0.5331800E-011  0.9118800E+02  0.7816164E-02  0.1184000E+00
        -11   -1    0    0    0    0  0.00000000000E+00  0.00000000000E+00  0.45593999997E+02  0.45594000000E+02  0.51100000000E-03 0. -1.
         11   -1    0    0    0    0 -0.00000000000E+00 -0.00000000000E+00 -0.45593999997E+02  0.45594000000E+02  0.51100000000E-03 0.  1.
         23    2    1    2    0    0  0.00000000000E+00  0.00000000000E+00  0.00000000000E+00  0.91188000000E+02  0.91188000000E+02 0.  0.
    9900012    2    3    3    0    0  0.36638822221E+02 -0.11642098093E+02  0.20141535457E+02  0.47787271984E+02  0.20000004284E+02 0.  0.
        -12    1    3    3    0    0 -0.36638822221E+02  0.11642098093E+02 -0.20141535457E+02  0.43400728016E+02  0.00000000000E+00 0.  1.
         11    1    4    4    0    0  0.13197977851E+02 -0.86791986358E+01  0.16071469429E+02  0.22534578722E+02  0.51100000000E-03 0. -1.
        -11    1    4    4    0    0  0.12423612293E+02  0.23671179555E+01  0.27524606143E+01  0.12943161496E+02  0.51100000000E-03 0.  1.
        -12    1    4    4    0    0  0.11017232077E+02 -0.53300174125E+01  0.13176054134E+01  0.12309531765E+02  0.00000000000E+00 0.  1.
</event>
<event>
 8    1  0.5331800E-011  0.9118800E+02  0.7816164E-02  0.1184000E+00
        -11   -1    0    0    0    0  0.00000000000E+00  0.00000000000E+00  0.45593999997E+02  0.45594000000E+02  0.51100000000E-03 0. -1.
         11   -1    0    0    0    0 -0.00000000000E+00 -0.00000000000E+00 -0.45593999997E+02  0.45594000000E+02  0.51100000000E-03 0.  1.
         23    2    1    2    0    0  0.00000000000E+00  0.00000000000E+00 -0.35527136788E-14  0.91188000000E+02  0.91188000000E+02 0.  0.
    9900012    2    3    3    0    0 -0.32754608109E+02  0.13834303564E+02  0.24887171091E+02  0.47787267375E+02  0.19999983270E+02 0.  0.
        -12    1    3    3    0    0  0.32754608109E+02 -0.13834303564E+02 -0.24887171091E+02  0.43400732625E+02  0.00000000000E+00 0.  1.
         11    1    4    4    0    0 -0.26931505332E+02  0.16686290764E+02  0.15144670156E+02  0.35115513856E+02  0.51100000000E-03 0. -1.
        -11    1    4    4    0    0 -0.73826687745E+00  0.34438623162E+00  0.48704524634E+01  0.49381117158E+01  0.51100000000E-03 0.  1.
         12    1    4    4    0    0 -0.50848358994E+01 -0.31963734321E+01  0.48720484713E+01  0.77336418037E+01  0.00000000000E+00 0. -1.
</event>
<event>
 8    1  0.5331800E-011  0.9118800E+02  0.7816164E-02  0.1184000E+00
        -11   -1    0    0    0    0  0.00000000000E+00  0.00000000000E+00  0.45593999997E+02  0.45594000000E+02  0.51100000000E-03 0. -1.
         11   -1    0    0    0    0 -0.00000000000E+00 -0.00000000000E+00 -0.45593999997E+02  0.45594000000E+02  0.51100000000E-03 0.  1.
         23    2    1    2    0    0 -0.35527136788E-14 -0.88817841970E-15  0.00000000000E+00  0.91188000000E+02  0.91188000000E+02 0.  0.
    9900012    2    3    3    0    0 -0.19264571656E+02 -0.56184817740E+01 -0.38482882086E+02  0.47787271064E+02  0.20000000091E+02 0.  0.
         12    1    3    3    0    0  0.19264571656E+02  0.56184817740E+01  0.38482882086E+02  0.43400728936E+02  0.00000000000E+00 0. -1.
         11    1    4    4    0    0 -0.19050491983E+02 -0.54301713595E+01 -0.23754191921E+02  0.30930076622E+02  0.51100000000E-03 0.  1.
        -11    1    4    4    0    0 -0.32175520172E+01 -0.11508314457E+00 -0.20259269210E+01  0.38039801871E+01  0.51100000000E-03 0. -1.
         12    1    4    4    0    0  0.30034723443E+01 -0.73227269893E-01 -0.12702763244E+02  0.13053214255E+02  0.00000000000E+00 0. -1.
</event>
<event>
 8    1  0.5331800E-011  0.9118800E+02  0.7816164E-02  0.1184000E+00
        -11   -1    0    0    0    0  0.00000000000E+00  0.00000000000E+00  0.45593999997E+02  0.45594000000E+02  0.51100000000E-03 0. -1.
         11   -1    0    0    0    0 -0.00000000000E+00 -0.00000000000E+00 -0.45593999997E+02  0.45594000000E+02  0.51100000000E-03 0.  1.
         23    2    1    2    0    0  0.88817841970E-15 -0.17763568394E-14  0.00000000000E+00  0.91188000000E+02  0.91188000000E+02 0.  0.
    9900012    2    3    3    0    0  0.37126651110E+01  0.14038722599E+02  0.40899254055E+02  0.47787324928E+02  0.20000245675E+02 0.  0.
        -12    1    3    3    0    0 -0.37126651110E+01 -0.14038722599E+02 -0.40899254055E+02  0.43400675072E+02  0.00000000000E+00 0.  1.
         11    1    4    4    0    0 -0.36333800369E+01  0.12402572760E+02  0.16533220249E+02  0.20985057390E+02  0.51100000000E-03 0. -1.
        -11    1    4    4    0    0  0.29542768820E+01  0.25333697757E+01  0.28485654129E+01  0.48228663146E+01  0.51100000000E-03 0.  1.
         12    1    4    4    0    0  0.43917682659E+01 -0.89721993696E+00  0.21517468393E+02  0.21979401224E+02  0.00000000000E+00 0. -1.
</event>
<event>
 8    1  0.5331800E-011  0.9118800E+02  0.7816164E-02  0.1184000E+00
        -11   -1    0    0    0    0  0.00000000000E+00  0.00000000000E+00  0.45593999997E+02  0.45594000000E+02  0.51100000000E-03 0. -1.
         11   -1    0    0    0    0 -0.00000000000E+00 -0.00000000000E+00 -0.45593999997E+02  0.45594000000E+02  0.51100000000E-03 0.  1.
         23    2    1    2    0    0  0.00000000000E+00  0.17763568394E-14  0.00000000000E+00  0.91188000000E+02  0.91188000000E+02 0.  0.
    9900012    2    3    3    0    0  0.16324320247E+02 -0.10155474290E+02  0.38910207623E+02  0.47787293245E+02  0.20000101219E+02 0.  0.
        -12    1    3    3    0    0 -0.16324320247E+02  0.10155474290E+02 -0.38910207623E+02  0.43400706755E+02  0.00000000000E+00 0.  1.
         11    1    4    4    0    0  0.11231377763E+02  0.29847149135E+01  0.17920491940E+02  0.21358754673E+02  0.51100000000E-03 0. -1.
        -11    1    4    4    0    0  0.62253895535E+01 -0.98969236406E+01  0.19382328419E+02  0.22635795278E+02  0.51100000000E-03 0.  1.
         12    1    4    4    0    0 -0.11324470692E+01 -0.32432655630E+01  0.16073872644E+01  0.37927432940E+01  0.00000000000E+00 0. -1.
</event>
<event>
 8    1  0.5331800E-011  0.9118800E+02  0.7816164E-02  0.1184000E+00
        -11   -1    0    0    0    0  0.00000000000E+00  0.00000000000E+00  0.45593999997E+02  0.45594000000E+02  0.51100000000E-03 0. -1.
         11   -1    0    0    0    0 -0.00000000000E+00 -0.00000000000E+00 -0.45593999997E+02  0.45594000000E+02  0.51100000000E-03 0.  1.
         23    2    1    2    0    0  0.00000000000E+00 -0.17763568394E-14  0.00000000000E+00  0.91188000000E+02  0.91188000000E+02 0.  0.
    9900012    2    3    3    0    0  0.26009723561E+02 -0.82859671246E+01 -0.33741076854E+02  0.47787271456E+02  0.20000001876E+02 0.  0.
         12    1    3    3    0    0 -0.26009723561E+02  0.82859671246E+01  0.33741076854E+02  0.43400728544E+02  0.00000000000E+00 0. -1.
         11    1    4    4    0    0 -0.12687184622E+00  0.45179262452E+01 -0.38769706620E+01  0.59547171047E+01  0.51100000000E-03 0.  1.
        -11    1    4    4    0    0  0.11926932669E+02 -0.58919140323E+01 -0.11303960953E+02  0.17456973029E+02  0.51100000000E-03 0. -1.
         12    1    4    4    0    0  0.14209662738E+02 -0.69119793375E+01 -0.18560145239E+02  0.24375581322E+02  0.00000000000E+00 0. -1.
</event>
<event>
 8    1  0.5331800E-011  0.9118800E+02  0.7816164E-02  0.1184000E+00
        -11   -1    0    0    0    0  0.00000000000E+00  0.00000000000E+00  0.45593999997E+02  0.45594000000E+02  0.51100000000E-03 0. -1.
         11   -1    0    0    0    0 -0.00000000000E+00 -0.00000000000E+00 -0.45593999997E+02  0.45594000000E+02  0.51100000000E-03 0.  1.
         23    2    1    2    0    0  0.71054273576E-14  0.00000000000E+00  0.00000000000E+00  0.91188000000E+02  0.91188000000E+02 0.  0.
    9900012    2    3    3    0    0 -0.34591873069E+02 -0.82518307533E+01 -0.24878356817E+02  0.47787273841E+02  0.20000012750E+02 0.  0.
         12    1    3    3    0    0  0.34591873069E+02  0.82518307533E+01  0.24878356817E+02  0.43400726159E+02  0.00000000000E+00 0. -1.
         11    1    4    4    0    0 -0.14212102360E+01 -0.91965111314E+00  0.55935151542E-01  0.16937312972E+01  0.51100000000E-03 0. -1.
        -11    1    4    4    0    0 -0.25249302292E+02 -0.13172094154E+02 -0.21452294221E+02  0.35654344171E+02  0.51100000000E-03 0.  1.
        -12    1    4    4    0    0 -0.79213605409E+01  0.58399145141E+01 -0.34819977480E+01  0.10439198373E+02  0.00000000000E+00 0.  1.
</event>
<event>
 8    1  0.5331800E-011  0.9118800E+02  0.7816164E-02  0.1184000E+00
        -11   -1    0    0    0    0  0.00000000000E+00  0.00000000000E+00  0.45593999997E+02  0.45594000000E+02  0.51100000000E-03 0.  1.
         11   -1    0    0    0    0 -0.00000000000E+00 -0.00000000000E+00 -0.45593999997E+02  0.45594000000E+02  0.51100000000E-03 0. -1.
         23    2    1    2    0    0  0.00000000000E+00 -0.88817841970E-15 -0.35527136788E-14  0.91188000000E+02  0.91188000000E+02 0.  0.
    9900012    2    3    3    0    0  0.32558065459E+02 -0.44268349620E+01 -0.28354909240E+02  0.47787246871E+02  0.19999889782E+02 0.  0.
         12    1    3    3    0    0 -0.32558065459E+02  0.44268349620E+01  0.28354909240E+02  0.43400753129E+02  0.00000000000E+00 0. -1.
         11    1    4    4    0    0 -0.18596143269E+01  0.46480014762E-01 -0.12075936868E+01  0.22177936356E+01  0.51100000000E-03 0. -1.
        -11    1    4    4    0    0  0.31606514782E+02 -0.72488007602E+01 -0.25647763395E+02  0.41343979689E+02  0.51100000000E-03 0.  1.
         12    1    4    4    0    0  0.28111650037E+01  0.27754857835E+01 -0.14995521580E+01  0.42254735459E+01  0.00000000000E+00 0. -1.
</event>
<event>
 8    1  0.5331800E-011  0.9118800E+02  0.7816164E-02  0.1184000E+00
        -11   -1    0    0    0    0  0.00000000000E+00  0.00000000000E+00  0.45593999997E+02  0.45594000000E+02  0.51100000000E-03 0. -1.
         11   -1    0    0    0    0 -0.00000000000E+00 -0.00000000000E+00 -0.45593999997E+02  0.45594000000E+02  0.51100000000E-03 0.  1.
         23    2    1    2    0    0  0.00000000000E+00  0.00000000000E+00 -0.88817841970E-15  0.91188000000E+02  0.91188000000E+02 0.  0.
    9900012    2    3    3    0    0 -0.34781920243E+02  0.24892503637E+02  0.73623914651E+01  0.47787268195E+02  0.19999987007E+02 0.  0.
        -12    1    3    3    0    0  0.34781920243E+02 -0.24892503637E+02 -0.73623914651E+01  0.43400731805E+02  0.00000000000E+00 0.  1.
         11    1    4    4    0    0 -0.15849258343E+02  0.17236040627E+01  0.25526052857E+01  0.16145760898E+02  0.51100000000E-03 0. -1.
        -11    1    4    4    0    0 -0.24466244562E+01  0.81106297423E+01  0.38159203486E+01  0.92913688127E+01  0.51100000000E-03 0.  1.
         12    1    4    4    0    0 -0.16486037445E+02  0.15058269832E+02  0.99386583077E+00  0.22350138484E+02  0.00000000000E+00 0. -1.
</event>
<event>
 8    1  0.5331800E-011  0.9118800E+02  0.7816164E-02  0.1184000E+00
        -11   -1    0    0    0    0  0.00000000000E+00  0.00000000000E+00  0.45593999997E+02  0.45594000000E+02  0.51100000000E-03 0.  1.
         11   -1    0    0    0    0 -0.00000000000E+00 -0.00000000000E+00 -0.45593999997E+02  0.45594000000E+02  0.51100000000E-03 0. -1.
         23    2    1    2    0    0  0.71054273576E-14 -0.88817841970E-15  0.00000000000E+00  0.91188000000E+02  0.91188000000E+02 0.  0.
    9900012    2    3    3    0    0  0.39627786550E+02 -0.53592314401E+01 -0.16868365169E+02  0.47787256089E+02  0.19999931814E+02 0.  0.
         12    1    3    3    0    0 -0.39627786550E+02  0.53592314401E+01  0.16868365169E+02  0.43400743911E+02  0.00000000000E+00 0. -1.
         11    1    4    4    0    0  0.33453885560E+01 -0.99429418518E+00 -0.37011935182E+01  0.50871484387E+01  0.51100000000E-03 0. -1.
        -11    1    4    4    0    0 -0.15500581616E+01  0.16973638961E+01 -0.90984665604E+00  0.24721540604E+01  0.51100000000E-03 0.  1.
        -12    1    4    4    0    0  0.37832456156E+02 -0.60623011510E+01 -0.12257324995E+02  0.40227953590E+02  0.00000000000E+00 0.  1.
</event>
<event>
 8    1  0.5331800E-011  0.9118800E+02  0.7816164E-02  0.1184000E+00
        -11   -1    0    0    0    0  0.00000000000E+00  0.00000000000E+00  0.45593999997E+02  0.45594000000E+02  0.51100000000E-03 0. -1.
         11   -1    0    0    0    0 -0.00000000000E+00 -0.00000000000E+00 -0.45593999997E+02  0.45594000000E+02  0.51100000000E-03 0.  1.
         23    2    1    2    0    0  0.71054273576E-14 -0.55511151231E-16  0.00000000000E+00  0.91188000000E+02  0.91188000000E+02 0.  0.
    9900012    2    3    3    0    0  0.27703587998E+02 -0.43387826172E+00 -0.33405779021E+02  0.47787272929E+02  0.20000008593E+02 0.  0.
         12    1    3    3    0    0 -0.27703587998E+02  0.43387826172E+00  0.33405779021E+02  0.43400727071E+02  0.00000000000E+00 0. -1.
         11    1    4    4    0    0 -0.25316290485E+01 -0.34624275170E+00 -0.58430494710E+01  0.63773236600E+01  0.51100000000E-03 0. -1.
        -11    1    4    4    0    0  0.17547959520E+02  0.11208089171E+00 -0.20127513682E+02  0.26703188063E+02  0.51100000000E-03 0.  1.
         12    1    4    4    0    0  0.12687257526E+02 -0.19971640173E+00 -0.74352158683E+01  0.14706761206E+02  0.00000000000E+00 0. -1.
</event>
<event>
 8    1  0.5331800E-011  0.9118800E+02  0.7816164E-02  0.1184000E+00
        -11   -1    0    0    0    0  0.00000000000E+00  0.00000000000E+00  0.45593999997E+02  0.45594000000E+02  0.51100000000E-03 0. -1.
         11   -1    0    0    0    0 -0.00000000000E+00 -0.00000000000E+00 -0.45593999997E+02  0.45594000000E+02  0.51100000000E-03 0.  1.
         23    2    1    2    0    0  0.71054273576E-14  0.00000000000E+00 -0.35527136788E-14  0.91188000000E+02  0.91188000000E+02 0.  0.
    9900012    2    3    3    0    0 -0.35666933460E+02  0.13132930288E+02  0.20952792914E+02  0.47787268079E+02  0.19999986480E+02 0.  0.
        -12    1    3    3    0    0  0.35666933460E+02 -0.13132930288E+02 -0.20952792914E+02  0.43400731921E+02  0.00000000000E+00 0.  1.
         11    1    4    4    0    0 -0.26466424567E+02  0.10588369864E+02  0.23968749956E+02  0.37243605900E+02  0.51100000000E-03 0. -1.
        -11    1    4    4    0    0 -0.85273507768E+01  0.32367056226E+01 -0.25447457244E+01  0.94693033334E+01  0.51100000000E-03 0.  1.
         12    1    4    4    0    0 -0.67315811571E+00 -0.69214519813E+00 -0.47121131699E+00  0.10743588457E+01  0.00000000000E+00 0. -1.
</event>
<event>
 8    1  0.5331800E-011  0.9118800E+02  0.7816164E-02  0.1184000E+00
        -11   -1    0    0    0    0  0.00000000000E+00  0.00000000000E+00  0.45593999997E+02  0.45594000000E+02  0.51100000000E-03 0. -1.
         11   -1    0    0    0    0 -0.00000000000E+00 -0.00000000000E+00 -0.45593999997E+02  0.45594000000E+02  0.51100000000E-03 0.  1.
         23    2    1    2    0    0  0.00000000000E+00  0.00000000000E+00  0.00000000000E+00  0.91188000000E+02  0.91188000000E+02 0.  0.
    9900012    2    3    3    0    0  0.83714743137E+01 -0.14648632830E+02 -0.39986980878E+02  0.47787278051E+02  0.20000031946E+02 0.  0.
         12    1    3    3    0    0 -0.83714743137E+01  0.14648632830E+02  0.39986980878E+02  0.43400721949E+02  0.00000000000E+00 0. -1.
         11    1    4    4    0    0  0.57099176646E+01 -0.18431089497E+01 -0.49799817866E+01  0.77974629972E+01  0.51100000000E-03 0. -1.
        -11    1    4    4    0    0 -0.44866259482E+01 -0.32302741490E+01 -0.20305893079E+02  0.21045041637E+02  0.51100000000E-03 0.  1.
        -12    1    4    4    0    0  0.71481825973E+01 -0.95752497311E+01 -0.14701106012E+02  0.18944773417E+02  0.00000000000E+00 0.  1.
</event>
<event>
 8    1  0.5331800E-011  0.9118800E+02  0.7816164E-02  0.1184000E+00
        -11   -1    0    0    0    0  0.00000000000E+00  0.00000000000E+00  0.45593999997E+02  0.45594000000E+02  0.51100000000E-03 0. -1.
         11   -1    0    0    0    0 -0.00000000000E+00 -0.00000000000E+00 -0.45593999997E+02  0.45594000000E+02  0.51100000000E-03 0.  1.
         23    2    1    2    0    0  0.00000000000E+00  0.00000000000E+00  0.00000000000E+00  0.91188000000E+02  0.91188000000E+02 0.  0.
    9900012    2    3    3    0    0  0.87110659084E+01 -0.20112769950E+02 -0.37459545311E+02  0.47787265914E+02  0.19999976608E+02 0.  0.
         12    1    3    3    0    0 -0.87110659084E+01  0.20112769950E+02  0.37459545311E+02  0.43400734086E+02  0.00000000000E+00 0. -1.
         11    1    4    4    0    0  0.51024993011E+01 -0.63065269611E+01 -0.23775296837E+01  0.84534270616E+01  0.51100000000E-03 0. -1.
        -11    1    4    4    0    0  0.62225903275E+01 -0.86525811223E+01 -0.29217391122E+02  0.31100542354E+02  0.51100000000E-03 0.  1.
        -12    1    4    4    0    0 -0.26140237201E+01 -0.51536618671E+01 -0.58646245044E+01  0.82332964982E+01  0.00000000000E+00 0.  1.
</event>
<event>
 8    1  0.5331800E-011  0.9118800E+02  0.7816164E-02  0.1184000E+00
        -11   -1    0    0    0    0  0.00000000000E+00  0.00000000000E+00  0.45593999997E+02  0.45594000000E+02  0.51100000000E-03 0. -1.
         11   -1    0    0    0    0 -0.00000000000E+00 -0.00000000000E+00 -0.45593999997E+02  0.45594000000E+02  0.51100000000E-03 0.  1.
         23    2    1    2    0    0 -0.88817841970E-15  0.00000000000E+00  0.00000000000E+00  0.91188000000E+02  0.91188000000E+02 0.  0.
    9900012    2    3    3    0    0 -0.61427365808E+01 -0.43647726287E+01 -0.42741534251E+02  0.47787271862E+02  0.20000003726E+02 0.  0.
         12    1    3    3    0    0  0.61427365808E+01  0.43647726287E+01  0.42741534251E+02  0.43400728138E+02  0.00000000000E+00 0. -1.
         11    1    4    4    0    0  0.64002421141E+01  0.12884740350E+00 -0.72543148603E+01  0.96749565955E+01  0.51100000000E-03 0. -1.
        -11    1    4    4    0    0 -0.11900807547E+02 -0.48277162128E+01 -0.34874089970E+02  0.37163667952E+02  0.51100000000E-03 0.  1.
        -12    1    4    4    0    0 -0.64217114802E+00  0.33409618064E+00 -0.61312942040E+00  0.94864731456E+00  0.00000000000E+00 0.  1.
</event>
<event>
 8    1  0.5331800E-011  0.9118800E+02  0.7816164E-02  0.1184000E+00
        -11   -1    0    0    0    0  0.00000000000E+00  0.00000000000E+00  0.45593999997E+02  0.45594000000E+02  0.51100000000E-03 0. -1.
         11   -1    0    0    0    0 -0.00000000000E+00 -0.00000000000E+00 -0.45593999997E+02  0.45594000000E+02  0.51100000000E-03 0.  1.
         23    2    1    2    0    0 -0.88817841970E-15  0.00000000000E+00  0.00000000000E+00  0.91188000000E+02  0.91188000000E+02 0.  0.
    9900012    2    3    3    0    0 -0.56220193536E+01 -0.19465378829E+02 -0.38381164376E+02  0.47787287409E+02  0.20000074611E+02 0.  0.
         12    1    3    3    0    0  0.56220193536E+01  0.19465378829E+02  0.38381164376E+02  0.43400712591E+02  0.00000000000E+00 0. -1.
         11    1    4    4    0    0 -0.18135914990E+01 -0.10450365546E+01  0.15827432724E+01  0.26241745470E+01  0.51100000000E-03 0. -1.
        -11    1    4    4    0    0  0.15579878222E+01 -0.12632647714E+02 -0.28836597685E+02  0.31520794416E+02  0.51100000000E-03 0.  1.
        -12    1    4    4    0    0 -0.53664156768E+01 -0.57876945608E+01 -0.11127309963E+02  0.13642318445E+02  0.00000000000E+00 0.  1.
</event>
<event>
 8    1  0.5331800E-011  0.9118800E+02  0.7816164E-02  0.1184000E+00
        -11   -1    0    0    0    0  0.00000000000E+00  0.00000000000E+00  0.45593999997E+02  0.45594000000E+02  0.51100000000E-03 0. -1.
         11   -1    0    0    0    0 -0.00000000000E+00 -0.00000000000E+00 -0.45593999997E+02  0.45594000000E+02  0.51100000000E-03 0.  1.
         23    2    1    2    0    0  0.00000000000E+00  0.71054273576E-14 -0.35527136788E-14  0.91188000000E+02  0.91188000000E+02 0.  0.
    9900012    2    3    3    0    0  0.62649950091E+00 -0.34376621902E+02  0.26485539950E+02  0.47787211281E+02  0.19999727512E+02 0.  0.
        -12    1    3    3    0    0 -0.62649950091E+00  0.34376621902E+02 -0.26485539950E+02  0.43400788719E+02  0.00000000000E+00 0.  1.
         11    1    4    4    0    0  0.55537257865E+01 -0.25378786925E+02  0.17368048907E+02  0.31250213103E+02  0.51100000000E-03 0. -1.
        -11    1    4    4    0    0  0.64494907950E+00  0.10279927398E+00 -0.14057350729E+01  0.15500381809E+01  0.51100000000E-03 0.  1.
         12    1    4    4    0    0 -0.55721753651E+01 -0.91006342513E+01  0.10523226116E+02  0.14986959997E+02  0.00000000000E+00 0. -1.
</event>
<event>
 8    1  0.5331800E-011  0.9118800E+02  0.7816164E-02  0.1184000E+00
        -11   -1    0    0    0    0  0.00000000000E+00  0.00000000000E+00  0.45593999997E+02  0.45594000000E+02  0.51100000000E-03 0.  1.
         11   -1    0    0    0    0 -0.00000000000E+00 -0.00000000000E+00 -0.45593999997E+02  0.45594000000E+02  0.51100000000E-03 0. -1.
         23    2    1    2    0    0  0.35527136788E-14 -0.71054273576E-14 -0.17763568394E-14  0.91188000000E+02  0.91188000000E+02 0.  0.
    9900012    2    3    3    0    0  0.23712691745E+02 -0.35241948062E+02 -0.89071134864E+01  0.47787270471E+02  0.19999997387E+02 0.  0.
         12    1    3    3    0    0 -0.23712691745E+02  0.35241948062E+02  0.89071134864E+01  0.43400729529E+02  0.00000000000E+00 0. -1.
         11    1    4    4    0    0  0.55345881399E+01 -0.51280580968E+01 -0.38921642974E+01  0.84898521130E+01  0.51100000000E-03 0. -1.
        -11    1    4    4    0    0  0.16316194480E+02 -0.10805988135E+02 -0.21064182843E+01  0.19683103925E+02  0.51100000000E-03 0.  1.
        -12    1    4    4    0    0  0.18619091252E+01 -0.19307901830E+02 -0.29085309047E+01  0.19614314434E+02  0.00000000000E+00 0.  1.
</event>
