<event>
 7    1  0.1442665E-008  0.4614232E+02  0.7816164E-02  0.1320468E+00
        -11   -1    0    0    0    0  0.00000000000E+00  0.00000000000E+00  0.45593999997E+02  0.45594000000E+02  0.51100000000E-03 0.  1.
         11   -1    0    0    0    0 -0.00000000000E+00 -0.00000000000E+00 -0.45593999997E+02  0.45594000000E+02  0.51100000000E-03 0. -1.
    9900012    2    1    2    0    0  0.18128491988E+02  0.38967969306E+02  0.13489578346E+02  0.46142316771E+02  0.99999909720E+01 0.  0.
         12    1    1    2    0    0 -0.18128491988E+02 -0.38967969306E+02 -0.13489578346E+02  0.45045683229E+02  0.00000000000E+00 0. -1.
         11    1    3    3    0    0  0.10087851332E+02  0.18388185037E+02  0.18493905516E+01  0.21054936217E+02  0.51100000000E-03 0. -1.
        -11    1    3    3    0    0  0.32899821638E+01  0.11683193222E+02  0.64273270103E+01  0.13734319032E+02  0.51100000000E-03 0.  1.
         12    1    3    3    0    0  0.47506584925E+01  0.88965910477E+01  0.52128607838E+01  0.11353061523E+02  0.00000000000E+00 0. -1.
</event>
<event>
 7    1  0.1442665E-008  0.4614232E+02  0.7816164E-02  0.1320468E+00
        -11   -1    0    0    0    0  0.00000000000E+00  0.00000000000E+00  0.45593999997E+02  0.45594000000E+02  0.51100000000E-03 0.  1.
         11   -1    0    0    0    0 -0.00000000000E+00 -0.00000000000E+00 -0.45593999997E+02  0.45594000000E+02  0.51100000000E-03 0. -1.
    9900012    2    1    2    0    0  0.21941114908E+01  0.25523901980E+02  0.37051718156E+02  0.46142317456E+02  0.99999972214E+01 0.  0.
         12    1    1    2    0    0 -0.21941114908E+01 -0.25523901980E+02 -0.37051718156E+02  0.45045682544E+02  0.00000000000E+00 0. -1.
         11    1    3    3    0    0  0.70770033488E+00 -0.41454222866E-01  0.32893832668E+00  0.78151065282E+00  0.51100000000E-03 0.  1.
        -11    1    3    3    0    0 -0.10859795061E+01  0.21911963704E+01  0.72810833104E+01  0.76808116404E+01  0.51100000000E-03 0. -1.
        -12    1    3    3    0    0  0.25723906620E+01  0.23374159833E+02  0.29441696519E+02  0.37679995163E+02  0.00000000000E+00 0.  1.
</event>
<event>
 7    1  0.1442665E-008  0.4614232E+02  0.7816164E-02  0.1320468E+00
        -11   -1    0    0    0    0  0.00000000000E+00  0.00000000000E+00  0.45593999997E+02  0.45594000000E+02  0.51100000000E-03 0. -1.
         11   -1    0    0    0    0 -0.00000000000E+00 -0.00000000000E+00 -0.45593999997E+02  0.45594000000E+02  0.51100000000E-03 0.  1.
    9900012    2    1    2    0    0  0.17288505351E+02  0.39439890277E+02  0.13218027235E+02  0.46142316452E+02  0.99999880607E+01 0.  0.
         12    1    1    2    0    0 -0.17288505351E+02 -0.39439890277E+02 -0.13218027235E+02  0.45045683548E+02  0.00000000000E+00 0. -1.
         11    1    3    3    0    0  0.69532641474E+01  0.90487877428E+01  0.26718207650E+01  0.11720369806E+02  0.51100000000E-03 0. -1.
        -11    1    3    3    0    0  0.92913920747E+01  0.27180247429E+02  0.11456894751E+02  0.30925010179E+02  0.51100000000E-03 0.  1.
        -12    1    3    3    0    0  0.10438491288E+01  0.32108551050E+01 -0.91068828056E+00  0.34969364669E+01  0.00000000000E+00 0.  1.
</event>
<event>
 7    1  0.1442665E-008  0.4614231E+02  0.7816164E-02  0.1320468E+00
        -11   -1    0    0    0    0  0.00000000000E+00  0.00000000000E+00  0.45593999997E+02  0.45594000000E+02  0.51100000000E-03 0. -1.
         11   -1    0    0    0    0 -0.00000000000E+00 -0.00000000000E+00 -0.45593999997E+02  0.45594000000E+02  0.51100000000E-03 0.  1.
    9900012    2    1    2    0    0 -0.11169491257E+02 -0.34252597134E+02 -0.27039154730E+02  0.46142313926E+02  0.99999650270E+01 0.  0.
         12    1    1    2    0    0  0.11169491257E+02  0.34252597134E+02  0.27039154730E+02  0.45045686074E+02  0.00000000000E+00 0. -1.
         11    1    3    3    0    0  0.10639935087E+01 -0.11605038985E+01 -0.71699989549E+00  0.17300117330E+01  0.51100000000E-03 0. -1.
        -11    1    3    3    0    0 -0.10183110874E+02 -0.19250927053E+02 -0.16183789332E+02  0.27133171154E+02  0.51100000000E-03 0.  1.
        -12    1    3    3    0    0 -0.20503738915E+01 -0.13841166182E+02 -0.10138365503E+02  0.17279131039E+02  0.00000000000E+00 0.  1.
</event>
<event>
 7    1  0.1442665E-008  0.4614232E+02  0.7816164E-02  0.1320468E+00
        -11   -1    0    0    0    0  0.00000000000E+00  0.00000000000E+00  0.45593999997E+02  0.45594000000E+02  0.51100000000E-03 0.  1.
         11   -1    0    0    0    0 -0.00000000000E+00 -0.00000000000E+00 -0.45593999997E+02  0.45594000000E+02  0.51100000000E-03 0. -1.
    9900012    2    1    2    0    0 -0.22896642070E+02 -0.32860065139E+02  0.20617311532E+02  0.46142316146E+02  0.99999852760E+01 0.  0.
         12    1    1    2    0    0  0.22896642070E+02  0.32860065139E+02 -0.20617311532E+02  0.45045683854E+02  0.00000000000E+00 0. -1.
         11    1    3    3    0    0 -0.19928398838E+02 -0.31482779170E+02  0.17024880876E+02  0.40965266185E+02  0.51100000000E-03 0. -1.
        -11    1    3    3    0    0 -0.30440193528E+01 -0.14243872123E+01  0.27851644354E+01  0.43648681474E+01  0.51100000000E-03 0.  1.
         12    1    3    3    0    0  0.75776120732E-01  0.47101243478E-01  0.80726622067E+00  0.81218181378E+00  0.00000000000E+00 0. -1.
</event>
<event>
 7    1  0.1442665E-008  0.4614232E+02  0.7816164E-02  0.1320468E+00
        -11   -1    0    0    0    0  0.00000000000E+00  0.00000000000E+00  0.45593999997E+02  0.45594000000E+02  0.51100000000E-03 0.  1.
         11   -1    0    0    0    0 -0.00000000000E+00 -0.00000000000E+00 -0.45593999997E+02  0.45594000000E+02  0.51100000000E-03 0. -1.
    9900012    2    1    2    0    0 -0.12549725903E+02 -0.24020893716E+02  0.35980752767E+02  0.46142317356E+02  0.99999963095E+01 0.  0.
         12    1    1    2    0    0  0.12549725903E+02  0.24020893716E+02 -0.35980752767E+02  0.45045682644E+02  0.00000000000E+00 0. -1.
         11    1    3    3    0    0 -0.22712167306E+01 -0.57403589227E+01  0.15467814778E+02  0.16654231903E+02  0.51100000000E-03 0. -1.
        -11    1    3    3    0    0 -0.19065842667E+01 -0.53838693092E+01  0.43454169401E+01  0.71766120801E+01  0.51100000000E-03 0.  1.
        -12    1    3    3    0    0 -0.83719249060E+01 -0.12896665484E+02  0.16167521048E+02  0.22311473373E+02  0.00000000000E+00 0.  1.
</event>
<event>
 7    1  0.1442665E-008  0.4614232E+02  0.7816164E-02  0.1320468E+00
        -11   -1    0    0    0    0  0.00000000000E+00  0.00000000000E+00  0.45593999997E+02  0.45594000000E+02  0.51100000000E-03 0. -1.
         11   -1    0    0    0    0 -0.00000000000E+00 -0.00000000000E+00 -0.45593999997E+02  0.45594000000E+02  0.51100000000E-03 0.  1.
    9900012    2    1    2    0    0  0.12778859821E+02  0.25020414711E+02 -0.35210696064E+02  0.46142317322E+02  0.99999959918E+01 0.  0.
         12    1    1    2    0    0 -0.12778859821E+02 -0.25020414711E+02  0.35210696064E+02  0.45045682678E+02  0.00000000000E+00 0. -1.
         11    1    3    3    0    0  0.42428643200E+01  0.54701273945E+01 -0.38882999800E+01  0.79399665205E+01  0.51100000000E-03 0. -1.
        -11    1    3    3    0    0  0.87820009431E+01  0.18812303804E+02 -0.31100502691E+02  0.37393416304E+02  0.51100000000E-03 0.  1.
         12    1    3    3    0    0 -0.24600544257E+00  0.73798351257E+00 -0.22189339308E+00  0.80893449703E+00  0.00000000000E+00 0. -1.
</event>
<event>
 7    1  0.1442665E-008  0.4614232E+02  0.7816164E-02  0.1320468E+00
        -11   -1    0    0    0    0  0.00000000000E+00  0.00000000000E+00  0.45593999997E+02  0.45594000000E+02  0.51100000000E-03 0. -1.
         11   -1    0    0    0    0 -0.00000000000E+00 -0.00000000000E+00 -0.45593999997E+02  0.45594000000E+02  0.51100000000E-03 0.  1.
    9900012    2    1    2    0    0  0.10859873413E+02  0.35508369546E+02 -0.25501616359E+02  0.46142316574E+02  0.99999891756E+01 0.  0.
         12    1    1    2    0    0 -0.10859873413E+02 -0.35508369546E+02  0.25501616359E+02  0.45045683426E+02  0.00000000000E+00 0. -1.
         11    1    3    3    0    0  0.78299561878E+01  0.15086496893E+02 -0.11223288250E+02  0.20368426592E+02  0.51100000000E-03 0. -1.
        -11    1    3    3    0    0  0.27216815487E+01  0.81749048114E+01 -0.30039191540E+01  0.91246999772E+01  0.51100000000E-03 0.  1.
        -12    1    3    3    0    0  0.30823567638E+00  0.12246967842E+02 -0.11274408955E+02  0.16649190005E+02  0.00000000000E+00 0.  1.
</event>
<event>
 7    1  0.1442665E-008  0.4614231E+02  0.7816164E-02  0.1320468E+00
        -11   -1    0    0    0    0  0.00000000000E+00  0.00000000000E+00  0.45593999997E+02  0.45594000000E+02  0.51100000000E-03 0.  1.
         11   -1    0    0    0    0 -0.00000000000E+00 -0.00000000000E+00 -0.45593999997E+02  0.45594000000E+02  0.51100000000E-03 0. -1.
    9900012    2    1    2    0    0  0.38601921835E+01 -0.17527346558E+02  0.41315915026E+02  0.46142314352E+02  0.99999689165E+01 0.  0.
         12    1    1    2    0    0 -0.38601921835E+01  0.17527346558E+02 -0.41315915026E+02  0.45045685648E+02  0.00000000000E+00 0. -1.
         11    1    3    3    0    0 -0.41791363525E+00 -0.26355291477E+01  0.28488934387E+01  0.39034420427E+01  0.51100000000E-03 0. -1.
        -11    1    3    3    0    0  0.45145766288E+01 -0.55744140306E+01  0.23830481129E+02  0.24886689716E+02  0.51100000000E-03 0.  1.
        -12    1    3    3    0    0 -0.23647081009E+00 -0.93174033796E+01  0.14636540458E+02  0.17352182593E+02  0.00000000000E+00 0.  1.
</event>
<event>
 7    1  0.1442665E-008  0.4614232E+02  0.7816164E-02  0.1320468E+00
        -11   -1    0    0    0    0  0.00000000000E+00  0.00000000000E+00  0.45593999997E+02  0.45594000000E+02  0.51100000000E-03 0.  1.
         11   -1    0    0    0    0 -0.00000000000E+00 -0.00000000000E+00 -0.45593999997E+02  0.45594000000E+02  0.51100000000E-03 0. -1.
    9900012    2    1    2    0    0  0.42094676381E+02 -0.16007859188E+02  0.94853917946E+00  0.46142322494E+02  0.10000043160E+02 0.  0.
         12    1    1    2    0    0 -0.42094676381E+02  0.16007859188E+02 -0.94853917946E+00  0.45045677506E+02  0.00000000000E+00 0. -1.
         11    1    3    3    0    0  0.29377089170E+02 -0.13695602847E+02 -0.23112343052E+01  0.32494995149E+02  0.51100000000E-03 0. -1.
        -11    1    3    3    0    0  0.11357910643E+02 -0.25311171765E+01  0.20530208971E+01  0.11816242355E+02  0.51100000000E-03 0.  1.
         12    1    3    3    0    0  0.13596765680E+01  0.21886083532E+00  0.12067525876E+01  0.18310849905E+01  0.00000000000E+00 0. -1.
</event>
<event>
 7    1  0.1442665E-008  0.4614232E+02  0.7816164E-02  0.1320468E+00
        -11   -1    0    0    0    0  0.00000000000E+00  0.00000000000E+00  0.45593999997E+02  0.45594000000E+02  0.51100000000E-03 0.  1.
         11   -1    0    0    0    0 -0.00000000000E+00 -0.00000000000E+00 -0.45593999997E+02  0.45594000000E+02  0.51100000000E-03 0. -1.
    9900012    2    1    2    0    0  0.43538144356E+02 -0.88416122457E+01  0.74410565252E+01  0.46142318262E+02  0.10000004566E+02 0.  0.
         12    1    1    2    0    0 -0.43538144356E+02  0.88416122457E+01 -0.74410565252E+01  0.45045681738E+02  0.00000000000E+00 0. -1.
         11    1    3    3    0    0 -0.33937450016E-01  0.33417626099E+00 -0.70991665185E+00  0.78537089175E+00  0.51100000000E-03 0. -1.
        -11    1    3    3    0    0  0.59055641121E+01 -0.76378919926E+00  0.23681821460E+00  0.59594584109E+01  0.51100000000E-03 0.  1.
         12    1    3    3    0    0  0.37666517694E+02 -0.84119993075E+01  0.79141549624E+01  0.39397488959E+02  0.00000000000E+00 0. -1.
</event>
<event>
 7    1  0.1442665E-008  0.4614232E+02  0.7816164E-02  0.1320468E+00
        -11   -1    0    0    0    0  0.00000000000E+00  0.00000000000E+00  0.45593999997E+02  0.45594000000E+02  0.51100000000E-03 0.  1.
         11   -1    0    0    0    0 -0.00000000000E+00 -0.00000000000E+00 -0.45593999997E+02  0.45594000000E+02  0.51100000000E-03 0. -1.
    9900012    2    1    2    0    0  0.17984053545E+02  0.30547658618E+02  0.27794386242E+02  0.46142317238E+02  0.99999952254E+01 0.  0.
         12    1    1    2    0    0 -0.17984053545E+02 -0.30547658618E+02 -0.27794386242E+02  0.45045682762E+02  0.00000000000E+00 0. -1.
         11    1    3    3    0    0 -0.83540715896E+00  0.48733966446E+01  0.39306439389E+01  0.63164754422E+01  0.51100000000E-03 0. -1.
        -11    1    3    3    0    0  0.10325758701E+02  0.15110361269E+02  0.12882201078E+02  0.22380692914E+02  0.51100000000E-03 0.  1.
        -12    1    3    3    0    0  0.84937020036E+01  0.10563900705E+02  0.10981541225E+02  0.17445148882E+02  0.00000000000E+00 0.  1.
</event>
<event>
 7    1  0.1442665E-008  0.4614232E+02  0.7816164E-02  0.1320468E+00
        -11   -1    0    0    0    0  0.00000000000E+00  0.00000000000E+00  0.45593999997E+02  0.45594000000E+02  0.51100000000E-03 0.  1.
         11   -1    0    0    0    0 -0.00000000000E+00 -0.00000000000E+00 -0.45593999997E+02  0.45594000000E+02  0.51100000000E-03 0. -1.
    9900012    2    1    2    0    0  0.25793586187E+02  0.29521006782E+02  0.22188161925E+02  0.46142318082E+02  0.10000002929E+02 0.  0.
         12    1    1    2    0    0 -0.25793586187E+02 -0.29521006782E+02 -0.22188161925E+02  0.45045681918E+02  0.00000000000E+00 0. -1.
         11    1    3    3    0    0  0.40004197029E+01  0.92644253896E+01  0.26458424735E+01  0.10432325640E+02  0.51100000000E-03 0. -1.
        -11    1    3    3    0    0  0.11862253520E+02  0.99517034032E+01  0.11559599947E+02  0.19322883077E+02  0.51100000000E-03 0.  1.
        -12    1    3    3    0    0  0.99309129644E+01  0.10304877989E+02  0.79827195046E+01  0.16387109366E+02  0.00000000000E+00 0.  1.
</event>
<event>
 7    1  0.1442665E-008  0.4614232E+02  0.7816164E-02  0.1320468E+00
        -11   -1    0    0    0    0  0.00000000000E+00  0.00000000000E+00  0.45593999997E+02  0.45594000000E+02  0.51100000000E-03 0.  1.
         11   -1    0    0    0    0 -0.00000000000E+00 -0.00000000000E+00 -0.45593999997E+02  0.45594000000E+02  0.51100000000E-03 0. -1.
    9900012    2    1    2    0    0 -0.41804743503E+02  0.11837843112E+02  0.11888749943E+02  0.46142317809E+02  0.10000000436E+02 0.  0.
         12    1    1    2    0    0  0.41804743503E+02 -0.11837843112E+02 -0.11888749943E+02  0.45045682191E+02  0.00000000000E+00 0. -1.
         11    1    3    3    0    0 -0.10951858128E+02  0.21914186151E+00  0.54106568023E+01  0.12217464013E+02  0.51100000000E-03 0. -1.
        -11    1    3    3    0    0 -0.13794187857E+02  0.72975859839E+01  0.17508919575E+01  0.15703502881E+02  0.51100000000E-03 0.  1.
         12    1    3    3    0    0 -0.17058697518E+02  0.43211152662E+01  0.47272011831E+01  0.18221350915E+02  0.00000000000E+00 0. -1.
</event>
<event>
 7    1  0.1442665E-008  0.4614232E+02  0.7816164E-02  0.1320468E+00
        -11   -1    0    0    0    0  0.00000000000E+00  0.00000000000E+00  0.45593999997E+02  0.45594000000E+02  0.51100000000E-03 0.  1.
         11   -1    0    0    0    0 -0.00000000000E+00 -0.00000000000E+00 -0.45593999997E+02  0.45594000000E+02  0.51100000000E-03 0. -1.
    9900012    2    1    2    0    0  0.10843393070E+02 -0.23887706690E+02  0.36618460820E+02  0.46142318998E+02  0.10000011277E+02 0.  0.
         12    1    1    2    0    0 -0.10843393070E+02  0.23887706690E+02 -0.36618460820E+02  0.45045681002E+02  0.00000000000E+00 0. -1.
         11    1    3    3    0    0  0.21572967991E+01 -0.27147387319E+01  0.99517123299E+01  0.10538515760E+02  0.51100000000E-03 0. -1.
        -11    1    3    3    0    0  0.10157807970E+01 -0.27194730884E+01  0.99089648671E+00  0.30674452912E+01  0.51100000000E-03 0.  1.
        -12    1    3    3    0    0  0.76703154737E+01 -0.18453494869E+02  0.25675852003E+02  0.32536357947E+02  0.00000000000E+00 0.  1.
</event>
<event>
 7    1  0.1442665E-008  0.4614232E+02  0.7816164E-02  0.1320468E+00
        -11   -1    0    0    0    0  0.00000000000E+00  0.00000000000E+00  0.45593999997E+02  0.45594000000E+02  0.51100000000E-03 0.  1.
         11   -1    0    0    0    0 -0.00000000000E+00 -0.00000000000E+00 -0.45593999997E+02  0.45594000000E+02  0.51100000000E-03 0. -1.
    9900012    2    1    2    0    0 -0.27881645283E+02 -0.16335040970E+02  0.31383017580E+02  0.46142317636E+02  0.99999988573E+01 0.  0.
         12    1    1    2    0    0  0.27881645283E+02  0.16335040970E+02 -0.31383017580E+02  0.45045682364E+02  0.00000000000E+00 0. -1.
         11    1    3    3    0    0 -0.17544839811E+02 -0.12961036534E+02  0.22459926735E+02  0.31309075062E+02  0.51100000000E-03 0.  1.
        -11    1    3    3    0    0 -0.67086577996E+01  0.15933789220E+00  0.58985272316E+01  0.89344334907E+01  0.51100000000E-03 0. -1.
        -12    1    3    3    0    0 -0.36281476724E+01 -0.35333423292E+01  0.30245636138E+01  0.58988090834E+01  0.00000000000E+00 0.  1.
</event>
<event>
 7    1  0.1442665E-008  0.4614232E+02  0.7816164E-02  0.1320468E+00
        -11   -1    0    0    0    0  0.00000000000E+00  0.00000000000E+00  0.45593999997E+02  0.45594000000E+02  0.51100000000E-03 0. -1.
         11   -1    0    0    0    0 -0.00000000000E+00 -0.00000000000E+00 -0.45593999997E+02  0.45594000000E+02  0.51100000000E-03 0.  1.
    9900012    2    1    2    0    0 -0.22786816458E+02 -0.38633600597E+02  0.41616648738E+01  0.46142317033E+02  0.99999933626E+01 0.  0.
         12    1    1    2    0    0  0.22786816458E+02  0.38633600597E+02 -0.41616648738E+01  0.45045682967E+02  0.00000000000E+00 0. -1.
         11    1    3    3    0    0 -0.12125736443E+01 -0.78914463546E+01  0.70751687686E+00  0.80153503231E+01  0.51100000000E-03 0. -1.
        -11    1    3    3    0    0 -0.20319252258E+02 -0.28110190014E+02  0.17055426556E+01  0.34726987646E+02  0.51100000000E-03 0.  1.
         12    1    3    3    0    0 -0.12549905562E+01 -0.26319642287E+01  0.17486053414E+01  0.33999790642E+01  0.00000000000E+00 0. -1.
</event>
<event>
 7    1  0.1442665E-008  0.4614232E+02  0.7816164E-02  0.1320468E+00
        -11   -1    0    0    0    0  0.00000000000E+00  0.00000000000E+00  0.45593999997E+02  0.45594000000E+02  0.51100000000E-03 0. -1.
         11   -1    0    0    0    0 -0.00000000000E+00 -0.00000000000E+00 -0.45593999997E+02  0.45594000000E+02  0.51100000000E-03 0.  1.
    9900012    2    1    2    0    0  0.14800748520E+02 -0.41758608064E+02 -0.81406406285E+01  0.46142317254E+02  0.99999953779E+01 0.  0.
         12    1    1    2    0    0 -0.14800748520E+02  0.41758608064E+02  0.81406406285E+01  0.45045682746E+02  0.00000000000E+00 0. -1.
         11    1    3    3    0    0  0.26585949245E+01 -0.38497797540E+01 -0.16988319238E+01  0.49774452577E+01  0.51100000000E-03 0. -1.
        -11    1    3    3    0    0  0.39419627339E+01 -0.11953786159E+02 -0.59946431331E+01  0.13941586003E+02  0.51100000000E-03 0.  1.
        -12    1    3    3    0    0  0.82001908619E+01 -0.25955042151E+02 -0.44716557156E+00  0.27223285994E+02  0.00000000000E+00 0.  1.
</event>
<event>
 7    1  0.1442665E-008  0.4614232E+02  0.7816164E-02  0.1320468E+00
        -11   -1    0    0    0    0  0.00000000000E+00  0.00000000000E+00  0.45593999997E+02  0.45594000000E+02  0.51100000000E-03 0. -1.
         11   -1    0    0    0    0 -0.00000000000E+00 -0.00000000000E+00 -0.45593999997E+02  0.45594000000E+02  0.51100000000E-03 0.  1.
    9900012    2    1    2    0    0 -0.21248902797E+02 -0.36548968870E+02 -0.15548964612E+02  0.46142319896E+02  0.10000019470E+02 0.  0.
         12    1    1    2    0    0  0.21248902797E+02  0.36548968870E+02  0.15548964612E+02  0.45045680104E+02  0.00000000000E+00 0. -1.
         11    1    3    3    0    0 -0.14585373769E+01 -0.10488384909E+01 -0.46609046953E+00  0.18559725339E+01  0.51100000000E-03 0.  1.
        -11    1    3    3    0    0 -0.53151915793E+01 -0.16133389126E+02 -0.29726164031E+01  0.17244534054E+02  0.51100000000E-03 0. -1.
        -12    1    3    3    0    0 -0.14475173840E+02 -0.19366741253E+02 -0.12110257740E+02  0.27041813308E+02  0.00000000000E+00 0.  1.
</event>
<event>
 7    1  0.1442665E-008  0.4614232E+02  0.7816164E-02  0.1320468E+00
        -11   -1    0    0    0    0  0.00000000000E+00  0.00000000000E+00  0.45593999997E+02  0.45594000000E+02  0.51100000000E-03 0.  1.
         11   -1    0    0    0    0 -0.00000000000E+00 -0.00000000000E+00 -0.45593999997E+02  0.45594000000E+02  0.51100000000E-03 0. -1.
    9900012    2    1    2    0    0 -0.20558491057E+01 -0.44989634180E+02  0.90542894042E+00  0.46142317624E+02  0.99999987497E+01 0.  0.
         12    1    1    2    0    0  0.20558491057E+01  0.44989634180E+02 -0.90542894042E+00  0.45045682376E+02  0.00000000000E+00 0. -1.
         11    1    3    3    0    0 -0.81333319423E+00 -0.16977239203E+01  0.17161850167E+01  0.25473650439E+01  0.51100000000E-03 0. -1.
        -11    1    3    3    0    0 -0.97403279538E+00 -0.63279555359E+01 -0.16820804066E+01  0.66197549733E+01  0.51100000000E-03 0.  1.
        -12    1    3    3    0    0 -0.26848311607E+00 -0.36963954723E+02  0.87132433031E+00  0.36975197607E+02  0.00000000000E+00 0.  1.
</event>
<event>
 7    1  0.1442665E-008  0.4614232E+02  0.7816164E-02  0.1320468E+00
        -11   -1    0    0    0    0  0.00000000000E+00  0.00000000000E+00  0.45593999997E+02  0.45594000000E+02  0.51100000000E-03 0. -1.
         11   -1    0    0    0    0 -0.00000000000E+00 -0.00000000000E+00 -0.45593999997E+02  0.45594000000E+02  0.51100000000E-03 0.  1.
    9900012    2    1    2    0    0  0.44779467488E+02  0.20537548256E+01  0.44378759771E+01  0.46142319180E+02  0.10000012934E+02 0.  0.
         12    1    1    2    0    0 -0.44779467488E+02 -0.20537548256E+01 -0.44378759771E+01  0.45045680820E+02  0.00000000000E+00 0. -1.
         11    1    3    3    0    0  0.27625102673E+02  0.57838697722E+00  0.54299671779E+01  0.28159640854E+02  0.51100000000E-03 0. -1.
        -11    1    3    3    0    0  0.75494250212E+01  0.26132027783E+01 -0.20643741822E+01  0.82513203753E+01  0.51100000000E-03 0.  1.
        -12    1    3    3    0    0  0.96049397935E+01 -0.11378349299E+01  0.10722829814E+01  0.97313579503E+01  0.00000000000E+00 0.  1.
</event>
<event>
 7    1  0.1442665E-008  0.4614231E+02  0.7816164E-02  0.1320468E+00
        -11   -1    0    0    0    0  0.00000000000E+00  0.00000000000E+00  0.45593999997E+02  0.45594000000E+02  0.51100000000E-03 0. -1.
         11   -1    0    0    0    0 -0.00000000000E+00 -0.00000000000E+00 -0.45593999997E+02  0.45594000000E+02  0.51100000000E-03 0.  1.
    9900012    2    1    2    0    0 -0.38172081351E+02  0.20800054328E+02 -0.11805245510E+02  0.46142313455E+02  0.99999607366E+01 0.  0.
         12    1    1    2    0    0  0.38172081351E+02 -0.20800054328E+02  0.11805245510E+02  0.45045686545E+02  0.00000000000E+00 0. -1.
         11    1    3    3    0    0 -0.21657983931E+02  0.89222013266E+01 -0.45472302202E+01  0.23861082277E+02  0.51100000000E-03 0.  1.
        -11    1    3    3    0    0 -0.68987022017E+01  0.83151272259E+01 -0.40193003307E+01  0.11527714789E+02  0.51100000000E-03 0. -1.
         12    1    3    3    0    0 -0.96153952180E+01  0.35627257758E+01 -0.32387149587E+01  0.10753516389E+02  0.00000000000E+00 0. -1.
</event>
<event>
 7    1  0.1442665E-008  0.4614232E+02  0.7816164E-02  0.1320468E+00
        -11   -1    0    0    0    0  0.00000000000E+00  0.00000000000E+00  0.45593999997E+02  0.45594000000E+02  0.51100000000E-03 0. -1.
         11   -1    0    0    0    0 -0.00000000000E+00 -0.00000000000E+00 -0.45593999997E+02  0.45594000000E+02  0.51100000000E-03 0.  1.
    9900012    2    1    2    0    0  0.39766674757E+02  0.30184102870E+01 -0.20943120141E+02  0.46142317597E+02  0.99999985052E+01 0.  0.
         12    1    1    2    0    0 -0.39766674757E+02 -0.30184102870E+01  0.20943120141E+02  0.45045682403E+02  0.00000000000E+00 0. -1.
         11    1    3    3    0    0  0.18467600258E+02  0.37105996179E+01 -0.62918668666E+01  0.19859717967E+02  0.51100000000E-03 0. -1.
        -11    1    3    3    0    0  0.18676607089E+02 -0.28957984864E+00 -0.14461272145E+02  0.23622614190E+02  0.51100000000E-03 0.  1.
        -12    1    3    3    0    0  0.26224674104E+01 -0.40260948235E+00 -0.18998112953E+00  0.26599854404E+01  0.00000000000E+00 0.  1.
</event>
<event>
 7    1  0.1442665E-008  0.4614232E+02  0.7816164E-02  0.1320468E+00
        -11   -1    0    0    0    0  0.00000000000E+00  0.00000000000E+00  0.45593999997E+02  0.45594000000E+02  0.51100000000E-03 0.  1.
         11   -1    0    0    0    0 -0.00000000000E+00 -0.00000000000E+00 -0.45593999997E+02  0.45594000000E+02  0.51100000000E-03 0. -1.
    9900012    2    1    2    0    0 -0.73089540602E+01 -0.39159309372E+01  0.44275932707E+02  0.46142317170E+02  0.99999946088E+01 0.  0.
         12    1    1    2    0    0  0.73089540602E+01  0.39159309372E+01 -0.44275932707E+02  0.45045682830E+02  0.00000000000E+00 0. -1.
         11    1    3    3    0    0 -0.34919330575E+01 -0.15027429561E+01  0.43213044169E+01  0.57554760876E+01  0.51100000000E-03 0. -1.
        -11    1    3    3    0    0 -0.41639560529E+01 -0.15659038472E+01  0.24191035237E+02  0.24596682113E+02  0.51100000000E-03 0.  1.
         12    1    3    3    0    0  0.34693505025E+00 -0.84728413398E+00  0.15763593054E+02  0.15790158970E+02  0.00000000000E+00 0. -1.
</event>
<event>
 7    1  0.1442665E-008  0.4614232E+02  0.7816164E-02  0.1320468E+00
        -11   -1    0    0    0    0  0.00000000000E+00  0.00000000000E+00  0.45593999997E+02  0.45594000000E+02  0.51100000000E-03 0. -1.
         11   -1    0    0    0    0 -0.00000000000E+00 -0.00000000000E+00 -0.45593999997E+02  0.45594000000E+02  0.51100000000E-03 0.  1.
    9900012    2    1    2    0    0  0.34229922998E+02  0.29110288419E+02 -0.31649600991E+01  0.46142317713E+02  0.99999995587E+01 0.  0.
         12    1    1    2    0    0 -0.34229922998E+02 -0.29110288419E+02  0.31649600991E+01  0.45045682287E+02  0.00000000000E+00 0. -1.
         11    1    3    3    0    0  0.21734218885E+01  0.19082294448E+00  0.13602286430E+01  0.25710694903E+01  0.51100000000E-03 0. -1.
        -11    1    3    3    0    0  0.21841333018E+02  0.17725969556E+02 -0.19175325024E+01  0.28194516414E+02  0.51100000000E-03 0.  1.
         12    1    3    3    0    0  0.10215168092E+02  0.11193495919E+02 -0.26076562397E+01  0.15376731808E+02  0.00000000000E+00 0. -1.
</event>
<event>
 7    1  0.1442665E-008  0.4614232E+02  0.7816164E-02  0.1320468E+00
        -11   -1    0    0    0    0  0.00000000000E+00  0.00000000000E+00  0.45593999997E+02  0.45594000000E+02  0.51100000000E-03 0.  1.
         11   -1    0    0    0    0 -0.00000000000E+00 -0.00000000000E+00 -0.45593999997E+02  0.45594000000E+02  0.51100000000E-03 0. -1.
    9900012    2    1    2    0    0  0.29697989020E+01 -0.17634082358E+02  0.41344079546E+02  0.46142317859E+02  0.10000000890E+02 0.  0.
         12    1    1    2    0    0 -0.29697989020E+01  0.17634082358E+02 -0.41344079546E+02  0.45045682141E+02  0.00000000000E+00 0. -1.
         11    1    3    3    0    0  0.24190711756E+01 -0.31459088911E+01  0.60916328829E+01  0.72702571856E+01  0.51100000000E-03 0. -1.
        -11    1    3    3    0    0  0.25031633256E+01 -0.93571946971E+01  0.28879248493E+02  0.30460366265E+02  0.51100000000E-03 0.  1.
        -12    1    3    3    0    0 -0.19524355992E+01 -0.51309787694E+01  0.63731981695E+01  0.84116944077E+01  0.00000000000E+00 0.  1.
</event>
<event>
 7    1  0.1442665E-008  0.4614232E+02  0.7816164E-02  0.1320468E+00
        -11   -1    0    0    0    0  0.00000000000E+00  0.00000000000E+00  0.45593999997E+02  0.45594000000E+02  0.51100000000E-03 0.  1.
         11   -1    0    0    0    0 -0.00000000000E+00 -0.00000000000E+00 -0.45593999997E+02  0.45594000000E+02  0.51100000000E-03 0. -1.
    9900012    2    1    2    0    0 -0.42960968554E+02  0.10728842169E+01  0.13502504229E+02  0.46142317409E+02  0.99999967899E+01 0.  0.
         12    1    1    2    0    0  0.42960968554E+02 -0.10728842169E+01 -0.13502504229E+02  0.45045682591E+02  0.00000000000E+00 0. -1.
         11    1    3    3    0    0 -0.31618154925E+01  0.92183824243E+00  0.29464886740E+01  0.44191242030E+01  0.51100000000E-03 0. -1.
        -11    1    3    3    0    0 -0.18608964774E+02 -0.86998017220E+00  0.16079831417E+01  0.18698557310E+02  0.51100000000E-03 0.  1.
        -12    1    3    3    0    0 -0.21190188288E+02  0.10210261467E+01  0.89480324131E+01  0.23024635896E+02  0.00000000000E+00 0.  1.
</event>
<event>
 7    1  0.1442665E-008  0.4614232E+02  0.7816164E-02  0.1320468E+00
        -11   -1    0    0    0    0  0.00000000000E+00  0.00000000000E+00  0.45593999997E+02  0.45594000000E+02  0.51100000000E-03 0. -1.
         11   -1    0    0    0    0 -0.00000000000E+00 -0.00000000000E+00 -0.45593999997E+02  0.45594000000E+02  0.51100000000E-03 0.  1.
    9900012    2    1    2    0    0 -0.29582621960E+02  0.27699091213E+02 -0.19665767006E+02  0.46142316878E+02  0.99999919431E+01 0.  0.
         12    1    1    2    0    0  0.29582621960E+02 -0.27699091213E+02  0.19665767006E+02  0.45045683122E+02  0.00000000000E+00 0. -1.
         11    1    3    3    0    0 -0.84848133602E+00  0.85451388656E+00  0.84189300115E+00  0.14693191098E+01  0.51100000000E-03 0. -1.
        -11    1    3    3    0    0 -0.19918041543E+02  0.17798573005E+02 -0.11114543741E+02  0.28931827850E+02  0.51100000000E-03 0.  1.
        -12    1    3    3    0    0 -0.88160990811E+01  0.90460043213E+01 -0.93931162666E+01  0.15741169918E+02  0.00000000000E+00 0.  1.
</event>
<event>
 7    1  0.1442665E-008  0.4614232E+02  0.7816164E-02  0.1320468E+00
        -11   -1    0    0    0    0  0.00000000000E+00  0.00000000000E+00  0.45593999997E+02  0.45594000000E+02  0.51100000000E-03 0.  1.
         11   -1    0    0    0    0 -0.00000000000E+00 -0.00000000000E+00 -0.45593999997E+02  0.45594000000E+02  0.51100000000E-03 0. -1.
    9900012    2    1    2    0    0 -0.81393045656E+01 -0.36404739084E+02  0.25249955127E+02  0.46142317182E+02  0.99999947222E+01 0.  0.
         12    1    1    2    0    0  0.81393045656E+01  0.36404739084E+02 -0.25249955127E+02  0.45045682818E+02  0.00000000000E+00 0. -1.
         11    1    3    3    0    0 -0.45812949926E+01 -0.16670340618E+02  0.73186407084E+01  0.18773678974E+02  0.51100000000E-03 0. -1.
        -11    1    3    3    0    0  0.52736120878E+00 -0.32044881366E+00 -0.14294741136E-01  0.61725350339E+00  0.51100000000E-03 0.  1.
        -12    1    3    3    0    0 -0.40853707818E+01 -0.19413949652E+02  0.17945609159E+02  0.26751384705E+02  0.00000000000E+00 0.  1.
</event>
<event>
 7    1  0.1442665E-008  0.4614232E+02  0.7816164E-02  0.1320468E+00
        -11   -1    0    0    0    0  0.00000000000E+00  0.00000000000E+00  0.45593999997E+02  0.45594000000E+02  0.51100000000E-03 0. -1.
         11   -1    0    0    0    0 -0.00000000000E+00 -0.00000000000E+00 -0.45593999997E+02  0.45594000000E+02  0.51100000000E-03 0.  1.
    9900012    2    1    2    0    0  0.36855405836E+02 -0.55504316231E+00 -0.25893713748E+02  0.46142318476E+02  0.10000006521E+02 0.  0.
         12    1    1    2    0    0 -0.36855405836E+02  0.55504316231E+00  0.25893713748E+02  0.45045681524E+02  0.00000000000E+00 0. -1.
         11    1    3    3    0    0  0.10883153409E+02 -0.33581455973E+01 -0.10447100987E+02  0.15455163838E+02  0.51100000000E-03 0. -1.
        -11    1    3    3    0    0  0.12416973995E+02  0.33378758880E+01 -0.87977821071E+01  0.15579590139E+02  0.51100000000E-03 0.  1.
        -12    1    3    3    0    0  0.13555278432E+02 -0.53477345309E+00 -0.66488306544E+01  0.15107564499E+02  0.00000000000E+00 0.  1.
</event>
<event>
 7    1  0.1442665E-008  0.4614232E+02  0.7816164E-02  0.1320468E+00
        -11   -1    0    0    0    0  0.00000000000E+00  0.00000000000E+00  0.45593999997E+02  0.45594000000E+02  0.51100000000E-03 0.  1.
         11   -1    0    0    0    0 -0.00000000000E+00 -0.00000000000E+00 -0.45593999997E+02  0.45594000000E+02  0.51100000000E-03 0. -1.
    9900012    2    1    2    0    0  0.12247732793E+02 -0.39714975307E+02  0.17373178717E+02  0.46142316956E+02  0.99999926556E+01 0.  0.
         12    1    1    2    0    0 -0.12247732793E+02  0.39714975307E+02 -0.17373178717E+02  0.45045683044E+02  0.00000000000E+00 0. -1.
         11    1    3    3    0    0  0.23125029562E+01 -0.13826297950E+02  0.67253196870E+01  0.15548122397E+02  0.51100000000E-03 0. -1.
        -11    1    3    3    0    0  0.73790439058E+01 -0.15827669940E+02  0.30440855563E+01  0.17726586863E+02  0.51100000000E-03 0.  1.
        -12    1    3    3    0    0  0.25561859312E+01 -0.10061007418E+02  0.76037734736E+01  0.12867607696E+02  0.00000000000E+00 0.  1.
</event>
<event>
 7    1  0.1442665E-008  0.4614232E+02  0.7816164E-02  0.1320468E+00
        -11   -1    0    0    0    0  0.00000000000E+00  0.00000000000E+00  0.45593999997E+02  0.45594000000E+02  0.51100000000E-03 0. -1.
         11   -1    0    0    0    0 -0.00000000000E+00 -0.00000000000E+00 -0.45593999997E+02  0.45594000000E+02  0.51100000000E-03 0.  1.
    9900012    2    1    2    0    0  0.16441542193E+02  0.15596074853E+02 -0.38930089508E+02  0.46142315083E+02  0.99999755833E+01 0.  0.
         12    1    1    2    0    0 -0.16441542193E+02 -0.15596074853E+02  0.38930089508E+02  0.45045684917E+02  0.00000000000E+00 0. -1.
         11    1    3    3    0    0 -0.53459974195E+00  0.55683701211E+00 -0.40113431772E+01  0.40849404755E+01  0.51100000000E-03 0. -1.
        -11    1    3    3    0    0  0.14182699809E+01  0.80712759009E+00 -0.52410354083E+00  0.17139514194E+01  0.51100000000E-03 0.  1.
        -12    1    3    3    0    0  0.15557871954E+02  0.14232110251E+02 -0.34394642790E+02  0.40343423189E+02  0.00000000000E+00 0.  1.
</event>
<event>
 7    1  0.1442665E-008  0.4614232E+02  0.7816164E-02  0.1320468E+00
        -11   -1    0    0    0    0  0.00000000000E+00  0.00000000000E+00  0.45593999997E+02  0.45594000000E+02  0.51100000000E-03 0.  1.
         11   -1    0    0    0    0 -0.00000000000E+00 -0.00000000000E+00 -0.45593999997E+02  0.45594000000E+02  0.51100000000E-03 0. -1.
    9900012    2    1    2    0    0  0.35614510739E+00  0.18750011814E+01  0.45005234376E+02  0.46142316633E+02  0.99999897118E+01 0.  0.
         12    1    1    2    0    0 -0.35614510739E+00 -0.18750011814E+01 -0.45005234376E+02  0.45045683367E+02  0.00000000000E+00 0. -1.
         11    1    3    3    0    0  0.21122605689E+01  0.15204458868E+01  0.28745363394E+02  0.28862940205E+02  0.51100000000E-03 0.  1.
        -11    1    3    3    0    0 -0.13497092675E+01  0.85653550838E-01  0.39765156411E+00  0.14096732476E+01  0.51100000000E-03 0. -1.
         12    1    3    3    0    0 -0.40640619404E+00  0.26890174375E+00  0.15862219418E+02  0.15869703180E+02  0.00000000000E+00 0. -1.
</event>
<event>
 7    1  0.1442665E-008  0.4614232E+02  0.7816164E-02  0.1320468E+00
        -11   -1    0    0    0    0  0.00000000000E+00  0.00000000000E+00  0.45593999997E+02  0.45594000000E+02  0.51100000000E-03 0.  1.
         11   -1    0    0    0    0 -0.00000000000E+00 -0.00000000000E+00 -0.45593999997E+02  0.45594000000E+02  0.51100000000E-03 0. -1.
    9900012    2    1    2    0    0 -0.18327257146E+01  0.39046087594E+02  0.22386550412E+02  0.46142317862E+02  0.10000000923E+02 0.  0.
         12    1    1    2    0    0  0.18327257146E+01 -0.39046087594E+02 -0.22386550412E+02  0.45045682138E+02  0.00000000000E+00 0. -1.
         11    1    3    3    0    0  0.96799305878E+00  0.90975256586E+01  0.27735553678E+01  0.95600519512E+01  0.51100000000E-03 0.  1.
        -11    1    3    3    0    0 -0.44489999557E+01  0.14112829529E+02  0.75843281434E+01  0.16627916032E+02  0.51100000000E-03 0. -1.
        -12    1    3    3    0    0  0.16482811824E+01  0.15835732406E+02  0.12028666900E+02  0.19954349879E+02  0.00000000000E+00 0.  1.
</event>
<event>
 7    1  0.1442665E-008  0.4614232E+02  0.7816164E-02  0.1320468E+00
        -11   -1    0    0    0    0  0.00000000000E+00  0.00000000000E+00  0.45593999997E+02  0.45594000000E+02  0.51100000000E-03 0.  1.
         11   -1    0    0    0    0 -0.00000000000E+00 -0.00000000000E+00 -0.45593999997E+02  0.45594000000E+02  0.51100000000E-03 0. -1.
    9900012    2    1    2    0    0 -0.29691412345E+02  0.40753662522E+01  0.33629227950E+02  0.46142317080E+02  0.99999937919E+01 0.  0.
         12    1    1    2    0    0  0.29691412345E+02 -0.40753662522E+01 -0.33629227950E+02  0.45045682920E+02  0.00000000000E+00 0. -1.
         11    1    3    3    0    0 -0.22349314552E+02  0.39405500731E+01  0.18812709238E+02  0.29477751355E+02  0.51100000000E-03 0.  1.
        -11    1    3    3    0    0 -0.57171675045E+01 -0.69370859020E+00  0.10438841053E+02  0.11922107141E+02  0.51100000000E-03 0. -1.
        -12    1    3    3    0    0 -0.16249302893E+01  0.82852476934E+00  0.43776776592E+01  0.47424585846E+01  0.00000000000E+00 0.  1.
</event>
<event>
 7    1  0.1442665E-008  0.4614232E+02  0.7816164E-02  0.1320468E+00
        -11   -1    0    0    0    0  0.00000000000E+00  0.00000000000E+00  0.45593999997E+02  0.45594000000E+02  0.51100000000E-03 0. -1.
         11   -1    0    0    0    0 -0.00000000000E+00 -0.00000000000E+00 -0.45593999997E+02  0.45594000000E+02  0.51100000000E-03 0.  1.
    9900012    2    1    2    0    0 -0.35626792036E+02 -0.27205105698E+02  0.44415668066E+01  0.46142316494E+02  0.99999884481E+01 0.  0.
         12    1    1    2    0    0  0.35626792036E+02  0.27205105698E+02 -0.44415668066E+01  0.45045683506E+02  0.00000000000E+00 0. -1.
         11    1    3    3    0    0 -0.55365910502E+01 -0.74270979721E+01  0.25125028396E+01  0.95983485832E+01  0.51100000000E-03 0. -1.
        -11    1    3    3    0    0 -0.23216437411E+02 -0.18005496433E+02  0.19556693744E+01  0.29445296922E+02  0.51100000000E-03 0.  1.
        -12    1    3    3    0    0 -0.68737635751E+01 -0.17725112927E+01 -0.26605407350E-01  0.70986709895E+01  0.00000000000E+00 0.  1.
</event>
<event>
 7    1  0.1442665E-008  0.4614232E+02  0.7816164E-02  0.1320468E+00
        -11   -1    0    0    0    0  0.00000000000E+00  0.00000000000E+00  0.45593999997E+02  0.45594000000E+02  0.51100000000E-03 0.  1.
         11   -1    0    0    0    0 -0.00000000000E+00 -0.00000000000E+00 -0.45593999997E+02  0.45594000000E+02  0.51100000000E-03 0. -1.
    9900012    2    1    2    0    0  0.18790874529E+02 -0.33539133034E+02  0.23476435920E+02  0.46142318146E+02  0.10000003508E+02 0.  0.
         12    1    1    2    0    0 -0.18790874529E+02  0.33539133034E+02 -0.23476435920E+02  0.45045681854E+02  0.00000000000E+00 0. -1.
         11    1    3    3    0    0  0.97484815406E+01 -0.10193200118E+02  0.51748647562E+01  0.15023762728E+02  0.51100000000E-03 0. -1.
        -11    1    3    3    0    0  0.63904315064E+01 -0.13157615961E+02  0.10155238240E+02  0.17807002459E+02  0.51100000000E-03 0.  1.
        -12    1    3    3    0    0  0.26519614818E+01 -0.10188316955E+02  0.81463329232E+01  0.13311552958E+02  0.00000000000E+00 0.  1.
</event>
<event>
 7    1  0.1442665E-008  0.4614232E+02  0.7816164E-02  0.1320468E+00
        -11   -1    0    0    0    0  0.00000000000E+00  0.00000000000E+00  0.45593999997E+02  0.45594000000E+02  0.51100000000E-03 0. -1.
         11   -1    0    0    0    0 -0.00000000000E+00 -0.00000000000E+00 -0.45593999997E+02  0.45594000000E+02  0.51100000000E-03 0.  1.
    9900012    2    1    2    0    0  0.20229121102E+01  0.33008600000E+02 -0.30585184374E+02  0.46142319291E+02  0.10000013954E+02 0.  0.
         12    1    1    2    0    0 -0.20229121102E+01 -0.33008600000E+02  0.30585184374E+02  0.45045680709E+02  0.00000000000E+00 0. -1.
         11    1    3    3    0    0 -0.24816842987E+01  0.11469129133E+02 -0.14449307125E+02  0.18614031178E+02  0.51100000000E-03 0. -1.
        -11    1    3    3    0    0  0.51411190374E+01  0.19531790376E+02 -0.14638489177E+02  0.24944083585E+02  0.51100000000E-03 0.  1.
        -12    1    3    3    0    0 -0.63652262843E+00  0.20076804903E+01 -0.14973880715E+01  0.25842045283E+01  0.00000000000E+00 0.  1.
</event>
<event>
 7    1  0.1442665E-008  0.4614232E+02  0.7816164E-02  0.1320468E+00
        -11   -1    0    0    0    0  0.00000000000E+00  0.00000000000E+00  0.45593999997E+02  0.45594000000E+02  0.51100000000E-03 0. -1.
         11   -1    0    0    0    0 -0.00000000000E+00 -0.00000000000E+00 -0.45593999997E+02  0.45594000000E+02  0.51100000000E-03 0.  1.
    9900012    2    1    2    0    0 -0.13200869524E+02 -0.12356535309E+02 -0.41257320897E+02  0.46142318202E+02  0.10000004021E+02 0.  0.
         12    1    1    2    0    0  0.13200869524E+02  0.12356535309E+02  0.41257320897E+02  0.45045681798E+02  0.00000000000E+00 0. -1.
         11    1    3    3    0    0 -0.17129183434E+00  0.59222945693E-01  0.24573712254E+00  0.30534446830E+00  0.51100000000E-03 0. -1.
        -11    1    3    3    0    0 -0.10451104868E+02 -0.13126493783E+02 -0.36030819051E+02  0.39746073438E+02  0.51100000000E-03 0.  1.
        -12    1    3    3    0    0 -0.25784728213E+01  0.71073552793E+00 -0.54722389685E+01  0.60909002954E+01  0.00000000000E+00 0.  1.
</event>
<event>
 7    1  0.1442665E-008  0.4614232E+02  0.7816164E-02  0.1320468E+00
        -11   -1    0    0    0    0  0.00000000000E+00  0.00000000000E+00  0.45593999997E+02  0.45594000000E+02  0.51100000000E-03 0.  1.
         11   -1    0    0    0    0 -0.00000000000E+00 -0.00000000000E+00 -0.45593999997E+02  0.45594000000E+02  0.51100000000E-03 0. -1.
    9900012    2    1    2    0    0 -0.15836434988E+02  0.27284970594E+02  0.32153555991E+02  0.46142318117E+02  0.10000003244E+02 0.  0.
         12    1    1    2    0    0  0.15836434988E+02 -0.27284970594E+02 -0.32153555991E+02  0.45045681883E+02  0.00000000000E+00 0. -1.
         11    1    3    3    0    0 -0.11781098299E+02  0.21445104969E+02  0.22241906003E+02  0.33066435961E+02  0.51100000000E-03 0. -1.
        -11    1    3    3    0    0 -0.29072324685E+01  0.62835279332E+01  0.95449834765E+01  0.11791583174E+02  0.51100000000E-03 0.  1.
         12    1    3    3    0    0 -0.11481042210E+01 -0.44366230813E+00  0.36666651221E+00  0.12842989827E+01  0.00000000000E+00 0. -1.
</event>
<event>
 7    1  0.1442665E-008  0.4614232E+02  0.7816164E-02  0.1320468E+00
        -11   -1    0    0    0    0  0.00000000000E+00  0.00000000000E+00  0.45593999997E+02  0.45594000000E+02  0.51100000000E-03 0.  1.
         11   -1    0    0    0    0 -0.00000000000E+00 -0.00000000000E+00 -0.45593999997E+02  0.45594000000E+02  0.51100000000E-03 0. -1.
    9900012    2    1    2    0    0  0.42993351340E+02 -0.13420691237E+02 -0.75516097643E+00  0.46142317845E+02  0.10000000761E+02 0.  0.
         12    1    1    2    0    0 -0.42993351340E+02  0.13420691237E+02  0.75516097643E+00  0.45045682155E+02  0.00000000000E+00 0. -1.
         11    1    3    3    0    0  0.69135579242E+01 -0.10146155409E+01 -0.80833475549E+00  0.70342116264E+01  0.51100000000E-03 0. -1.
        -11    1    3    3    0    0  0.22303282009E+02 -0.31883522234E+01  0.23559912935E+00  0.22531255746E+02  0.51100000000E-03 0.  1.
        -12    1    3    3    0    0  0.13776511407E+02 -0.92177234730E+01 -0.18242535029E+00  0.16576850472E+02  0.00000000000E+00 0.  1.
</event>
<event>
 7    1  0.1442665E-008  0.4614232E+02  0.7816164E-02  0.1320468E+00
        -11   -1    0    0    0    0  0.00000000000E+00  0.00000000000E+00  0.45593999997E+02  0.45594000000E+02  0.51100000000E-03 0. -1.
         11   -1    0    0    0    0 -0.00000000000E+00 -0.00000000000E+00 -0.45593999997E+02  0.45594000000E+02  0.51100000000E-03 0.  1.
    9900012    2    1    2    0    0  0.60468340757E+01  0.41195945949E+02 -0.17188464340E+02  0.46142317950E+02  0.10000001721E+02 0.  0.
         12    1    1    2    0    0 -0.60468340757E+01 -0.41195945949E+02  0.17188464340E+02  0.45045682050E+02  0.00000000000E+00 0. -1.
         11    1    3    3    0    0  0.27287112049E+01  0.97229316065E+01 -0.69726723764E+00  0.10122620497E+02  0.51100000000E-03 0. -1.
        -11    1    3    3    0    0  0.12790383886E+01  0.26259038979E+02 -0.14807815776E+02  0.30173572470E+02  0.51100000000E-03 0.  1.
        -12    1    3    3    0    0  0.20390844823E+01  0.52139753644E+01 -0.16833813257E+01  0.58461249828E+01  0.00000000000E+00 0.  1.
</event>
<event>
 7    1  0.1442665E-008  0.4614231E+02  0.7816164E-02  0.1320468E+00
        -11   -1    0    0    0    0  0.00000000000E+00  0.00000000000E+00  0.45593999997E+02  0.45594000000E+02  0.51100000000E-03 0. -1.
         11   -1    0    0    0    0 -0.00000000000E+00 -0.00000000000E+00 -0.45593999997E+02  0.45594000000E+02  0.51100000000E-03 0.  1.
    9900012    2    1    2    0    0  0.38650237823E-01  0.44759027501E+02 -0.50736899020E+01  0.46142308020E+02  0.99999111767E+01 0.  0.
         12    1    1    2    0    0 -0.38650237823E-01 -0.44759027501E+02  0.50736899020E+01  0.45045691980E+02  0.00000000000E+00 0. -1.
         11    1    3    3    0    0 -0.17190505809E+01  0.71883610926E+01 -0.27742311611E+01  0.78945569156E+01  0.51100000000E-03 0.  1.
        -11    1    3    3    0    0  0.18800843742E+01  0.48066594561E+01  0.11946660431E+01  0.52977277768E+01  0.51100000000E-03 0. -1.
         12    1    3    3    0    0 -0.12238355555E+00  0.32764006953E+02 -0.34941247841E+01  0.32950023328E+02  0.00000000000E+00 0. -1.
</event>
<event>
 7    1  0.1442665E-008  0.4614232E+02  0.7816164E-02  0.1320468E+00
        -11   -1    0    0    0    0  0.00000000000E+00  0.00000000000E+00  0.45593999997E+02  0.45594000000E+02  0.51100000000E-03 0.  1.
         11   -1    0    0    0    0 -0.00000000000E+00 -0.00000000000E+00 -0.45593999997E+02  0.45594000000E+02  0.51100000000E-03 0. -1.
    9900012    2    1    2    0    0  0.11839498198E+02 -0.22663091756E+02  0.37085358273E+02  0.46142320476E+02  0.10000024754E+02 0.  0.
         12    1    1    2    0    0 -0.11839498198E+02  0.22663091756E+02 -0.37085358273E+02  0.45045679524E+02  0.00000000000E+00 0. -1.
         11    1    3    3    0    0  0.43011330301E+01 -0.18366063748E+01  0.46040242809E+01  0.65627668067E+01  0.51100000000E-03 0. -1.
        -11    1    3    3    0    0  0.39324903605E+01 -0.15174792008E+02  0.19996558412E+02  0.25408682404E+02  0.51100000000E-03 0.  1.
         12    1    3    3    0    0  0.36058748075E+01 -0.56516933734E+01  0.12484775581E+02  0.14170871265E+02  0.00000000000E+00 0. -1.
</event>
<event>
 7    1  0.1442665E-008  0.4614232E+02  0.7816164E-02  0.1320468E+00
        -11   -1    0    0    0    0  0.00000000000E+00  0.00000000000E+00  0.45593999997E+02  0.45594000000E+02  0.51100000000E-03 0. -1.
         11   -1    0    0    0    0 -0.00000000000E+00 -0.00000000000E+00 -0.45593999997E+02  0.45594000000E+02  0.51100000000E-03 0.  1.
    9900012    2    1    2    0    0 -0.26229851270E+02 -0.34995472892E+02 -0.10790053350E+02  0.46142317944E+02  0.10000001668E+02 0.  0.
         12    1    1    2    0    0  0.26229851270E+02  0.34995472892E+02  0.10790053350E+02  0.45045682056E+02  0.00000000000E+00 0. -1.
         11    1    3    3    0    0 -0.34966816302E+01 -0.32520796118E+01  0.14216465425E+01  0.49823572109E+01  0.51100000000E-03 0. -1.
        -11    1    3    3    0    0 -0.16611763099E+02 -0.20219236515E+02 -0.94480309486E+01  0.27821457323E+02  0.51100000000E-03 0.  1.
         12    1    3    3    0    0 -0.61214065411E+01 -0.11524156766E+02 -0.27636689442E+01  0.13338503410E+02  0.00000000000E+00 0. -1.
</event>
<event>
 7    1  0.1442665E-008  0.4614232E+02  0.7816164E-02  0.1320468E+00
        -11   -1    0    0    0    0  0.00000000000E+00  0.00000000000E+00  0.45593999997E+02  0.45594000000E+02  0.51100000000E-03 0.  1.
         11   -1    0    0    0    0 -0.00000000000E+00 -0.00000000000E+00 -0.45593999997E+02  0.45594000000E+02  0.51100000000E-03 0. -1.
    9900012    2    1    2    0    0 -0.34677646752E+01  0.44568136184E+02 -0.55470096015E+01  0.46142317962E+02  0.10000001831E+02 0.  0.
         12    1    1    2    0    0  0.34677646752E+01 -0.44568136184E+02  0.55470096015E+01  0.45045682038E+02  0.00000000000E+00 0. -1.
         11    1    3    3    0    0 -0.41722564924E+01  0.13554336479E+02 -0.30407551700E+01  0.14504273642E+02  0.51100000000E-03 0. -1.
        -11    1    3    3    0    0  0.24892373788E+01  0.22723872139E+02 -0.33997515050E+01  0.23111230566E+02  0.51100000000E-03 0.  1.
         12    1    3    3    0    0 -0.17847455616E+01  0.82899275659E+01  0.89349707353E+00  0.85268137536E+01  0.00000000000E+00 0. -1.
</event>
<event>
 7    1  0.1442665E-008  0.4614232E+02  0.7816164E-02  0.1320468E+00
        -11   -1    0    0    0    0  0.00000000000E+00  0.00000000000E+00  0.45593999997E+02  0.45594000000E+02  0.51100000000E-03 0.  1.
         11   -1    0    0    0    0 -0.00000000000E+00 -0.00000000000E+00 -0.45593999997E+02  0.45594000000E+02  0.51100000000E-03 0. -1.
    9900012    2    1    2    0    0 -0.15243190194E+02  0.98029714996E+01  0.41239063600E+02  0.46142318031E+02  0.10000002457E+02 0.  0.
         12    1    1    2    0    0  0.15243190194E+02 -0.98029714996E+01 -0.41239063600E+02  0.45045681969E+02  0.00000000000E+00 0. -1.
         11    1    3    3    0    0  0.88574127650E+00  0.18476459167E+01  0.88921028282E+01  0.91251206026E+01  0.51100000000E-03 0. -1.
        -11    1    3    3    0    0 -0.80733371727E+01  0.43675369610E+01  0.16294204224E+02  0.18701744404E+02  0.51100000000E-03 0.  1.
         12    1    3    3    0    0 -0.80555942983E+01  0.35877886220E+01  0.16052756547E+02  0.18315453024E+02  0.00000000000E+00 0. -1.
</event>
<event>
 7    1  0.1442665E-008  0.4614231E+02  0.7816164E-02  0.1320468E+00
        -11   -1    0    0    0    0  0.00000000000E+00  0.00000000000E+00  0.45593999997E+02  0.45594000000E+02  0.51100000000E-03 0.  1.
         11   -1    0    0    0    0 -0.00000000000E+00 -0.00000000000E+00 -0.45593999997E+02  0.45594000000E+02  0.51100000000E-03 0. -1.
    9900012    2    1    2    0    0  0.37370699390E+02  0.21261102283E+02  0.13435417275E+02  0.46142311188E+02  0.99999400612E+01 0.  0.
         12    1    1    2    0    0 -0.37370699390E+02 -0.21261102283E+02 -0.13435417275E+02  0.45045688812E+02  0.00000000000E+00 0. -1.
         11    1    3    3    0    0  0.11704013859E+02  0.96661605921E+01  0.26602614950E+01  0.15410892008E+02  0.51100000000E-03 0. -1.
        -11    1    3    3    0    0  0.21920478997E+02  0.10474583438E+02  0.11286036304E+02  0.26788036758E+02  0.51100000000E-03 0.  1.
         12    1    3    3    0    0  0.37462065349E+01  0.11203582528E+01 -0.51088052401E+00  0.39433824221E+01  0.00000000000E+00 0. -1.
</event>
<event>
 7    1  0.1442665E-008  0.4614232E+02  0.7816164E-02  0.1320468E+00
        -11   -1    0    0    0    0  0.00000000000E+00  0.00000000000E+00  0.45593999997E+02  0.45594000000E+02  0.51100000000E-03 0.  1.
         11   -1    0    0    0    0 -0.00000000000E+00 -0.00000000000E+00 -0.45593999997E+02  0.45594000000E+02  0.51100000000E-03 0. -1.
    9900012    2    1    2    0    0 -0.13509031917E+02 -0.32046900600E+02  0.28628931324E+02  0.46142317741E+02  0.99999998204E+01 0.  0.
         12    1    1    2    0    0  0.13509031917E+02  0.32046900600E+02 -0.28628931324E+02  0.45045682259E+02  0.00000000000E+00 0. -1.
         11    1    3    3    0    0 -0.29827512301E+01 -0.16228379463E+01  0.21378119717E+01  0.40125613002E+01  0.51100000000E-03 0. -1.
        -11    1    3    3    0    0 -0.94270123737E+01 -0.29087303720E+02  0.26399803525E+02  0.40396651178E+02  0.51100000000E-03 0.  1.
        -12    1    3    3    0    0 -0.10992683128E+01 -0.13367589342E+01  0.91315826361E-01  0.17331052628E+01  0.00000000000E+00 0.  1.
</event>
<event>
 7    1  0.1442665E-008  0.4614232E+02  0.7816164E-02  0.1320468E+00
        -11   -1    0    0    0    0  0.00000000000E+00  0.00000000000E+00  0.45593999997E+02  0.45594000000E+02  0.51100000000E-03 0.  1.
         11   -1    0    0    0    0 -0.00000000000E+00 -0.00000000000E+00 -0.45593999997E+02  0.45594000000E+02  0.51100000000E-03 0. -1.
    9900012    2    1    2    0    0 -0.25974692358E+02  0.25745151123E+02  0.26298594780E+02  0.46142317224E+02  0.99999950995E+01 0.  0.
         12    1    1    2    0    0  0.25974692358E+02 -0.25745151123E+02 -0.26298594780E+02  0.45045682776E+02  0.00000000000E+00 0. -1.
         11    1    3    3    0    0 -0.33322080045E+00 -0.40817417898E-01  0.13159533376E+01  0.13581000005E+01  0.51100000000E-03 0. -1.
        -11    1    3    3    0    0 -0.60048894006E+01  0.20128387275E+01  0.41441819233E+01  0.75686498486E+01  0.51100000000E-03 0.  1.
        -12    1    3    3    0    0 -0.19636582157E+02  0.23773129813E+02  0.20838459519E+02  0.37215567375E+02  0.00000000000E+00 0.  1.
</event>
<event>
 7    1  0.1442665E-008  0.4614232E+02  0.7816164E-02  0.1320468E+00
        -11   -1    0    0    0    0  0.00000000000E+00  0.00000000000E+00  0.45593999997E+02  0.45594000000E+02  0.51100000000E-03 0.  1.
         11   -1    0    0    0    0 -0.00000000000E+00 -0.00000000000E+00 -0.45593999997E+02  0.45594000000E+02  0.51100000000E-03 0. -1.
    9900012    2    1    2    0    0 -0.70516998573E+01  0.32443104578E+02  0.30443916390E+02  0.46142317069E+02  0.99999936891E+01 0.  0.
         12    1    1    2    0    0  0.70516998573E+01 -0.32443104578E+02 -0.30443916390E+02  0.45045682931E+02  0.00000000000E+00 0. -1.
         11    1    3    3    0    0 -0.35036827704E+00  0.15183361378E+02  0.87571422243E+01  0.17531250978E+02  0.51100000000E-03 0. -1.
        -11    1    3    3    0    0 -0.43223060241E+01  0.12864214181E+02  0.14531338242E+02  0.19882910431E+02  0.51100000000E-03 0.  1.
         12    1    3    3    0    0 -0.23790255562E+01  0.43955290196E+01  0.71554359237E+01  0.87281556595E+01  0.00000000000E+00 0. -1.
</event>
<event>
 7    1  0.1442665E-008  0.4614232E+02  0.7816164E-02  0.1320468E+00
        -11   -1    0    0    0    0  0.00000000000E+00  0.00000000000E+00  0.45593999997E+02  0.45594000000E+02  0.51100000000E-03 0.  1.
         11   -1    0    0    0    0 -0.00000000000E+00 -0.00000000000E+00 -0.45593999997E+02  0.45594000000E+02  0.51100000000E-03 0. -1.
    9900012    2    1    2    0    0  0.27333256818E+02 -0.32027714274E+02  0.16007252472E+02  0.46142317170E+02  0.99999946128E+01 0.  0.
         12    1    1    2    0    0 -0.27333256818E+02  0.32027714274E+02 -0.16007252472E+02  0.45045682830E+02  0.00000000000E+00 0. -1.
         11    1    3    3    0    0  0.21947116757E+02 -0.20718218953E+02  0.94837375442E+01  0.31636400058E+02  0.51100000000E-03 0. -1.
        -11    1    3    3    0    0  0.53674065214E+01 -0.81668794681E+01  0.54200577353E+01  0.11175150967E+02  0.51100000000E-03 0.  1.
        -12    1    3    3    0    0  0.18733539346E-01 -0.31426158527E+01  0.11034571921E+01  0.33307661458E+01  0.00000000000E+00 0.  1.
</event>
<event>
 7    1  0.1442665E-008  0.4614232E+02  0.7816164E-02  0.1320468E+00
        -11   -1    0    0    0    0  0.00000000000E+00  0.00000000000E+00  0.45593999997E+02  0.45594000000E+02  0.51100000000E-03 0.  1.
         11   -1    0    0    0    0 -0.00000000000E+00 -0.00000000000E+00 -0.45593999997E+02  0.45594000000E+02  0.51100000000E-03 0. -1.
    9900012    2    1    2    0    0  0.26617677957E+02 -0.10898295692E+02  0.34667559619E+02  0.46142319644E+02  0.10000017170E+02 0.  0.
         12    1    1    2    0    0 -0.26617677957E+02  0.10898295692E+02 -0.34667559619E+02  0.45045680356E+02  0.00000000000E+00 0. -1.
         11    1    3    3    0    0  0.95991005257E+01 -0.82967085031E+01  0.14934507293E+02  0.19596367297E+02  0.51100000000E-03 0. -1.
        -11    1    3    3    0    0  0.17175088234E+02 -0.27879847527E+01  0.19724615960E+02  0.26302414145E+02  0.51100000000E-03 0.  1.
         12    1    3    3    0    0 -0.15651080341E+00  0.18639756354E+00  0.84363651539E-02  0.24353820139E+00  0.00000000000E+00 0. -1.
</event>
<event>
 7    1  0.1442665E-008  0.4614232E+02  0.7816164E-02  0.1320468E+00
        -11   -1    0    0    0    0  0.00000000000E+00  0.00000000000E+00  0.45593999997E+02  0.45594000000E+02  0.51100000000E-03 0.  1.
         11   -1    0    0    0    0 -0.00000000000E+00 -0.00000000000E+00 -0.45593999997E+02  0.45594000000E+02  0.51100000000E-03 0. -1.
    9900012    2    1    2    0    0  0.20121940125E+01 -0.42139619696E+02 -0.15789779246E+02  0.46142316505E+02  0.99999885469E+01 0.  0.
         12    1    1    2    0    0 -0.20121940125E+01  0.42139619696E+02  0.15789779246E+02  0.45045683495E+02  0.00000000000E+00 0. -1.
         11    1    3    3    0    0  0.29553156164E+01 -0.78175320818E+01 -0.19340289532E+00  0.83597310473E+01  0.51100000000E-03 0. -1.
        -11    1    3    3    0    0 -0.10416056823E+01 -0.14980604996E+02 -0.57622946140E+01  0.16084387086E+02  0.51100000000E-03 0.  1.
         12    1    3    3    0    0  0.98484078390E-01 -0.19341482618E+02 -0.98340817364E+01  0.21698198372E+02  0.00000000000E+00 0. -1.
</event>
<event>
 7    1  0.1442665E-008  0.4614232E+02  0.7816164E-02  0.1320468E+00
        -11   -1    0    0    0    0  0.00000000000E+00  0.00000000000E+00  0.45593999997E+02  0.45594000000E+02  0.51100000000E-03 0. -1.
         11   -1    0    0    0    0 -0.00000000000E+00 -0.00000000000E+00 -0.45593999997E+02  0.45594000000E+02  0.51100000000E-03 0.  1.
    9900012    2    1    2    0    0  0.44448071919E+02 -0.73040203011E+01  0.36558928747E+00  0.46142318016E+02  0.10000002322E+02 0.  0.
         12    1    1    2    0    0 -0.44448071919E+02  0.73040203011E+01 -0.36558928747E+00  0.45045681984E+02  0.00000000000E+00 0. -1.
         11    1    3    3    0    0  0.41435816050E+01  0.10990983210E+00  0.15572070946E+01  0.44278937301E+01  0.51100000000E-03 0. -1.
        -11    1    3    3    0    0  0.37532507252E+02 -0.47705256258E+01 -0.15585219497E+01  0.37866555247E+02  0.51100000000E-03 0.  1.
        -12    1    3    3    0    0  0.27719830623E+01 -0.26434045074E+01  0.36690414248E+00  0.38478690385E+01  0.00000000000E+00 0.  1.
</event>
<event>
 7    1  0.1442665E-008  0.4614232E+02  0.7816164E-02  0.1320468E+00
        -11   -1    0    0    0    0  0.00000000000E+00  0.00000000000E+00  0.45593999997E+02  0.45594000000E+02  0.51100000000E-03 0.  1.
         11   -1    0    0    0    0 -0.00000000000E+00 -0.00000000000E+00 -0.45593999997E+02  0.45594000000E+02  0.51100000000E-03 0. -1.
    9900012    2    1    2    0    0  0.24207205552E+02 -0.54423588647E+01  0.37596614986E+02  0.46142317309E+02  0.99999958796E+01 0.  0.
         12    1    1    2    0    0 -0.24207205552E+02  0.54423588647E+01 -0.37596614986E+02  0.45045682691E+02  0.00000000000E+00 0. -1.
         11    1    3    3    0    0  0.20645731035E+01 -0.15957807786E+01  0.89323693884E+00  0.27580520088E+01  0.51100000000E-03 0. -1.
        -11    1    3    3    0    0  0.12279028911E+02  0.35645238425E+00  0.17334698032E+02  0.21246019991E+02  0.51100000000E-03 0.  1.
         12    1    3    3    0    0  0.98636035373E+01 -0.42030304703E+01  0.19368680015E+02  0.22138245310E+02  0.00000000000E+00 0. -1.
</event>
<event>
 7    1  0.1442665E-008  0.4614232E+02  0.7816164E-02  0.1320468E+00
        -11   -1    0    0    0    0  0.00000000000E+00  0.00000000000E+00  0.45593999997E+02  0.45594000000E+02  0.51100000000E-03 0. -1.
         11   -1    0    0    0    0 -0.00000000000E+00 -0.00000000000E+00 -0.45593999997E+02  0.45594000000E+02  0.51100000000E-03 0.  1.
    9900012    2    1    2    0    0 -0.42537379281E+02  0.17099955060E+01 -0.14722794926E+02  0.46142318618E+02  0.10000007813E+02 0.  0.
         12    1    1    2    0    0  0.42537379281E+02 -0.17099955060E+01  0.14722794926E+02  0.45045681382E+02  0.00000000000E+00 0. -1.
         11    1    3    3    0    0 -0.10014921747E+02  0.28080567607E+01 -0.48183043655E+01  0.11462979437E+02  0.51100000000E-03 0. -1.
        -11    1    3    3    0    0 -0.10935299911E+02  0.16321900669E+01 -0.77812867172E+00  0.11083786043E+02  0.51100000000E-03 0.  1.
        -12    1    3    3    0    0 -0.21587157624E+02 -0.27302513215E+01 -0.91263618883E+01  0.23595553138E+02  0.00000000000E+00 0.  1.
</event>
<event>
 7    1  0.1442665E-008  0.4614232E+02  0.7816164E-02  0.1320468E+00
        -11   -1    0    0    0    0  0.00000000000E+00  0.00000000000E+00  0.45593999997E+02  0.45594000000E+02  0.51100000000E-03 0.  1.
         11   -1    0    0    0    0 -0.00000000000E+00 -0.00000000000E+00 -0.45593999997E+02  0.45594000000E+02  0.51100000000E-03 0. -1.
    9900012    2    1    2    0    0  0.33995875641E+02 -0.44557835720E+01  0.29215404513E+02  0.46142318424E+02  0.10000006043E+02 0.  0.
         12    1    1    2    0    0 -0.33995875641E+02  0.44557835720E+01 -0.29215404513E+02  0.45045681576E+02  0.00000000000E+00 0. -1.
         11    1    3    3    0    0  0.39420491335E+01 -0.22871899619E+01  0.14527421933E+01  0.47834558046E+01  0.51100000000E-03 0. -1.
        -11    1    3    3    0    0  0.20884028925E+02  0.10108065508E+01  0.19956558537E+02  0.28903782156E+02  0.51100000000E-03 0.  1.
        -12    1    3    3    0    0  0.91697975823E+01 -0.31794001608E+01  0.78061037822E+01  0.12455080463E+02  0.00000000000E+00 0.  1.
</event>
<event>
 7    1  0.1442665E-008  0.4614232E+02  0.7816164E-02  0.1320468E+00
        -11   -1    0    0    0    0  0.00000000000E+00  0.00000000000E+00  0.45593999997E+02  0.45594000000E+02  0.51100000000E-03 0. -1.
         11   -1    0    0    0    0 -0.00000000000E+00 -0.00000000000E+00 -0.45593999997E+02  0.45594000000E+02  0.51100000000E-03 0.  1.
    9900012    2    1    2    0    0 -0.38330771642E+02  0.90997144904E+01 -0.21841714086E+02  0.46142319489E+02  0.10000015758E+02 0.  0.
         12    1    1    2    0    0  0.38330771642E+02 -0.90997144904E+01  0.21841714086E+02  0.45045680511E+02  0.00000000000E+00 0. -1.
         11    1    3    3    0    0 -0.66327647388E+01 -0.61037109668E+00 -0.52100105660E+01  0.84563781440E+01  0.51100000000E-03 0. -1.
        -11    1    3    3    0    0 -0.14547586608E+02  0.60875967871E+01 -0.11172954978E+02  0.19326821620E+02  0.51100000000E-03 0.  1.
         12    1    3    3    0    0 -0.17150420296E+02  0.36224888000E+01 -0.54587485417E+01  0.18359119725E+02  0.00000000000E+00 0. -1.
</event>
<event>
 7    1  0.1442665E-008  0.4614232E+02  0.7816164E-02  0.1320468E+00
        -11   -1    0    0    0    0  0.00000000000E+00  0.00000000000E+00  0.45593999997E+02  0.45594000000E+02  0.51100000000E-03 0. -1.
         11   -1    0    0    0    0 -0.00000000000E+00 -0.00000000000E+00 -0.45593999997E+02  0.45594000000E+02  0.51100000000E-03 0.  1.
    9900012    2    1    2    0    0 -0.14247230786E+01  0.27023623579E+02 -0.36011211436E+02  0.46142318561E+02  0.10000007297E+02 0.  0.
         12    1    1    2    0    0  0.14247230786E+01 -0.27023623579E+02  0.36011211436E+02  0.45045681439E+02  0.00000000000E+00 0. -1.
         11    1    3    3    0    0  0.14084388545E+01  0.44004767065E+00 -0.11060171228E+01  0.18440759465E+01  0.51100000000E-03 0. -1.
        -11    1    3    3    0    0 -0.17307259410E+01  0.24270470749E+02 -0.33410616385E+02  0.41331833375E+02  0.51100000000E-03 0.  1.
        -12    1    3    3    0    0 -0.11024359921E+01  0.23131051594E+01 -0.14945779288E+01  0.29664092402E+01  0.00000000000E+00 0.  1.
</event>
<event>
 7    1  0.1442665E-008  0.4614232E+02  0.7816164E-02  0.1320468E+00
        -11   -1    0    0    0    0  0.00000000000E+00  0.00000000000E+00  0.45593999997E+02  0.45594000000E+02  0.51100000000E-03 0.  1.
         11   -1    0    0    0    0 -0.00000000000E+00 -0.00000000000E+00 -0.45593999997E+02  0.45594000000E+02  0.51100000000E-03 0. -1.
    9900012    2    1    2    0    0  0.19626480961E+02 -0.33443608441E+02  0.22922474735E+02  0.46142317094E+02  0.99999939210E+01 0.  0.
         12    1    1    2    0    0 -0.19626480961E+02  0.33443608441E+02 -0.22922474735E+02  0.45045682906E+02  0.00000000000E+00 0. -1.
         11    1    3    3    0    0  0.64933064981E+00 -0.41536611818E+01  0.57390710472E+01  0.71141737575E+01  0.51100000000E-03 0. -1.
        -11    1    3    3    0    0  0.18765283998E+02 -0.28085920308E+02  0.16914545407E+02  0.37776403345E+02  0.51100000000E-03 0.  1.
        -12    1    3    3    0    0  0.21186631312E+00 -0.12040269509E+01  0.26885828087E+00  0.12517399923E+01  0.00000000000E+00 0.  1.
</event>
<event>
 7    1  0.1442665E-008  0.4614232E+02  0.7816164E-02  0.1320468E+00
        -11   -1    0    0    0    0  0.00000000000E+00  0.00000000000E+00  0.45593999997E+02  0.45594000000E+02  0.51100000000E-03 0.  1.
         11   -1    0    0    0    0 -0.00000000000E+00 -0.00000000000E+00 -0.45593999997E+02  0.45594000000E+02  0.51100000000E-03 0. -1.
    9900012    2    1    2    0    0  0.41409571512E+01 -0.20455918584E+02  0.39918934935E+02  0.46142317659E+02  0.99999990644E+01 0.  0.
         12    1    1    2    0    0 -0.41409571512E+01  0.20455918584E+02 -0.39918934935E+02  0.45045682341E+02  0.00000000000E+00 0. -1.
         11    1    3    3    0    0  0.22036814707E+01 -0.63561505156E+00  0.31099115711E+01  0.38641646910E+01  0.51100000000E-03 0. -1.
        -11    1    3    3    0    0  0.27380763365E+01 -0.55719610213E+01  0.14775354846E+02  0.16026694068E+02  0.51100000000E-03 0.  1.
         12    1    3    3    0    0 -0.80080065598E+00 -0.14248342511E+02  0.22033668518E+02  0.26251458900E+02  0.00000000000E+00 0. -1.
</event>
<event>
 7    1  0.1442665E-008  0.4614232E+02  0.7816164E-02  0.1320468E+00
        -11   -1    0    0    0    0  0.00000000000E+00  0.00000000000E+00  0.45593999997E+02  0.45594000000E+02  0.51100000000E-03 0. -1.
         11   -1    0    0    0    0 -0.00000000000E+00 -0.00000000000E+00 -0.45593999997E+02  0.45594000000E+02  0.51100000000E-03 0.  1.
    9900012    2    1    2    0    0  0.43885039812E+02  0.77188399232E+01  0.66057742346E+01  0.46142318050E+02  0.10000002635E+02 0.  0.
         12    1    1    2    0    0 -0.43885039812E+02 -0.77188399232E+01 -0.66057742346E+01  0.45045681950E+02  0.00000000000E+00 0. -1.
         11    1    3    3    0    0  0.17726162972E+02  0.31128539775E-01  0.55229996327E+01  0.18566673044E+02  0.51100000000E-03 0. -1.
        -11    1    3    3    0    0  0.22087094371E+02  0.72032936646E+01  0.21708761761E+01  0.23333235545E+02  0.51100000000E-03 0.  1.
        -12    1    3    3    0    0  0.40717824687E+01  0.48441771884E+00 -0.10881015742E+01  0.42424094610E+01  0.00000000000E+00 0.  1.
</event>
<event>
 7    1  0.1442665E-008  0.4614232E+02  0.7816164E-02  0.1320468E+00
        -11   -1    0    0    0    0  0.00000000000E+00  0.00000000000E+00  0.45593999997E+02  0.45594000000E+02  0.51100000000E-03 0.  1.
         11   -1    0    0    0    0 -0.00000000000E+00 -0.00000000000E+00 -0.45593999997E+02  0.45594000000E+02  0.51100000000E-03 0. -1.
    9900012    2    1    2    0    0  0.33058827128E+02 -0.30594816196E+02  0.42975437519E+00  0.46142317433E+02  0.99999970040E+01 0.  0.
         12    1    1    2    0    0 -0.33058827128E+02  0.30594816196E+02 -0.42975437519E+00  0.45045682567E+02  0.00000000000E+00 0. -1.
         11    1    3    3    0    0  0.39167675646E+01 -0.75011746243E+01  0.17552966769E+01  0.86423235061E+01  0.51100000000E-03 0. -1.
        -11    1    3    3    0    0  0.27398473987E+02 -0.21573375648E+02 -0.23885800971E+01  0.34954144659E+02  0.51100000000E-03 0.  1.
        -12    1    3    3    0    0  0.17435855765E+01 -0.15202659234E+01  0.10630377953E+01  0.25458492679E+01  0.00000000000E+00 0.  1.
</event>
<event>
 7    1  0.1442665E-008  0.4614232E+02  0.7816164E-02  0.1320468E+00
        -11   -1    0    0    0    0  0.00000000000E+00  0.00000000000E+00  0.45593999997E+02  0.45594000000E+02  0.51100000000E-03 0.  1.
         11   -1    0    0    0    0 -0.00000000000E+00 -0.00000000000E+00 -0.45593999997E+02  0.45594000000E+02  0.51100000000E-03 0. -1.
    9900012    2    1    2    0    0 -0.27027132537E+02 -0.19961838543E+02  0.30002876190E+02  0.46142317955E+02  0.10000001771E+02 0.  0.
         12    1    1    2    0    0  0.27027132537E+02  0.19961838543E+02 -0.30002876190E+02  0.45045682045E+02  0.00000000000E+00 0. -1.
         11    1    3    3    0    0 -0.16506340531E+02 -0.98976468579E+01  0.18850091985E+02  0.26939722700E+02  0.51100000000E-03 0.  1.
        -11    1    3    3    0    0 -0.29335649777E-01  0.71424400033E-01  0.19566403297E+01  0.19581633400E+01  0.51100000000E-03 0. -1.
        -12    1    3    3    0    0 -0.10491456356E+02 -0.10135616085E+02  0.91961438754E+01  0.17244431915E+02  0.00000000000E+00 0.  1.
</event>
<event>
 7    1  0.1442665E-008  0.4614232E+02  0.7816164E-02  0.1320468E+00
        -11   -1    0    0    0    0  0.00000000000E+00  0.00000000000E+00  0.45593999997E+02  0.45594000000E+02  0.51100000000E-03 0. -1.
         11   -1    0    0    0    0 -0.00000000000E+00 -0.00000000000E+00 -0.45593999997E+02  0.45594000000E+02  0.51100000000E-03 0.  1.
    9900012    2    1    2    0    0 -0.31601391226E+02  0.23064389446E+02 -0.22327102219E+02  0.46142317838E+02  0.10000000702E+02 0.  0.
         12    1    1    2    0    0  0.31601391226E+02 -0.23064389446E+02  0.22327102219E+02  0.45045682162E+02  0.00000000000E+00 0. -1.
         11    1    3    3    0    0 -0.14765017038E+02  0.77314163187E+01 -0.13990780848E+02  0.21760571578E+02  0.51100000000E-03 0. -1.
        -11    1    3    3    0    0 -0.86363601959E+01  0.66682989773E+01 -0.30217886999E+01  0.11321843308E+02  0.51100000000E-03 0.  1.
        -12    1    3    3    0    0 -0.82000139918E+01  0.86646741499E+01 -0.53145326717E+01  0.13059902952E+02  0.00000000000E+00 0.  1.
</event>
<event>
 7    1  0.1442665E-008  0.4614232E+02  0.7816164E-02  0.1320468E+00
        -11   -1    0    0    0    0  0.00000000000E+00  0.00000000000E+00  0.45593999997E+02  0.45594000000E+02  0.51100000000E-03 0.  1.
         11   -1    0    0    0    0 -0.00000000000E+00 -0.00000000000E+00 -0.45593999997E+02  0.45594000000E+02  0.51100000000E-03 0. -1.
    9900012    2    1    2    0    0 -0.23842722660E+02  0.27233182851E+02  0.26814022742E+02  0.46142317769E+02  0.10000000076E+02 0.  0.
         12    1    1    2    0    0  0.23842722660E+02 -0.27233182851E+02 -0.26814022742E+02  0.45045682231E+02  0.00000000000E+00 0. -1.
         11    1    3    3    0    0 -0.14486170151E+02  0.13548002635E+02  0.19013770609E+02  0.27475825267E+02  0.51100000000E-03 0. -1.
        -11    1    3    3    0    0 -0.29857796192E+01  0.74454395739E+01  0.41391975069E+01  0.90267605842E+01  0.51100000000E-03 0.  1.
         12    1    3    3    0    0 -0.63707728895E+01  0.62397406419E+01  0.36610546262E+01  0.96397319186E+01  0.00000000000E+00 0. -1.
</event>
<event>
 7    1  0.1450979E-008  0.4614232E+02  0.7816164E-02  0.1320468E+00
        -11   -1    0    0    0    0  0.00000000000E+00  0.00000000000E+00  0.45593999997E+02  0.45594000000E+02  0.51100000000E-03 0.  1.
         11   -1    0    0    0    0 -0.00000000000E+00 -0.00000000000E+00 -0.45593999997E+02  0.45594000000E+02  0.51100000000E-03 0. -1.
    9900012    2    1    2    0    0  0.23179207840E+02  0.36116194169E+02  0.13691539549E+02  0.46142318602E+02  0.10000007671E+02 0.  0.
         12    1    1    2    0    0 -0.23179207840E+02 -0.36116194169E+02 -0.13691539549E+02  0.45045681398E+02  0.00000000000E+00 0. -1.
         11    1    3    3    0    0  0.68066001496E+00  0.11011612072E+01  0.18040781944E+01  0.22204847337E+01  0.51100000000E-03 0. -1.
        -11    1    3    3    0    0  0.18670697068E+02  0.32107409723E+02  0.86772800100E+01  0.38141524311E+02  0.51100000000E-03 0.  1.
        -12    1    3    3    0    0  0.38278507570E+01  0.29076232387E+01  0.32101813445E+01  0.57803095575E+01  0.00000000000E+00 0.  1.
</event>
<event>
 7    1  0.1442665E-008  0.4614232E+02  0.7816164E-02  0.1320468E+00
        -11   -1    0    0    0    0  0.00000000000E+00  0.00000000000E+00  0.45593999997E+02  0.45594000000E+02  0.51100000000E-03 0.  1.
         11   -1    0    0    0    0 -0.00000000000E+00 -0.00000000000E+00 -0.45593999997E+02  0.45594000000E+02  0.51100000000E-03 0. -1.
    9900012    2    1    2    0    0  0.30428384695E+02  0.13640614242E+01  0.33186838252E+02  0.46142317722E+02  0.99999996435E+01 0.  0.
         12    1    1    2    0    0 -0.30428384695E+02 -0.13640614242E+01 -0.33186838252E+02  0.45045682278E+02  0.00000000000E+00 0. -1.
         11    1    3    3    0    0  0.28485363413E+01  0.42744382677E+00 -0.10573569192E+00  0.28823684377E+01  0.51100000000E-03 0. -1.
        -11    1    3    3    0    0  0.12954693233E+02 -0.77057620761E-01  0.15106162684E+02  0.19900406175E+02  0.51100000000E-03 0.  1.
         12    1    3    3    0    0  0.14625155121E+02  0.10136752182E+01  0.18186411260E+02  0.23359543109E+02  0.00000000000E+00 0. -1.
</event>
<event>
 7    1  0.1442665E-008  0.4614232E+02  0.7816164E-02  0.1320468E+00
        -11   -1    0    0    0    0  0.00000000000E+00  0.00000000000E+00  0.45593999997E+02  0.45594000000E+02  0.51100000000E-03 0. -1.
         11   -1    0    0    0    0 -0.00000000000E+00 -0.00000000000E+00 -0.45593999997E+02  0.45594000000E+02  0.51100000000E-03 0.  1.
    9900012    2    1    2    0    0  0.42149539081E+02 -0.39009987263E+01  0.15404936747E+02  0.46142317499E+02  0.99999976099E+01 0.  0.
         12    1    1    2    0    0 -0.42149539081E+02  0.39009987263E+01 -0.15404936747E+02  0.45045682501E+02  0.00000000000E+00 0. -1.
         11    1    3    3    0    0  0.24146661732E+02  0.23897156489E+01  0.95236013638E+01  0.26066664475E+02  0.51100000000E-03 0. -1.
        -11    1    3    3    0    0  0.91341017290E+01 -0.42685922791E+01  0.35028261931E+01  0.10673447711E+02  0.51100000000E-03 0.  1.
        -12    1    3    3    0    0  0.88687756200E+01 -0.20221220961E+01  0.23785091902E+01  0.94022053125E+01  0.00000000000E+00 0.  1.
</event>
<event>
 7    1  0.1442665E-008  0.4614232E+02  0.7816164E-02  0.1320468E+00
        -11   -1    0    0    0    0  0.00000000000E+00  0.00000000000E+00  0.45593999997E+02  0.45594000000E+02  0.51100000000E-03 0.  1.
         11   -1    0    0    0    0 -0.00000000000E+00 -0.00000000000E+00 -0.45593999997E+02  0.45594000000E+02  0.51100000000E-03 0. -1.
    9900012    2    1    2    0    0 -0.71781348472E+01  0.36625496343E+02  0.25222231613E+02  0.46142316858E+02  0.99999917623E+01 0.  0.
         12    1    1    2    0    0  0.71781348472E+01 -0.36625496343E+02 -0.25222231613E+02  0.45045683142E+02  0.00000000000E+00 0. -1.
         11    1    3    3    0    0 -0.56462948734E+01  0.29230733953E+02  0.16093662669E+02  0.33842612660E+02  0.51100000000E-03 0. -1.
        -11    1    3    3    0    0 -0.92560901662E+00  0.70387125331E+01  0.66646492416E+01  0.97374419613E+01  0.51100000000E-03 0.  1.
        -12    1    3    3    0    0 -0.60623095724E+00  0.35604985612E+00  0.24639197017E+01  0.25622622368E+01  0.00000000000E+00 0.  1.
</event>
<event>
 7    1  0.1442665E-008  0.4614232E+02  0.7816164E-02  0.1320468E+00
        -11   -1    0    0    0    0  0.00000000000E+00  0.00000000000E+00  0.45593999997E+02  0.45594000000E+02  0.51100000000E-03 0.  1.
         11   -1    0    0    0    0 -0.00000000000E+00 -0.00000000000E+00 -0.45593999997E+02  0.45594000000E+02  0.51100000000E-03 0. -1.
    9900012    2    1    2    0    0  0.33477317456E+02  0.30122685304E+02 -0.10032949763E+01  0.46142317024E+02  0.99999932827E+01 0.  0.
         12    1    1    2    0    0 -0.33477317456E+02 -0.30122685304E+02  0.10032949763E+01  0.45045682976E+02  0.00000000000E+00 0. -1.
         11    1    3    3    0    0  0.25430752289E+02  0.22410596010E+02 -0.26837437155E+01  0.34002359567E+02  0.51100000000E-03 0. -1.
        -11    1    3    3    0    0  0.80070800025E+01  0.52914277191E+01  0.12071901062E+01  0.96731507631E+01  0.51100000000E-03 0.  1.
         12    1    3    3    0    0  0.39485164206E-01  0.24206615740E+01  0.47325863296E+00  0.24668066944E+01  0.00000000000E+00 0. -1.
</event>
<event>
 7    1  0.1442665E-008  0.4614232E+02  0.7816164E-02  0.1320468E+00
        -11   -1    0    0    0    0  0.00000000000E+00  0.00000000000E+00  0.45593999997E+02  0.45594000000E+02  0.51100000000E-03 0.  1.
         11   -1    0    0    0    0 -0.00000000000E+00 -0.00000000000E+00 -0.45593999997E+02  0.45594000000E+02  0.51100000000E-03 0. -1.
    9900012    2    1    2    0    0 -0.11832671705E+01  0.19340040618E+02  0.40665417640E+02  0.46142317808E+02  0.10000000429E+02 0.  0.
         12    1    1    2    0    0  0.11832671705E+01 -0.19340040618E+02 -0.40665417640E+02  0.45045682192E+02  0.00000000000E+00 0. -1.
         11    1    3    3    0    0 -0.22115394829E+01  0.28371117836E+01  0.84482365004E+01  0.91822007376E+01  0.51100000000E-03 0. -1.
        -11    1    3    3    0    0  0.17948584820E+01  0.56946917346E+01  0.54545468205E+01  0.80872190647E+01  0.51100000000E-03 0.  1.
        -12    1    3    3    0    0 -0.76658616967E+00  0.10808237100E+02  0.26762634319E+02  0.28872898006E+02  0.00000000000E+00 0.  1.
</event>
<event>
 7    1  0.1442665E-008  0.4614232E+02  0.7816164E-02  0.1320468E+00
        -11   -1    0    0    0    0  0.00000000000E+00  0.00000000000E+00  0.45593999997E+02  0.45594000000E+02  0.51100000000E-03 0.  1.
         11   -1    0    0    0    0 -0.00000000000E+00 -0.00000000000E+00 -0.45593999997E+02  0.45594000000E+02  0.51100000000E-03 0. -1.
    9900012    2    1    2    0    0 -0.31275947042E+02  0.15870076486E+02  0.28267814872E+02  0.46142317091E+02  0.99999938937E+01 0.  0.
         12    1    1    2    0    0  0.31275947042E+02 -0.15870076486E+02 -0.28267814872E+02  0.45045682909E+02  0.00000000000E+00 0. -1.
         11    1    3    3    0    0 -0.10534371555E+02  0.74645717414E+00  0.60898463437E+01  0.12190833078E+02  0.51100000000E-03 0. -1.
        -11    1    3    3    0    0 -0.96750152534E+01  0.78965185859E+01  0.10923680470E+02  0.16591796804E+02  0.51100000000E-03 0.  1.
         12    1    3    3    0    0 -0.11066560234E+02  0.72271007261E+01  0.11254288058E+02  0.17359687210E+02  0.00000000000E+00 0. -1.
</event>
<event>
 7    1  0.1442665E-008  0.4614232E+02  0.7816164E-02  0.1320468E+00
        -11   -1    0    0    0    0  0.00000000000E+00  0.00000000000E+00  0.45593999997E+02  0.45594000000E+02  0.51100000000E-03 0. -1.
         11   -1    0    0    0    0 -0.00000000000E+00 -0.00000000000E+00 -0.45593999997E+02  0.45594000000E+02  0.51100000000E-03 0.  1.
    9900012    2    1    2    0    0 -0.10410480908E+02 -0.21102904675E+02 -0.38410972088E+02  0.46142317907E+02  0.10000001334E+02 0.  0.
         12    1    1    2    0    0  0.10410480908E+02  0.21102904675E+02  0.38410972088E+02  0.45045682093E+02  0.00000000000E+00 0. -1.
         11    1    3    3    0    0 -0.56692217986E+01 -0.46611029836E+01 -0.11730738802E+02  0.13837492183E+02  0.51100000000E-03 0. -1.
        -11    1    3    3    0    0 -0.93681016273E+00 -0.12735330798E+02 -0.20541785440E+02  0.24187418488E+02  0.51100000000E-03 0.  1.
        -12    1    3    3    0    0 -0.38044489464E+01 -0.37064708930E+01 -0.61384478467E+01  0.81174072359E+01  0.00000000000E+00 0.  1.
</event>
<event>
 7    1  0.1442665E-008  0.4614232E+02  0.7816164E-02  0.1320468E+00
        -11   -1    0    0    0    0  0.00000000000E+00  0.00000000000E+00  0.45593999997E+02  0.45594000000E+02  0.51100000000E-03 0.  1.
         11   -1    0    0    0    0 -0.00000000000E+00 -0.00000000000E+00 -0.45593999997E+02  0.45594000000E+02  0.51100000000E-03 0. -1.
    9900012    2    1    2    0    0  0.28162001160E+02  0.24325988243E+02  0.25382305457E+02  0.46142318257E+02  0.10000004526E+02 0.  0.
         12    1    1    2    0    0 -0.28162001160E+02 -0.24325988243E+02 -0.25382305457E+02  0.45045681743E+02  0.00000000000E+00 0. -1.
         11    1    3    3    0    0  0.27259386551E+01  0.16220337926E+01  0.11992556683E+01  0.33911575597E+01  0.51100000000E-03 0. -1.
        -11    1    3    3    0    0  0.96568314891E+01  0.96577803541E+01  0.15077852425E+02  0.20343764396E+02  0.51100000000E-03 0.  1.
        -12    1    3    3    0    0  0.15779231016E+02  0.13046174096E+02  0.91051973636E+01  0.22407396302E+02  0.00000000000E+00 0.  1.
</event>
<event>
 7    1  0.1442665E-008  0.4614232E+02  0.7816164E-02  0.1320468E+00
        -11   -1    0    0    0    0  0.00000000000E+00  0.00000000000E+00  0.45593999997E+02  0.45594000000E+02  0.51100000000E-03 0.  1.
         11   -1    0    0    0    0 -0.00000000000E+00 -0.00000000000E+00 -0.45593999997E+02  0.45594000000E+02  0.51100000000E-03 0. -1.
    9900012    2    1    2    0    0  0.89181699792E+00 -0.40368023012E+02  0.19968498371E+02  0.46142317114E+02  0.99999941020E+01 0.  0.
         12    1    1    2    0    0 -0.89181699792E+00  0.40368023012E+02 -0.19968498371E+02  0.45045682886E+02  0.00000000000E+00 0. -1.
         11    1    3    3    0    0  0.13280298174E+01 -0.59609457719E+01  0.62618235353E+01  0.87468263925E+01  0.51100000000E-03 0. -1.
        -11    1    3    3    0    0 -0.59840741880E+00 -0.33840711797E+02  0.14122697693E+02  0.36674275136E+02  0.51100000000E-03 0.  1.
        -12    1    3    3    0    0  0.16219459930E+00 -0.56636544327E+00 -0.41602285758E+00  0.72121558594E+00  0.00000000000E+00 0.  1.
</event>
<event>
 7    1  0.1442665E-008  0.4614232E+02  0.7816164E-02  0.1320468E+00
        -11   -1    0    0    0    0  0.00000000000E+00  0.00000000000E+00  0.45593999997E+02  0.45594000000E+02  0.51100000000E-03 0.  1.
         11   -1    0    0    0    0 -0.00000000000E+00 -0.00000000000E+00 -0.45593999997E+02  0.45594000000E+02  0.51100000000E-03 0. -1.
    9900012    2    1    2    0    0  0.22756914718E+02 -0.30593890478E+02  0.23984373131E+02  0.46142318114E+02  0.10000003219E+02 0.  0.
         12    1    1    2    0    0 -0.22756914718E+02  0.30593890478E+02 -0.23984373131E+02  0.45045681886E+02  0.00000000000E+00 0. -1.
         11    1    3    3    0    0  0.13601422700E+02 -0.12083068854E+02  0.85441844973E+01  0.20099809486E+02  0.51100000000E-03 0. -1.
        -11    1    3    3    0    0  0.73041329530E+01 -0.10779655678E+02  0.94778559097E+01  0.16105312404E+02  0.51100000000E-03 0.  1.
         12    1    3    3    0    0  0.18513590645E+01 -0.77311659460E+01  0.59623327240E+01  0.99371962234E+01  0.00000000000E+00 0. -1.
</event>
<event>
 7    1  0.1442665E-008  0.4614232E+02  0.7816164E-02  0.1320468E+00
        -11   -1    0    0    0    0  0.00000000000E+00  0.00000000000E+00  0.45593999997E+02  0.45594000000E+02  0.51100000000E-03 0.  1.
         11   -1    0    0    0    0 -0.00000000000E+00 -0.00000000000E+00 -0.45593999997E+02  0.45594000000E+02  0.51100000000E-03 0. -1.
    9900012    2    1    2    0    0 -0.19162538634E+00  0.28295502011E+02  0.35049126989E+02  0.46142318108E+02  0.10000003167E+02 0.  0.
         12    1    1    2    0    0  0.19162538634E+00 -0.28295502011E+02 -0.35049126989E+02  0.45045681892E+02  0.00000000000E+00 0. -1.
         11    1    3    3    0    0  0.24029097311E+01  0.12816242997E+02  0.12665623537E+02  0.18178230925E+02  0.51100000000E-03 0. -1.
        -11    1    3    3    0    0 -0.13541370297E+01  0.70626995461E+01  0.54832307601E+01  0.90432976177E+01  0.51100000000E-03 0.  1.
        -12    1    3    3    0    0 -0.12403980877E+01  0.84165594679E+01  0.16900272692E+02  0.18920789565E+02  0.00000000000E+00 0.  1.
</event>
<event>
 7    1  0.1442665E-008  0.4614232E+02  0.7816164E-02  0.1320468E+00
        -11   -1    0    0    0    0  0.00000000000E+00  0.00000000000E+00  0.45593999997E+02  0.45594000000E+02  0.51100000000E-03 0. -1.
         11   -1    0    0    0    0 -0.00000000000E+00 -0.00000000000E+00 -0.45593999997E+02  0.45594000000E+02  0.51100000000E-03 0.  1.
    9900012    2    1    2    0    0  0.36942056853E+02 -0.18370751227E+02 -0.18080751882E+02  0.46142315925E+02  0.99999832591E+01 0.  0.
         12    1    1    2    0    0 -0.36942056853E+02  0.18370751227E+02  0.18080751882E+02  0.45045684075E+02  0.00000000000E+00 0. -1.
         11    1    3    3    0    0  0.12347852250E+02 -0.52856565816E+01 -0.76417434888E+01  0.15453280056E+02  0.51100000000E-03 0. -1.
        -11    1    3    3    0    0  0.17921228103E+02 -0.57731796462E+01 -0.54344206497E+01  0.19596758609E+02  0.51100000000E-03 0.  1.
         12    1    3    3    0    0  0.66729765001E+01 -0.73119149991E+01 -0.50045877433E+01  0.11092277260E+02  0.00000000000E+00 0. -1.
</event>
<event>
 7    1  0.1442665E-008  0.4614232E+02  0.7816164E-02  0.1320468E+00
        -11   -1    0    0    0    0  0.00000000000E+00  0.00000000000E+00  0.45593999997E+02  0.45594000000E+02  0.51100000000E-03 0.  1.
         11   -1    0    0    0    0 -0.00000000000E+00 -0.00000000000E+00 -0.45593999997E+02  0.45594000000E+02  0.51100000000E-03 0. -1.
    9900012    2    1    2    0    0 -0.13763993420E+02 -0.28017425332E+02  0.32475991218E+02  0.46142316048E+02  0.99999843776E+01 0.  0.
         12    1    1    2    0    0  0.13763993420E+02  0.28017425332E+02 -0.32475991218E+02  0.45045683952E+02  0.00000000000E+00 0. -1.
         11    1    3    3    0    0 -0.27710945077E-01 -0.13479504799E+01  0.33147127836E+01  0.35784157796E+01  0.51100000000E-03 0. -1.
        -11    1    3    3    0    0 -0.65459196877E+01 -0.15341408636E+02  0.10985566546E+02  0.19972244643E+02  0.51100000000E-03 0.  1.
        -12    1    3    3    0    0 -0.71903627868E+01 -0.11328066216E+02  0.18175711889E+02  0.22591655625E+02  0.00000000000E+00 0.  1.
</event>
<event>
 7    1  0.1442665E-008  0.4614232E+02  0.7816164E-02  0.1320468E+00
        -11   -1    0    0    0    0  0.00000000000E+00  0.00000000000E+00  0.45593999997E+02  0.45594000000E+02  0.51100000000E-03 0.  1.
         11   -1    0    0    0    0 -0.00000000000E+00 -0.00000000000E+00 -0.45593999997E+02  0.45594000000E+02  0.51100000000E-03 0. -1.
    9900012    2    1    2    0    0  0.30610722446E+02 -0.31352972952E+02  0.10444530489E+02  0.46142318091E+02  0.10000003005E+02 0.  0.
         12    1    1    2    0    0 -0.30610722446E+02  0.31352972952E+02 -0.10444530489E+02  0.45045681909E+02  0.00000000000E+00 0. -1.
         11    1    3    3    0    0 -0.87122088831E-01 -0.11019167267E+01  0.10151350420E+01  0.15007698510E+01  0.51100000000E-03 0. -1.
        -11    1    3    3    0    0  0.17760984516E+02 -0.16405920739E+02  0.86417136416E+01  0.25676565603E+02  0.51100000000E-03 0.  1.
        -12    1    3    3    0    0  0.12936860019E+02 -0.13845135486E+02  0.78768180492E+00  0.18964982636E+02  0.00000000000E+00 0.  1.
</event>
<event>
 7    1  0.1442665E-008  0.4614232E+02  0.7816164E-02  0.1320468E+00
        -11   -1    0    0    0    0  0.00000000000E+00  0.00000000000E+00  0.45593999997E+02  0.45594000000E+02  0.51100000000E-03 0. -1.
         11   -1    0    0    0    0 -0.00000000000E+00 -0.00000000000E+00 -0.45593999997E+02  0.45594000000E+02  0.51100000000E-03 0.  1.
    9900012    2    1    2    0    0  0.33489578359E+02 -0.20490787052E+02 -0.22083687187E+02  0.46142318159E+02  0.10000003630E+02 0.  0.
         12    1    1    2    0    0 -0.33489578359E+02  0.20490787052E+02  0.22083687187E+02  0.45045681841E+02  0.00000000000E+00 0. -1.
         11    1    3    3    0    0  0.55729471735E+01 -0.48899482951E+01 -0.80493874468E+01  0.10943581363E+02  0.51100000000E-03 0. -1.
        -11    1    3    3    0    0  0.14754808490E+02 -0.65313271788E+01 -0.52995182268E+01  0.16983742284E+02  0.51100000000E-03 0.  1.
        -12    1    3    3    0    0  0.13161822696E+02 -0.90695115782E+01 -0.87347815139E+01  0.18214994511E+02  0.00000000000E+00 0.  1.
</event>
<event>
 7    1  0.1442665E-008  0.4614232E+02  0.7816164E-02  0.1320468E+00
        -11   -1    0    0    0    0  0.00000000000E+00  0.00000000000E+00  0.45593999997E+02  0.45594000000E+02  0.51100000000E-03 0. -1.
         11   -1    0    0    0    0 -0.00000000000E+00 -0.00000000000E+00 -0.45593999997E+02  0.45594000000E+02  0.51100000000E-03 0.  1.
    9900012    2    1    2    0    0  0.31060721175E+02 -0.27742641973E+02  0.17166563241E+02  0.46142317887E+02  0.10000001147E+02 0.  0.
         12    1    1    2    0    0 -0.31060721175E+02  0.27742641973E+02 -0.17166563241E+02  0.45045682113E+02  0.00000000000E+00 0. -1.
         11    1    3    3    0    0  0.50436319135E+01 -0.46528350181E+01  0.59731802570E+01  0.90975809547E+01  0.51100000000E-03 0. -1.
        -11    1    3    3    0    0  0.24534662894E+02 -0.19448320512E+02  0.10681314498E+02  0.33079862964E+02  0.51100000000E-03 0.  1.
        -12    1    3    3    0    0  0.14824263672E+01 -0.36414864433E+01  0.51206848603E+00  0.39648739685E+01  0.00000000000E+00 0.  1.
</event>
<event>
 7    1  0.1442665E-008  0.4614232E+02  0.7816164E-02  0.1320468E+00
        -11   -1    0    0    0    0  0.00000000000E+00  0.00000000000E+00  0.45593999997E+02  0.45594000000E+02  0.51100000000E-03 0.  1.
         11   -1    0    0    0    0 -0.00000000000E+00 -0.00000000000E+00 -0.45593999997E+02  0.45594000000E+02  0.51100000000E-03 0. -1.
    9900012    2    1    2    0    0 -0.72521690881E+01  0.13806700740E+02  0.42259845397E+02  0.46142317912E+02  0.10000001375E+02 0.  0.
         12    1    1    2    0    0  0.72521690881E+01 -0.13806700740E+02 -0.42259845397E+02  0.45045682088E+02  0.00000000000E+00 0. -1.
         11    1    3    3    0    0 -0.48521429072E+01  0.97986105386E+01  0.26869817142E+02  0.29009362847E+02  0.51100000000E-03 0. -1.
        -11    1    3    3    0    0 -0.27181301313E+01  0.48162416963E+01  0.15289148075E+02  0.16258612014E+02  0.51100000000E-03 0.  1.
         12    1    3    3    0    0  0.31810395037E+00 -0.80815149445E+00  0.10088018012E+00  0.87434305164E+00  0.00000000000E+00 0. -1.
</event>
<event>
 7    1  0.1442665E-008  0.4614232E+02  0.7816164E-02  0.1320468E+00
        -11   -1    0    0    0    0  0.00000000000E+00  0.00000000000E+00  0.45593999997E+02  0.45594000000E+02  0.51100000000E-03 0. -1.
         11   -1    0    0    0    0 -0.00000000000E+00 -0.00000000000E+00 -0.45593999997E+02  0.45594000000E+02  0.51100000000E-03 0.  1.
    9900012    2    1    2    0    0  0.27002021538E+02 -0.28889302148E+02 -0.21573422187E+02  0.46142317736E+02  0.99999997732E+01 0.  0.
         12    1    1    2    0    0 -0.27002021538E+02  0.28889302148E+02  0.21573422187E+02  0.45045682264E+02  0.00000000000E+00 0. -1.
         11    1    3    3    0    0  0.27394784064E+01 -0.97129758335E+00  0.39248927945E+00  0.29329522721E+01  0.51100000000E-03 0. -1.
        -11    1    3    3    0    0  0.20479167411E+02 -0.21103179815E+02 -0.17735275862E+02  0.34340653842E+02  0.51100000000E-03 0.  1.
         12    1    3    3    0    0  0.37833757205E+01 -0.68148247500E+01 -0.42306356052E+01  0.88687116223E+01  0.00000000000E+00 0. -1.
</event>
<event>
 7    1  0.1442665E-008  0.4614232E+02  0.7816164E-02  0.1320468E+00
        -11   -1    0    0    0    0  0.00000000000E+00  0.00000000000E+00  0.45593999997E+02  0.45594000000E+02  0.51100000000E-03 0.  1.
         11   -1    0    0    0    0 -0.00000000000E+00 -0.00000000000E+00 -0.45593999997E+02  0.45594000000E+02  0.51100000000E-03 0. -1.
    9900012    2    1    2    0    0 -0.35280925722E+02 -0.14750379732E+02  0.23807476819E+02  0.46142319025E+02  0.10000011526E+02 0.  0.
         12    1    1    2    0    0  0.35280925722E+02  0.14750379732E+02 -0.23807476819E+02  0.45045680975E+02  0.00000000000E+00 0. -1.
         11    1    3    3    0    0 -0.24183558684E+02 -0.12205900000E+02  0.18012358974E+02  0.32531117126E+02  0.51100000000E-03 0. -1.
        -11    1    3    3    0    0 -0.59819776411E+01 -0.37262185015E+01  0.29541543481E+01  0.76417137471E+01  0.51100000000E-03 0.  1.
         12    1    3    3    0    0 -0.51153893968E+01  0.11817387700E+01  0.28409634969E+01  0.59694881516E+01  0.00000000000E+00 0. -1.
</event>
<event>
 7    1  0.1442665E-008  0.4614232E+02  0.7816164E-02  0.1320468E+00
        -11   -1    0    0    0    0  0.00000000000E+00  0.00000000000E+00  0.45593999997E+02  0.45594000000E+02  0.51100000000E-03 0. -1.
         11   -1    0    0    0    0 -0.00000000000E+00 -0.00000000000E+00 -0.45593999997E+02  0.45594000000E+02  0.51100000000E-03 0.  1.
    9900012    2    1    2    0    0 -0.42407312256E+02  0.11192321205E+02 -0.10269629713E+02  0.46142317841E+02  0.10000000725E+02 0.  0.
         12    1    1    2    0    0  0.42407312256E+02 -0.11192321205E+02  0.10269629713E+02  0.45045682159E+02  0.00000000000E+00 0. -1.
         11    1    3    3    0    0 -0.22685502518E+02  0.84459806037E+01 -0.63393060342E+01  0.25023057649E+02  0.51100000000E-03 0.  1.
        -11    1    3    3    0    0 -0.15497150278E+02  0.36004598893E+01 -0.10688988248E+01  0.15945768188E+02  0.51100000000E-03 0. -1.
         12    1    3    3    0    0 -0.42246594608E+01 -0.85411928838E+00 -0.28614248537E+01  0.51734920037E+01  0.00000000000E+00 0. -1.
</event>
<event>
 7    1  0.1442665E-008  0.4614232E+02  0.7816164E-02  0.1320468E+00
        -11   -1    0    0    0    0  0.00000000000E+00  0.00000000000E+00  0.45593999997E+02  0.45594000000E+02  0.51100000000E-03 0.  1.
         11   -1    0    0    0    0 -0.00000000000E+00 -0.00000000000E+00 -0.45593999997E+02  0.45594000000E+02  0.51100000000E-03 0. -1.
    9900012    2    1    2    0    0  0.28164793645E+02  0.14615745129E+01  0.35124371257E+02  0.46142320325E+02  0.10000023381E+02 0.  0.
         12    1    1    2    0    0 -0.28164793645E+02 -0.14615745129E+01 -0.35124371257E+02  0.45045679675E+02  0.00000000000E+00 0. -1.
         11    1    3    3    0    0  0.13419863726E+02  0.39530588291E+01  0.11278464788E+02  0.17970063572E+02  0.51100000000E-03 0. -1.
        -11    1    3    3    0    0  0.12664596004E+02 -0.19630858736E+01  0.19663344535E+02  0.23471105996E+02  0.51100000000E-03 0.  1.
         12    1    3    3    0    0  0.20803339152E+01 -0.52839844267E+00  0.41825619341E+01  0.47011507576E+01  0.00000000000E+00 0. -1.
</event>
<event>
 7    1  0.1442665E-008  0.4614232E+02  0.7816164E-02  0.1320468E+00
        -11   -1    0    0    0    0  0.00000000000E+00  0.00000000000E+00  0.45593999997E+02  0.45594000000E+02  0.51100000000E-03 0. -1.
         11   -1    0    0    0    0 -0.00000000000E+00 -0.00000000000E+00 -0.45593999997E+02  0.45594000000E+02  0.51100000000E-03 0.  1.
    9900012    2    1    2    0    0  0.83403266024E+01 -0.42442731641E+02 -0.12576448402E+02  0.46142316840E+02  0.99999915972E+01 0.  0.
         12    1    1    2    0    0 -0.83403266024E+01  0.42442731641E+02  0.12576448402E+02  0.45045683160E+02  0.00000000000E+00 0. -1.
         11    1    3    3    0    0  0.76470850375E+00 -0.92261359446E+00 -0.39110305026E+00  0.12605382967E+01  0.51100000000E-03 0. -1.
        -11    1    3    3    0    0  0.69483059837E+01 -0.16941107550E+02 -0.26087337974E+01  0.18495555502E+02  0.51100000000E-03 0.  1.
        -12    1    3    3    0    0  0.62731211505E+00 -0.24579010497E+02 -0.95766115539E+01  0.26386223041E+02  0.00000000000E+00 0.  1.
</event>
<event>
 7    1  0.1442665E-008  0.4614232E+02  0.7816164E-02  0.1320468E+00
        -11   -1    0    0    0    0  0.00000000000E+00  0.00000000000E+00  0.45593999997E+02  0.45594000000E+02  0.51100000000E-03 0.  1.
         11   -1    0    0    0    0 -0.00000000000E+00 -0.00000000000E+00 -0.45593999997E+02  0.45594000000E+02  0.51100000000E-03 0. -1.
    9900012    2    1    2    0    0 -0.26734949292E+01 -0.29349762900E+02  0.34066955632E+02  0.46142316262E+02  0.99999863295E+01 0.  0.
         12    1    1    2    0    0  0.26734949292E+01  0.29349762900E+02 -0.34066955632E+02  0.45045683738E+02  0.00000000000E+00 0. -1.
         11    1    3    3    0    0 -0.19114275379E+01 -0.11374944549E+02  0.18627211605E+02  0.21909265874E+02  0.51100000000E-03 0. -1.
        -11    1    3    3    0    0  0.13234047757E+01 -0.86875775951E+01  0.98261348683E+01  0.13182500953E+02  0.51100000000E-03 0.  1.
        -12    1    3    3    0    0 -0.20854721670E+01 -0.92872407559E+01  0.56136091587E+01  0.11050549434E+02  0.00000000000E+00 0.  1.
</event>
<event>
 7    1  0.1442665E-008  0.4614232E+02  0.7816164E-02  0.1320468E+00
        -11   -1    0    0    0    0  0.00000000000E+00  0.00000000000E+00  0.45593999997E+02  0.45594000000E+02  0.51100000000E-03 0.  1.
         11   -1    0    0    0    0 -0.00000000000E+00 -0.00000000000E+00 -0.45593999997E+02  0.45594000000E+02  0.51100000000E-03 0. -1.
    9900012    2    1    2    0    0 -0.15453571545E+02  0.85570577421E+01  0.41437632533E+02  0.46142317625E+02  0.99999987593E+01 0.  0.
         12    1    1    2    0    0  0.15453571545E+02 -0.85570577421E+01 -0.41437632533E+02  0.45045682375E+02  0.00000000000E+00 0. -1.
         11    1    3    3    0    0 -0.62081181137E+01  0.54986160889E+01  0.11105213765E+02  0.13860060694E+02  0.51100000000E-03 0. -1.
        -11    1    3    3    0    0 -0.22703445882E+01  0.95764483556E+00  0.16165232712E+02  0.16351950865E+02  0.51100000000E-03 0.  1.
         12    1    3    3    0    0 -0.69751088432E+01  0.21007968176E+01  0.14167186055E+02  0.15930306066E+02  0.00000000000E+00 0. -1.
</event>
<event>
 7    1  0.1442665E-008  0.4614231E+02  0.7816164E-02  0.1320468E+00
        -11   -1    0    0    0    0  0.00000000000E+00  0.00000000000E+00  0.45593999997E+02  0.45594000000E+02  0.51100000000E-03 0.  1.
         11   -1    0    0    0    0 -0.00000000000E+00 -0.00000000000E+00 -0.45593999997E+02  0.45594000000E+02  0.51100000000E-03 0. -1.
    9900012    2    1    2    0    0 -0.92651897458E+01 -0.50311421501E+01  0.43794495852E+02  0.46142312090E+02  0.99999482885E+01 0.  0.
         12    1    1    2    0    0  0.92651897458E+01  0.50311421501E+01 -0.43794495852E+02  0.45045687910E+02  0.00000000000E+00 0. -1.
         11    1    3    3    0    0  0.83019786799E+00  0.16361108151E+01  0.32425068849E+01  0.37255789160E+01  0.51100000000E-03 0. -1.
        -11    1    3    3    0    0 -0.40879971150E+01 -0.27020809368E+01  0.21474072294E+02  0.22026092321E+02  0.51100000000E-03 0.  1.
         12    1    3    3    0    0 -0.60073904988E+01 -0.39651720284E+01  0.19077916673E+02  0.20390640853E+02  0.00000000000E+00 0. -1.
</event>
<event>
 7    1  0.1442665E-008  0.4614232E+02  0.7816164E-02  0.1320468E+00
        -11   -1    0    0    0    0  0.00000000000E+00  0.00000000000E+00  0.45593999997E+02  0.45594000000E+02  0.51100000000E-03 0. -1.
         11   -1    0    0    0    0 -0.00000000000E+00 -0.00000000000E+00 -0.45593999997E+02  0.45594000000E+02  0.51100000000E-03 0.  1.
    9900012    2    1    2    0    0  0.18574454033E+01  0.44739472111E+02  0.49033684734E+01  0.46142317737E+02  0.99999997775E+01 0.  0.
         12    1    1    2    0    0 -0.18574454033E+01 -0.44739472111E+02 -0.49033684734E+01  0.45045682263E+02  0.00000000000E+00 0. -1.
         11    1    3    3    0    0  0.29740317448E+00  0.21530704427E+01 -0.16806945622E+01  0.27475253323E+01  0.51100000000E-03 0. -1.
        -11    1    3    3    0    0 -0.10343811769E+01  0.79151384116E+01  0.26196540665E+01  0.84013063379E+01  0.51100000000E-03 0.  1.
         12    1    3    3    0    0  0.25944234058E+01  0.34671263257E+02  0.39644089690E+01  0.34993486067E+02  0.00000000000E+00 0. -1.
</event>
<event>
 7    1  0.1442665E-008  0.4614232E+02  0.7816164E-02  0.1320468E+00
        -11   -1    0    0    0    0  0.00000000000E+00  0.00000000000E+00  0.45593999997E+02  0.45594000000E+02  0.51100000000E-03 0. -1.
         11   -1    0    0    0    0 -0.00000000000E+00 -0.00000000000E+00 -0.45593999997E+02  0.45594000000E+02  0.51100000000E-03 0.  1.
    9900012    2    1    2    0    0 -0.12508875806E+01 -0.39849875454E+02 -0.20965118899E+02  0.46142317589E+02  0.99999984291E+01 0.  0.
         12    1    1    2    0    0  0.12508875806E+01  0.39849875454E+02  0.20965118899E+02  0.45045682411E+02  0.00000000000E+00 0. -1.
         11    1    3    3    0    0  0.46807905642E+00 -0.10108611684E+01 -0.29308697092E+01  0.31354323176E+01  0.51100000000E-03 0. -1.
        -11    1    3    3    0    0  0.68539560120E+00 -0.22178789792E+02 -0.95579944303E+01  0.24160375443E+02  0.51100000000E-03 0.  1.
         12    1    3    3    0    0 -0.24043622382E+01 -0.16660224494E+02 -0.84762547591E+01  0.18846509828E+02  0.00000000000E+00 0. -1.
</event>
<event>
 7    1  0.1442665E-008  0.4614232E+02  0.7816164E-02  0.1320468E+00
        -11   -1    0    0    0    0  0.00000000000E+00  0.00000000000E+00  0.45593999997E+02  0.45594000000E+02  0.51100000000E-03 0.  1.
         11   -1    0    0    0    0 -0.00000000000E+00 -0.00000000000E+00 -0.45593999997E+02  0.45594000000E+02  0.51100000000E-03 0. -1.
    9900012    2    1    2    0    0  0.90831128608E+01 -0.18431504670E+02  0.40086031483E+02  0.46142320699E+02  0.10000026788E+02 0.  0.
         12    1    1    2    0    0 -0.90831128608E+01  0.18431504670E+02 -0.40086031483E+02  0.45045679301E+02  0.00000000000E+00 0. -1.
         11    1    3    3    0    0  0.26626953421E+01 -0.97255323531E+01  0.28552609945E+02  0.30280810111E+02  0.51100000000E-03 0. -1.
        -11    1    3    3    0    0  0.54487476927E+01 -0.66670902862E+01  0.95137554967E+01  0.12831620639E+02  0.51100000000E-03 0.  1.
         12    1    3    3    0    0  0.97166982595E+00 -0.20388820311E+01  0.20196660415E+01  0.30298899496E+01  0.00000000000E+00 0. -1.
</event>
<event>
 7    1  0.1442665E-008  0.4614232E+02  0.7816164E-02  0.1320468E+00
        -11   -1    0    0    0    0  0.00000000000E+00  0.00000000000E+00  0.45593999997E+02  0.45594000000E+02  0.51100000000E-03 0. -1.
         11   -1    0    0    0    0 -0.00000000000E+00 -0.00000000000E+00 -0.45593999997E+02  0.45594000000E+02  0.51100000000E-03 0.  1.
    9900012    2    1    2    0    0 -0.34269375818E+02 -0.27250257481E+01 -0.29108378295E+02  0.46142316841E+02  0.99999916111E+01 0.  0.
         12    1    1    2    0    0  0.34269375818E+02  0.27250257481E+01  0.29108378295E+02  0.45045683159E+02  0.00000000000E+00 0. -1.
         11    1    3    3    0    0 -0.11730754856E+01  0.16025473169E+01 -0.19791363990E+01  0.28037912092E+01  0.51100000000E-03 0. -1.
        -11    1    3    3    0    0 -0.23050095077E+02 -0.19377299096E+01 -0.21485505501E+02  0.31570375784E+02  0.51100000000E-03 0.  1.
        -12    1    3    3    0    0 -0.10046205256E+02 -0.23898431553E+01 -0.56437363948E+01  0.11768149848E+02  0.00000000000E+00 0.  1.
</event>
<event>
 7    1  0.1442665E-008  0.4614232E+02  0.7816164E-02  0.1320468E+00
        -11   -1    0    0    0    0  0.00000000000E+00  0.00000000000E+00  0.45593999997E+02  0.45594000000E+02  0.51100000000E-03 0.  1.
         11   -1    0    0    0    0 -0.00000000000E+00 -0.00000000000E+00 -0.45593999997E+02  0.45594000000E+02  0.51100000000E-03 0. -1.
    9900012    2    1    2    0    0 -0.68370953729E+01  0.10128625991E+01  0.44512263671E+02  0.46142318954E+02  0.10000010874E+02 0.  0.
         12    1    1    2    0    0  0.68370953729E+01 -0.10128625991E+01 -0.44512263671E+02  0.45045681046E+02  0.00000000000E+00 0. -1.
         11    1    3    3    0    0  0.14529766012E+01  0.81980723419E+00  0.26947938668E+01  0.31694067505E+01  0.51100000000E-03 0. -1.
        -11    1    3    3    0    0 -0.57905343542E+01 -0.16000110401E+01  0.34743248123E+02  0.35258809024E+02  0.51100000000E-03 0.  1.
         12    1    3    3    0    0 -0.24995376199E+01  0.17930664050E+01  0.70742216819E+01  0.77141031787E+01  0.00000000000E+00 0. -1.
</event>
<event>
 7    1  0.1442665E-008  0.4614232E+02  0.7816164E-02  0.1320468E+00
        -11   -1    0    0    0    0  0.00000000000E+00  0.00000000000E+00  0.45593999997E+02  0.45594000000E+02  0.51100000000E-03 0.  1.
         11   -1    0    0    0    0 -0.00000000000E+00 -0.00000000000E+00 -0.45593999997E+02  0.45594000000E+02  0.51100000000E-03 0. -1.
    9900012    2    1    2    0    0  0.50271824964E+01  0.32023874633E+02  0.31277984637E+02  0.46142318372E+02  0.10000005573E+02 0.  0.
         12    1    1    2    0    0 -0.50271824964E+01 -0.32023874633E+02 -0.31277984637E+02  0.45045681628E+02  0.00000000000E+00 0. -1.
         11    1    3    3    0    0  0.10820886478E+01  0.34088248691E+00  0.16896526952E+00  0.11470249496E+01  0.51100000000E-03 0. -1.
        -11    1    3    3    0    0  0.51291414240E+01  0.23360350779E+02  0.20825585379E+02  0.31713074384E+02  0.51100000000E-03 0.  1.
        -12    1    3    3    0    0 -0.11840475754E+01  0.83226413668E+01  0.10283433989E+02  0.13282219038E+02  0.00000000000E+00 0.  1.
</event>
<event>
 7    1  0.1442665E-008  0.4614231E+02  0.7816164E-02  0.1320468E+00
        -11   -1    0    0    0    0  0.00000000000E+00  0.00000000000E+00  0.45593999997E+02  0.45594000000E+02  0.51100000000E-03 0. -1.
         11   -1    0    0    0    0 -0.00000000000E+00 -0.00000000000E+00 -0.45593999997E+02  0.45594000000E+02  0.51100000000E-03 0.  1.
    9900012    2    1    2    0    0 -0.15436513823E+02  0.39809212985E+02 -0.14354618711E+02  0.46142306800E+02  0.99999000518E+01 0.  0.
         12    1    1    2    0    0  0.15436513823E+02 -0.39809212985E+02  0.14354618711E+02  0.45045693200E+02  0.00000000000E+00 0. -1.
         11    1    3    3    0    0  0.37932390588E+00  0.13570168907E+00 -0.69853417906E+00  0.80638194079E+00  0.51100000000E-03 0. -1.
        -11    1    3    3    0    0 -0.11664235661E+02  0.34421679093E+02 -0.99396832840E+01  0.37678955521E+02  0.51100000000E-03 0.  1.
        -12    1    3    3    0    0 -0.41516020671E+01  0.52518322035E+01 -0.37164012479E+01  0.76569693386E+01  0.00000000000E+00 0.  1.
</event>
<event>
 7    1  0.1442665E-008  0.4614232E+02  0.7816164E-02  0.1320468E+00
        -11   -1    0    0    0    0  0.00000000000E+00  0.00000000000E+00  0.45593999997E+02  0.45594000000E+02  0.51100000000E-03 0. -1.
         11   -1    0    0    0    0 -0.00000000000E+00 -0.00000000000E+00 -0.45593999997E+02  0.45594000000E+02  0.51100000000E-03 0.  1.
    9900012    2    1    2    0    0  0.18232309286E+02 -0.41146984987E+02 -0.19031383313E+01  0.46142318621E+02  0.10000007841E+02 0.  0.
         12    1    1    2    0    0 -0.18232309286E+02  0.41146984987E+02  0.19031383313E+01  0.45045681379E+02  0.00000000000E+00 0. -1.
         11    1    3    3    0    0  0.38256789243E+01 -0.32751553030E+01 -0.24620267828E+01  0.56057147298E+01  0.51100000000E-03 0. -1.
        -11    1    3    3    0    0  0.89262318278E+01 -0.23672205123E+02  0.84622365973E+00  0.25313376005E+02  0.51100000000E-03 0.  1.
         12    1    3    3    0    0  0.54803985339E+01 -0.14199624561E+02 -0.28733520819E+00  0.15223227886E+02  0.00000000000E+00 0. -1.
</event>
<event>
 7    1  0.1442665E-008  0.4614232E+02  0.7816164E-02  0.1320468E+00
        -11   -1    0    0    0    0  0.00000000000E+00  0.00000000000E+00  0.45593999997E+02  0.45594000000E+02  0.51100000000E-03 0. -1.
         11   -1    0    0    0    0 -0.00000000000E+00 -0.00000000000E+00 -0.45593999997E+02  0.45594000000E+02  0.51100000000E-03 0.  1.
    9900012    2    1    2    0    0  0.20447289424E+02 -0.25441826837E+02 -0.31044084739E+02  0.46142318799E+02  0.10000009465E+02 0.  0.
         12    1    1    2    0    0 -0.20447289424E+02  0.25441826837E+02  0.31044084739E+02  0.45045681201E+02  0.00000000000E+00 0. -1.
         11    1    3    3    0    0  0.73884051013E+01 -0.10998248290E+02 -0.84285485428E+01  0.15703197961E+02  0.51100000000E-03 0. -1.
        -11    1    3    3    0    0  0.10512188324E+02 -0.94516699627E+01 -0.12478161402E+02  0.18855892466E+02  0.51100000000E-03 0.  1.
         12    1    3    3    0    0  0.25466959992E+01 -0.49919085837E+01 -0.10137374794E+02  0.11583228372E+02  0.00000000000E+00 0. -1.
</event>
<event>
 7    1  0.1442665E-008  0.4614232E+02  0.7816164E-02  0.1320468E+00
        -11   -1    0    0    0    0  0.00000000000E+00  0.00000000000E+00  0.45593999997E+02  0.45594000000E+02  0.51100000000E-03 0.  1.
         11   -1    0    0    0    0 -0.00000000000E+00 -0.00000000000E+00 -0.45593999997E+02  0.45594000000E+02  0.51100000000E-03 0. -1.
    9900012    2    1    2    0    0 -0.43414912845E+02  0.11486224712E+02  0.35107885637E+01  0.46142315947E+02  0.99999834569E+01 0.  0.
         12    1    1    2    0    0  0.43414912845E+02 -0.11486224712E+02 -0.35107885637E+01  0.45045684053E+02  0.00000000000E+00 0. -1.
         11    1    3    3    0    0 -0.16166580531E+02  0.20458099861E+01  0.22174085537E+01  0.16445685316E+02  0.51100000000E-03 0. -1.
        -11    1    3    3    0    0 -0.24715432973E+02  0.10463030657E+02  0.46759280970E+00  0.26842993143E+02  0.51100000000E-03 0.  1.
         12    1    3    3    0    0 -0.25328993407E+01 -0.10226159306E+01  0.82578720033E+00  0.28536374878E+01  0.00000000000E+00 0. -1.
</event>
<event>
 7    1  0.1442665E-008  0.4614232E+02  0.7816164E-02  0.1320468E+00
        -11   -1    0    0    0    0  0.00000000000E+00  0.00000000000E+00  0.45593999997E+02  0.45594000000E+02  0.51100000000E-03 0.  1.
         11   -1    0    0    0    0 -0.00000000000E+00 -0.00000000000E+00 -0.45593999997E+02  0.45594000000E+02  0.51100000000E-03 0. -1.
    9900012    2    1    2    0    0 -0.19600298890E+02 -0.37557195456E+02  0.15310088151E+02  0.46142318228E+02  0.10000004259E+02 0.  0.
         12    1    1    2    0    0  0.19600298890E+02  0.37557195456E+02 -0.15310088151E+02  0.45045681772E+02  0.00000000000E+00 0. -1.
         11    1    3    3    0    0 -0.20037170306E+01 -0.11209636351E+02  0.51382685740E+01  0.12492903316E+02  0.51100000000E-03 0. -1.
        -11    1    3    3    0    0 -0.11519729766E+02 -0.20951360530E+02  0.68655985313E+01  0.24875693466E+02  0.51100000000E-03 0.  1.
         12    1    3    3    0    0 -0.60768520926E+01 -0.53961985752E+01  0.33062210456E+01  0.87737214465E+01  0.00000000000E+00 0. -1.
</event>
<event>
 7    1  0.1442665E-008  0.4614232E+02  0.7816164E-02  0.1320468E+00
        -11   -1    0    0    0    0  0.00000000000E+00  0.00000000000E+00  0.45593999997E+02  0.45594000000E+02  0.51100000000E-03 0.  1.
         11   -1    0    0    0    0 -0.00000000000E+00 -0.00000000000E+00 -0.45593999997E+02  0.45594000000E+02  0.51100000000E-03 0. -1.
    9900012    2    1    2    0    0 -0.31040632623E+02  0.31876542234E+02 -0.70341079993E+01  0.46142317701E+02  0.99999994500E+01 0.  0.
         12    1    1    2    0    0  0.31040632623E+02 -0.31876542234E+02  0.70341079993E+01  0.45045682299E+02  0.00000000000E+00 0. -1.
         11    1    3    3    0    0 -0.52768267200E+01  0.75750702428E+01  0.14308461361E+01  0.93420506498E+01  0.51100000000E-03 0. -1.
        -11    1    3    3    0    0 -0.11073352060E+02  0.11904373347E+02 -0.63795381483E+01  0.17465157826E+02  0.51100000000E-03 0.  1.
        -12    1    3    3    0    0 -0.14690453843E+02  0.12397098644E+02 -0.20854159871E+01  0.19335109225E+02  0.00000000000E+00 0.  1.
</event>
<event>
 7    1  0.1442665E-008  0.4614232E+02  0.7816164E-02  0.1320468E+00
        -11   -1    0    0    0    0  0.00000000000E+00  0.00000000000E+00  0.45593999997E+02  0.45594000000E+02  0.51100000000E-03 0. -1.
         11   -1    0    0    0    0 -0.00000000000E+00 -0.00000000000E+00 -0.45593999997E+02  0.45594000000E+02  0.51100000000E-03 0.  1.
    9900012    2    1    2    0    0 -0.49429949374E+01 -0.44286224274E+02  0.65886763962E+01  0.46142317454E+02  0.99999971996E+01 0.  0.
         12    1    1    2    0    0  0.49429949374E+01  0.44286224274E+02 -0.65886763962E+01  0.45045682546E+02  0.00000000000E+00 0. -1.
         11    1    3    3    0    0  0.11857264744E+01 -0.10491579318E+02 -0.19740574509E+01  0.10741326125E+02  0.51100000000E-03 0. -1.
        -11    1    3    3    0    0 -0.17472519707E+01 -0.10968958751E+02  0.28203107969E+01  0.11459716349E+02  0.51100000000E-03 0.  1.
         12    1    3    3    0    0 -0.43814694411E+01 -0.22825686205E+02  0.57424230502E+01  0.23941274980E+02  0.00000000000E+00 0. -1.
</event>
<event>
 7    1  0.1442665E-008  0.4614231E+02  0.7816164E-02  0.1320468E+00
        -11   -1    0    0    0    0  0.00000000000E+00  0.00000000000E+00  0.45593999997E+02  0.45594000000E+02  0.51100000000E-03 0. -1.
         11   -1    0    0    0    0 -0.00000000000E+00 -0.00000000000E+00 -0.45593999997E+02  0.45594000000E+02  0.51100000000E-03 0.  1.
    9900012    2    1    2    0    0 -0.40439098188E+02  0.13971075060E+02 -0.14092644853E+02  0.46142309423E+02  0.99999239687E+01 0.  0.
         12    1    1    2    0    0  0.40439098188E+02 -0.13971075060E+02  0.14092644853E+02  0.45045690577E+02  0.00000000000E+00 0. -1.
         11    1    3    3    0    0 -0.23132749345E+02  0.53490096967E+01 -0.10177800377E+02  0.25832607645E+02  0.51100000000E-03 0. -1.
        -11    1    3    3    0    0 -0.12391773092E+02  0.36809760097E+01 -0.30978639888E+01  0.13292944982E+02  0.51100000000E-03 0.  1.
         12    1    3    3    0    0 -0.49145757512E+01  0.49410893536E+01 -0.81698048722E+00  0.70167567957E+01  0.00000000000E+00 0. -1.
</event>
<event>
 7    1  0.1442665E-008  0.4614232E+02  0.7816164E-02  0.1320468E+00
        -11   -1    0    0    0    0  0.00000000000E+00  0.00000000000E+00  0.45593999997E+02  0.45594000000E+02  0.51100000000E-03 0.  1.
         11   -1    0    0    0    0 -0.00000000000E+00 -0.00000000000E+00 -0.45593999997E+02  0.45594000000E+02  0.51100000000E-03 0. -1.
    9900012    2    1    2    0    0 -0.28753788544E+02 -0.10131722195E+02  0.33161444262E+02  0.46142317234E+02  0.99999951976E+01 0.  0.
         12    1    1    2    0    0  0.28753788544E+02  0.10131722195E+02 -0.33161444262E+02  0.45045682766E+02  0.00000000000E+00 0. -1.
         11    1    3    3    0    0 -0.21480697448E+02 -0.85918134941E+01  0.29615002552E+02  0.37580420413E+02  0.51100000000E-03 0. -1.
        -11    1    3    3    0    0 -0.34337742865E+01 -0.18468897604E+01  0.22296388559E+01  0.44914471306E+01  0.51100000000E-03 0.  1.
         12    1    3    3    0    0 -0.38393168091E+01  0.30698105985E+00  0.13168028545E+01  0.40704496913E+01  0.00000000000E+00 0. -1.
</event>
<event>
 7    1  0.1442665E-008  0.4614232E+02  0.7816164E-02  0.1320468E+00
        -11   -1    0    0    0    0  0.00000000000E+00  0.00000000000E+00  0.45593999997E+02  0.45594000000E+02  0.51100000000E-03 0. -1.
         11   -1    0    0    0    0 -0.00000000000E+00 -0.00000000000E+00 -0.45593999997E+02  0.45594000000E+02  0.51100000000E-03 0.  1.
    9900012    2    1    2    0    0  0.30659665258E+02  0.19441285922E+02 -0.26667106373E+02  0.46142320581E+02  0.10000025711E+02 0.  0.
         12    1    1    2    0    0 -0.30659665258E+02 -0.19441285922E+02  0.26667106373E+02  0.45045679419E+02  0.00000000000E+00 0. -1.
         11    1    3    3    0    0  0.58492345356E+01  0.93669962607E+00 -0.41737118661E+01  0.72464351128E+01  0.51100000000E-03 0. -1.
        -11    1    3    3    0    0  0.16448247413E+02  0.16110373910E+02 -0.16767206449E+02  0.28482068093E+02  0.51100000000E-03 0.  1.
        -12    1    3    3    0    0  0.83621833087E+01  0.23942123862E+01 -0.57261880578E+01  0.10413817375E+02  0.00000000000E+00 0.  1.
</event>
<event>
 7    1  0.1442665E-008  0.4614231E+02  0.7816164E-02  0.1320468E+00
        -11   -1    0    0    0    0  0.00000000000E+00  0.00000000000E+00  0.45593999997E+02  0.45594000000E+02  0.51100000000E-03 0.  1.
         11   -1    0    0    0    0 -0.00000000000E+00 -0.00000000000E+00 -0.45593999997E+02  0.45594000000E+02  0.51100000000E-03 0. -1.
    9900012    2    1    2    0    0  0.36704056445E+02  0.24157264993E+02  0.99172861416E+01  0.46142314569E+02  0.99999708952E+01 0.  0.
         12    1    1    2    0    0 -0.36704056445E+02 -0.24157264993E+02 -0.99172861416E+01  0.45045685431E+02  0.00000000000E+00 0. -1.
         11    1    3    3    0    0  0.31187127180E+02  0.18664400892E+02  0.90252477782E+01  0.37449323894E+02  0.51100000000E-03 0. -1.
        -11    1    3    3    0    0  0.26344655580E+01  0.30868330646E+01  0.23216458461E+01  0.46753595413E+01  0.51100000000E-03 0.  1.
         12    1    3    3    0    0  0.28824637072E+01  0.24060310373E+01 -0.14296074828E+01  0.40176311342E+01  0.00000000000E+00 0. -1.
</event>
<event>
 7    1  0.1442665E-008  0.4614232E+02  0.7816164E-02  0.1320468E+00
        -11   -1    0    0    0    0  0.00000000000E+00  0.00000000000E+00  0.45593999997E+02  0.45594000000E+02  0.51100000000E-03 0.  1.
         11   -1    0    0    0    0 -0.00000000000E+00 -0.00000000000E+00 -0.45593999997E+02  0.45594000000E+02  0.51100000000E-03 0. -1.
    9900012    2    1    2    0    0 -0.32370226925E+02  0.22170812467E+02  0.22130001759E+02  0.46142317693E+02  0.99999993772E+01 0.  0.
         12    1    1    2    0    0  0.32370226925E+02 -0.22170812467E+02 -0.22130001759E+02  0.45045682307E+02  0.00000000000E+00 0. -1.
         11    1    3    3    0    0 -0.88783755381E+01  0.28994779156E+01  0.35709888966E+01  0.99992242869E+01  0.51100000000E-03 0. -1.
        -11    1    3    3    0    0 -0.17193179331E+02  0.14691668344E+02  0.16764657770E+02  0.28151452621E+02  0.51100000000E-03 0.  1.
        -12    1    3    3    0    0 -0.62986720556E+01  0.45796662080E+01  0.17943550926E+01  0.79916407851E+01  0.00000000000E+00 0.  1.
</event>
<event>
 7    1  0.1442665E-008  0.4614232E+02  0.7816164E-02  0.1320468E+00
        -11   -1    0    0    0    0  0.00000000000E+00  0.00000000000E+00  0.45593999997E+02  0.45594000000E+02  0.51100000000E-03 0.  1.
         11   -1    0    0    0    0 -0.00000000000E+00 -0.00000000000E+00 -0.45593999997E+02  0.45594000000E+02  0.51100000000E-03 0. -1.
    9900012    2    1    2    0    0  0.37763278890E+02  0.22951479083E+02  0.87337092137E+01  0.46142319839E+02  0.10000018945E+02 0.  0.
         12    1    1    2    0    0 -0.37763278890E+02 -0.22951479083E+02 -0.87337092137E+01  0.45045680161E+02  0.00000000000E+00 0. -1.
         11    1    3    3    0    0  0.22897414627E+01 -0.40130091806E+00 -0.71777003831E+00  0.24329308419E+01  0.51100000000E-03 0. -1.
        -11    1    3    3    0    0  0.31983361491E+02  0.21550467698E+02  0.73708956742E+01  0.39264337172E+02  0.51100000000E-03 0.  1.
         12    1    3    3    0    0  0.34901759355E+01  0.18023123030E+01  0.20805835777E+01  0.44450518245E+01  0.00000000000E+00 0. -1.
</event>
<event>
 7    1  0.1442665E-008  0.4614232E+02  0.7816164E-02  0.1320468E+00
        -11   -1    0    0    0    0  0.00000000000E+00  0.00000000000E+00  0.45593999997E+02  0.45594000000E+02  0.51100000000E-03 0.  1.
         11   -1    0    0    0    0 -0.00000000000E+00 -0.00000000000E+00 -0.45593999997E+02  0.45594000000E+02  0.51100000000E-03 0. -1.
    9900012    2    1    2    0    0  0.43952060183E+02  0.31860356447E+01 -0.93369678472E+01  0.46142318897E+02  0.10000010356E+02 0.  0.
         12    1    1    2    0    0 -0.43952060183E+02 -0.31860356447E+01  0.93369678472E+01  0.45045681103E+02  0.00000000000E+00 0. -1.
         11    1    3    3    0    0  0.52912719272E+01  0.25291260444E+01  0.13097205120E-01  0.58646576161E+01  0.51100000000E-03 0. -1.
        -11    1    3    3    0    0  0.57351837775E+01 -0.25444929567E+00  0.83376384968E+00  0.58010550612E+01  0.51100000000E-03 0.  1.
         12    1    3    3    0    0  0.32925604478E+02  0.91135889597E+00 -0.10183828902E+02  0.34476606219E+02  0.00000000000E+00 0. -1.
</event>
<event>
 7    1  0.1442665E-008  0.4614232E+02  0.7816164E-02  0.1320468E+00
        -11   -1    0    0    0    0  0.00000000000E+00  0.00000000000E+00  0.45593999997E+02  0.45594000000E+02  0.51100000000E-03 0. -1.
         11   -1    0    0    0    0 -0.00000000000E+00 -0.00000000000E+00 -0.45593999997E+02  0.45594000000E+02  0.51100000000E-03 0.  1.
    9900012    2    1    2    0    0 -0.32067425901E+02  0.31602387063E+02  0.14431251753E+01  0.46142320048E+02  0.10000020857E+02 0.  0.
         12    1    1    2    0    0  0.32067425901E+02 -0.31602387063E+02 -0.14431251753E+01  0.45045679952E+02  0.00000000000E+00 0. -1.
         11    1    3    3    0    0 -0.74954468620E+00 -0.49732912617E+00  0.70592694623E-01  0.90229545383E+00  0.51100000000E-03 0. -1.
        -11    1    3    3    0    0 -0.28223940443E+02  0.27208917604E+02  0.27206788321E+01  0.39297812978E+02  0.51100000000E-03 0.  1.
        -12    1    3    3    0    0 -0.30939407719E+01  0.48907985859E+01 -0.13481463515E+01  0.59422116163E+01  0.00000000000E+00 0.  1.
</event>
<event>
 7    1  0.1442665E-008  0.4614232E+02  0.7816164E-02  0.1320468E+00
        -11   -1    0    0    0    0  0.00000000000E+00  0.00000000000E+00  0.45593999997E+02  0.45594000000E+02  0.51100000000E-03 0.  1.
         11   -1    0    0    0    0 -0.00000000000E+00 -0.00000000000E+00 -0.45593999997E+02  0.45594000000E+02  0.51100000000E-03 0. -1.
    9900012    2    1    2    0    0  0.33929092649E+02  0.24429252956E+02  0.16767283140E+02  0.46142317500E+02  0.99999976195E+01 0.  0.
         12    1    1    2    0    0 -0.33929092649E+02 -0.24429252956E+02 -0.16767283140E+02  0.45045682500E+02  0.00000000000E+00 0. -1.
         11    1    3    3    0    0  0.26829214448E+02  0.15112900736E+02  0.14938350915E+02  0.34225149304E+02  0.51100000000E-03 0. -1.
        -11    1    3    3    0    0  0.66666165973E+01  0.82857956608E+01  0.18726793202E+01  0.10798384818E+02  0.51100000000E-03 0.  1.
         12    1    3    3    0    0  0.43326160441E+00  0.10305565586E+01 -0.43747095081E-01  0.11187833779E+01  0.00000000000E+00 0. -1.
</event>
<event>
 7    1  0.1442665E-008  0.4614232E+02  0.7816164E-02  0.1320468E+00
        -11   -1    0    0    0    0  0.00000000000E+00  0.00000000000E+00  0.45593999997E+02  0.45594000000E+02  0.51100000000E-03 0.  1.
         11   -1    0    0    0    0 -0.00000000000E+00 -0.00000000000E+00 -0.45593999997E+02  0.45594000000E+02  0.51100000000E-03 0. -1.
    9900012    2    1    2    0    0  0.90393825497E+01 -0.32919285509E+02  0.29389176618E+02  0.46142317659E+02  0.99999990685E+01 0.  0.
         12    1    1    2    0    0 -0.90393825497E+01  0.32919285509E+02 -0.29389176618E+02  0.45045682341E+02  0.00000000000E+00 0. -1.
         11    1    3    3    0    0  0.94126538070E+01 -0.22238685347E+02  0.20312162406E+02  0.31555365939E+02  0.51100000000E-03 0. -1.
        -11    1    3    3    0    0 -0.10595957080E+01 -0.10263281490E+02  0.91363386719E+01  0.13781522942E+02  0.51100000000E-03 0.  1.
         12    1    3    3    0    0  0.68632445066E+00 -0.41731867198E+00 -0.59324460214E-01  0.80542877844E+00  0.00000000000E+00 0. -1.
</event>
<event>
 7    1  0.1442665E-008  0.4614232E+02  0.7816164E-02  0.1320468E+00
        -11   -1    0    0    0    0  0.00000000000E+00  0.00000000000E+00  0.45593999997E+02  0.45594000000E+02  0.51100000000E-03 0.  1.
         11   -1    0    0    0    0 -0.00000000000E+00 -0.00000000000E+00 -0.45593999997E+02  0.45594000000E+02  0.51100000000E-03 0. -1.
    9900012    2    1    2    0    0 -0.40537392402E+02  0.33202962158E+01 -0.19359983664E+02  0.46142317441E+02  0.99999970854E+01 0.  0.
         12    1    1    2    0    0  0.40537392402E+02 -0.33202962158E+01  0.19359983664E+02  0.45045682559E+02  0.00000000000E+00 0. -1.
         11    1    3    3    0    0 -0.23399996561E+02 -0.40194056864E+00 -0.82882802511E+01  0.24827746274E+02  0.51100000000E-03 0. -1.
        -11    1    3    3    0    0 -0.38234958419E+01  0.26818557104E+01 -0.15788758739E+01  0.49299411549E+01  0.51100000000E-03 0.  1.
        -12    1    3    3    0    0 -0.13313899999E+02  0.10403810741E+01 -0.94928275389E+01  0.16384630012E+02  0.00000000000E+00 0.  1.
</event>
<event>
 7    1  0.1442665E-008  0.4614232E+02  0.7816164E-02  0.1320468E+00
        -11   -1    0    0    0    0  0.00000000000E+00  0.00000000000E+00  0.45593999997E+02  0.45594000000E+02  0.51100000000E-03 0.  1.
         11   -1    0    0    0    0 -0.00000000000E+00 -0.00000000000E+00 -0.45593999997E+02  0.45594000000E+02  0.51100000000E-03 0. -1.
    9900012    2    1    2    0    0 -0.93382675374E+01 -0.39647798150E+02  0.19234405630E+02  0.46142317647E+02  0.99999989572E+01 0.  0.
         12    1    1    2    0    0  0.93382675374E+01  0.39647798150E+02 -0.19234405630E+02  0.45045682353E+02  0.00000000000E+00 0. -1.
         11    1    3    3    0    0 -0.47254555547E+01 -0.27749694357E+02  0.11972758528E+02  0.30589580156E+02  0.51100000000E-03 0. -1.
        -11    1    3    3    0    0  0.89853462915E+00 -0.38313808562E+01  0.15058882951E+01  0.42136140739E+01  0.51100000000E-03 0.  1.
        -12    1    3    3    0    0 -0.55113466119E+01 -0.80667229365E+01  0.57557588072E+01  0.11339123417E+02  0.00000000000E+00 0.  1.
</event>
<event>
 7    1  0.1442665E-008  0.4614232E+02  0.7816164E-02  0.1320468E+00
        -11   -1    0    0    0    0  0.00000000000E+00  0.00000000000E+00  0.45593999997E+02  0.45594000000E+02  0.51100000000E-03 0.  1.
         11   -1    0    0    0    0 -0.00000000000E+00 -0.00000000000E+00 -0.45593999997E+02  0.45594000000E+02  0.51100000000E-03 0. -1.
    9900012    2    1    2    0    0  0.15578293819E+02 -0.41341050779E+02 -0.87947555409E+01  0.46142318266E+02  0.10000004608E+02 0.  0.
         12    1    1    2    0    0 -0.15578293819E+02  0.41341050779E+02  0.87947555409E+01  0.45045681734E+02  0.00000000000E+00 0. -1.
         11    1    3    3    0    0  0.34961127843E+01 -0.45544666429E+01 -0.16437312052E+01  0.59722544769E+01  0.51100000000E-03 0. -1.
        -11    1    3    3    0    0  0.10436639616E+02 -0.27084239750E+02 -0.84823003094E+01  0.30239525594E+02  0.51100000000E-03 0.  1.
        -12    1    3    3    0    0  0.16455414188E+01 -0.97023443858E+01  0.13312759737E+01  0.99305381959E+01  0.00000000000E+00 0.  1.
</event>
<event>
 7    1  0.1442665E-008  0.4614232E+02  0.7816164E-02  0.1320468E+00
        -11   -1    0    0    0    0  0.00000000000E+00  0.00000000000E+00  0.45593999997E+02  0.45594000000E+02  0.51100000000E-03 0.  1.
         11   -1    0    0    0    0 -0.00000000000E+00 -0.00000000000E+00 -0.45593999997E+02  0.45594000000E+02  0.51100000000E-03 0. -1.
    9900012    2    1    2    0    0 -0.13840491825E+02 -0.42849318654E+02  0.12205885480E+01  0.46142321411E+02  0.10000033284E+02 0.  0.
         12    1    1    2    0    0  0.13840491825E+02  0.42849318654E+02 -0.12205885480E+01  0.45045678589E+02  0.00000000000E+00 0. -1.
         11    1    3    3    0    0 -0.12215030581E+01 -0.71843142525E+00 -0.13922232084E+01  0.19865797635E+01  0.51100000000E-03 0. -1.
        -11    1    3    3    0    0 -0.11937322317E+02 -0.36498266936E+02  0.24712458414E+01  0.38480257401E+02  0.51100000000E-03 0.  1.
        -12    1    3    3    0    0 -0.68166644993E+00 -0.56326202936E+01  0.14156591499E+00  0.56754842462E+01  0.00000000000E+00 0.  1.
</event>
<event>
 7    1  0.1442665E-008  0.4614232E+02  0.7816164E-02  0.1320468E+00
        -11   -1    0    0    0    0  0.00000000000E+00  0.00000000000E+00  0.45593999997E+02  0.45594000000E+02  0.51100000000E-03 0.  1.
         11   -1    0    0    0    0 -0.00000000000E+00 -0.00000000000E+00 -0.45593999997E+02  0.45594000000E+02  0.51100000000E-03 0. -1.
    9900012    2    1    2    0    0 -0.14038093621E+02  0.52772463712E+01  0.42475829559E+02  0.46142317649E+02  0.99999989767E+01 0.  0.
         12    1    1    2    0    0  0.14038093621E+02 -0.52772463712E+01 -0.42475829559E+02  0.45045682351E+02  0.00000000000E+00 0. -1.
         11    1    3    3    0    0 -0.11860792799E+01 -0.50882149360E+00  0.64940905361E+01  0.66210947375E+01  0.51100000000E-03 0. -1.
        -11    1    3    3    0    0 -0.92186192595E+01  0.77032272413E+01  0.29436193936E+02  0.31793272318E+02  0.51100000000E-03 0.  1.
        -12    1    3    3    0    0 -0.36333950817E+01 -0.19171593765E+01  0.65455450867E+01  0.77279505936E+01  0.00000000000E+00 0.  1.
</event>
<event>
 7    1  0.1442665E-008  0.4614232E+02  0.7816164E-02  0.1320468E+00
        -11   -1    0    0    0    0  0.00000000000E+00  0.00000000000E+00  0.45593999997E+02  0.45594000000E+02  0.51100000000E-03 0. -1.
         11   -1    0    0    0    0 -0.00000000000E+00 -0.00000000000E+00 -0.45593999997E+02  0.45594000000E+02  0.51100000000E-03 0.  1.
    9900012    2    1    2    0    0 -0.31097964874E+01  0.21414563541E+02 -0.39507709013E+02  0.46142318328E+02  0.10000005172E+02 0.  0.
         12    1    1    2    0    0  0.31097964874E+01 -0.21414563541E+02  0.39507709013E+02  0.45045681672E+02  0.00000000000E+00 0. -1.
         11    1    3    3    0    0 -0.44812082795E+01  0.82507117508E+01 -0.18587253615E+02  0.20824059864E+02  0.51100000000E-03 0. -1.
        -11    1    3    3    0    0  0.32813623106E+01  0.60015726176E+01 -0.10448709005E+02  0.12488463982E+02  0.51100000000E-03 0.  1.
         12    1    3    3    0    0 -0.19099505184E+01  0.71622791726E+01 -0.10471746392E+02  0.12829794481E+02  0.00000000000E+00 0. -1.
</event>
<event>
 7    1  0.1442665E-008  0.4614232E+02  0.7816164E-02  0.1320468E+00
        -11   -1    0    0    0    0  0.00000000000E+00  0.00000000000E+00  0.45593999997E+02  0.45594000000E+02  0.51100000000E-03 0.  1.
         11   -1    0    0    0    0 -0.00000000000E+00 -0.00000000000E+00 -0.45593999997E+02  0.45594000000E+02  0.51100000000E-03 0. -1.
    9900012    2    1    2    0    0 -0.11529272560E+02  0.24314017562E+02  0.36125029840E+02  0.46142319222E+02  0.10000013323E+02 0.  0.
         12    1    1    2    0    0  0.11529272560E+02 -0.24314017562E+02 -0.36125029840E+02  0.45045680778E+02  0.00000000000E+00 0. -1.
         11    1    3    3    0    0 -0.50170888757E+01  0.38212133282E+01  0.82452340531E+01  0.10380594248E+02  0.51100000000E-03 0. -1.
        -11    1    3    3    0    0 -0.57681095778E+01  0.79051897032E+01  0.12379363176E+02  0.15780105996E+02  0.51100000000E-03 0.  1.
         12    1    3    3    0    0 -0.74407410628E+00  0.12587614531E+02  0.15500432612E+02  0.19981618978E+02  0.00000000000E+00 0. -1.
</event>
<event>
 7    1  0.1442665E-008  0.4614232E+02  0.7816164E-02  0.1320468E+00
        -11   -1    0    0    0    0  0.00000000000E+00  0.00000000000E+00  0.45593999997E+02  0.45594000000E+02  0.51100000000E-03 0.  1.
         11   -1    0    0    0    0 -0.00000000000E+00 -0.00000000000E+00 -0.45593999997E+02  0.45594000000E+02  0.51100000000E-03 0. -1.
    9900012    2    1    2    0    0  0.90571385446E+01  0.18822210645E+01  0.44085586751E+02  0.46142317922E+02  0.10000001464E+02 0.  0.
         12    1    1    2    0    0 -0.90571385446E+01 -0.18822210645E+01 -0.44085586751E+02  0.45045682078E+02  0.00000000000E+00 0. -1.
         11    1    3    3    0    0  0.68840537651E+01  0.75588662832E+00  0.20430568592E+02  0.21572429026E+02  0.51100000000E-03 0. -1.
        -11    1    3    3    0    0 -0.73341558210E+00 -0.75847762897E+00  0.51872856057E+00  0.11756982225E+01  0.51100000000E-03 0.  1.
        -12    1    3    3    0    0  0.29065003616E+01  0.18848120652E+01  0.23136289599E+02  0.23394190673E+02  0.00000000000E+00 0.  1.
</event>
<event>
 7    1  0.1442665E-008  0.4614232E+02  0.7816164E-02  0.1320468E+00
        -11   -1    0    0    0    0  0.00000000000E+00  0.00000000000E+00  0.45593999997E+02  0.45594000000E+02  0.51100000000E-03 0.  1.
         11   -1    0    0    0    0 -0.00000000000E+00 -0.00000000000E+00 -0.45593999997E+02  0.45594000000E+02  0.51100000000E-03 0. -1.
    9900012    2    1    2    0    0  0.24107214443E+02  0.23586606597E+02  0.29860134375E+02  0.46142318477E+02  0.10000006526E+02 0.  0.
         12    1    1    2    0    0 -0.24107214443E+02 -0.23586606597E+02 -0.29860134375E+02  0.45045681523E+02  0.00000000000E+00 0. -1.
         11    1    3    3    0    0 -0.16323357925E-01  0.14026375633E+01  0.24647336875E+01  0.28359426999E+01  0.51100000000E-03 0. -1.
        -11    1    3    3    0    0  0.16657461781E+02  0.19389532689E+02  0.21227842263E+02  0.33227192152E+02  0.51100000000E-03 0.  1.
        -12    1    3    3    0    0  0.74660760206E+01  0.27944363449E+01  0.61675584243E+01  0.10079183625E+02  0.00000000000E+00 0.  1.
</event>
<event>
 7    1  0.1442665E-008  0.4614232E+02  0.7816164E-02  0.1320468E+00
        -11   -1    0    0    0    0  0.00000000000E+00  0.00000000000E+00  0.45593999997E+02  0.45594000000E+02  0.51100000000E-03 0. -1.
         11   -1    0    0    0    0 -0.00000000000E+00 -0.00000000000E+00 -0.45593999997E+02  0.45594000000E+02  0.51100000000E-03 0.  1.
    9900012    2    1    2    0    0 -0.15893824535E+02  0.34260498171E+02 -0.24550315288E+02  0.46142319030E+02  0.10000011569E+02 0.  0.
         12    1    1    2    0    0  0.15893824535E+02 -0.34260498171E+02  0.24550315288E+02  0.45045680970E+02  0.00000000000E+00 0. -1.
         11    1    3    3    0    0  0.12822008614E+01  0.12353001778E+01 -0.10529200002E+01  0.20684889089E+01  0.51100000000E-03 0. -1.
        -11    1    3    3    0    0 -0.15819027210E+02  0.31401694568E+02 -0.22401303412E+02  0.41690843580E+02  0.51100000000E-03 0.  1.
        -12    1    3    3    0    0 -0.13569981872E+01  0.16235034259E+01 -0.10960918764E+01  0.23829865412E+01  0.00000000000E+00 0.  1.
</event>
<event>
 7    1  0.1442665E-008  0.4614233E+02  0.7816164E-02  0.1320468E+00
        -11   -1    0    0    0    0  0.00000000000E+00  0.00000000000E+00  0.45593999997E+02  0.45594000000E+02  0.51100000000E-03 0.  1.
         11   -1    0    0    0    0 -0.00000000000E+00 -0.00000000000E+00 -0.45593999997E+02  0.45594000000E+02  0.51100000000E-03 0. -1.
    9900012    2    1    2    0    0 -0.25840083960E+02  0.31629891461E+02  0.18998742852E+02  0.46142332030E+02  0.10000130115E+02 0.  0.
         12    1    1    2    0    0  0.25840083960E+02 -0.31629891461E+02 -0.18998742852E+02  0.45045667970E+02  0.00000000000E+00 0. -1.
         11    1    3    3    0    0 -0.64740712432E+01  0.15208451260E+02  0.82915602076E+01  0.18492175619E+02  0.51100000000E-03 0. -1.
        -11    1    3    3    0    0 -0.74725033591E+01  0.77891271980E+01  0.43258678734E+01  0.11628496983E+02  0.51100000000E-03 0.  1.
         12    1    3    3    0    0 -0.11893509358E+02  0.86323130029E+01  0.63813147706E+01  0.16021659428E+02  0.00000000000E+00 0. -1.
</event>
<event>
 7    1  0.1442665E-008  0.4614232E+02  0.7816164E-02  0.1320468E+00
        -11   -1    0    0    0    0  0.00000000000E+00  0.00000000000E+00  0.45593999997E+02  0.45594000000E+02  0.51100000000E-03 0. -1.
         11   -1    0    0    0    0 -0.00000000000E+00 -0.00000000000E+00 -0.45593999997E+02  0.45594000000E+02  0.51100000000E-03 0.  1.
    9900012    2    1    2    0    0  0.29967108174E+02 -0.16059823502E+02 -0.29549416380E+02  0.46142317503E+02  0.99999976487E+01 0.  0.
         12    1    1    2    0    0 -0.29967108174E+02  0.16059823502E+02  0.29549416380E+02  0.45045682497E+02  0.00000000000E+00 0. -1.
         11    1    3    3    0    0  0.33010533033E+00  0.20335093101E+00 -0.63688661394E-01  0.39290919685E+00  0.51100000000E-03 0. -1.
        -11    1    3    3    0    0 -0.97881802729E-01 -0.79840357909E-01 -0.23747806466E+01  0.23781376560E+01  0.51100000000E-03 0.  1.
        -12    1    3    3    0    0  0.29734884646E+02 -0.16183334075E+02 -0.27110947072E+02  0.43371270650E+02  0.00000000000E+00 0.  1.
</event>
<event>
 7    1  0.1442665E-008  0.4614232E+02  0.7816164E-02  0.1320468E+00
        -11   -1    0    0    0    0  0.00000000000E+00  0.00000000000E+00  0.45593999997E+02  0.45594000000E+02  0.51100000000E-03 0.  1.
         11   -1    0    0    0    0 -0.00000000000E+00 -0.00000000000E+00 -0.45593999997E+02  0.45594000000E+02  0.51100000000E-03 0. -1.
    9900012    2    1    2    0    0  0.32445829712E+02 -0.62891620208E+01  0.30607647025E+02  0.46142317843E+02  0.10000000743E+02 0.  0.
         12    1    1    2    0    0 -0.32445829712E+02  0.62891620208E+01 -0.30607647025E+02  0.45045682157E+02  0.00000000000E+00 0. -1.
         11    1    3    3    0    0  0.24050061060E+01  0.36357608393E-01  0.21902868037E-02  0.24052819593E+01  0.51100000000E-03 0. -1.
        -11    1    3    3    0    0  0.26716147475E+02 -0.73710893631E+01  0.27894565789E+02  0.39321651735E+02  0.51100000000E-03 0.  1.
        -12    1    3    3    0    0  0.33246761308E+01  0.10455697339E+01  0.27108909492E+01  0.44153841488E+01  0.00000000000E+00 0.  1.
</event>
<event>
 7    1  0.1442665E-008  0.4614232E+02  0.7816164E-02  0.1320468E+00
        -11   -1    0    0    0    0  0.00000000000E+00  0.00000000000E+00  0.45593999997E+02  0.45594000000E+02  0.51100000000E-03 0.  1.
         11   -1    0    0    0    0 -0.00000000000E+00 -0.00000000000E+00 -0.45593999997E+02  0.45594000000E+02  0.51100000000E-03 0. -1.
    9900012    2    1    2    0    0 -0.13163085803E+02  0.15181163979E+02  0.40315984261E+02  0.46142321466E+02  0.10000033784E+02 0.  0.
         12    1    1    2    0    0  0.13163085803E+02 -0.15181163979E+02 -0.40315984261E+02  0.45045678534E+02  0.00000000000E+00 0. -1.
         11    1    3    3    0    0 -0.47647724800E+00 -0.49307430531E+00  0.46760155550E+00  0.82994235597E+00  0.51100000000E-03 0. -1.
        -11    1    3    3    0    0 -0.92917166254E+01  0.15360837911E+02  0.35552514990E+02  0.39828038635E+02  0.51100000000E-03 0.  1.
        -12    1    3    3    0    0 -0.33948919299E+01  0.31340037376E+00  0.42958677160E+01  0.54843404748E+01  0.00000000000E+00 0.  1.
</event>
<event>
 7    1  0.1442665E-008  0.4614232E+02  0.7816164E-02  0.1320468E+00
        -11   -1    0    0    0    0  0.00000000000E+00  0.00000000000E+00  0.45593999997E+02  0.45594000000E+02  0.51100000000E-03 0.  1.
         11   -1    0    0    0    0 -0.00000000000E+00 -0.00000000000E+00 -0.45593999997E+02  0.45594000000E+02  0.51100000000E-03 0. -1.
    9900012    2    1    2    0    0  0.24845368326E+02 -0.24322784068E+02  0.28639541612E+02  0.46142317678E+02  0.99999992467E+01 0.  0.
         12    1    1    2    0    0 -0.24845368326E+02  0.24322784068E+02 -0.28639541612E+02  0.45045682322E+02  0.00000000000E+00 0. -1.
         11    1    3    3    0    0  0.27401010534E+01 -0.19632031196E+01  0.67837882283E+01  0.75750975743E+01  0.51100000000E-03 0. -1.
        -11    1    3    3    0    0  0.68522363255E+01 -0.80062682205E+01  0.98548983879E+01  0.14428184084E+02  0.51100000000E-03 0.  1.
         12    1    3    3    0    0  0.15253030947E+02 -0.14353312728E+02  0.12000854996E+02  0.24139036020E+02  0.00000000000E+00 0. -1.
</event>
<event>
 7    1  0.1442665E-008  0.4614232E+02  0.7816164E-02  0.1320468E+00
        -11   -1    0    0    0    0  0.00000000000E+00  0.00000000000E+00  0.45593999997E+02  0.45594000000E+02  0.51100000000E-03 0.  1.
         11   -1    0    0    0    0 -0.00000000000E+00 -0.00000000000E+00 -0.45593999997E+02  0.45594000000E+02  0.51100000000E-03 0. -1.
    9900012    2    1    2    0    0 -0.11643943973E+02  0.24221722146E+02  0.36150245663E+02  0.46142317450E+02  0.99999971585E+01 0.  0.
         12    1    1    2    0    0  0.11643943973E+02 -0.24221722146E+02 -0.36150245663E+02  0.45045682550E+02  0.00000000000E+00 0. -1.
         11    1    3    3    0    0 -0.85637315483E+01  0.99758448700E+01  0.11981079536E+02  0.17787671180E+02  0.51100000000E-03 0. -1.
        -11    1    3    3    0    0 -0.19573838217E+01  0.80679776616E+01  0.16252679664E+02  0.18250293464E+02  0.51100000000E-03 0.  1.
         12    1    3    3    0    0 -0.11228286034E+01  0.61778996143E+01  0.79164864624E+01  0.10104352806E+02  0.00000000000E+00 0. -1.
</event>
<event>
 7    1  0.1442665E-008  0.4614232E+02  0.7816164E-02  0.1320468E+00
        -11   -1    0    0    0    0  0.00000000000E+00  0.00000000000E+00  0.45593999997E+02  0.45594000000E+02  0.51100000000E-03 0. -1.
         11   -1    0    0    0    0 -0.00000000000E+00 -0.00000000000E+00 -0.45593999997E+02  0.45594000000E+02  0.51100000000E-03 0.  1.
    9900012    2    1    2    0    0  0.19067384297E+02  0.15765300915E+02 -0.37643108454E+02  0.46142317955E+02  0.10000001765E+02 0.  0.
         12    1    1    2    0    0 -0.19067384297E+02 -0.15765300915E+02  0.37643108454E+02  0.45045682045E+02  0.00000000000E+00 0. -1.
         11    1    3    3    0    0  0.17387009358E+01  0.79489670951E+00 -0.48089389233E+01  0.51750203432E+01  0.51100000000E-03 0. -1.
        -11    1    3    3    0    0  0.55339686294E+01  0.63651910747E+01 -0.57799446044E+01  0.10224882694E+02  0.51100000000E-03 0.  1.
        -12    1    3    3    0    0  0.11794714732E+02  0.86052131309E+01 -0.27054224926E+02  0.30742414918E+02  0.00000000000E+00 0.  1.
</event>
<event>
 7    1  0.1442665E-008  0.4614232E+02  0.7816164E-02  0.1320468E+00
        -11   -1    0    0    0    0  0.00000000000E+00  0.00000000000E+00  0.45593999997E+02  0.45594000000E+02  0.51100000000E-03 0.  1.
         11   -1    0    0    0    0 -0.00000000000E+00 -0.00000000000E+00 -0.45593999997E+02  0.45594000000E+02  0.51100000000E-03 0. -1.
    9900012    2    1    2    0    0 -0.68634236846E+01 -0.37342445591E+02  0.24239403887E+02  0.46142317320E+02  0.99999959737E+01 0.  0.
         12    1    1    2    0    0  0.68634236846E+01  0.37342445591E+02 -0.24239403887E+02  0.45045682680E+02  0.00000000000E+00 0. -1.
         11    1    3    3    0    0  0.11709320984E+01 -0.19006358554E+02  0.12663659017E+02  0.22868778005E+02  0.51100000000E-03 0. -1.
        -11    1    3    3    0    0 -0.19148776452E+01 -0.47366867391E+01  0.16887874376E+01  0.53809814096E+01  0.51100000000E-03 0.  1.
         12    1    3    3    0    0 -0.61194781378E+01 -0.13599400297E+02  0.98869574325E+01  0.17892557905E+02  0.00000000000E+00 0. -1.
</event>
<event>
 7    1  0.1442665E-008  0.4614232E+02  0.7816164E-02  0.1320468E+00
        -11   -1    0    0    0    0  0.00000000000E+00  0.00000000000E+00  0.45593999997E+02  0.45594000000E+02  0.51100000000E-03 0.  1.
         11   -1    0    0    0    0 -0.00000000000E+00 -0.00000000000E+00 -0.45593999997E+02  0.45594000000E+02  0.51100000000E-03 0. -1.
    9900012    2    1    2    0    0 -0.35240202518E+02 -0.19502781983E+02  0.20171343529E+02  0.46142317873E+02  0.10000001020E+02 0.  0.
         12    1    1    2    0    0  0.35240202518E+02  0.19502781983E+02 -0.20171343529E+02  0.45045682127E+02  0.00000000000E+00 0. -1.
         11    1    3    3    0    0 -0.14042426217E+02 -0.92019941958E+01  0.68110463993E+01  0.18117858167E+02  0.51100000000E-03 0.  1.
        -11    1    3    3    0    0 -0.86475178358E+01 -0.77751992301E+01  0.45674768455E+01  0.12493803776E+02  0.51100000000E-03 0. -1.
        -12    1    3    3    0    0 -0.12550258465E+02 -0.25255885566E+01  0.87928202837E+01  0.15530655931E+02  0.00000000000E+00 0.  1.
</event>
<event>
 7    1  0.1442665E-008  0.4614232E+02  0.7816164E-02  0.1320468E+00
        -11   -1    0    0    0    0  0.00000000000E+00  0.00000000000E+00  0.45593999997E+02  0.45594000000E+02  0.51100000000E-03 0.  1.
         11   -1    0    0    0    0 -0.00000000000E+00 -0.00000000000E+00 -0.45593999997E+02  0.45594000000E+02  0.51100000000E-03 0. -1.
    9900012    2    1    2    0    0 -0.81934282758E+01  0.13155304840E+02  0.42295616380E+02  0.46142317884E+02  0.10000001119E+02 0.  0.
         12    1    1    2    0    0  0.81934282758E+01 -0.13155304840E+02 -0.42295616380E+02  0.45045682116E+02  0.00000000000E+00 0. -1.
         11    1    3    3    0    0 -0.48067267338E+01  0.63615408869E+01  0.15156830869E+02  0.17126101325E+02  0.51100000000E-03 0. -1.
        -11    1    3    3    0    0 -0.87155979284E+00  0.66787112485E+01  0.24325804960E+02  0.25241029845E+02  0.51100000000E-03 0.  1.
        -12    1    3    3    0    0 -0.25151417491E+01  0.11505270466E+00  0.28129805511E+01  0.37751867137E+01  0.00000000000E+00 0.  1.
</event>
<event>
 7    1  0.1442665E-008  0.4614232E+02  0.7816164E-02  0.1320468E+00
        -11   -1    0    0    0    0  0.00000000000E+00  0.00000000000E+00  0.45593999997E+02  0.45594000000E+02  0.51100000000E-03 0.  1.
         11   -1    0    0    0    0 -0.00000000000E+00 -0.00000000000E+00 -0.45593999997E+02  0.45594000000E+02  0.51100000000E-03 0. -1.
    9900012    2    1    2    0    0 -0.24179703401E+02  0.37874892340E+02 -0.31540571989E+01  0.46142316488E+02  0.99999883866E+01 0.  0.
         12    1    1    2    0    0  0.24179703401E+02 -0.37874892340E+02  0.31540571989E+01  0.45045683512E+02  0.00000000000E+00 0. -1.
         11    1    3    3    0    0 -0.17100353204E+02  0.28412625745E+02 -0.54614454370E+01  0.33608432989E+02  0.51100000000E-03 0.  1.
        -11    1    3    3    0    0 -0.39817894864E+01  0.78009548170E+01  0.11515582216E+01  0.88337777972E+01  0.51100000000E-03 0. -1.
         12    1    3    3    0    0 -0.30975607103E+01  0.16613117776E+01  0.11558300165E+01  0.37001057016E+01  0.00000000000E+00 0. -1.
</event>
<event>
 7    1  0.1442665E-008  0.4614232E+02  0.7816164E-02  0.1320468E+00
        -11   -1    0    0    0    0  0.00000000000E+00  0.00000000000E+00  0.45593999997E+02  0.45594000000E+02  0.51100000000E-03 0. -1.
         11   -1    0    0    0    0 -0.00000000000E+00 -0.00000000000E+00 -0.45593999997E+02  0.45594000000E+02  0.51100000000E-03 0.  1.
    9900012    2    1    2    0    0  0.21917509845E+02 -0.37760554913E+02 -0.11084977021E+02  0.46142318068E+02  0.10000002801E+02 0.  0.
         12    1    1    2    0    0 -0.21917509845E+02  0.37760554913E+02  0.11084977021E+02  0.45045681932E+02  0.00000000000E+00 0. -1.
         11    1    3    3    0    0  0.56001415975E+00 -0.66212199054E+00 -0.12734115684E+01  0.15406487832E+01  0.51100000000E-03 0. -1.
        -11    1    3    3    0    0  0.15828729709E+02 -0.23906727244E+02 -0.32190581747E+01  0.28852081858E+02  0.51100000000E-03 0.  1.
        -12    1    3    3    0    0  0.55287659758E+01 -0.13191705679E+02 -0.65925072779E+01  0.15749587427E+02  0.00000000000E+00 0.  1.
</event>
<event>
 7    1  0.1442665E-008  0.4614232E+02  0.7816164E-02  0.1320468E+00
        -11   -1    0    0    0    0  0.00000000000E+00  0.00000000000E+00  0.45593999997E+02  0.45594000000E+02  0.51100000000E-03 0.  1.
         11   -1    0    0    0    0 -0.00000000000E+00 -0.00000000000E+00 -0.45593999997E+02  0.45594000000E+02  0.51100000000E-03 0. -1.
    9900012    2    1    2    0    0 -0.16893858162E+02 -0.34407772950E+02  0.23660434394E+02  0.46142318313E+02  0.10000005028E+02 0.  0.
         12    1    1    2    0    0  0.16893858162E+02  0.34407772950E+02 -0.23660434394E+02  0.45045681687E+02  0.00000000000E+00 0. -1.
         11    1    3    3    0    0 -0.69517744786E+01 -0.86148783819E+01  0.75567844464E+01  0.13403293975E+02  0.51100000000E-03 0. -1.
        -11    1    3    3    0    0 -0.73647067092E+01 -0.10906311483E+02  0.96058611942E+01  0.16292915780E+02  0.51100000000E-03 0.  1.
        -12    1    3    3    0    0 -0.25773769744E+01 -0.14886583085E+02  0.64977887535E+01  0.16446108558E+02  0.00000000000E+00 0.  1.
</event>
<event>
 7    1  0.1442665E-008  0.4614232E+02  0.7816164E-02  0.1320468E+00
        -11   -1    0    0    0    0  0.00000000000E+00  0.00000000000E+00  0.45593999997E+02  0.45594000000E+02  0.51100000000E-03 0.  1.
         11   -1    0    0    0    0 -0.00000000000E+00 -0.00000000000E+00 -0.45593999997E+02  0.45594000000E+02  0.51100000000E-03 0. -1.
    9900012    2    1    2    0    0 -0.14420459514E+02 -0.23721994163E+02  0.35474369193E+02  0.46142317307E+02  0.99999958587E+01 0.  0.
         12    1    1    2    0    0  0.14420459514E+02  0.23721994163E+02 -0.35474369193E+02  0.45045682693E+02  0.00000000000E+00 0. -1.
         11    1    3    3    0    0  0.12567980605E+01 -0.33055703532E+01  0.28889491661E+01  0.45664389047E+01  0.51100000000E-03 0. -1.
        -11    1    3    3    0    0 -0.96023830941E+01 -0.11218559729E+02  0.17635760049E+02  0.23001779849E+02  0.51100000000E-03 0.  1.
        -12    1    3    3    0    0 -0.60748744806E+01 -0.91978640810E+01  0.14949659978E+02  0.18574098553E+02  0.00000000000E+00 0.  1.
</event>
<event>
 7    1  0.1442665E-008  0.4614232E+02  0.7816164E-02  0.1320468E+00
        -11   -1    0    0    0    0  0.00000000000E+00  0.00000000000E+00  0.45593999997E+02  0.45594000000E+02  0.51100000000E-03 0. -1.
         11   -1    0    0    0    0 -0.00000000000E+00 -0.00000000000E+00 -0.45593999997E+02  0.45594000000E+02  0.51100000000E-03 0.  1.
    9900012    2    1    2    0    0 -0.11439962319E+02  0.17287215314E+02 -0.39992410647E+02  0.46142318070E+02  0.10000002815E+02 0.  0.
         12    1    1    2    0    0  0.11439962319E+02 -0.17287215314E+02  0.39992410647E+02  0.45045681930E+02  0.00000000000E+00 0. -1.
         11    1    3    3    0    0 -0.26429944845E+01 -0.70556948949E+00 -0.46807186127E+01  0.54214735213E+01  0.51100000000E-03 0. -1.
        -11    1    3    3    0    0 -0.24503990822E+01  0.54404127728E+01 -0.77838848373E+01  0.98077219690E+01  0.51100000000E-03 0.  1.
         12    1    3    3    0    0 -0.63465687520E+01  0.12552372030E+02 -0.27527807197E+02  0.30913122580E+02  0.00000000000E+00 0. -1.
</event>
<event>
 7    1  0.1442665E-008  0.4614232E+02  0.7816164E-02  0.1320468E+00
        -11   -1    0    0    0    0  0.00000000000E+00  0.00000000000E+00  0.45593999997E+02  0.45594000000E+02  0.51100000000E-03 0.  1.
         11   -1    0    0    0    0 -0.00000000000E+00 -0.00000000000E+00 -0.45593999997E+02  0.45594000000E+02  0.51100000000E-03 0. -1.
    9900012    2    1    2    0    0 -0.11586923183E+02  0.36377521500E+02  0.23906749169E+02  0.46142317464E+02  0.99999972904E+01 0.  0.
         12    1    1    2    0    0  0.11586923183E+02 -0.36377521500E+02 -0.23906749169E+02  0.45045682536E+02  0.00000000000E+00 0. -1.
         11    1    3    3    0    0 -0.66768584818E+00  0.46979544346E+00  0.47195320212E+00  0.94300171615E+00  0.51100000000E-03 0. -1.
        -11    1    3    3    0    0 -0.38455284393E+01  0.26878775097E+02  0.15694324545E+02  0.31361895078E+02  0.51100000000E-03 0.  1.
        -12    1    3    3    0    0 -0.70737088959E+01  0.90289509594E+01  0.77404714214E+01  0.13837420670E+02  0.00000000000E+00 0.  1.
</event>
<event>
 7    1  0.1442665E-008  0.4614232E+02  0.7816164E-02  0.1320468E+00
        -11   -1    0    0    0    0  0.00000000000E+00  0.00000000000E+00  0.45593999997E+02  0.45594000000E+02  0.51100000000E-03 0.  1.
         11   -1    0    0    0    0 -0.00000000000E+00 -0.00000000000E+00 -0.45593999997E+02  0.45594000000E+02  0.51100000000E-03 0. -1.
    9900012    2    1    2    0    0  0.56357519293E+01 -0.79286199556E+01  0.43982823164E+02  0.46142318213E+02  0.10000004119E+02 0.  0.
         12    1    1    2    0    0 -0.56357519293E+01  0.79286199556E+01 -0.43982823164E+02  0.45045681787E+02  0.00000000000E+00 0. -1.
         11    1    3    3    0    0 -0.10623784940E+01 -0.23313388959E+01  0.46171384657E+01  0.52803178868E+01  0.51100000000E-03 0. -1.
        -11    1    3    3    0    0  0.61991296085E+01 -0.10738934950E+01  0.19871619739E+02  0.20843793476E+02  0.51100000000E-03 0.  1.
        -12    1    3    3    0    0  0.49900081487E+00 -0.45233875646E+01  0.19494064959E+02  0.20018206850E+02  0.00000000000E+00 0.  1.
</event>
<event>
 7    1  0.1442665E-008  0.4614230E+02  0.7816164E-02  0.1320468E+00
        -11   -1    0    0    0    0  0.00000000000E+00  0.00000000000E+00  0.45593999997E+02  0.45594000000E+02  0.51100000000E-03 0.  1.
         11   -1    0    0    0    0 -0.00000000000E+00 -0.00000000000E+00 -0.45593999997E+02  0.45594000000E+02  0.51100000000E-03 0. -1.
    9900012    2    1    2    0    0  0.21382038286E+02  0.31222049406E+02  0.24435769132E+02  0.46142303830E+02  0.99998729642E+01 0.  0.
         12    1    1    2    0    0 -0.21382038286E+02 -0.31222049406E+02 -0.24435769132E+02  0.45045696170E+02  0.00000000000E+00 0. -1.
         11    1    3    3    0    0  0.72066795751E+01  0.10196544176E+02  0.65920685533E+01  0.14119529443E+02  0.51100000000E-03 0. -1.
        -11    1    3    3    0    0 -0.49057341286E+00 -0.33109171963E+00  0.86269701283E+00  0.10461980679E+01  0.51100000000E-03 0.  1.
        -12    1    3    3    0    0  0.14665932124E+02  0.21356596950E+02  0.16981003566E+02  0.30976576319E+02  0.00000000000E+00 0.  1.
</event>
<event>
 7    1  0.1442665E-008  0.4614232E+02  0.7816164E-02  0.1320468E+00
        -11   -1    0    0    0    0  0.00000000000E+00  0.00000000000E+00  0.45593999997E+02  0.45594000000E+02  0.51100000000E-03 0.  1.
         11   -1    0    0    0    0 -0.00000000000E+00 -0.00000000000E+00 -0.45593999997E+02  0.45594000000E+02  0.51100000000E-03 0. -1.
    9900012    2    1    2    0    0 -0.13768760901E+02 -0.29245115004E+02  0.31372886225E+02  0.46142317427E+02  0.99999969552E+01 0.  0.
         12    1    1    2    0    0  0.13768760901E+02  0.29245115004E+02 -0.31372886225E+02  0.45045682573E+02  0.00000000000E+00 0. -1.
         11    1    3    3    0    0 -0.10709811479E+02 -0.12185373522E+02  0.15312581465E+02  0.22308261724E+02  0.51100000000E-03 0.  1.
        -11    1    3    3    0    0  0.57212880093E+00 -0.11749561891E+01  0.99822704192E+00  0.16444789143E+01  0.51100000000E-03 0. -1.
        -12    1    3    3    0    0 -0.36310782235E+01 -0.15884785293E+02  0.15062077718E+02  0.22189576789E+02  0.00000000000E+00 0.  1.
</event>
<event>
 7    1  0.1442665E-008  0.4614232E+02  0.7816164E-02  0.1320468E+00
        -11   -1    0    0    0    0  0.00000000000E+00  0.00000000000E+00  0.45593999997E+02  0.45594000000E+02  0.51100000000E-03 0. -1.
         11   -1    0    0    0    0 -0.00000000000E+00 -0.00000000000E+00 -0.45593999997E+02  0.45594000000E+02  0.51100000000E-03 0.  1.
    9900012    2    1    2    0    0 -0.25346507112E+02  0.23392442121E+02  0.28973467436E+02  0.46142316672E+02  0.99999900714E+01 0.  0.
         12    1    1    2    0    0  0.25346507112E+02 -0.23392442121E+02 -0.28973467436E+02  0.45045683328E+02  0.00000000000E+00 0. -1.
         11    1    3    3    0    0 -0.55545181761E+01  0.79929344935E+01  0.13374377604E+02  0.16541271128E+02  0.51100000000E-03 0. -1.
        -11    1    3    3    0    0 -0.16570743522E+02  0.11929043875E+02  0.12445601194E+02  0.23912018275E+02  0.51100000000E-03 0.  1.
         12    1    3    3    0    0 -0.32212454139E+01  0.34704637526E+01  0.31534886388E+01  0.56890272692E+01  0.00000000000E+00 0. -1.
</event>
<event>
 7    1  0.1442665E-008  0.4614232E+02  0.7816164E-02  0.1320468E+00
        -11   -1    0    0    0    0  0.00000000000E+00  0.00000000000E+00  0.45593999997E+02  0.45594000000E+02  0.51100000000E-03 0.  1.
         11   -1    0    0    0    0 -0.00000000000E+00 -0.00000000000E+00 -0.45593999997E+02  0.45594000000E+02  0.51100000000E-03 0. -1.
    9900012    2    1    2    0    0 -0.12911803687E+02 -0.36812261207E+02  0.22522346851E+02  0.46142319216E+02  0.10000013262E+02 0.  0.
         12    1    1    2    0    0  0.12911803687E+02  0.36812261207E+02 -0.22522346851E+02  0.45045680784E+02  0.00000000000E+00 0. -1.
         11    1    3    3    0    0 -0.23159808940E+01 -0.47375584293E+01  0.10732937000E+01  0.53814669933E+01  0.51100000000E-03 0. -1.
        -11    1    3    3    0    0 -0.44378426586E+01 -0.18461141905E+02  0.78107753000E+01  0.20530865032E+02  0.51100000000E-03 0.  1.
        -12    1    3    3    0    0 -0.61579801348E+01 -0.13613560873E+02  0.13638277851E+02  0.20229987190E+02  0.00000000000E+00 0.  1.
</event>
<event>
 7    1  0.1442665E-008  0.4614232E+02  0.7816164E-02  0.1320468E+00
        -11   -1    0    0    0    0  0.00000000000E+00  0.00000000000E+00  0.45593999997E+02  0.45594000000E+02  0.51100000000E-03 0. -1.
         11   -1    0    0    0    0 -0.00000000000E+00 -0.00000000000E+00 -0.45593999997E+02  0.45594000000E+02  0.51100000000E-03 0.  1.
    9900012    2    1    2    0    0  0.80825414623E+01  0.43107086146E+02 -0.10274490964E+02  0.46142317443E+02  0.99999970984E+01 0.  0.
         12    1    1    2    0    0 -0.80825414623E+01 -0.43107086146E+02  0.10274490964E+02  0.45045682557E+02  0.00000000000E+00 0. -1.
         11    1    3    3    0    0 -0.64066136757E+00  0.46707760650E+01 -0.83702045544E+00  0.47882355353E+01  0.51100000000E-03 0. -1.
        -11    1    3    3    0    0  0.12108431959E+01  0.21971491994E+02 -0.33402126241E+01  0.22256900555E+02  0.51100000000E-03 0.  1.
        -12    1    3    3    0    0  0.75123596340E+01  0.16464818087E+02 -0.60972578846E+01  0.19097181352E+02  0.00000000000E+00 0.  1.
</event>
<event>
 7    1  0.1442665E-008  0.4614232E+02  0.7816164E-02  0.1320468E+00
        -11   -1    0    0    0    0  0.00000000000E+00  0.00000000000E+00  0.45593999997E+02  0.45594000000E+02  0.51100000000E-03 0. -1.
         11   -1    0    0    0    0 -0.00000000000E+00 -0.00000000000E+00 -0.45593999997E+02  0.45594000000E+02  0.51100000000E-03 0.  1.
    9900012    2    1    2    0    0 -0.18816796734E+02 -0.29640943934E+02 -0.28221553615E+02  0.46142317798E+02  0.10000000334E+02 0.  0.
         12    1    1    2    0    0  0.18816796734E+02  0.29640943934E+02  0.28221553615E+02  0.45045682202E+02  0.00000000000E+00 0. -1.
         11    1    3    3    0    0 -0.78916338883E+01 -0.16265358283E+02 -0.91439323501E+01  0.20259596851E+02  0.51100000000E-03 0. -1.
        -11    1    3    3    0    0 -0.72832001208E+01 -0.96317622452E+01 -0.14999377633E+02  0.19256094557E+02  0.51100000000E-03 0.  1.
        -12    1    3    3    0    0 -0.36419627251E+01 -0.37438234059E+01 -0.40782436319E+01  0.66266263895E+01  0.00000000000E+00 0.  1.
</event>
<event>
 7    1  0.1442665E-008  0.4614232E+02  0.7816164E-02  0.1320468E+00
        -11   -1    0    0    0    0  0.00000000000E+00  0.00000000000E+00  0.45593999997E+02  0.45594000000E+02  0.51100000000E-03 0.  1.
         11   -1    0    0    0    0 -0.00000000000E+00 -0.00000000000E+00 -0.45593999997E+02  0.45594000000E+02  0.51100000000E-03 0. -1.
    9900012    2    1    2    0    0 -0.30240208395E+02  0.24799872787E+02  0.22351947669E+02  0.46142318091E+02  0.10000003007E+02 0.  0.
         12    1    1    2    0    0  0.30240208395E+02 -0.24799872787E+02 -0.22351947669E+02  0.45045681909E+02  0.00000000000E+00 0. -1.
         11    1    3    3    0    0 -0.55844637343E+01  0.88961398669E+00  0.37441293112E+01  0.67820463583E+01  0.51100000000E-03 0. -1.
        -11    1    3    3    0    0 -0.20438504684E+02  0.18089629591E+02  0.12937378781E+02  0.30205015187E+02  0.51100000000E-03 0.  1.
         12    1    3    3    0    0 -0.42172399764E+01  0.58206292100E+01  0.56704395768E+01  0.91552565455E+01  0.00000000000E+00 0. -1.
</event>
<event>
 7    1  0.1442665E-008  0.4614232E+02  0.7816164E-02  0.1320468E+00
        -11   -1    0    0    0    0  0.00000000000E+00  0.00000000000E+00  0.45593999997E+02  0.45594000000E+02  0.51100000000E-03 0.  1.
         11   -1    0    0    0    0 -0.00000000000E+00 -0.00000000000E+00 -0.45593999997E+02  0.45594000000E+02  0.51100000000E-03 0. -1.
    9900012    2    1    2    0    0 -0.32945706025E+02  0.26728935385E+02  0.15141266879E+02  0.46142317688E+02  0.99999993311E+01 0.  0.
         12    1    1    2    0    0  0.32945706025E+02 -0.26728935385E+02 -0.15141266879E+02  0.45045682312E+02  0.00000000000E+00 0. -1.
         11    1    3    3    0    0 -0.13420088711E+02  0.65172989131E+01  0.83898287155E+01  0.17116167569E+02  0.51100000000E-03 0. -1.
        -11    1    3    3    0    0 -0.15203072251E+02  0.17190386877E+02  0.52260452878E+01  0.23536234968E+02  0.51100000000E-03 0.  1.
         12    1    3    3    0    0 -0.43225450630E+01  0.30212495948E+01  0.15253928759E+01  0.54899151507E+01  0.00000000000E+00 0. -1.
</event>
<event>
 7    1  0.1442665E-008  0.4614232E+02  0.7816164E-02  0.1320468E+00
        -11   -1    0    0    0    0  0.00000000000E+00  0.00000000000E+00  0.45593999997E+02  0.45594000000E+02  0.51100000000E-03 0.  1.
         11   -1    0    0    0    0 -0.00000000000E+00 -0.00000000000E+00 -0.45593999997E+02  0.45594000000E+02  0.51100000000E-03 0. -1.
    9900012    2    1    2    0    0  0.10163554493E+02 -0.26130202804E+02  0.35256605170E+02  0.46142317115E+02  0.99999941045E+01 0.  0.
         12    1    1    2    0    0 -0.10163554493E+02  0.26130202804E+02 -0.35256605170E+02  0.45045682885E+02  0.00000000000E+00 0. -1.
         11    1    3    3    0    0  0.53793240536E+01 -0.76946156462E+01  0.64170098318E+01  0.11371994225E+02  0.51100000000E-03 0. -1.
        -11    1    3    3    0    0  0.50507800962E+01 -0.17835931515E+02  0.26497513072E+02  0.32338043105E+02  0.51100000000E-03 0.  1.
        -12    1    3    3    0    0 -0.26654965662E+00 -0.59965564281E+00  0.23420822660E+01  0.24322797845E+01  0.00000000000E+00 0.  1.
</event>
<event>
 7    1  0.1442665E-008  0.4614232E+02  0.7816164E-02  0.1320468E+00
        -11   -1    0    0    0    0  0.00000000000E+00  0.00000000000E+00  0.45593999997E+02  0.45594000000E+02  0.51100000000E-03 0. -1.
         11   -1    0    0    0    0 -0.00000000000E+00 -0.00000000000E+00 -0.45593999997E+02  0.45594000000E+02  0.51100000000E-03 0.  1.
    9900012    2    1    2    0    0  0.59634291854E+01  0.91884694205E+01 -0.43693512017E+02  0.46142318184E+02  0.10000003854E+02 0.  0.
         12    1    1    2    0    0 -0.59634291854E+01 -0.91884694205E+01  0.43693512017E+02  0.45045681816E+02  0.00000000000E+00 0. -1.
         11    1    3    3    0    0 -0.22249806374E+01  0.17614243438E+01 -0.10084988384E+02  0.10476647628E+02  0.51100000000E-03 0. -1.
        -11    1    3    3    0    0  0.35810230495E+01  0.60785425440E+01 -0.17906611683E+02  0.19246276206E+02  0.51100000000E-03 0.  1.
         12    1    3    3    0    0  0.46073867734E+01  0.13485025326E+01 -0.15701911949E+02  0.16419394350E+02  0.00000000000E+00 0. -1.
</event>
<event>
 7    1  0.1442665E-008  0.4614232E+02  0.7816164E-02  0.1320468E+00
        -11   -1    0    0    0    0  0.00000000000E+00  0.00000000000E+00  0.45593999997E+02  0.45594000000E+02  0.51100000000E-03 0. -1.
         11   -1    0    0    0    0 -0.00000000000E+00 -0.00000000000E+00 -0.45593999997E+02  0.45594000000E+02  0.51100000000E-03 0.  1.
    9900012    2    1    2    0    0 -0.27979202048E+02 -0.33847600618E+02 -0.10030832812E+02  0.46142318501E+02  0.10000006743E+02 0.  0.
         12    1    1    2    0    0  0.27979202048E+02  0.33847600618E+02  0.10030832812E+02  0.45045681499E+02  0.00000000000E+00 0. -1.
         11    1    3    3    0    0 -0.55206594484E+00  0.37559226306E-01  0.80893576221E+00  0.98008409406E+00  0.51100000000E-03 0. -1.
        -11    1    3    3    0    0 -0.15976764851E+02 -0.16042716549E+02 -0.55194356276E+01  0.23304290148E+02  0.51100000000E-03 0.  1.
        -12    1    3    3    0    0 -0.11450371252E+02 -0.17842443295E+02 -0.53203329463E+01  0.21857944259E+02  0.00000000000E+00 0.  1.
</event>
<event>
 7    1  0.1442665E-008  0.4614232E+02  0.7816164E-02  0.1320468E+00
        -11   -1    0    0    0    0  0.00000000000E+00  0.00000000000E+00  0.45593999997E+02  0.45594000000E+02  0.51100000000E-03 0.  1.
         11   -1    0    0    0    0 -0.00000000000E+00 -0.00000000000E+00 -0.45593999997E+02  0.45594000000E+02  0.51100000000E-03 0. -1.
    9900012    2    1    2    0    0 -0.37825342606E+02  0.21188147353E+02  0.12223717064E+02  0.46142318848E+02  0.10000009913E+02 0.  0.
         12    1    1    2    0    0  0.37825342606E+02 -0.21188147353E+02 -0.12223717064E+02  0.45045681152E+02  0.00000000000E+00 0. -1.
         11    1    3    3    0    0 -0.82876922261E+01  0.56714860049E+01  0.10782137987E+01  0.10100205008E+02  0.51100000000E-03 0. -1.
        -11    1    3    3    0    0 -0.25478867064E+02  0.10771716036E+02  0.11076973471E+02  0.29797682373E+02  0.51100000000E-03 0.  1.
        -12    1    3    3    0    0 -0.40587833159E+01  0.47449453123E+01  0.68529793708E-01  0.62444314677E+01  0.00000000000E+00 0.  1.
</event>
<event>
 7    1  0.1442665E-008  0.4614232E+02  0.7816164E-02  0.1320468E+00
        -11   -1    0    0    0    0  0.00000000000E+00  0.00000000000E+00  0.45593999997E+02  0.45594000000E+02  0.51100000000E-03 0.  1.
         11   -1    0    0    0    0 -0.00000000000E+00 -0.00000000000E+00 -0.45593999997E+02  0.45594000000E+02  0.51100000000E-03 0. -1.
    9900012    2    1    2    0    0 -0.13308647424E+02  0.36020889453E+02  0.23547579402E+02  0.46142322417E+02  0.10000042456E+02 0.  0.
         12    1    1    2    0    0  0.13308647424E+02 -0.36020889453E+02 -0.23547579402E+02  0.45045677583E+02  0.00000000000E+00 0. -1.
         11    1    3    3    0    0 -0.68696827366E+01  0.27382049152E+02  0.19633295357E+02  0.34386559053E+02  0.51100000000E-03 0. -1.
        -11    1    3    3    0    0 -0.35216607653E+01  0.51385629178E+01  0.90444355947E+00  0.62948345347E+01  0.51100000000E-03 0.  1.
         12    1    3    3    0    0 -0.29173039221E+01  0.35002773836E+01  0.30098404848E+01  0.54609288294E+01  0.00000000000E+00 0. -1.
</event>
<event>
 7    1  0.1442665E-008  0.4614232E+02  0.7816164E-02  0.1320468E+00
        -11   -1    0    0    0    0  0.00000000000E+00  0.00000000000E+00  0.45593999997E+02  0.45594000000E+02  0.51100000000E-03 0.  1.
         11   -1    0    0    0    0 -0.00000000000E+00 -0.00000000000E+00 -0.45593999997E+02  0.45594000000E+02  0.51100000000E-03 0. -1.
    9900012    2    1    2    0    0  0.62176577710E+01  0.41512995851E+02  0.16343973514E+02  0.46142316933E+02  0.99999924517E+01 0.  0.
         12    1    1    2    0    0 -0.62176577710E+01 -0.41512995851E+02 -0.16343973514E+02  0.45045683067E+02  0.00000000000E+00 0. -1.
         11    1    3    3    0    0  0.27869726338E+01  0.24424380405E+02  0.10522865320E+02  0.26740386486E+02  0.51100000000E-03 0.  1.
        -11    1    3    3    0    0  0.12570314778E+01  0.10635324510E+01 -0.91447483917E+00  0.18834792016E+01  0.51100000000E-03 0. -1.
         12    1    3    3    0    0  0.21736536595E+01  0.16025082995E+02  0.67355830334E+01  0.17518451245E+02  0.00000000000E+00 0. -1.
</event>
<event>
 7    1  0.1442665E-008  0.4614232E+02  0.7816164E-02  0.1320468E+00
        -11   -1    0    0    0    0  0.00000000000E+00  0.00000000000E+00  0.45593999997E+02  0.45594000000E+02  0.51100000000E-03 0.  1.
         11   -1    0    0    0    0 -0.00000000000E+00 -0.00000000000E+00 -0.45593999997E+02  0.45594000000E+02  0.51100000000E-03 0. -1.
    9900012    2    1    2    0    0  0.38158559513E+02 -0.12944518350E+02  0.20136466231E+02  0.46142317724E+02  0.99999996643E+01 0.  0.
         12    1    1    2    0    0 -0.38158559513E+02  0.12944518350E+02 -0.20136466231E+02  0.45045682276E+02  0.00000000000E+00 0. -1.
         11    1    3    3    0    0  0.17457519784E+01 -0.16906533508E+01  0.17032693784E+01  0.29676734253E+01  0.51100000000E-03 0. -1.
        -11    1    3    3    0    0  0.18021094561E+02 -0.11699740626E+01  0.89665074760E+01  0.20162513361E+02  0.51100000000E-03 0.  1.
        -12    1    3    3    0    0  0.18391712974E+02 -0.10083890937E+02  0.94666893765E+01  0.23012130938E+02  0.00000000000E+00 0.  1.
</event>
<event>
 7    1  0.1442665E-008  0.4614232E+02  0.7816164E-02  0.1320468E+00
        -11   -1    0    0    0    0  0.00000000000E+00  0.00000000000E+00  0.45593999997E+02  0.45594000000E+02  0.51100000000E-03 0.  1.
         11   -1    0    0    0    0 -0.00000000000E+00 -0.00000000000E+00 -0.45593999997E+02  0.45594000000E+02  0.51100000000E-03 0. -1.
    9900012    2    1    2    0    0 -0.23569522503E+01  0.11821494025E+02  0.43402881140E+02  0.46142322781E+02  0.10000045777E+02 0.  0.
         12    1    1    2    0    0  0.23569522503E+01 -0.11821494025E+02 -0.43402881140E+02  0.45045677219E+02  0.00000000000E+00 0. -1.
         11    1    3    3    0    0 -0.32949377205E+01  0.40670016220E+01  0.70012793408E+01  0.87415690493E+01  0.51100000000E-03 0. -1.
        -11    1    3    3    0    0 -0.27890286831E+00 -0.20697256382E+00  0.39274203874E+01  0.39427472164E+01  0.51100000000E-03 0.  1.
         12    1    3    3    0    0  0.12168883385E+01  0.79614649663E+01  0.32474181411E+02  0.33458006515E+02  0.00000000000E+00 0. -1.
</event>
<event>
 7    1  0.1442665E-008  0.4614232E+02  0.7816164E-02  0.1320468E+00
        -11   -1    0    0    0    0  0.00000000000E+00  0.00000000000E+00  0.45593999997E+02  0.45594000000E+02  0.51100000000E-03 0.  1.
         11   -1    0    0    0    0 -0.00000000000E+00 -0.00000000000E+00 -0.45593999997E+02  0.45594000000E+02  0.51100000000E-03 0. -1.
    9900012    2    1    2    0    0  0.31580744364E+02  0.22626119619E+02  0.22799754957E+02  0.46142317302E+02  0.99999958137E+01 0.  0.
         12    1    1    2    0    0 -0.31580744364E+02 -0.22626119619E+02 -0.22799754957E+02  0.45045682698E+02  0.00000000000E+00 0. -1.
         11    1    3    3    0    0 -0.24719689957E+00  0.14600145303E+01  0.96270405280E+00  0.17662242468E+01  0.51100000000E-03 0. -1.
        -11    1    3    3    0    0  0.26048642078E+02  0.18018585133E+02  0.15589621317E+02  0.35302088570E+02  0.51100000000E-03 0.  1.
         12    1    3    3    0    0  0.57792991856E+01  0.31475199555E+01  0.62474295881E+01  0.90740044856E+01  0.00000000000E+00 0. -1.
</event>
<event>
 7    1  0.1442665E-008  0.4614232E+02  0.7816164E-02  0.1320468E+00
        -11   -1    0    0    0    0  0.00000000000E+00  0.00000000000E+00  0.45593999997E+02  0.45594000000E+02  0.51100000000E-03 0. -1.
         11   -1    0    0    0    0 -0.00000000000E+00 -0.00000000000E+00 -0.45593999997E+02  0.45594000000E+02  0.51100000000E-03 0.  1.
    9900012    2    1    2    0    0 -0.42786031668E+02 -0.53970987557E+01  0.13013079418E+02  0.46142318556E+02  0.10000007245E+02 0.  0.
         12    1    1    2    0    0  0.42786031668E+02  0.53970987557E+01 -0.13013079418E+02  0.45045681444E+02  0.00000000000E+00 0. -1.
         11    1    3    3    0    0 -0.19080657539E+02 -0.25088758245E+01  0.81578877012E+01  0.20902561614E+02  0.51100000000E-03 0. -1.
        -11    1    3    3    0    0 -0.17767978731E+02 -0.48426666429E+01  0.26209729538E+01  0.18601666267E+02  0.51100000000E-03 0.  1.
        -12    1    3    3    0    0 -0.59373953977E+01  0.19544437117E+01  0.22342187626E+01  0.66380906751E+01  0.00000000000E+00 0.  1.
</event>
<event>
 7    1  0.1442665E-008  0.4614232E+02  0.7816164E-02  0.1320468E+00
        -11   -1    0    0    0    0  0.00000000000E+00  0.00000000000E+00  0.45593999997E+02  0.45594000000E+02  0.51100000000E-03 0.  1.
         11   -1    0    0    0    0 -0.00000000000E+00 -0.00000000000E+00 -0.45593999997E+02  0.45594000000E+02  0.51100000000E-03 0. -1.
    9900012    2    1    2    0    0 -0.90794866202E+01 -0.20239359321E+02  0.39205158193E+02  0.46142321273E+02  0.10000032028E+02 0.  0.
         12    1    1    2    0    0  0.90794866202E+01  0.20239359321E+02 -0.39205158193E+02  0.45045678727E+02  0.00000000000E+00 0. -1.
         11    1    3    3    0    0 -0.33604873058E+01 -0.26337484811E+01  0.15055351190E+02  0.15649060857E+02  0.51100000000E-03 0. -1.
        -11    1    3    3    0    0 -0.54948222101E+01 -0.14616971309E+02  0.20521295728E+02  0.25787060708E+02  0.51100000000E-03 0.  1.
        -12    1    3    3    0    0 -0.22417710431E+00 -0.29886395307E+01  0.36285112759E+01  0.47061997087E+01  0.00000000000E+00 0.  1.
</event>
<event>
 7    1  0.1442665E-008  0.4614233E+02  0.7816164E-02  0.1320468E+00
        -11   -1    0    0    0    0  0.00000000000E+00  0.00000000000E+00  0.45593999997E+02  0.45594000000E+02  0.51100000000E-03 0.  1.
         11   -1    0    0    0    0 -0.00000000000E+00 -0.00000000000E+00 -0.45593999997E+02  0.45594000000E+02  0.51100000000E-03 0. -1.
    9900012    2    1    2    0    0 -0.20609633135E+02  0.85944754308E+01  0.39121488328E+02  0.46142325015E+02  0.10000066145E+02 0.  0.
         12    1    1    2    0    0  0.20609633135E+02 -0.85944754308E+01 -0.39121488328E+02  0.45045674985E+02  0.00000000000E+00 0. -1.
         11    1    3    3    0    0 -0.12035085881E+02  0.75524377689E+01  0.27279638147E+02  0.30758108949E+02  0.51100000000E-03 0. -1.
        -11    1    3    3    0    0 -0.28003852180E+01 -0.14825405186E+01  0.60282584956E+01  0.68102852003E+01  0.51100000000E-03 0.  1.
         12    1    3    3    0    0 -0.57741620361E+01  0.25245781805E+01  0.58135916849E+01  0.85739308656E+01  0.00000000000E+00 0. -1.
</event>
<event>
 7    1  0.1442665E-008  0.4614232E+02  0.7816164E-02  0.1320468E+00
        -11   -1    0    0    0    0  0.00000000000E+00  0.00000000000E+00  0.45593999997E+02  0.45594000000E+02  0.51100000000E-03 0. -1.
         11   -1    0    0    0    0 -0.00000000000E+00 -0.00000000000E+00 -0.45593999997E+02  0.45594000000E+02  0.51100000000E-03 0.  1.
    9900012    2    1    2    0    0 -0.10184094427E+02  0.22487820603E+02 -0.37678848313E+02  0.46142318021E+02  0.10000002372E+02 0.  0.
         12    1    1    2    0    0  0.10184094427E+02 -0.22487820603E+02  0.37678848313E+02  0.45045681979E+02  0.00000000000E+00 0. -1.
         11    1    3    3    0    0  0.10274731874E+01  0.76702040817E+00 -0.29837629763E+01  0.32475934502E+01  0.51100000000E-03 0.  1.
        -11    1    3    3    0    0 -0.24928355657E+01  0.19939764113E+01 -0.77447931525E+01  0.83768724666E+01  0.51100000000E-03 0. -1.
        -12    1    3    3    0    0 -0.87187320487E+01  0.19726823783E+02 -0.26950292184E+02  0.34517852104E+02  0.00000000000E+00 0.  1.
</event>
<event>
 7    1  0.1442665E-008  0.4614232E+02  0.7816164E-02  0.1320468E+00
        -11   -1    0    0    0    0  0.00000000000E+00  0.00000000000E+00  0.45593999997E+02  0.45594000000E+02  0.51100000000E-03 0. -1.
         11   -1    0    0    0    0 -0.00000000000E+00 -0.00000000000E+00 -0.45593999997E+02  0.45594000000E+02  0.51100000000E-03 0.  1.
    9900012    2    1    2    0    0 -0.42334143791E+02  0.19012431547E+01  0.15274783100E+02  0.46142318134E+02  0.10000003396E+02 0.  0.
         12    1    1    2    0    0  0.42334143791E+02 -0.19012431547E+01 -0.15274783100E+02  0.45045681866E+02  0.00000000000E+00 0. -1.
         11    1    3    3    0    0 -0.24118574012E+01 -0.21073362630E+01  0.18785269599E+01  0.37130561603E+01  0.51100000000E-03 0. -1.
        -11    1    3    3    0    0 -0.32561538945E+02  0.19750888746E+01  0.10977200071E+02  0.34418798878E+02  0.51100000000E-03 0.  1.
        -12    1    3    3    0    0 -0.73607474445E+01  0.20334905431E+01  0.24190560687E+01  0.80104630948E+01  0.00000000000E+00 0.  1.
</event>
<event>
 7    1  0.1442665E-008  0.4614232E+02  0.7816164E-02  0.1320468E+00
        -11   -1    0    0    0    0  0.00000000000E+00  0.00000000000E+00  0.45593999997E+02  0.45594000000E+02  0.51100000000E-03 0.  1.
         11   -1    0    0    0    0 -0.00000000000E+00 -0.00000000000E+00 -0.45593999997E+02  0.45594000000E+02  0.51100000000E-03 0. -1.
    9900012    2    1    2    0    0  0.25964712643E+01 -0.31464467571E+02  0.32130346389E+02  0.46142317169E+02  0.99999946043E+01 0.  0.
         12    1    1    2    0    0 -0.25964712643E+01  0.31464467571E+02 -0.32130346389E+02  0.45045682831E+02  0.00000000000E+00 0. -1.
         11    1    3    3    0    0 -0.18364129979E+01 -0.84905903946E+01  0.67622761321E+01  0.11008674611E+02  0.51100000000E-03 0. -1.
        -11    1    3    3    0    0 -0.90511388915E-01 -0.15696665479E+02  0.15414564806E+02  0.22000052452E+02  0.51100000000E-03 0.  1.
        -12    1    3    3    0    0  0.45233956511E+01 -0.72772116977E+01  0.99535054508E+01  0.13133590106E+02  0.00000000000E+00 0.  1.
</event>
<event>
 7    1  0.1442665E-008  0.4614232E+02  0.7816164E-02  0.1320468E+00
        -11   -1    0    0    0    0  0.00000000000E+00  0.00000000000E+00  0.45593999997E+02  0.45594000000E+02  0.51100000000E-03 0. -1.
         11   -1    0    0    0    0 -0.00000000000E+00 -0.00000000000E+00 -0.45593999997E+02  0.45594000000E+02  0.51100000000E-03 0.  1.
    9900012    2    1    2    0    0 -0.57988615873E+01  0.80672651693E+01 -0.43936379753E+02  0.46142322862E+02  0.10000046511E+02 0.  0.
         12    1    1    2    0    0  0.57988615873E+01 -0.80672651693E+01  0.43936379753E+02  0.45045677138E+02  0.00000000000E+00 0. -1.
         11    1    3    3    0    0 -0.16604595568E+01 -0.56016271470E+00 -0.29963317270E+01  0.34711543161E+01  0.51100000000E-03 0. -1.
        -11    1    3    3    0    0 -0.43719511927E+01  0.76965957642E+01 -0.40740439230E+02  0.41690945450E+02  0.51100000000E-03 0.  1.
        -12    1    3    3    0    0  0.23354916223E+00  0.93083211978E+00 -0.19960879663E+00  0.98022309608E+00  0.00000000000E+00 0.  1.
</event>
<event>
 7    1  0.1442665E-008  0.4614232E+02  0.7816164E-02  0.1320468E+00
        -11   -1    0    0    0    0  0.00000000000E+00  0.00000000000E+00  0.45593999997E+02  0.45594000000E+02  0.51100000000E-03 0.  1.
         11   -1    0    0    0    0 -0.00000000000E+00 -0.00000000000E+00 -0.45593999997E+02  0.45594000000E+02  0.51100000000E-03 0. -1.
    9900012    2    1    2    0    0  0.18137971412E+02  0.40844221377E+02 -0.56459777651E+01  0.46142317723E+02  0.99999996569E+01 0.  0.
         12    1    1    2    0    0 -0.18137971412E+02 -0.40844221377E+02  0.56459777651E+01  0.45045682277E+02  0.00000000000E+00 0. -1.
         11    1    3    3    0    0  0.10536346511E+02  0.13198991796E+02 -0.80873444626E+00  0.16908046424E+02  0.51100000000E-03 0. -1.
        -11    1    3    3    0    0  0.61453468676E+00  0.69322326789E+01 -0.80589902692E+00  0.70059243714E+01  0.51100000000E-03 0.  1.
         12    1    3    3    0    0  0.69870902144E+01  0.20712996902E+02 -0.40313442919E+01  0.22228346928E+02  0.00000000000E+00 0. -1.
</event>
<event>
 7    1  0.1442665E-008  0.4614232E+02  0.7816164E-02  0.1320468E+00
        -11   -1    0    0    0    0  0.00000000000E+00  0.00000000000E+00  0.45593999997E+02  0.45594000000E+02  0.51100000000E-03 0.  1.
         11   -1    0    0    0    0 -0.00000000000E+00 -0.00000000000E+00 -0.45593999997E+02  0.45594000000E+02  0.51100000000E-03 0. -1.
    9900012    2    1    2    0    0  0.80211906170E+01 -0.43955157893E+02  0.57199682456E+01  0.46142318286E+02  0.10000004787E+02 0.  0.
         12    1    1    2    0    0 -0.80211906170E+01  0.43955157893E+02 -0.57199682456E+01  0.45045681714E+02  0.00000000000E+00 0. -1.
         11    1    3    3    0    0  0.20074480199E+01 -0.44706514625E+01  0.14611212470E+01  0.51138486105E+01  0.51100000000E-03 0. -1.
        -11    1    3    3    0    0  0.50933723522E+01 -0.14560566363E+02 -0.12839666840E+01  0.15479053764E+02  0.51100000000E-03 0.  1.
        -12    1    3    3    0    0  0.92037024486E+00 -0.24923940068E+02  0.55428136825E+01  0.25549415911E+02  0.00000000000E+00 0.  1.
</event>
<event>
 7    1  0.1442665E-008  0.4614232E+02  0.7816164E-02  0.1320468E+00
        -11   -1    0    0    0    0  0.00000000000E+00  0.00000000000E+00  0.45593999997E+02  0.45594000000E+02  0.51100000000E-03 0.  1.
         11   -1    0    0    0    0 -0.00000000000E+00 -0.00000000000E+00 -0.45593999997E+02  0.45594000000E+02  0.51100000000E-03 0. -1.
    9900012    2    1    2    0    0 -0.43289161568E+02  0.46321795195E+01  0.11563081937E+02  0.46142318073E+02  0.10000002844E+02 0.  0.
         12    1    1    2    0    0  0.43289161568E+02 -0.46321795195E+01 -0.11563081937E+02  0.45045681927E+02  0.00000000000E+00 0. -1.
         11    1    3    3    0    0 -0.93934152724E+01  0.22427509877E+01  0.29921920294E+01  0.10110360818E+02  0.51100000000E-03 0. -1.
        -11    1    3    3    0    0 -0.34052689146E+02  0.23049038489E+01  0.92239151231E+01  0.35355039673E+02  0.51100000000E-03 0.  1.
        -12    1    3    3    0    0  0.15694284974E+00  0.84524682930E-01 -0.65302521586E+00  0.67691758188E+00  0.00000000000E+00 0.  1.
</event>
<event>
 7    1  0.1442665E-008  0.4614232E+02  0.7816164E-02  0.1320468E+00
        -11   -1    0    0    0    0  0.00000000000E+00  0.00000000000E+00  0.45593999997E+02  0.45594000000E+02  0.51100000000E-03 0.  1.
         11   -1    0    0    0    0 -0.00000000000E+00 -0.00000000000E+00 -0.45593999997E+02  0.45594000000E+02  0.51100000000E-03 0. -1.
    9900012    2    1    2    0    0 -0.13578502856E+02  0.18520929113E+02  0.38751941615E+02  0.46142317255E+02  0.99999953866E+01 0.  0.
         12    1    1    2    0    0  0.13578502856E+02 -0.18520929113E+02 -0.38751941615E+02  0.45045682745E+02  0.00000000000E+00 0. -1.
         11    1    3    3    0    0 -0.32456151396E+01  0.17917109691E+01  0.39924628296E+01  0.54483029962E+01  0.51100000000E-03 0. -1.
        -11    1    3    3    0    0 -0.61958793339E+01  0.15183080699E+02  0.30079270574E+02  0.34258975156E+02  0.51100000000E-03 0.  1.
        -12    1    3    3    0    0 -0.41370083823E+01  0.15461374457E+01  0.46802082113E+01  0.64350391031E+01  0.00000000000E+00 0.  1.
</event>
<event>
 7    1  0.1442665E-008  0.4614232E+02  0.7816164E-02  0.1320468E+00
        -11   -1    0    0    0    0  0.00000000000E+00  0.00000000000E+00  0.45593999997E+02  0.45594000000E+02  0.51100000000E-03 0.  1.
         11   -1    0    0    0    0 -0.00000000000E+00 -0.00000000000E+00 -0.45593999997E+02  0.45594000000E+02  0.51100000000E-03 0. -1.
    9900012    2    1    2    0    0 -0.29283077376E+02 -0.13185150747E+02  0.31587446077E+02  0.46142316850E+02  0.99999916886E+01 0.  0.
         12    1    1    2    0    0  0.29283077376E+02  0.13185150747E+02 -0.31587446077E+02  0.45045683150E+02  0.00000000000E+00 0. -1.
         11    1    3    3    0    0 -0.47269312782E+01  0.79669678469E+00  0.37780214101E+01  0.61034458392E+01  0.51100000000E-03 0. -1.
        -11    1    3    3    0    0 -0.22750265979E+02 -0.11339833619E+02  0.23118645623E+02  0.34360416242E+02  0.51100000000E-03 0.  1.
        -12    1    3    3    0    0 -0.18058801182E+01 -0.26420139123E+01  0.46907790442E+01  0.56784547683E+01  0.00000000000E+00 0.  1.
</event>
<event>
 7    1  0.1442665E-008  0.4614232E+02  0.7816164E-02  0.1320468E+00
        -11   -1    0    0    0    0  0.00000000000E+00  0.00000000000E+00  0.45593999997E+02  0.45594000000E+02  0.51100000000E-03 0.  1.
         11   -1    0    0    0    0 -0.00000000000E+00 -0.00000000000E+00 -0.45593999997E+02  0.45594000000E+02  0.51100000000E-03 0. -1.
    9900012    2    1    2    0    0 -0.35901285753E+02 -0.20740200265E+02  0.17608385642E+02  0.46142317958E+02  0.10000001792E+02 0.  0.
         12    1    1    2    0    0  0.35901285753E+02  0.20740200265E+02 -0.17608385642E+02  0.45045682042E+02  0.00000000000E+00 0. -1.
         11    1    3    3    0    0 -0.92096278606E+01 -0.23768706916E+01  0.33500411902E+01  0.10084122959E+02  0.51100000000E-03 0. -1.
        -11    1    3    3    0    0 -0.16833837252E+02 -0.12331952075E+02  0.12617894370E+02  0.24385782276E+02  0.51100000000E-03 0.  1.
        -12    1    3    3    0    0 -0.98578206401E+01 -0.60313774987E+01  0.16404500821E+01  0.11672412723E+02  0.00000000000E+00 0.  1.
</event>
<event>
 7    1  0.1442665E-008  0.4614232E+02  0.7816164E-02  0.1320468E+00
        -11   -1    0    0    0    0  0.00000000000E+00  0.00000000000E+00  0.45593999997E+02  0.45594000000E+02  0.51100000000E-03 0.  1.
         11   -1    0    0    0    0 -0.00000000000E+00 -0.00000000000E+00 -0.45593999997E+02  0.45594000000E+02  0.51100000000E-03 0. -1.
    9900012    2    1    2    0    0  0.40771089188E+02 -0.17467209332E+02 -0.78567373810E+01  0.46142318323E+02  0.10000005125E+02 0.  0.
         12    1    1    2    0    0 -0.40771089188E+02  0.17467209332E+02  0.78567373810E+01  0.45045681677E+02  0.00000000000E+00 0. -1.
         11    1    3    3    0    0  0.16758052780E+02 -0.97889722695E+01 -0.61722100286E+01  0.20365472938E+02  0.51100000000E-03 0. -1.
        -11    1    3    3    0    0  0.18659245742E+02 -0.46866200560E+01  0.55766880767E+00  0.19246892060E+02  0.51100000000E-03 0.  1.
        -12    1    3    3    0    0  0.53537906657E+01 -0.29916170066E+01 -0.22421961601E+01  0.65299533250E+01  0.00000000000E+00 0.  1.
</event>
<event>
 7    1  0.1442665E-008  0.4614232E+02  0.7816164E-02  0.1320468E+00
        -11   -1    0    0    0    0  0.00000000000E+00  0.00000000000E+00  0.45593999997E+02  0.45594000000E+02  0.51100000000E-03 0.  1.
         11   -1    0    0    0    0 -0.00000000000E+00 -0.00000000000E+00 -0.45593999997E+02  0.45594000000E+02  0.51100000000E-03 0. -1.
    9900012    2    1    2    0    0 -0.27307442869E+02 -0.16549577480E+02  0.31773078980E+02  0.46142317647E+02  0.99999989549E+01 0.  0.
         12    1    1    2    0    0  0.27307442869E+02  0.16549577480E+02 -0.31773078980E+02  0.45045682353E+02  0.00000000000E+00 0. -1.
         11    1    3    3    0    0 -0.88317509254E+01 -0.28521335895E+01  0.12489823050E+02  0.15560532462E+02  0.51100000000E-03 0. -1.
        -11    1    3    3    0    0 -0.16672028894E+02 -0.13389165376E+02  0.19219397247E+02  0.28750852643E+02  0.51100000000E-03 0.  1.
        -12    1    3    3    0    0 -0.18036630497E+01 -0.30827851459E+00  0.63858683176E-01  0.18309325414E+01  0.00000000000E+00 0.  1.
</event>
<event>
 7    1  0.1442665E-008  0.4614232E+02  0.7816164E-02  0.1320468E+00
        -11   -1    0    0    0    0  0.00000000000E+00  0.00000000000E+00  0.45593999997E+02  0.45594000000E+02  0.51100000000E-03 0.  1.
         11   -1    0    0    0    0 -0.00000000000E+00 -0.00000000000E+00 -0.45593999997E+02  0.45594000000E+02  0.51100000000E-03 0. -1.
    9900012    2    1    2    0    0  0.23902826989E+02 -0.10804788276E+02  0.36620007099E+02  0.46142317547E+02  0.99999980470E+01 0.  0.
         12    1    1    2    0    0 -0.23902826989E+02  0.10804788276E+02 -0.36620007099E+02  0.45045682453E+02  0.00000000000E+00 0. -1.
         11    1    3    3    0    0  0.11336135509E+01  0.82706953235E+00  0.13061979591E+01  0.19171012137E+01  0.51100000000E-03 0. -1.
        -11    1    3    3    0    0  0.11144502098E+02 -0.93611255351E+01  0.22290185036E+02  0.26621099668E+02  0.51100000000E-03 0.  1.
        -12    1    3    3    0    0  0.11624711340E+02 -0.22707322729E+01  0.13023624104E+02  0.17604116666E+02  0.00000000000E+00 0.  1.
</event>
<event>
 7    1  0.1442665E-008  0.4614232E+02  0.7816164E-02  0.1320468E+00
        -11   -1    0    0    0    0  0.00000000000E+00  0.00000000000E+00  0.45593999997E+02  0.45594000000E+02  0.51100000000E-03 0.  1.
         11   -1    0    0    0    0 -0.00000000000E+00 -0.00000000000E+00 -0.45593999997E+02  0.45594000000E+02  0.51100000000E-03 0. -1.
    9900012    2    1    2    0    0  0.78254845057E+01  0.12059661036E+01  0.44344345795E+02  0.46142316900E+02  0.99999921473E+01 0.  0.
         12    1    1    2    0    0 -0.78254845057E+01 -0.12059661036E+01 -0.44344345795E+02  0.45045683100E+02  0.00000000000E+00 0. -1.
         11    1    3    3    0    0  0.48381543198E+00  0.49334238670E-02  0.18311326038E+02  0.18317717195E+02  0.51100000000E-03 0. -1.
        -11    1    3    3    0    0  0.70761229871E+01 -0.13945032727E+01  0.19339537161E+02  0.20640587535E+02  0.51100000000E-03 0.  1.
        -12    1    3    3    0    0  0.26554608656E+00  0.25955359524E+01  0.66934825957E+01  0.71840121703E+01  0.00000000000E+00 0.  1.
</event>
<event>
 7    1  0.1442665E-008  0.4614232E+02  0.7816164E-02  0.1320468E+00
        -11   -1    0    0    0    0  0.00000000000E+00  0.00000000000E+00  0.45593999997E+02  0.45594000000E+02  0.51100000000E-03 0.  1.
         11   -1    0    0    0    0 -0.00000000000E+00 -0.00000000000E+00 -0.45593999997E+02  0.45594000000E+02  0.51100000000E-03 0. -1.
    9900012    2    1    2    0    0 -0.25181004044E+02  0.30589748157E+02  0.21431233737E+02  0.46142318337E+02  0.10000005252E+02 0.  0.
         12    1    1    2    0    0  0.25181004044E+02 -0.30589748157E+02 -0.21431233737E+02  0.45045681663E+02  0.00000000000E+00 0. -1.
         11    1    3    3    0    0 -0.56709466504E+01  0.76490655622E+01  0.20377240522E+01  0.97375643494E+01  0.51100000000E-03 0.  1.
        -11    1    3    3    0    0 -0.15569325986E+02  0.14013576778E+02  0.14596620161E+02  0.25531266443E+02  0.51100000000E-03 0. -1.
         12    1    3    3    0    0 -0.39407314080E+01  0.89271058166E+01  0.47968895235E+01  0.10873487545E+02  0.00000000000E+00 0. -1.
</event>
<event>
 7    1  0.1442665E-008  0.4614232E+02  0.7816164E-02  0.1320468E+00
        -11   -1    0    0    0    0  0.00000000000E+00  0.00000000000E+00  0.45593999997E+02  0.45594000000E+02  0.51100000000E-03 0.  1.
         11   -1    0    0    0    0 -0.00000000000E+00 -0.00000000000E+00 -0.45593999997E+02  0.45594000000E+02  0.51100000000E-03 0. -1.
    9900012    2    1    2    0    0 -0.23908991617E+02  0.29361592886E+02  0.24400213701E+02  0.46142318235E+02  0.10000004324E+02 0.  0.
         12    1    1    2    0    0  0.23908991617E+02 -0.29361592886E+02 -0.24400213701E+02  0.45045681765E+02  0.00000000000E+00 0. -1.
         11    1    3    3    0    0 -0.78814740708E+01  0.41402938124E+01  0.38582351363E+01  0.97028678755E+01  0.51100000000E-03 0. -1.
        -11    1    3    3    0    0 -0.63276104826E+01  0.79171262676E+01  0.54031895645E+01  0.11485382035E+02  0.51100000000E-03 0.  1.
         12    1    3    3    0    0 -0.96999070637E+01  0.17304172806E+02  0.15138789001E+02  0.24954068325E+02  0.00000000000E+00 0. -1.
</event>
<event>
 7    1  0.1442665E-008  0.4614232E+02  0.7816164E-02  0.1320468E+00
        -11   -1    0    0    0    0  0.00000000000E+00  0.00000000000E+00  0.45593999997E+02  0.45594000000E+02  0.51100000000E-03 0.  1.
         11   -1    0    0    0    0 -0.00000000000E+00 -0.00000000000E+00 -0.45593999997E+02  0.45594000000E+02  0.51100000000E-03 0. -1.
    9900012    2    1    2    0    0  0.25893160944E+02  0.12020919588E+02  0.34844731769E+02  0.46142316262E+02  0.99999863289E+01 0.  0.
         12    1    1    2    0    0 -0.25893160944E+02 -0.12020919588E+02 -0.34844731769E+02  0.45045683738E+02  0.00000000000E+00 0. -1.
         11    1    3    3    0    0  0.12766715621E+02  0.10414676935E+02  0.15539085754E+02  0.22647686631E+02  0.51100000000E-03 0. -1.
        -11    1    3    3    0    0  0.66294389903E+01  0.68335995788E+00  0.11553696685E+02  0.13338078929E+02  0.51100000000E-03 0.  1.
         12    1    3    3    0    0  0.64970063324E+01  0.92288269520E+00  0.77519493298E+01  0.10156550702E+02  0.00000000000E+00 0. -1.
</event>
<event>
 7    1  0.1442665E-008  0.4614231E+02  0.7816164E-02  0.1320468E+00
        -11   -1    0    0    0    0  0.00000000000E+00  0.00000000000E+00  0.45593999997E+02  0.45594000000E+02  0.51100000000E-03 0.  1.
         11   -1    0    0    0    0 -0.00000000000E+00 -0.00000000000E+00 -0.45593999997E+02  0.45594000000E+02  0.51100000000E-03 0. -1.
    9900012    2    1    2    0    0 -0.13370765332E+02 -0.43000145773E+02 -0.11506247041E+01  0.46142313866E+02  0.99999644793E+01 0.  0.
         12    1    1    2    0    0  0.13370765332E+02  0.43000145773E+02  0.11506247041E+01  0.45045686134E+02  0.00000000000E+00 0. -1.
         11    1    3    3    0    0 -0.77682187357E+01 -0.17459418417E+02 -0.14318911362E+01  0.19163163264E+02  0.51100000000E-03 0. -1.
        -11    1    3    3    0    0 -0.69948137393E+01 -0.23407140815E+02  0.23486970716E+00  0.24431062695E+02  0.51100000000E-03 0.  1.
         12    1    3    3    0    0  0.13922671425E+01 -0.21335865413E+01  0.46396724972E-01  0.25480879069E+01  0.00000000000E+00 0. -1.
</event>
<event>
 7    1  0.1442665E-008  0.4614231E+02  0.7816164E-02  0.1320468E+00
        -11   -1    0    0    0    0  0.00000000000E+00  0.00000000000E+00  0.45593999997E+02  0.45594000000E+02  0.51100000000E-03 0. -1.
         11   -1    0    0    0    0 -0.00000000000E+00 -0.00000000000E+00 -0.45593999997E+02  0.45594000000E+02  0.51100000000E-03 0.  1.
    9900012    2    1    2    0    0  0.28484145149E+02  0.34767385638E+02 -0.29993713919E+01  0.46142313661E+02  0.99999626114E+01 0.  0.
         12    1    1    2    0    0 -0.28484145149E+02 -0.34767385638E+02  0.29993713919E+01  0.45045686339E+02  0.00000000000E+00 0. -1.
         11    1    3    3    0    0  0.30168466550E+01  0.87131975718E+01 -0.26318658733E+01  0.95889464438E+01  0.51100000000E-03 0.  1.
        -11    1    3    3    0    0  0.81172156738E+01  0.90165045854E+01  0.11678013266E+01  0.12188121489E+02  0.51100000000E-03 0. -1.
         12    1    3    3    0    0  0.17350082821E+02  0.17037683481E+02 -0.15353068452E+01  0.24365245728E+02  0.00000000000E+00 0. -1.
</event>
<event>
 7    1  0.1442665E-008  0.4614232E+02  0.7816164E-02  0.1320468E+00
        -11   -1    0    0    0    0  0.00000000000E+00  0.00000000000E+00  0.45593999997E+02  0.45594000000E+02  0.51100000000E-03 0.  1.
         11   -1    0    0    0    0 -0.00000000000E+00 -0.00000000000E+00 -0.45593999997E+02  0.45594000000E+02  0.51100000000E-03 0. -1.
    9900012    2    1    2    0    0  0.22689930018E+02  0.17902361279E+02  0.34551208434E+02  0.46142317989E+02  0.10000002076E+02 0.  0.
         12    1    1    2    0    0 -0.22689930018E+02 -0.17902361279E+02 -0.34551208434E+02  0.45045682011E+02  0.00000000000E+00 0. -1.
         11    1    3    3    0    0  0.26585489811E+01  0.41046201161E+01  0.24343823143E+01  0.54627837680E+01  0.51100000000E-03 0. -1.
        -11    1    3    3    0    0  0.15954556344E+02  0.11538484628E+02  0.29071887741E+02  0.35112094109E+02  0.51100000000E-03 0.  1.
        -12    1    3    3    0    0  0.40768246924E+01  0.22592565352E+01  0.30449383791E+01  0.55674401116E+01  0.00000000000E+00 0.  1.
</event>
<event>
 7    1  0.1442665E-008  0.4614232E+02  0.7816164E-02  0.1320468E+00
        -11   -1    0    0    0    0  0.00000000000E+00  0.00000000000E+00  0.45593999997E+02  0.45594000000E+02  0.51100000000E-03 0.  1.
         11   -1    0    0    0    0 -0.00000000000E+00 -0.00000000000E+00 -0.45593999997E+02  0.45594000000E+02  0.51100000000E-03 0. -1.
    9900012    2    1    2    0    0  0.25585635535E+01 -0.96499532569E+01  0.43925456272E+02  0.46142317033E+02  0.99999933562E+01 0.  0.
         12    1    1    2    0    0 -0.25585635535E+01  0.96499532569E+01 -0.43925456272E+02  0.45045682967E+02  0.00000000000E+00 0. -1.
         11    1    3    3    0    0  0.17763210115E+01 -0.24625091050E+01  0.30064499711E+02  0.30217435540E+02  0.51100000000E-03 0. -1.
        -11    1    3    3    0    0 -0.10717051604E+01 -0.32902047760E+01  0.71942295344E+01  0.79831659304E+01  0.51100000000E-03 0.  1.
        -12    1    3    3    0    0  0.18539477024E+01 -0.38972393759E+01  0.66667270261E+01  0.79417155625E+01  0.00000000000E+00 0.  1.
</event>
<event>
 7    1  0.1442665E-008  0.4614232E+02  0.7816164E-02  0.1320468E+00
        -11   -1    0    0    0    0  0.00000000000E+00  0.00000000000E+00  0.45593999997E+02  0.45594000000E+02  0.51100000000E-03 0.  1.
         11   -1    0    0    0    0 -0.00000000000E+00 -0.00000000000E+00 -0.45593999997E+02  0.45594000000E+02  0.51100000000E-03 0. -1.
    9900012    2    1    2    0    0 -0.50461356605E+01 -0.44203787189E+02  0.70480681915E+01  0.46142317053E+02  0.99999935430E+01 0.  0.
         12    1    1    2    0    0  0.50461356605E+01  0.44203787189E+02 -0.70480681915E+01  0.45045682947E+02  0.00000000000E+00 0. -1.
         11    1    3    3    0    0 -0.13213817987E+01 -0.17600089639E+01 -0.17478280453E+00  0.22077659977E+01  0.51100000000E-03 0. -1.
        -11    1    3    3    0    0 -0.44269287794E+01 -0.41163845155E+02  0.56439195630E+01  0.41784131852E+02  0.51100000000E-03 0.  1.
        -12    1    3    3    0    0  0.70217491760E+00 -0.12799330699E+01  0.15789314330E+01  0.21504192030E+01  0.00000000000E+00 0.  1.
</event>
<event>
 7    1  0.1442665E-008  0.4614232E+02  0.7816164E-02  0.1320468E+00
        -11   -1    0    0    0    0  0.00000000000E+00  0.00000000000E+00  0.45593999997E+02  0.45594000000E+02  0.51100000000E-03 0.  1.
         11   -1    0    0    0    0 -0.00000000000E+00 -0.00000000000E+00 -0.45593999997E+02  0.45594000000E+02  0.51100000000E-03 0. -1.
    9900012    2    1    2    0    0 -0.58501627918E+01  0.33319839115E+02  0.29743526668E+02  0.46142318054E+02  0.10000002671E+02 0.  0.
         12    1    1    2    0    0  0.58501627918E+01 -0.33319839115E+02 -0.29743526668E+02  0.45045681946E+02  0.00000000000E+00 0. -1.
         11    1    3    3    0    0 -0.30015688578E+01  0.29847152923E+02  0.24055219533E+02  0.38451469936E+02  0.51100000000E-03 0.  1.
        -11    1    3    3    0    0 -0.15084052361E+01  0.46660946483E+00  0.31879128772E+01  0.35574990545E+01  0.51100000000E-03 0. -1.
        -12    1    3    3    0    0 -0.13401886978E+01  0.30060767276E+01  0.25003942575E+01  0.41333490635E+01  0.00000000000E+00 0.  1.
</event>
<event>
 7    1  0.1442665E-008  0.4614232E+02  0.7816164E-02  0.1320468E+00
        -11   -1    0    0    0    0  0.00000000000E+00  0.00000000000E+00  0.45593999997E+02  0.45594000000E+02  0.51100000000E-03 0.  1.
         11   -1    0    0    0    0 -0.00000000000E+00 -0.00000000000E+00 -0.45593999997E+02  0.45594000000E+02  0.51100000000E-03 0. -1.
    9900012    2    1    2    0    0  0.25923241025E+02 -0.21241329619E+02  0.30098256285E+02  0.46142317181E+02  0.99999947088E+01 0.  0.
         12    1    1    2    0    0 -0.25923241025E+02  0.21241329619E+02 -0.30098256285E+02  0.45045682819E+02  0.00000000000E+00 0. -1.
         11    1    3    3    0    0  0.19318624239E+02 -0.16102610773E+02  0.20396650162E+02  0.32380961293E+02  0.51100000000E-03 0. -1.
        -11    1    3    3    0    0  0.32644475950E+01 -0.46357729539E+01  0.33988879264E+01  0.66105558297E+01  0.51100000000E-03 0.  1.
         12    1    3    3    0    0  0.33401691916E+01 -0.50294589196E+00  0.63027181969E+01  0.71508000580E+01  0.00000000000E+00 0. -1.
</event>
<event>
 7    1  0.1442665E-008  0.4614232E+02  0.7816164E-02  0.1320468E+00
        -11   -1    0    0    0    0  0.00000000000E+00  0.00000000000E+00  0.45593999997E+02  0.45594000000E+02  0.51100000000E-03 0. -1.
         11   -1    0    0    0    0 -0.00000000000E+00 -0.00000000000E+00 -0.45593999997E+02  0.45594000000E+02  0.51100000000E-03 0.  1.
    9900012    2    1    2    0    0 -0.38877160858E+01 -0.39443785402E+02 -0.21405302254E+02  0.46142317546E+02  0.99999980365E+01 0.  0.
         12    1    1    2    0    0  0.38877160858E+01  0.39443785402E+02  0.21405302254E+02  0.45045682454E+02  0.00000000000E+00 0. -1.
         11    1    3    3    0    0 -0.15875190197E+01 -0.21145013408E+01 -0.19216178139E+01  0.32686308819E+01  0.51100000000E-03 0. -1.
        -11    1    3    3    0    0  0.12361936112E+00 -0.14927304730E+02 -0.37504887809E+01  0.15391746964E+02  0.51100000000E-03 0.  1.
         12    1    3    3    0    0 -0.24238164272E+01 -0.22401979331E+02 -0.15733195659E+02  0.27481939700E+02  0.00000000000E+00 0. -1.
</event>
<event>
 7    1  0.1442665E-008  0.4614232E+02  0.7816164E-02  0.1320468E+00
        -11   -1    0    0    0    0  0.00000000000E+00  0.00000000000E+00  0.45593999997E+02  0.45594000000E+02  0.51100000000E-03 0.  1.
         11   -1    0    0    0    0 -0.00000000000E+00 -0.00000000000E+00 -0.45593999997E+02  0.45594000000E+02  0.51100000000E-03 0. -1.
    9900012    2    1    2    0    0  0.46176464217E+01  0.44331993992E+02  0.65165320096E+01  0.46142317197E+02  0.99999948534E+01 0.  0.
         12    1    1    2    0    0 -0.46176464217E+01 -0.44331993992E+02 -0.65165320096E+01  0.45045682803E+02  0.00000000000E+00 0. -1.
         11    1    3    3    0    0 -0.15245953562E+01  0.12767568337E+02  0.38548094637E+01  0.13423663751E+02  0.51100000000E-03 0. -1.
        -11    1    3    3    0    0  0.66587024211E+01  0.21291208098E+02  0.13470658158E+01  0.22348790723E+02  0.51100000000E-03 0.  1.
        -12    1    3    3    0    0 -0.51646064322E+00  0.10273217556E+02  0.13146567301E+01  0.10369862722E+02  0.00000000000E+00 0.  1.
</event>
<event>
 7    1  0.1442665E-008  0.4614232E+02  0.7816164E-02  0.1320468E+00
        -11   -1    0    0    0    0  0.00000000000E+00  0.00000000000E+00  0.45593999997E+02  0.45594000000E+02  0.51100000000E-03 0.  1.
         11   -1    0    0    0    0 -0.00000000000E+00 -0.00000000000E+00 -0.45593999997E+02  0.45594000000E+02  0.51100000000E-03 0. -1.
    9900012    2    1    2    0    0 -0.11131154066E+02  0.16726081690E+02  0.40316858303E+02  0.46142318043E+02  0.10000002573E+02 0.  0.
         12    1    1    2    0    0  0.11131154066E+02 -0.16726081690E+02 -0.40316858303E+02  0.45045681957E+02  0.00000000000E+00 0. -1.
         11    1    3    3    0    0 -0.58002847073E+01  0.26082493417E+01  0.93953166556E+01  0.11345406235E+02  0.51100000000E-03 0. -1.
        -11    1    3    3    0    0 -0.39195125825E+00  0.19725748499E+01  0.92652120661E+01  0.94809721136E+01  0.51100000000E-03 0.  1.
        -12    1    3    3    0    0 -0.49389181002E+01  0.12145257498E+02  0.21656329581E+02  0.25315939695E+02  0.00000000000E+00 0.  1.
</event>
<event>
 7    1  0.1442665E-008  0.4614232E+02  0.7816164E-02  0.1320468E+00
        -11   -1    0    0    0    0  0.00000000000E+00  0.00000000000E+00  0.45593999997E+02  0.45594000000E+02  0.51100000000E-03 0. -1.
         11   -1    0    0    0    0 -0.00000000000E+00 -0.00000000000E+00 -0.45593999997E+02  0.45594000000E+02  0.51100000000E-03 0.  1.
    9900012    2    1    2    0    0 -0.30231452036E+02  0.29426547873E+02 -0.15787686270E+02  0.46142318190E+02  0.10000003913E+02 0.  0.
         12    1    1    2    0    0  0.30231452036E+02 -0.29426547873E+02  0.15787686270E+02  0.45045681810E+02  0.00000000000E+00 0. -1.
         11    1    3    3    0    0 -0.11885839214E+02  0.16910644803E+02 -0.65076498395E+01  0.21670085098E+02  0.51100000000E-03 0. -1.
        -11    1    3    3    0    0 -0.78889428566E+01  0.79498046406E+01 -0.52725784833E+01  0.12378808397E+02  0.51100000000E-03 0.  1.
         12    1    3    3    0    0 -0.10456669966E+02  0.45660984298E+01 -0.40074579472E+01  0.12093424695E+02  0.00000000000E+00 0. -1.
</event>
<event>
 7    1  0.1442665E-008  0.4614232E+02  0.7816164E-02  0.1320468E+00
        -11   -1    0    0    0    0  0.00000000000E+00  0.00000000000E+00  0.45593999997E+02  0.45594000000E+02  0.51100000000E-03 0. -1.
         11   -1    0    0    0    0 -0.00000000000E+00 -0.00000000000E+00 -0.45593999997E+02  0.45594000000E+02  0.51100000000E-03 0.  1.
    9900012    2    1    2    0    0 -0.67656426906E+01 -0.28102864799E+02 -0.34548059491E+02  0.46142319346E+02  0.10000014454E+02 0.  0.
         12    1    1    2    0    0  0.67656426906E+01  0.28102864799E+02  0.34548059491E+02  0.45045680654E+02  0.00000000000E+00 0. -1.
         11    1    3    3    0    0 -0.47305228704E+01 -0.23044230225E+02 -0.25506150299E+02  0.34698387522E+02  0.51100000000E-03 0. -1.
        -11    1    3    3    0    0 -0.19247216320E+01 -0.58765040295E+01 -0.78208513820E+01  0.99701338793E+01  0.51100000000E-03 0.  1.
         12    1    3    3    0    0 -0.11039818822E+00  0.81786945528E+00 -0.12210578103E+01  0.14737979447E+01  0.00000000000E+00 0. -1.
</event>
<event>
 7    1  0.1442665E-008  0.4614232E+02  0.7816164E-02  0.1320468E+00
        -11   -1    0    0    0    0  0.00000000000E+00  0.00000000000E+00  0.45593999997E+02  0.45594000000E+02  0.51100000000E-03 0.  1.
         11   -1    0    0    0    0 -0.00000000000E+00 -0.00000000000E+00 -0.45593999997E+02  0.45594000000E+02  0.51100000000E-03 0. -1.
    9900012    2    1    2    0    0 -0.17370210895E+02 -0.14295213192E+02  0.39026096074E+02  0.46142317393E+02  0.99999966433E+01 0.  0.
         12    1    1    2    0    0  0.17370210895E+02  0.14295213192E+02 -0.39026096074E+02  0.45045682607E+02  0.00000000000E+00 0. -1.
         11    1    3    3    0    0  0.52321551820E+00  0.60586513033E+00  0.17896646379E+01  0.19605424790E+01  0.51100000000E-03 0. -1.
        -11    1    3    3    0    0 -0.14481720003E+01 -0.30994181784E+01  0.70607800507E+01  0.78459040507E+01  0.51100000000E-03 0.  1.
         12    1    3    3    0    0 -0.16445254413E+02 -0.11801660144E+02  0.30175651386E+02  0.36335870863E+02  0.00000000000E+00 0. -1.
</event>
<event>
 7    1  0.1442665E-008  0.4614232E+02  0.7816164E-02  0.1320468E+00
        -11   -1    0    0    0    0  0.00000000000E+00  0.00000000000E+00  0.45593999997E+02  0.45594000000E+02  0.51100000000E-03 0.  1.
         11   -1    0    0    0    0 -0.00000000000E+00 -0.00000000000E+00 -0.45593999997E+02  0.45594000000E+02  0.51100000000E-03 0. -1.
    9900012    2    1    2    0    0  0.60092216339E+01 -0.29001140154E+02  0.33940193446E+02  0.46142316455E+02  0.99999880924E+01 0.  0.
         12    1    1    2    0    0 -0.60092216339E+01  0.29001140154E+02 -0.33940193446E+02  0.45045683545E+02  0.00000000000E+00 0. -1.
         11    1    3    3    0    0  0.37971442430E+00 -0.17214209003E+02  0.13642810791E+02  0.21968146512E+02  0.51100000000E-03 0. -1.
        -11    1    3    3    0    0  0.17690723857E+01 -0.27176888996E+01  0.57651507215E+01  0.66145606932E+01  0.51100000000E-03 0.  1.
         12    1    3    3    0    0  0.38604348239E+01 -0.90692422512E+01  0.14532231934E+02  0.17559609250E+02  0.00000000000E+00 0. -1.
</event>
<event>
 7    1  0.1442665E-008  0.4614232E+02  0.7816164E-02  0.1320468E+00
        -11   -1    0    0    0    0  0.00000000000E+00  0.00000000000E+00  0.45593999997E+02  0.45594000000E+02  0.51100000000E-03 0.  1.
         11   -1    0    0    0    0 -0.00000000000E+00 -0.00000000000E+00 -0.45593999997E+02  0.45594000000E+02  0.51100000000E-03 0. -1.
    9900012    2    1    2    0    0  0.66263321222E+01 -0.44406901860E+02  0.36376239263E+01  0.46142317431E+02  0.99999969934E+01 0.  0.
         12    1    1    2    0    0 -0.66263321222E+01  0.44406901860E+02 -0.36376239263E+01  0.45045682569E+02  0.00000000000E+00 0. -1.
         11    1    3    3    0    0  0.11522015616E+01 -0.28610798437E+02  0.97432779114E+00  0.28650561435E+02  0.51100000000E-03 0. -1.
        -11    1    3    3    0    0  0.58921021932E+01 -0.15786333980E+02  0.27254548248E+01  0.17069074757E+02  0.51100000000E-03 0.  1.
         12    1    3    3    0    0 -0.41797163263E+00 -0.97694435337E-02 -0.62158689644E-01  0.42268123972E+00  0.00000000000E+00 0. -1.
</event>
<event>
 7    1  0.1442665E-008  0.4614232E+02  0.7816164E-02  0.1320468E+00
        -11   -1    0    0    0    0  0.00000000000E+00  0.00000000000E+00  0.45593999997E+02  0.45594000000E+02  0.51100000000E-03 0.  1.
         11   -1    0    0    0    0 -0.00000000000E+00 -0.00000000000E+00 -0.45593999997E+02  0.45594000000E+02  0.51100000000E-03 0. -1.
    9900012    2    1    2    0    0 -0.13981161426E+02  0.22301641519E+02  0.36555128107E+02  0.46142317852E+02  0.10000000827E+02 0.  0.
         12    1    1    2    0    0  0.13981161426E+02 -0.22301641519E+02 -0.36555128107E+02  0.45045682148E+02  0.00000000000E+00 0. -1.
         11    1    3    3    0    0 -0.66392707580E+01  0.49114046107E+01  0.10075986399E+02  0.13027943568E+02  0.51100000000E-03 0.  1.
        -11    1    3    3    0    0 -0.42301904231E+01  0.12762691369E+02  0.22682723030E+02  0.26368290167E+02  0.51100000000E-03 0. -1.
         12    1    3    3    0    0 -0.31117002450E+01  0.46275455386E+01  0.37964186789E+01  0.67460841169E+01  0.00000000000E+00 0. -1.
</event>
<event>
 7    1  0.1442665E-008  0.4614232E+02  0.7816164E-02  0.1320468E+00
        -11   -1    0    0    0    0  0.00000000000E+00  0.00000000000E+00  0.45593999997E+02  0.45594000000E+02  0.51100000000E-03 0.  1.
         11   -1    0    0    0    0 -0.00000000000E+00 -0.00000000000E+00 -0.45593999997E+02  0.45594000000E+02  0.51100000000E-03 0. -1.
    9900012    2    1    2    0    0 -0.83471651470E+00 -0.15175394379E+02  0.42404296351E+02  0.46142315465E+02  0.99999790583E+01 0.  0.
         12    1    1    2    0    0  0.83471651470E+00  0.15175394379E+02 -0.42404296351E+02  0.45045684535E+02  0.00000000000E+00 0. -1.
         11    1    3    3    0    0  0.10436832553E+01 -0.54131128060E+00  0.15297889491E+01  0.19293903519E+01  0.51100000000E-03 0. -1.
        -11    1    3    3    0    0 -0.73588707877E+00 -0.13303381617E+02  0.25804891298E+02  0.29041589271E+02  0.51100000000E-03 0.  1.
        -12    1    3    3    0    0 -0.11425126913E+01 -0.13307014810E+01  0.15069616104E+02  0.15171335841E+02  0.00000000000E+00 0.  1.
</event>
<event>
 7    1  0.1442665E-008  0.4614232E+02  0.7816164E-02  0.1320468E+00
        -11   -1    0    0    0    0  0.00000000000E+00  0.00000000000E+00  0.45593999997E+02  0.45594000000E+02  0.51100000000E-03 0.  1.
         11   -1    0    0    0    0 -0.00000000000E+00 -0.00000000000E+00 -0.45593999997E+02  0.45594000000E+02  0.51100000000E-03 0. -1.
    9900012    2    1    2    0    0  0.43779075184E+01 -0.73714241659E+01  0.44222273328E+02  0.46142318444E+02  0.10000006232E+02 0.  0.
         12    1    1    2    0    0 -0.43779075184E+01  0.73714241659E+01 -0.44222273328E+02  0.45045681556E+02  0.00000000000E+00 0. -1.
         11    1    3    3    0    0  0.87005079212E+00 -0.51022026159E+00  0.12112240486E+01  0.15761906779E+01  0.51100000000E-03 0. -1.
        -11    1    3    3    0    0  0.14251506458E+01 -0.85275450125E+01  0.27489071027E+02  0.28816646309E+02  0.51100000000E-03 0.  1.
        -12    1    3    3    0    0  0.20827060805E+01  0.16663411082E+01  0.15521978253E+02  0.15749481458E+02  0.00000000000E+00 0.  1.
</event>
<event>
 7    1  0.1442665E-008  0.4614232E+02  0.7816164E-02  0.1320468E+00
        -11   -1    0    0    0    0  0.00000000000E+00  0.00000000000E+00  0.45593999997E+02  0.45594000000E+02  0.51100000000E-03 0.  1.
         11   -1    0    0    0    0 -0.00000000000E+00 -0.00000000000E+00 -0.45593999997E+02  0.45594000000E+02  0.51100000000E-03 0. -1.
    9900012    2    1    2    0    0 -0.41878920373E+02  0.16585205559E+02  0.44764574284E+00  0.46142318722E+02  0.10000008764E+02 0.  0.
         12    1    1    2    0    0  0.41878920373E+02 -0.16585205559E+02 -0.44764574284E+00  0.45045681278E+02  0.00000000000E+00 0. -1.
         11    1    3    3    0    0 -0.18332477412E+02  0.39377942733E+01  0.14353545989E+01  0.18805483107E+02  0.51100000000E-03 0. -1.
        -11    1    3    3    0    0 -0.12820029368E+02  0.92247398873E+01 -0.24506362958E+01  0.15982947084E+02  0.51100000000E-03 0.  1.
        -12    1    3    3    0    0 -0.10726413594E+02  0.34226713980E+01  0.14629274398E+01  0.11353888532E+02  0.00000000000E+00 0.  1.
</event>
<event>
 7    1  0.1442665E-008  0.4614232E+02  0.7816164E-02  0.1320468E+00
        -11   -1    0    0    0    0  0.00000000000E+00  0.00000000000E+00  0.45593999997E+02  0.45594000000E+02  0.51100000000E-03 0. -1.
         11   -1    0    0    0    0 -0.00000000000E+00 -0.00000000000E+00 -0.45593999997E+02  0.45594000000E+02  0.51100000000E-03 0.  1.
    9900012    2    1    2    0    0 -0.26426127042E+02 -0.23142547778E+02 -0.28199209844E+02  0.46142321584E+02  0.10000034865E+02 0.  0.
         12    1    1    2    0    0  0.26426127042E+02  0.23142547778E+02  0.28199209844E+02  0.45045678416E+02  0.00000000000E+00 0. -1.
         11    1    3    3    0    0 -0.14922653877E+02 -0.12189759529E+02 -0.14069735838E+02  0.23858610666E+02  0.51100000000E-03 0. -1.
        -11    1    3    3    0    0 -0.81411766341E+01 -0.10238011529E+02 -0.13484370779E+02  0.18786268726E+02  0.51100000000E-03 0.  1.
        -12    1    3    3    0    0 -0.33622965306E+01 -0.71477672063E+00 -0.64510322659E+00  0.34974421929E+01  0.00000000000E+00 0.  1.
</event>
<event>
 7    1  0.1442665E-008  0.4614232E+02  0.7816164E-02  0.1320468E+00
        -11   -1    0    0    0    0  0.00000000000E+00  0.00000000000E+00  0.45593999997E+02  0.45594000000E+02  0.51100000000E-03 0.  1.
         11   -1    0    0    0    0 -0.00000000000E+00 -0.00000000000E+00 -0.45593999997E+02  0.45594000000E+02  0.51100000000E-03 0. -1.
    9900012    2    1    2    0    0  0.16720750366E+01 -0.41218859288E+02  0.18092084770E+02  0.46142315110E+02  0.99999758231E+01 0.  0.
         12    1    1    2    0    0 -0.16720750366E+01  0.41218859288E+02 -0.18092084770E+02  0.45045684890E+02  0.00000000000E+00 0. -1.
         11    1    3    3    0    0  0.88251262271E+00 -0.16189693026E+02  0.63511421123E+01  0.17413270663E+02  0.51100000000E-03 0. -1.
        -11    1    3    3    0    0  0.67993625954E+00 -0.46537510549E+01  0.58752474309E+01  0.75258384804E+01  0.51100000000E-03 0.  1.
        -12    1    3    3    0    0  0.10962615440E+00 -0.20375415207E+02  0.58656952268E+01  0.21203205966E+02  0.00000000000E+00 0.  1.
</event>
<event>
 7    1  0.1442665E-008  0.4614232E+02  0.7816164E-02  0.1320468E+00
        -11   -1    0    0    0    0  0.00000000000E+00  0.00000000000E+00  0.45593999997E+02  0.45594000000E+02  0.51100000000E-03 0. -1.
         11   -1    0    0    0    0 -0.00000000000E+00 -0.00000000000E+00 -0.45593999997E+02  0.45594000000E+02  0.51100000000E-03 0.  1.
    9900012    2    1    2    0    0 -0.30227708316E+02  0.30160211879E+02 -0.14344364400E+02  0.46142317403E+02  0.99999967332E+01 0.  0.
         12    1    1    2    0    0  0.30227708316E+02 -0.30160211879E+02  0.14344364400E+02  0.45045682597E+02  0.00000000000E+00 0. -1.
         11    1    3    3    0    0 -0.32586379517E+01  0.30801413859E+01  0.22653499856E+00  0.44896893683E+01  0.51100000000E-03 0. -1.
        -11    1    3    3    0    0 -0.75245815644E+01  0.44214950703E+01 -0.77596833670E+00  0.87619103794E+01  0.51100000000E-03 0.  1.
         12    1    3    3    0    0 -0.19444488799E+02  0.22658575423E+02 -0.13794931062E+02  0.32890717655E+02  0.00000000000E+00 0. -1.
</event>
<event>
 7    1  0.1442665E-008  0.4614232E+02  0.7816164E-02  0.1320468E+00
        -11   -1    0    0    0    0  0.00000000000E+00  0.00000000000E+00  0.45593999997E+02  0.45594000000E+02  0.51100000000E-03 0.  1.
         11   -1    0    0    0    0 -0.00000000000E+00 -0.00000000000E+00 -0.45593999997E+02  0.45594000000E+02  0.51100000000E-03 0. -1.
    9900012    2    1    2    0    0 -0.32425523967E+02  0.73400398796E+01  0.30394453175E+02  0.46142316813E+02  0.99999913550E+01 0.  0.
         12    1    1    2    0    0  0.32425523967E+02 -0.73400398796E+01 -0.30394453175E+02  0.45045683187E+02  0.00000000000E+00 0. -1.
         11    1    3    3    0    0  0.17426310743E+00 -0.55451190641E-01  0.22571307922E+01  0.22645269129E+01  0.51100000000E-03 0. -1.
        -11    1    3    3    0    0 -0.16665812422E+02  0.41484386257E+01  0.17020032841E+02  0.24179337561E+02  0.51100000000E-03 0.  1.
        -12    1    3    3    0    0 -0.15933974652E+02  0.32470524445E+01  0.11117289541E+02  0.19698452339E+02  0.00000000000E+00 0.  1.
</event>
<event>
 7    1  0.1442665E-008  0.4614231E+02  0.7816164E-02  0.1320468E+00
        -11   -1    0    0    0    0  0.00000000000E+00  0.00000000000E+00  0.45593999997E+02  0.45594000000E+02  0.51100000000E-03 0.  1.
         11   -1    0    0    0    0 -0.00000000000E+00 -0.00000000000E+00 -0.45593999997E+02  0.45594000000E+02  0.51100000000E-03 0. -1.
    9900012    2    1    2    0    0  0.13698163083E+02  0.14742883035E+02  0.40300400410E+02  0.46142306030E+02  0.99998930244E+01 0.  0.
         12    1    1    2    0    0 -0.13698163083E+02 -0.14742883035E+02 -0.40300400410E+02  0.45045693970E+02  0.00000000000E+00 0. -1.
         11    1    3    3    0    0  0.60696014397E+00 -0.87030294109E+00  0.77467350373E+00  0.13137530682E+01  0.51100000000E-03 0. -1.
        -11    1    3    3    0    0  0.23947470803E+01  0.64403903869E+01  0.15877156516E+02  0.17300217952E+02  0.51100000000E-03 0.  1.
         12    1    3    3    0    0  0.10696455859E+02  0.91727955892E+01  0.23648570391E+02  0.27528335009E+02  0.00000000000E+00 0. -1.
</event>
<event>
 7    1  0.1442665E-008  0.4614232E+02  0.7816164E-02  0.1320468E+00
        -11   -1    0    0    0    0  0.00000000000E+00  0.00000000000E+00  0.45593999997E+02  0.45594000000E+02  0.51100000000E-03 0.  1.
         11   -1    0    0    0    0 -0.00000000000E+00 -0.00000000000E+00 -0.45593999997E+02  0.45594000000E+02  0.51100000000E-03 0. -1.
    9900012    2    1    2    0    0  0.41238335253E+02  0.37598944194E-01  0.18124893474E+02  0.46142317948E+02  0.10000001703E+02 0.  0.
         12    1    1    2    0    0 -0.41238335253E+02 -0.37598944194E-01 -0.18124893474E+02  0.45045682052E+02  0.00000000000E+00 0. -1.
         11    1    3    3    0    0  0.12096695537E+02 -0.21064605190E+01  0.38197753182E+01  0.12859156371E+02  0.51100000000E-03 0. -1.
        -11    1    3    3    0    0  0.12383901806E+02  0.15900434724E+01  0.99353403357E+01  0.15956197856E+02  0.51100000000E-03 0.  1.
        -12    1    3    3    0    0  0.16757737910E+02  0.55401599077E+00  0.43697778200E+01  0.17326963720E+02  0.00000000000E+00 0.  1.
</event>
<event>
 7    1  0.1442665E-008  0.4614232E+02  0.7816164E-02  0.1320468E+00
        -11   -1    0    0    0    0  0.00000000000E+00  0.00000000000E+00  0.45593999997E+02  0.45594000000E+02  0.51100000000E-03 0.  1.
         11   -1    0    0    0    0 -0.00000000000E+00 -0.00000000000E+00 -0.45593999997E+02  0.45594000000E+02  0.51100000000E-03 0. -1.
    9900012    2    1    2    0    0 -0.24165937305E+02  0.35360654330E+02  0.13955107011E+02  0.46142318607E+02  0.10000007711E+02 0.  0.
         12    1    1    2    0    0  0.24165937305E+02 -0.35360654330E+02 -0.13955107011E+02  0.45045681393E+02  0.00000000000E+00 0. -1.
         11    1    3    3    0    0 -0.15772105208E+01  0.22662887504E+01 -0.12690973386E+01  0.30387935177E+01  0.51100000000E-03 0. -1.
        -11    1    3    3    0    0 -0.18058347059E+02  0.28941470766E+02  0.13773107229E+02  0.36788736205E+02  0.51100000000E-03 0.  1.
         12    1    3    3    0    0 -0.45303797254E+01  0.41528948135E+01  0.14510971215E+01  0.63147888836E+01  0.00000000000E+00 0. -1.
</event>
<event>
 7    1  0.1442665E-008  0.4614232E+02  0.7816164E-02  0.1320468E+00
        -11   -1    0    0    0    0  0.00000000000E+00  0.00000000000E+00  0.45593999997E+02  0.45594000000E+02  0.51100000000E-03 0.  1.
         11   -1    0    0    0    0 -0.00000000000E+00 -0.00000000000E+00 -0.45593999997E+02  0.45594000000E+02  0.51100000000E-03 0. -1.
    9900012    2    1    2    0    0 -0.48258101056E+01  0.23764360262E+01  0.44723345479E+02  0.46142317386E+02  0.99999965757E+01 0.  0.
         12    1    1    2    0    0  0.48258101056E+01 -0.23764360262E+01 -0.44723345479E+02  0.45045682614E+02  0.00000000000E+00 0. -1.
         11    1    3    3    0    0 -0.34445640505E+01  0.32549732365E+01  0.21009322293E+02  0.21537211884E+02  0.51100000000E-03 0. -1.
        -11    1    3    3    0    0  0.17940369248E+01  0.11230605707E+01  0.38868536939E+01  0.44257728627E+01  0.51100000000E-03 0.  1.
        -12    1    3    3    0    0 -0.31752829799E+01 -0.20015977810E+01  0.19827169492E+02  0.20179332639E+02  0.00000000000E+00 0.  1.
</event>
<event>
 7    1  0.1442665E-008  0.4614232E+02  0.7816164E-02  0.1320468E+00
        -11   -1    0    0    0    0  0.00000000000E+00  0.00000000000E+00  0.45593999997E+02  0.45594000000E+02  0.51100000000E-03 0. -1.
         11   -1    0    0    0    0 -0.00000000000E+00 -0.00000000000E+00 -0.45593999997E+02  0.45594000000E+02  0.51100000000E-03 0.  1.
    9900012    2    1    2    0    0  0.16860694937E+02  0.35259559122E+02 -0.22396296585E+02  0.46142316034E+02  0.99999842509E+01 0.  0.
         12    1    1    2    0    0 -0.16860694937E+02 -0.35259559122E+02  0.22396296585E+02  0.45045683966E+02  0.00000000000E+00 0. -1.
         11    1    3    3    0    0  0.10381513627E+01  0.18687003174E+01 -0.23774311620E+00  0.21508884626E+01  0.51100000000E-03 0. -1.
        -11    1    3    3    0    0  0.75693037360E+01  0.20562453517E+02 -0.17499553733E+02  0.28041812260E+02  0.51100000000E-03 0.  1.
        -12    1    3    3    0    0  0.82532398388E+01  0.12828405288E+02 -0.46589997355E+01  0.15949615312E+02  0.00000000000E+00 0.  1.
</event>
<event>
 7    1  0.1442665E-008  0.4614232E+02  0.7816164E-02  0.1320468E+00
        -11   -1    0    0    0    0  0.00000000000E+00  0.00000000000E+00  0.45593999997E+02  0.45594000000E+02  0.51100000000E-03 0.  1.
         11   -1    0    0    0    0 -0.00000000000E+00 -0.00000000000E+00 -0.45593999997E+02  0.45594000000E+02  0.51100000000E-03 0. -1.
    9900012    2    1    2    0    0 -0.93814045507E+01  0.17167926488E+02  0.40575424324E+02  0.46142317518E+02  0.99999977788E+01 0.  0.
         12    1    1    2    0    0  0.93814045507E+01 -0.17167926488E+02 -0.40575424324E+02  0.45045682482E+02  0.00000000000E+00 0. -1.
         11    1    3    3    0    0 -0.95068790102E+00  0.46719607407E+01  0.67297996646E+01  0.82474983137E+01  0.51100000000E-03 0. -1.
        -11    1    3    3    0    0 -0.95751051238E-01  0.32287147238E+01  0.14691304679E+02  0.15042213948E+02  0.51100000000E-03 0.  1.
         12    1    3    3    0    0 -0.83349655984E+01  0.92672510235E+01  0.19154319981E+02  0.22852605256E+02  0.00000000000E+00 0. -1.
</event>
<event>
 7    1  0.1442665E-008  0.4614232E+02  0.7816164E-02  0.1320468E+00
        -11   -1    0    0    0    0  0.00000000000E+00  0.00000000000E+00  0.45593999997E+02  0.45594000000E+02  0.51100000000E-03 0.  1.
         11   -1    0    0    0    0 -0.00000000000E+00 -0.00000000000E+00 -0.45593999997E+02  0.45594000000E+02  0.51100000000E-03 0. -1.
    9900012    2    1    2    0    0 -0.71132591237E+01 -0.43179096263E+01  0.44270424158E+02  0.46142320362E+02  0.10000023720E+02 0.  0.
         12    1    1    2    0    0  0.71132591237E+01  0.43179096263E+01 -0.44270424158E+02  0.45045679638E+02  0.00000000000E+00 0. -1.
         11    1    3    3    0    0 -0.23637633179E+01 -0.27771467381E+01  0.32967522474E+02  0.33168621608E+02  0.51100000000E-03 0. -1.
        -11    1    3    3    0    0 -0.13198328035E+01 -0.19881623719E+01  0.22389381574E+01  0.32722458006E+01  0.51100000000E-03 0.  1.
         12    1    3    3    0    0 -0.34296630024E+01  0.44739948374E+00  0.90639635268E+01  0.97014529542E+01  0.00000000000E+00 0. -1.
</event>
<event>
 7    1  0.1442665E-008  0.4614232E+02  0.7816164E-02  0.1320468E+00
        -11   -1    0    0    0    0  0.00000000000E+00  0.00000000000E+00  0.45593999997E+02  0.45594000000E+02  0.51100000000E-03 0.  1.
         11   -1    0    0    0    0 -0.00000000000E+00 -0.00000000000E+00 -0.45593999997E+02  0.45594000000E+02  0.51100000000E-03 0. -1.
    9900012    2    1    2    0    0  0.15814728046E+02 -0.13877842871E+02  0.39829804430E+02  0.46142318000E+02  0.10000002176E+02 0.  0.
         12    1    1    2    0    0 -0.15814728046E+02  0.13877842871E+02 -0.39829804430E+02  0.45045682000E+02  0.00000000000E+00 0. -1.
         11    1    3    3    0    0  0.42807831727E+01 -0.31659675997E+01  0.14987894310E+02  0.15905515758E+02  0.51100000000E-03 0. -1.
        -11    1    3    3    0    0  0.12389149271E+02 -0.10470724132E+02  0.24227717012E+02  0.29156634843E+02  0.51100000000E-03 0.  1.
         12    1    3    3    0    0 -0.85520439809E+00 -0.24115113875E+00  0.61419310839E+00  0.10801673984E+01  0.00000000000E+00 0. -1.
</event>
<event>
 7    1  0.1442665E-008  0.4614231E+02  0.7816164E-02  0.1320468E+00
        -11   -1    0    0    0    0  0.00000000000E+00  0.00000000000E+00  0.45593999997E+02  0.45594000000E+02  0.51100000000E-03 0. -1.
         11   -1    0    0    0    0 -0.00000000000E+00 -0.00000000000E+00 -0.45593999997E+02  0.45594000000E+02  0.51100000000E-03 0.  1.
    9900012    2    1    2    0    0 -0.46611072374E+01 -0.29599837729E+02 -0.33633878446E+02  0.46142311044E+02  0.99999387456E+01 0.  0.
         12    1    1    2    0    0  0.46611072374E+01  0.29599837729E+02  0.33633878446E+02  0.45045688956E+02  0.00000000000E+00 0. -1.
         11    1    3    3    0    0 -0.32661324145E+01 -0.21050466689E+01 -0.36070582776E+01  0.53018593065E+01  0.51100000000E-03 0. -1.
        -11    1    3    3    0    0 -0.10085319079E+01 -0.25217652232E+02 -0.28517034748E+02  0.38081076558E+02  0.51100000000E-03 0.  1.
        -12    1    3    3    0    0 -0.38644291504E+00 -0.22771388276E+01 -0.15097854201E+01  0.27593751795E+01  0.00000000000E+00 0.  1.
</event>
<event>
 7    1  0.1442665E-008  0.4614232E+02  0.7816164E-02  0.1320468E+00
        -11   -1    0    0    0    0  0.00000000000E+00  0.00000000000E+00  0.45593999997E+02  0.45594000000E+02  0.51100000000E-03 0.  1.
         11   -1    0    0    0    0 -0.00000000000E+00 -0.00000000000E+00 -0.45593999997E+02  0.45594000000E+02  0.51100000000E-03 0. -1.
    9900012    2    1    2    0    0  0.26495809365E+02  0.25683733055E+02  0.25834694981E+02  0.46142317384E+02  0.99999965640E+01 0.  0.
         12    1    1    2    0    0 -0.26495809365E+02 -0.25683733055E+02 -0.25834694981E+02  0.45045682616E+02  0.00000000000E+00 0. -1.
         11    1    3    3    0    0  0.60911619934E+01  0.10614259431E+02  0.67406385375E+01  0.13971433923E+02  0.51100000000E-03 0. -1.
        -11    1    3    3    0    0  0.18685565900E+02  0.13731466122E+02  0.15253700138E+02  0.27755700370E+02  0.51100000000E-03 0.  1.
         12    1    3    3    0    0  0.17190814719E+01  0.13380075019E+01  0.38403563054E+01  0.44151830919E+01  0.00000000000E+00 0. -1.
</event>
<event>
 7    1  0.1442665E-008  0.4614233E+02  0.7816164E-02  0.1320468E+00
        -11   -1    0    0    0    0  0.00000000000E+00  0.00000000000E+00  0.45593999997E+02  0.45594000000E+02  0.51100000000E-03 0.  1.
         11   -1    0    0    0    0 -0.00000000000E+00 -0.00000000000E+00 -0.45593999997E+02  0.45594000000E+02  0.51100000000E-03 0. -1.
    9900012    2    1    2    0    0  0.64112110597E+01 -0.42899046412E+02  0.12152397386E+02  0.46142327927E+02  0.10000092700E+02 0.  0.
         12    1    1    2    0    0 -0.64112110597E+01  0.42899046412E+02 -0.12152397386E+02  0.45045672073E+02  0.00000000000E+00 0. -1.
         11    1    3    3    0    0  0.24049298674E+01 -0.11535856829E+02 -0.86247075558E+00  0.11815394048E+02  0.51100000000E-03 0. -1.
        -11    1    3    3    0    0  0.17311204007E+01 -0.21787314837E+02  0.99839419786E+01  0.24028378292E+02  0.51100000000E-03 0.  1.
         12    1    3    3    0    0  0.22751607915E+01 -0.95758747462E+01  0.30309261635E+01  0.10298555588E+02  0.00000000000E+00 0. -1.
</event>
<event>
 7    1  0.1442665E-008  0.4614232E+02  0.7816164E-02  0.1320468E+00
        -11   -1    0    0    0    0  0.00000000000E+00  0.00000000000E+00  0.45593999997E+02  0.45594000000E+02  0.51100000000E-03 0. -1.
         11   -1    0    0    0    0 -0.00000000000E+00 -0.00000000000E+00 -0.45593999997E+02  0.45594000000E+02  0.51100000000E-03 0.  1.
    9900012    2    1    2    0    0  0.18043222874E+02 -0.40768200540E+02  0.64427875487E+01  0.46142316762E+02  0.99999908894E+01 0.  0.
         12    1    1    2    0    0 -0.18043222874E+02  0.40768200540E+02 -0.64427875487E+01  0.45045683238E+02  0.00000000000E+00 0. -1.
         11    1    3    3    0    0  0.28737195390E+01 -0.43055214650E+01 -0.12851485575E+01  0.53336091111E+01  0.51100000000E-03 0. -1.
        -11    1    3    3    0    0  0.13953469700E+02 -0.36119091436E+02  0.79428670406E+01  0.39526917663E+02  0.51100000000E-03 0.  1.
        -12    1    3    3    0    0  0.12160336348E+01 -0.34358763930E+00 -0.21493093441E+00  0.12817899880E+01  0.00000000000E+00 0.  1.
</event>
<event>
 7    1  0.1442665E-008  0.4614232E+02  0.7816164E-02  0.1320468E+00
        -11   -1    0    0    0    0  0.00000000000E+00  0.00000000000E+00  0.45593999997E+02  0.45594000000E+02  0.51100000000E-03 0.  1.
         11   -1    0    0    0    0 -0.00000000000E+00 -0.00000000000E+00 -0.45593999997E+02  0.45594000000E+02  0.51100000000E-03 0. -1.
    9900012    2    1    2    0    0 -0.66973476275E+00 -0.29398948040E+02  0.34122819687E+02  0.46142317477E+02  0.99999974122E+01 0.  0.
         12    1    1    2    0    0  0.66973476275E+00  0.29398948040E+02 -0.34122819687E+02  0.45045682523E+02  0.00000000000E+00 0. -1.
         11    1    3    3    0    0 -0.20462294559E+01 -0.60769364860E+01  0.57762709555E+01  0.86302675772E+01  0.51100000000E-03 0. -1.
        -11    1    3    3    0    0  0.16398144908E+01 -0.23882819421E+02  0.27790570026E+02  0.36679610653E+02  0.51100000000E-03 0.  1.
        -12    1    3    3    0    0 -0.26331979764E+00  0.56080786628E+00  0.55597870609E+00  0.83243924723E+00  0.00000000000E+00 0.  1.
</event>
<event>
 7    1  0.1442665E-008  0.4614232E+02  0.7816164E-02  0.1320468E+00
        -11   -1    0    0    0    0  0.00000000000E+00  0.00000000000E+00  0.45593999997E+02  0.45594000000E+02  0.51100000000E-03 0. -1.
         11   -1    0    0    0    0 -0.00000000000E+00 -0.00000000000E+00 -0.45593999997E+02  0.45594000000E+02  0.51100000000E-03 0.  1.
    9900012    2    1    2    0    0 -0.36501936591E+02  0.25168428820E+02 -0.79543885735E+01  0.46142317835E+02  0.10000000675E+02 0.  0.
         12    1    1    2    0    0  0.36501936591E+02 -0.25168428820E+02  0.79543885735E+01  0.45045682165E+02  0.00000000000E+00 0. -1.
         11    1    3    3    0    0 -0.57356988049E+01  0.15818180658E+01  0.10415894984E+01  0.60403061279E+01  0.51100000000E-03 0. -1.
        -11    1    3    3    0    0 -0.22783104330E+02  0.19555537382E+02 -0.81948225105E+01  0.31123046147E+02  0.51100000000E-03 0.  1.
         12    1    3    3    0    0 -0.79831334560E+01  0.40310733715E+01 -0.80115556145E+00  0.89789655605E+01  0.00000000000E+00 0. -1.
</event>
<event>
 7    1  0.1442665E-008  0.4614232E+02  0.7816164E-02  0.1320468E+00
        -11   -1    0    0    0    0  0.00000000000E+00  0.00000000000E+00  0.45593999997E+02  0.45594000000E+02  0.51100000000E-03 0.  1.
         11   -1    0    0    0    0 -0.00000000000E+00 -0.00000000000E+00 -0.45593999997E+02  0.45594000000E+02  0.51100000000E-03 0. -1.
    9900012    2    1    2    0    0 -0.20260571105E+02 -0.10639950414E+02  0.38799667400E+02  0.46142317891E+02  0.10000001183E+02 0.  0.
         12    1    1    2    0    0  0.20260571105E+02  0.10639950414E+02 -0.38799667400E+02  0.45045682109E+02  0.00000000000E+00 0. -1.
         11    1    3    3    0    0 -0.70443231787E+01 -0.90357658784E+01  0.17344576236E+02  0.20787060377E+02  0.51100000000E-03 0. -1.
        -11    1    3    3    0    0 -0.12532137173E+02 -0.19576723916E+01  0.20697950990E+02  0.24275339725E+02  0.51100000000E-03 0.  1.
         12    1    3    3    0    0 -0.68411075355E+00  0.35348785579E+00  0.75714017416E+00  0.10799177888E+01  0.00000000000E+00 0. -1.
</event>
<event>
 7    1  0.2147642E-008  0.4614232E+02  0.7816164E-02  0.1320468E+00
        -11   -1    0    0    0    0  0.00000000000E+00  0.00000000000E+00  0.45593999997E+02  0.45594000000E+02  0.51100000000E-03 0.  1.
         11   -1    0    0    0    0 -0.00000000000E+00 -0.00000000000E+00 -0.45593999997E+02  0.45594000000E+02  0.51100000000E-03 0. -1.
    9900012    2    1    2    0    0  0.44921046629E+02  0.30480871578E+01  0.13864396954E+01  0.46142317847E+02  0.10000000783E+02 0.  0.
         12    1    1    2    0    0 -0.44921046629E+02 -0.30480871578E+01 -0.13864396954E+01  0.45045682153E+02  0.00000000000E+00 0. -1.
         11    1    3    3    0    0  0.90599061938E+00 -0.98081520637E+00  0.26845014819E+00  0.13619409733E+01  0.51100000000E-03 0. -1.
        -11    1    3    3    0    0  0.34050670242E+02  0.32745628841E+01 -0.21269585682E+01  0.34273821774E+02  0.51100000000E-03 0.  1.
        -12    1    3    3    0    0  0.99643857679E+01  0.75433948012E+00  0.32449481155E+01  0.10506555099E+02  0.00000000000E+00 0.  1.
</event>
<event>
 7    1  0.1442665E-008  0.4614232E+02  0.7816164E-02  0.1320468E+00
        -11   -1    0    0    0    0  0.00000000000E+00  0.00000000000E+00  0.45593999997E+02  0.45594000000E+02  0.51100000000E-03 0.  1.
         11   -1    0    0    0    0 -0.00000000000E+00 -0.00000000000E+00 -0.45593999997E+02  0.45594000000E+02  0.51100000000E-03 0. -1.
    9900012    2    1    2    0    0 -0.14528664497E+02  0.25354954912E+02  0.34280572071E+02  0.46142318163E+02  0.10000003664E+02 0.  0.
         12    1    1    2    0    0  0.14528664497E+02 -0.25354954912E+02 -0.34280572071E+02  0.45045681837E+02  0.00000000000E+00 0. -1.
         11    1    3    3    0    0 -0.19460452660E+01 -0.19651010366E-01  0.27927517906E+01  0.34039596303E+01  0.51100000000E-03 0. -1.
        -11    1    3    3    0    0 -0.92253432760E+01  0.15390511945E+02  0.16210635048E+02  0.24181801121E+02  0.51100000000E-03 0.  1.
         12    1    3    3    0    0 -0.33572759554E+01  0.99840939770E+01  0.15277185232E+02  0.18556557412E+02  0.00000000000E+00 0. -1.
</event>
<event>
 7    1  0.1442665E-008  0.4614232E+02  0.7816164E-02  0.1320468E+00
        -11   -1    0    0    0    0  0.00000000000E+00  0.00000000000E+00  0.45593999997E+02  0.45594000000E+02  0.51100000000E-03 0.  1.
         11   -1    0    0    0    0 -0.00000000000E+00 -0.00000000000E+00 -0.45593999997E+02  0.45594000000E+02  0.51100000000E-03 0. -1.
    9900012    2    1    2    0    0  0.72695107119E+01  0.20957832188E+02  0.39205062909E+02  0.46142317924E+02  0.10000001485E+02 0.  0.
         12    1    1    2    0    0 -0.72695107119E+01 -0.20957832188E+02 -0.39205062909E+02  0.45045682076E+02  0.00000000000E+00 0. -1.
         11    1    3    3    0    0  0.13710491202E+01  0.48484197565E+01  0.34529747860E+01  0.61081899904E+01  0.51100000000E-03 0. -1.
        -11    1    3    3    0    0  0.69215266586E+00  0.71465702527E+01  0.19264751524E+02  0.20559260523E+02  0.51100000000E-03 0.  1.
         12    1    3    3    0    0  0.52063089258E+01  0.89628421791E+01  0.16487336598E+02  0.19474867411E+02  0.00000000000E+00 0. -1.
</event>
<event>
 7    1  0.1442665E-008  0.4614232E+02  0.7816164E-02  0.1320468E+00
        -11   -1    0    0    0    0  0.00000000000E+00  0.00000000000E+00  0.45593999997E+02  0.45594000000E+02  0.51100000000E-03 0.  1.
         11   -1    0    0    0    0 -0.00000000000E+00 -0.00000000000E+00 -0.45593999997E+02  0.45594000000E+02  0.51100000000E-03 0. -1.
    9900012    2    1    2    0    0 -0.27153923455E+02 -0.99540357547E+01  0.34535417385E+02  0.46142318290E+02  0.10000004819E+02 0.  0.
         12    1    1    2    0    0  0.27153923455E+02  0.99540357547E+01 -0.34535417385E+02  0.45045681710E+02  0.00000000000E+00 0. -1.
         11    1    3    3    0    0 -0.87366573380E+01 -0.34708761497E+00  0.87925811999E+01  0.12399965148E+02  0.51100000000E-03 0. -1.
        -11    1    3    3    0    0 -0.28136444147E+01 -0.42351596735E+01  0.82731642277E+01  0.97107373022E+01  0.51100000000E-03 0.  1.
        -12    1    3    3    0    0 -0.15603621702E+02 -0.53717884663E+01  0.17469671957E+02  0.24031615839E+02  0.00000000000E+00 0.  1.
</event>
<event>
 7    1  0.1442665E-008  0.4614232E+02  0.7816164E-02  0.1320468E+00
        -11   -1    0    0    0    0  0.00000000000E+00  0.00000000000E+00  0.45593999997E+02  0.45594000000E+02  0.51100000000E-03 0.  1.
         11   -1    0    0    0    0 -0.00000000000E+00 -0.00000000000E+00 -0.45593999997E+02  0.45594000000E+02  0.51100000000E-03 0. -1.
    9900012    2    1    2    0    0 -0.23660464114E+02 -0.16872943261E+02  0.34418016646E+02  0.46142316009E+02  0.99999840215E+01 0.  0.
         12    1    1    2    0    0  0.23660464114E+02  0.16872943261E+02 -0.34418016646E+02  0.45045683991E+02  0.00000000000E+00 0. -1.
         11    1    3    3    0    0 -0.46763018837E+01 -0.13406935972E+01  0.10134066463E+02  0.11241199312E+02  0.51100000000E-03 0. -1.
        -11    1    3    3    0    0 -0.98555115429E+01 -0.86456255178E+01  0.94007656444E+01  0.16132338433E+02  0.51100000000E-03 0.  1.
         12    1    3    3    0    0 -0.91286506873E+01 -0.68866241464E+01  0.14883184539E+02  0.18768778264E+02  0.00000000000E+00 0. -1.
</event>
<event>
 7    1  0.1442665E-008  0.4614232E+02  0.7816164E-02  0.1320468E+00
        -11   -1    0    0    0    0  0.00000000000E+00  0.00000000000E+00  0.45593999997E+02  0.45594000000E+02  0.51100000000E-03 0.  1.
         11   -1    0    0    0    0 -0.00000000000E+00 -0.00000000000E+00 -0.45593999997E+02  0.45594000000E+02  0.51100000000E-03 0. -1.
    9900012    2    1    2    0    0  0.31952717270E+01  0.18559964530E+02  0.40919818165E+02  0.46142316928E+02  0.99999924022E+01 0.  0.
         12    1    1    2    0    0 -0.31952717270E+01 -0.18559964530E+02 -0.40919818165E+02  0.45045683072E+02  0.00000000000E+00 0. -1.
         11    1    3    3    0    0  0.86233816863E+00  0.49913976252E+01  0.37786622305E+01  0.63194909513E+01  0.51100000000E-03 0. -1.
        -11    1    3    3    0    0  0.35183571735E+01  0.99347182134E+01  0.26799959780E+02  0.28797835121E+02  0.51100000000E-03 0.  1.
         12    1    3    3    0    0 -0.11854236151E+01  0.36338486909E+01  0.10341196155E+02  0.11024990855E+02  0.00000000000E+00 0. -1.
</event>
<event>
 7    1  0.1442665E-008  0.4614232E+02  0.7816164E-02  0.1320468E+00
        -11   -1    0    0    0    0  0.00000000000E+00  0.00000000000E+00  0.45593999997E+02  0.45594000000E+02  0.51100000000E-03 0.  1.
         11   -1    0    0    0    0 -0.00000000000E+00 -0.00000000000E+00 -0.45593999997E+02  0.45594000000E+02  0.51100000000E-03 0. -1.
    9900012    2    1    2    0    0 -0.42465495381E+02  0.18025601234E+01  0.14917975075E+02  0.46142317618E+02  0.99999986928E+01 0.  0.
         12    1    1    2    0    0  0.42465495381E+02 -0.18025601234E+01 -0.14917975075E+02  0.45045682382E+02  0.00000000000E+00 0. -1.
         11    1    3    3    0    0 -0.21764743574E+02 -0.14518666760E+01  0.40485388665E+01  0.22185640556E+02  0.51100000000E-03 0. -1.
        -11    1    3    3    0    0 -0.19106201752E+02  0.37819541805E+01  0.10810872585E+02  0.22276110278E+02  0.51100000000E-03 0.  1.
        -12    1    3    3    0    0 -0.15945500548E+01 -0.52752738108E+00  0.58563623776E-01  0.16805667833E+01  0.00000000000E+00 0.  1.
</event>
<event>
 7    1  0.1442665E-008  0.4614232E+02  0.7816164E-02  0.1320468E+00
        -11   -1    0    0    0    0  0.00000000000E+00  0.00000000000E+00  0.45593999997E+02  0.45594000000E+02  0.51100000000E-03 0.  1.
         11   -1    0    0    0    0 -0.00000000000E+00 -0.00000000000E+00 -0.45593999997E+02  0.45594000000E+02  0.51100000000E-03 0. -1.
    9900012    2    1    2    0    0  0.35841182911E+02  0.24422178041E+02  0.12168822956E+02  0.46142318466E+02  0.10000006424E+02 0.  0.
         12    1    1    2    0    0 -0.35841182911E+02 -0.24422178041E+02 -0.12168822956E+02  0.45045681534E+02  0.00000000000E+00 0. -1.
         11    1    3    3    0    0  0.18039757945E+02  0.12001772952E+02  0.10058250294E+02  0.23888152292E+02  0.51100000000E-03 0. -1.
        -11    1    3    3    0    0  0.70565088530E+01  0.76081577281E+01  0.78519952896E+00  0.10406484506E+02  0.51100000000E-03 0.  1.
         12    1    3    3    0    0  0.10744916114E+02  0.48122473610E+01  0.13253731330E+01  0.11847681668E+02  0.00000000000E+00 0. -1.
</event>
<event>
 7    1  0.1442665E-008  0.4614232E+02  0.7816164E-02  0.1320468E+00
        -11   -1    0    0    0    0  0.00000000000E+00  0.00000000000E+00  0.45593999997E+02  0.45594000000E+02  0.51100000000E-03 0.  1.
         11   -1    0    0    0    0 -0.00000000000E+00 -0.00000000000E+00 -0.45593999997E+02  0.45594000000E+02  0.51100000000E-03 0. -1.
    9900012    2    1    2    0    0 -0.44375804492E+02  0.24442936889E+01  0.73434905779E+01  0.46142318189E+02  0.10000003904E+02 0.  0.
         12    1    1    2    0    0  0.44375804492E+02 -0.24442936889E+01 -0.73434905779E+01  0.45045681811E+02  0.00000000000E+00 0. -1.
         11    1    3    3    0    0 -0.68030589481E+01  0.21344232975E+01 -0.14188737288E+01  0.72698402172E+01  0.51100000000E-03 0. -1.
        -11    1    3    3    0    0 -0.49912079823E+01  0.13408942543E+01  0.22188517598E+01  0.56243628899E+01  0.51100000000E-03 0.  1.
         12    1    3    3    0    0 -0.32581537561E+02 -0.10310238629E+01  0.65435125469E+01  0.33248115082E+02  0.00000000000E+00 0. -1.
</event>
<event>
 7    1  0.1442665E-008  0.4614232E+02  0.7816164E-02  0.1320468E+00
        -11   -1    0    0    0    0  0.00000000000E+00  0.00000000000E+00  0.45593999997E+02  0.45594000000E+02  0.51100000000E-03 0.  1.
         11   -1    0    0    0    0 -0.00000000000E+00 -0.00000000000E+00 -0.45593999997E+02  0.45594000000E+02  0.51100000000E-03 0. -1.
    9900012    2    1    2    0    0 -0.46269239611E+01 -0.36962019574E+02  0.25328129433E+02  0.46142318111E+02  0.10000003188E+02 0.  0.
         12    1    1    2    0    0  0.46269239611E+01  0.36962019574E+02 -0.25328129433E+02  0.45045681889E+02  0.00000000000E+00 0. -1.
         11    1    3    3    0    0 -0.73824346550E+01 -0.22037775617E+02  0.14652129674E+02  0.27474511821E+02  0.51100000000E-03 0. -1.
        -11    1    3    3    0    0  0.22136833362E+01 -0.65551738760E+01  0.45214813461E+01  0.82652581497E+01  0.51100000000E-03 0.  1.
        -12    1    3    3    0    0  0.54182735779E+00 -0.83690700806E+01  0.61545184130E+01  0.10402548140E+02  0.00000000000E+00 0.  1.
</event>
<event>
 7    1  0.1442665E-008  0.4614232E+02  0.7816164E-02  0.1320468E+00
        -11   -1    0    0    0    0  0.00000000000E+00  0.00000000000E+00  0.45593999997E+02  0.45594000000E+02  0.51100000000E-03 0.  1.
         11   -1    0    0    0    0 -0.00000000000E+00 -0.00000000000E+00 -0.45593999997E+02  0.45594000000E+02  0.51100000000E-03 0. -1.
    9900012    2    1    2    0    0  0.35792657910E+02 -0.25344458360E+02 -0.10278992290E+02  0.46142316385E+02  0.99999874540E+01 0.  0.
         12    1    1    2    0    0 -0.35792657910E+02  0.25344458360E+02  0.10278992290E+02  0.45045683615E+02  0.00000000000E+00 0. -1.
         11    1    3    3    0    0  0.41884515305E+01 -0.10259787594E+01 -0.13565643795E+01  0.45206222818E+01  0.51100000000E-03 0. -1.
        -11    1    3    3    0    0  0.10607514093E+02 -0.13066840602E+02 -0.34765031792E+01  0.17185684541E+02  0.51100000000E-03 0.  1.
        -12    1    3    3    0    0  0.20996692287E+02 -0.11251638999E+02 -0.54459247310E+01  0.24436009562E+02  0.00000000000E+00 0.  1.
</event>
<event>
 7    1  0.1442665E-008  0.4614232E+02  0.7816164E-02  0.1320468E+00
        -11   -1    0    0    0    0  0.00000000000E+00  0.00000000000E+00  0.45593999997E+02  0.45594000000E+02  0.51100000000E-03 0.  1.
         11   -1    0    0    0    0 -0.00000000000E+00 -0.00000000000E+00 -0.45593999997E+02  0.45594000000E+02  0.51100000000E-03 0. -1.
    9900012    2    1    2    0    0  0.80736951944E+01 -0.23062362527E+01  0.44256188708E+02  0.46142317424E+02  0.99999969277E+01 0.  0.
         12    1    1    2    0    0 -0.80736951944E+01  0.23062362527E+01 -0.44256188708E+02  0.45045682576E+02  0.00000000000E+00 0. -1.
         11    1    3    3    0    0  0.74744942917E+01 -0.30386157044E+01  0.17318368974E+02  0.19105683827E+02  0.51100000000E-03 0. -1.
        -11    1    3    3    0    0 -0.68864112942E-01 -0.69916515086E+00  0.65022987425E+01  0.65401424581E+01  0.51100000000E-03 0.  1.
         12    1    3    3    0    0  0.66806501564E+00  0.14315446026E+01  0.20435520992E+02  0.20496491139E+02  0.00000000000E+00 0. -1.
</event>
<event>
 7    1  0.1442665E-008  0.4614232E+02  0.7816164E-02  0.1320468E+00
        -11   -1    0    0    0    0  0.00000000000E+00  0.00000000000E+00  0.45593999997E+02  0.45594000000E+02  0.51100000000E-03 0. -1.
         11   -1    0    0    0    0 -0.00000000000E+00 -0.00000000000E+00 -0.45593999997E+02  0.45594000000E+02  0.51100000000E-03 0.  1.
    9900012    2    1    2    0    0 -0.43016769875E+02 -0.10175537407E+02 -0.86677203311E+01  0.46142318434E+02  0.10000006133E+02 0.  0.
         12    1    1    2    0    0  0.43016769875E+02  0.10175537407E+02  0.86677203311E+01  0.45045681566E+02  0.00000000000E+00 0. -1.
         11    1    3    3    0    0 -0.16525645424E+02 -0.57163852506E+01 -0.73815298497E+01  0.18980542674E+02  0.51100000000E-03 0. -1.
        -11    1    3    3    0    0 -0.20482197635E+02 -0.18532511537E+01 -0.13717541308E+01  0.20611566400E+02  0.51100000000E-03 0.  1.
         12    1    3    3    0    0 -0.60089268157E+01 -0.26059010031E+01  0.85563649363E-01  0.65502093594E+01  0.00000000000E+00 0. -1.
</event>
<event>
 7    1  0.1442665E-008  0.4614232E+02  0.7816164E-02  0.1320468E+00
        -11   -1    0    0    0    0  0.00000000000E+00  0.00000000000E+00  0.45593999997E+02  0.45594000000E+02  0.51100000000E-03 0.  1.
         11   -1    0    0    0    0 -0.00000000000E+00 -0.00000000000E+00 -0.45593999997E+02  0.45594000000E+02  0.51100000000E-03 0. -1.
    9900012    2    1    2    0    0 -0.24839794610E+02  0.35423272565E+02  0.12541512389E+02  0.46142321312E+02  0.10000032376E+02 0.  0.
         12    1    1    2    0    0  0.24839794610E+02 -0.35423272565E+02 -0.12541512389E+02  0.45045678688E+02  0.00000000000E+00 0. -1.
         11    1    3    3    0    0 -0.63612645287E+01  0.11833522674E+02  0.10326135890E+01  0.13474577409E+02  0.51100000000E-03 0. -1.
        -11    1    3    3    0    0 -0.51702751178E+01  0.10793387584E+02  0.29949449854E+01  0.12336881942E+02  0.51100000000E-03 0.  1.
         12    1    3    3    0    0 -0.13308254964E+02  0.12796362308E+02  0.85139538142E+01  0.20330861960E+02  0.00000000000E+00 0. -1.
</event>
<event>
 7    1  0.1442665E-008  0.4614232E+02  0.7816164E-02  0.1320468E+00
        -11   -1    0    0    0    0  0.00000000000E+00  0.00000000000E+00  0.45593999997E+02  0.45594000000E+02  0.51100000000E-03 0.  1.
         11   -1    0    0    0    0 -0.00000000000E+00 -0.00000000000E+00 -0.45593999997E+02  0.45594000000E+02  0.51100000000E-03 0. -1.
    9900012    2    1    2    0    0  0.19148974410E+01  0.23158132723E+02  0.38589474901E+02  0.46142317448E+02  0.99999971432E+01 0.  0.
         12    1    1    2    0    0 -0.19148974410E+01 -0.23158132723E+02 -0.38589474901E+02  0.45045682552E+02  0.00000000000E+00 0. -1.
         11    1    3    3    0    0  0.44528193199E+01  0.14920701073E+02  0.24793176877E+02  0.29277235872E+02  0.51100000000E-03 0. -1.
        -11    1    3    3    0    0 -0.30059132111E+01  0.71174433373E+01  0.13591613246E+02  0.15634112216E+02  0.51100000000E-03 0.  1.
         12    1    3    3    0    0  0.46799133222E+00  0.11199883122E+01  0.20468477927E+00  0.12309693601E+01  0.00000000000E+00 0. -1.
</event>
<event>
 7    1  0.1442665E-008  0.4614232E+02  0.7816164E-02  0.1320468E+00
        -11   -1    0    0    0    0  0.00000000000E+00  0.00000000000E+00  0.45593999997E+02  0.45594000000E+02  0.51100000000E-03 0. -1.
         11   -1    0    0    0    0 -0.00000000000E+00 -0.00000000000E+00 -0.45593999997E+02  0.45594000000E+02  0.51100000000E-03 0.  1.
    9900012    2    1    2    0    0  0.27041425364E+02  0.34982213592E+02  0.86092711526E+01  0.46142317596E+02  0.99999984931E+01 0.  0.
         12    1    1    2    0    0 -0.27041425364E+02 -0.34982213592E+02 -0.86092711526E+01  0.45045682404E+02  0.00000000000E+00 0. -1.
         11    1    3    3    0    0  0.11089061005E+02  0.19378340766E+02  0.51021372666E+01  0.22902383495E+02  0.51100000000E-03 0. -1.
        -11    1    3    3    0    0  0.98863681649E+01  0.66832565378E+01  0.35566826249E+01  0.12452155837E+02  0.51100000000E-03 0.  1.
        -12    1    3    3    0    0  0.60659961943E+01  0.89206162876E+01 -0.49548738855E-01  0.10787778263E+02  0.00000000000E+00 0.  1.
</event>
<event>
 7    1  0.1442665E-008  0.4614232E+02  0.7816164E-02  0.1320468E+00
        -11   -1    0    0    0    0  0.00000000000E+00  0.00000000000E+00  0.45593999997E+02  0.45594000000E+02  0.51100000000E-03 0.  1.
         11   -1    0    0    0    0 -0.00000000000E+00 -0.00000000000E+00 -0.45593999997E+02  0.45594000000E+02  0.51100000000E-03 0. -1.
    9900012    2    1    2    0    0 -0.54956841099E+01  0.63061087921E+01  0.44262217914E+02  0.46142317781E+02  0.10000000181E+02 0.  0.
         12    1    1    2    0    0  0.54956841099E+01 -0.63061087921E+01 -0.44262217914E+02  0.45045682219E+02  0.00000000000E+00 0. -1.
         11    1    3    3    0    0  0.14476603392E+01  0.48008527020E+01  0.16190395938E+02  0.16949124697E+02  0.51100000000E-03 0. -1.
        -11    1    3    3    0    0 -0.56571798447E+01  0.67477304144E+00  0.15235599748E+02  0.16265992205E+02  0.51100000000E-03 0.  1.
        -12    1    3    3    0    0 -0.12861646044E+01  0.83048304862E+00  0.12836222228E+02  0.12927200879E+02  0.00000000000E+00 0.  1.
</event>
<event>
 7    1  0.1442665E-008  0.4614232E+02  0.7816164E-02  0.1320468E+00
        -11   -1    0    0    0    0  0.00000000000E+00  0.00000000000E+00  0.45593999997E+02  0.45594000000E+02  0.51100000000E-03 0.  1.
         11   -1    0    0    0    0 -0.00000000000E+00 -0.00000000000E+00 -0.45593999997E+02  0.45594000000E+02  0.51100000000E-03 0. -1.
    9900012    2    1    2    0    0 -0.67349557306E+01  0.16785078785E+02  0.41255484188E+02  0.46142317919E+02  0.10000001444E+02 0.  0.
         12    1    1    2    0    0  0.67349557306E+01 -0.16785078785E+02 -0.41255484188E+02  0.45045682081E+02  0.00000000000E+00 0. -1.
         11    1    3    3    0    0  0.53910765539E+00  0.41474300984E+00  0.56089210446E+00  0.88161728787E+00  0.51100000000E-03 0. -1.
        -11    1    3    3    0    0 -0.45499308759E+01  0.13544365711E+02  0.37720826686E+02  0.40336242755E+02  0.51100000000E-03 0.  1.
        -12    1    3    3    0    0 -0.27241325100E+01  0.28259700640E+01  0.29737653979E+01  0.49244578764E+01  0.00000000000E+00 0.  1.
</event>
<event>
 7    1  0.1442665E-008  0.4614232E+02  0.7816164E-02  0.1320468E+00
        -11   -1    0    0    0    0  0.00000000000E+00  0.00000000000E+00  0.45593999997E+02  0.45594000000E+02  0.51100000000E-03 0.  1.
         11   -1    0    0    0    0 -0.00000000000E+00 -0.00000000000E+00 -0.45593999997E+02  0.45594000000E+02  0.51100000000E-03 0. -1.
    9900012    2    1    2    0    0  0.27015577083E+02  0.45647509535E+01  0.35755210512E+02  0.46142318351E+02  0.10000005381E+02 0.  0.
         12    1    1    2    0    0 -0.27015577083E+02 -0.45647509535E+01 -0.35755210512E+02  0.45045681649E+02  0.00000000000E+00 0. -1.
         11    1    3    3    0    0  0.31685579854E+01  0.23021057945E+01  0.88954702292E+01  0.97195083031E+01  0.51100000000E-03 0. -1.
        -11    1    3    3    0    0  0.21973557903E+02  0.34329771502E+01  0.25468527308E+02  0.33812253142E+02  0.51100000000E-03 0.  1.
         12    1    3    3    0    0  0.18734611950E+01 -0.11703319912E+01  0.13912129756E+01  0.26105569065E+01  0.00000000000E+00 0. -1.
</event>
<event>
 7    1  0.1442665E-008  0.4614232E+02  0.7816164E-02  0.1320468E+00
        -11   -1    0    0    0    0  0.00000000000E+00  0.00000000000E+00  0.45593999997E+02  0.45594000000E+02  0.51100000000E-03 0.  1.
         11   -1    0    0    0    0 -0.00000000000E+00 -0.00000000000E+00 -0.45593999997E+02  0.45594000000E+02  0.51100000000E-03 0. -1.
    9900012    2    1    2    0    0 -0.29426409673E+02 -0.25993115594E+02  0.22080709541E+02  0.46142318982E+02  0.10000011133E+02 0.  0.
         12    1    1    2    0    0  0.29426409673E+02  0.25993115594E+02 -0.22080709541E+02  0.45045681018E+02  0.00000000000E+00 0. -1.
         11    1    3    3    0    0 -0.75922994375E+01 -0.12092745433E+02  0.59354639765E+01  0.15463092696E+02  0.51100000000E-03 0.  1.
        -11    1    3    3    0    0 -0.10906232532E+01 -0.16961597478E+01  0.13830624238E+01  0.24452564078E+01  0.51100000000E-03 0. -1.
         12    1    3    3    0    0 -0.20743486982E+02 -0.12204210414E+02  0.14762183140E+02  0.28233969878E+02  0.00000000000E+00 0. -1.
</event>
<event>
 7    1  0.1442665E-008  0.4614232E+02  0.7816164E-02  0.1320468E+00
        -11   -1    0    0    0    0  0.00000000000E+00  0.00000000000E+00  0.45593999997E+02  0.45594000000E+02  0.51100000000E-03 0.  1.
         11   -1    0    0    0    0 -0.00000000000E+00 -0.00000000000E+00 -0.45593999997E+02  0.45594000000E+02  0.51100000000E-03 0. -1.
    9900012    2    1    2    0    0 -0.13784767018E+02  0.38286753310E+02  0.19318850822E+02  0.46142320098E+02  0.10000021309E+02 0.  0.
         12    1    1    2    0    0  0.13784767018E+02 -0.38286753310E+02 -0.19318850822E+02  0.45045679902E+02  0.00000000000E+00 0. -1.
         11    1    3    3    0    0 -0.75542485748E+01  0.31412847072E+02  0.12751715259E+02  0.34733843367E+02  0.51100000000E-03 0. -1.
        -11    1    3    3    0    0 -0.48389832681E+01  0.48809748869E+01  0.52099862303E+01  0.86245945815E+01  0.51100000000E-03 0.  1.
         12    1    3    3    0    0 -0.13915351747E+01  0.19929313512E+01  0.13571493324E+01  0.27838821498E+01  0.00000000000E+00 0. -1.
</event>
<event>
 7    1  0.1442665E-008  0.4614232E+02  0.7816164E-02  0.1320468E+00
        -11   -1    0    0    0    0  0.00000000000E+00  0.00000000000E+00  0.45593999997E+02  0.45594000000E+02  0.51100000000E-03 0.  1.
         11   -1    0    0    0    0 -0.00000000000E+00 -0.00000000000E+00 -0.45593999997E+02  0.45594000000E+02  0.51100000000E-03 0. -1.
    9900012    2    1    2    0    0 -0.31566321414E+01  0.11266909820E+02  0.43499492270E+02  0.46142318619E+02  0.10000007819E+02 0.  0.
         12    1    1    2    0    0  0.31566321414E+01 -0.11266909820E+02 -0.43499492270E+02  0.45045681381E+02  0.00000000000E+00 0. -1.
         11    1    3    3    0    0  0.23437962493E+01  0.58799891812E+00  0.34908298306E+01  0.42455879161E+01  0.51100000000E-03 0. -1.
        -11    1    3    3    0    0 -0.57870805662E+01  0.10453011910E+02  0.39521189964E+02  0.41287773201E+02  0.51100000000E-03 0.  1.
        -12    1    3    3    0    0  0.28665217549E+00  0.22589899199E+00  0.48747247576E+00  0.60895750174E+00  0.00000000000E+00 0.  1.
</event>
<event>
 7    1  0.1442665E-008  0.4614231E+02  0.7816164E-02  0.1320468E+00
        -11   -1    0    0    0    0  0.00000000000E+00  0.00000000000E+00  0.45593999997E+02  0.45594000000E+02  0.51100000000E-03 0.  1.
         11   -1    0    0    0    0 -0.00000000000E+00 -0.00000000000E+00 -0.45593999997E+02  0.45594000000E+02  0.51100000000E-03 0. -1.
    9900012    2    1    2    0    0  0.15054195674E+02 -0.73847967556E+01  0.41808491379E+02  0.46142312283E+02  0.99999500486E+01 0.  0.
         12    1    1    2    0    0 -0.15054195674E+02  0.73847967556E+01 -0.41808491379E+02  0.45045687717E+02  0.00000000000E+00 0. -1.
         11    1    3    3    0    0  0.27520791987E+00  0.91051973957E+00  0.38206042879E+01  0.39372329092E+01  0.51100000000E-03 0. -1.
        -11    1    3    3    0    0  0.44455206001E+01  0.83279720659E+00  0.77751263619E+01  0.89949316172E+01  0.51100000000E-03 0.  1.
        -12    1    3    3    0    0  0.10333467154E+02 -0.91281137018E+01  0.30212760729E+02  0.33210147757E+02  0.00000000000E+00 0.  1.
</event>
<event>
 7    1  0.1442665E-008  0.4614232E+02  0.7816164E-02  0.1320468E+00
        -11   -1    0    0    0    0  0.00000000000E+00  0.00000000000E+00  0.45593999997E+02  0.45594000000E+02  0.51100000000E-03 0.  1.
         11   -1    0    0    0    0 -0.00000000000E+00 -0.00000000000E+00 -0.45593999997E+02  0.45594000000E+02  0.51100000000E-03 0. -1.
    9900012    2    1    2    0    0 -0.10596943162E+02 -0.98672890967E+01  0.42655064328E+02  0.46142321946E+02  0.10000038162E+02 0.  0.
         12    1    1    2    0    0  0.10596943162E+02  0.98672890967E+01 -0.42655064328E+02  0.45045678054E+02  0.00000000000E+00 0. -1.
         11    1    3    3    0    0 -0.41378828973E+01 -0.21608214288E+01  0.16819650830E+02  0.17455425473E+02  0.51100000000E-03 0. -1.
        -11    1    3    3    0    0 -0.73615921393E+01 -0.67133619133E+01  0.25387018320E+02  0.27272018012E+02  0.51100000000E-03 0.  1.
         12    1    3    3    0    0  0.90253187453E+00 -0.99310575468E+00  0.44839517753E+00  0.14148784611E+01  0.00000000000E+00 0. -1.
</event>
<event>
 7    1  0.1442665E-008  0.4614232E+02  0.7816164E-02  0.1320468E+00
        -11   -1    0    0    0    0  0.00000000000E+00  0.00000000000E+00  0.45593999997E+02  0.45594000000E+02  0.51100000000E-03 0.  1.
         11   -1    0    0    0    0 -0.00000000000E+00 -0.00000000000E+00 -0.45593999997E+02  0.45594000000E+02  0.51100000000E-03 0. -1.
    9900012    2    1    2    0    0 -0.20291282781E+02  0.34476084662E+02  0.20706920483E+02  0.46142321779E+02  0.10000036640E+02 0.  0.
         12    1    1    2    0    0  0.20291282781E+02 -0.34476084662E+02 -0.20706920483E+02  0.45045678221E+02  0.00000000000E+00 0. -1.
         11    1    3    3    0    0  0.48422873789E+00  0.10512068488E+01 -0.67577664603E+00  0.13402192529E+01  0.51100000000E-03 0. -1.
        -11    1    3    3    0    0 -0.13241482548E+02  0.22027938325E+02  0.14350589703E+02  0.29436479953E+02  0.51100000000E-03 0.  1.
         12    1    3    3    0    0 -0.75340289700E+01  0.11396939488E+02  0.70321074265E+01  0.15365622573E+02  0.00000000000E+00 0. -1.
</event>
<event>
 7    1  0.1442665E-008  0.4614232E+02  0.7816164E-02  0.1320468E+00
        -11   -1    0    0    0    0  0.00000000000E+00  0.00000000000E+00  0.45593999997E+02  0.45594000000E+02  0.51100000000E-03 0.  1.
         11   -1    0    0    0    0 -0.00000000000E+00 -0.00000000000E+00 -0.45593999997E+02  0.45594000000E+02  0.51100000000E-03 0. -1.
    9900012    2    1    2    0    0  0.24863905750E+02  0.28672335725E+02  0.24265135442E+02  0.46142318264E+02  0.10000004583E+02 0.  0.
         12    1    1    2    0    0 -0.24863905750E+02 -0.28672335725E+02 -0.24265135442E+02  0.45045681736E+02  0.00000000000E+00 0. -1.
         11    1    3    3    0    0  0.17322924202E+01 -0.90945522447E-01  0.13818707180E+01  0.22178086165E+01  0.51100000000E-03 0. -1.
        -11    1    3    3    0    0 -0.35766874890E+00  0.11065594227E+01  0.36196242995E+00  0.12179563834E+01  0.51100000000E-03 0.  1.
         12    1    3    3    0    0  0.23489282078E+02  0.27656721825E+02  0.22521302294E+02  0.42706553264E+02  0.00000000000E+00 0. -1.
</event>
<event>
 7    1  0.1442665E-008  0.4614232E+02  0.7816164E-02  0.1320468E+00
        -11   -1    0    0    0    0  0.00000000000E+00  0.00000000000E+00  0.45593999997E+02  0.45594000000E+02  0.51100000000E-03 0.  1.
         11   -1    0    0    0    0 -0.00000000000E+00 -0.00000000000E+00 -0.45593999997E+02  0.45594000000E+02  0.51100000000E-03 0. -1.
    9900012    2    1    2    0    0  0.43151440104E+02 -0.53107976963E+01  0.11783977078E+02  0.46142317954E+02  0.10000001755E+02 0.  0.
         12    1    1    2    0    0 -0.43151440104E+02  0.53107976963E+01 -0.11783977078E+02  0.45045682046E+02  0.00000000000E+00 0. -1.
         11    1    3    3    0    0  0.17368480881E+01 -0.20044680881E+01 -0.12585649165E+00  0.26552539832E+01  0.51100000000E-03 0. -1.
        -11    1    3    3    0    0  0.28903996675E+02 -0.13710023815E+01  0.61689319974E+01  0.29586760444E+02  0.51100000000E-03 0.  1.
         12    1    3    3    0    0  0.12510595342E+02 -0.19353272268E+01  0.57409015719E+01  0.13900303527E+02  0.00000000000E+00 0. -1.
</event>
<event>
 7    1  0.1442665E-008  0.4614232E+02  0.7816164E-02  0.1320468E+00
        -11   -1    0    0    0    0  0.00000000000E+00  0.00000000000E+00  0.45593999997E+02  0.45594000000E+02  0.51100000000E-03 0.  1.
         11   -1    0    0    0    0 -0.00000000000E+00 -0.00000000000E+00 -0.45593999997E+02  0.45594000000E+02  0.51100000000E-03 0. -1.
    9900012    2    1    2    0    0 -0.44565665307E+01  0.55395056106E+01  0.44481079810E+02  0.46142316869E+02  0.99999918653E+01 0.  0.
         12    1    1    2    0    0  0.44565665307E+01 -0.55395056106E+01 -0.44481079810E+02  0.45045683131E+02  0.00000000000E+00 0. -1.
         11    1    3    3    0    0 -0.45385584754E+01  0.78690148008E+01  0.36951480668E+02  0.38051699447E+02  0.51100000000E-03 0. -1.
        -11    1    3    3    0    0 -0.84034203791E+00 -0.11838750553E+01  0.43844885684E+01  0.46186009954E+01  0.51100000000E-03 0.  1.
         12    1    3    3    0    0  0.92233398263E+00 -0.11456341349E+01  0.31451105737E+01  0.34720164267E+01  0.00000000000E+00 0. -1.
</event>
<event>
 7    1  0.1442665E-008  0.4614232E+02  0.7816164E-02  0.1320468E+00
        -11   -1    0    0    0    0  0.00000000000E+00  0.00000000000E+00  0.45593999997E+02  0.45594000000E+02  0.51100000000E-03 0. -1.
         11   -1    0    0    0    0 -0.00000000000E+00 -0.00000000000E+00 -0.45593999997E+02  0.45594000000E+02  0.51100000000E-03 0.  1.
    9900012    2    1    2    0    0  0.18380482001E+02  0.38450989759E+02 -0.14587409225E+02  0.46142320518E+02  0.10000025142E+02 0.  0.
         12    1    1    2    0    0 -0.18380482001E+02 -0.38450989759E+02  0.14587409225E+02  0.45045679482E+02  0.00000000000E+00 0. -1.
         11    1    3    3    0    0  0.25730557221E+01  0.94443935825E+01 -0.39922633455E+01  0.10571440430E+02  0.51100000000E-03 0. -1.
        -11    1    3    3    0    0  0.15340724462E+02  0.24424653555E+02 -0.11168771762E+02  0.30929645831E+02  0.51100000000E-03 0.  1.
        -12    1    3    3    0    0  0.46670181754E+00  0.45819426218E+01  0.57362588248E+00  0.46412342571E+01  0.00000000000E+00 0.  1.
</event>
<event>
 7    1  0.1442665E-008  0.4614232E+02  0.7816164E-02  0.1320468E+00
        -11   -1    0    0    0    0  0.00000000000E+00  0.00000000000E+00  0.45593999997E+02  0.45594000000E+02  0.51100000000E-03 0. -1.
         11   -1    0    0    0    0 -0.00000000000E+00 -0.00000000000E+00 -0.45593999997E+02  0.45594000000E+02  0.51100000000E-03 0.  1.
    9900012    2    1    2    0    0 -0.12637321847E+02 -0.41827713205E+02  0.10947785433E+02  0.46142317618E+02  0.99999986915E+01 0.  0.
         12    1    1    2    0    0  0.12637321847E+02  0.41827713205E+02 -0.10947785433E+02  0.45045682382E+02  0.00000000000E+00 0. -1.
         11    1    3    3    0    0 -0.11327806797E+01  0.11311912013E+00  0.65682809888E+00  0.13143102435E+01  0.51100000000E-03 0. -1.
        -11    1    3    3    0    0 -0.82812350893E+01 -0.23729893286E+02  0.56510538416E+01  0.25760844313E+02  0.51100000000E-03 0.  1.
         12    1    3    3    0    0 -0.32233060776E+01 -0.18210939039E+02  0.46399034923E+01  0.19067163061E+02  0.00000000000E+00 0. -1.
</event>
<event>
 7    1  0.1442665E-008  0.4614232E+02  0.7816164E-02  0.1320468E+00
        -11   -1    0    0    0    0  0.00000000000E+00  0.00000000000E+00  0.45593999997E+02  0.45594000000E+02  0.51100000000E-03 0.  1.
         11   -1    0    0    0    0 -0.00000000000E+00 -0.00000000000E+00 -0.45593999997E+02  0.45594000000E+02  0.51100000000E-03 0. -1.
    9900012    2    1    2    0    0 -0.25598580421E+02  0.14513330597E+02  0.34105560067E+02  0.46142319718E+02  0.10000017844E+02 0.  0.
         12    1    1    2    0    0  0.25598580421E+02 -0.14513330597E+02 -0.34105560067E+02  0.45045680282E+02  0.00000000000E+00 0. -1.
         11    1    3    3    0    0 -0.43049419001E+01  0.12013636843E+01  0.91419711541E+01  0.10176022617E+02  0.51100000000E-03 0. -1.
        -11    1    3    3    0    0 -0.94393418401E+01  0.96144944513E+01  0.13127009677E+02  0.18811115364E+02  0.51100000000E-03 0.  1.
        -12    1    3    3    0    0 -0.11854296681E+02  0.36974724614E+01  0.11836579236E+02  0.17155181737E+02  0.00000000000E+00 0.  1.
</event>
<event>
 7    1  0.1442665E-008  0.4614232E+02  0.7816164E-02  0.1320468E+00
        -11   -1    0    0    0    0  0.00000000000E+00  0.00000000000E+00  0.45593999997E+02  0.45594000000E+02  0.51100000000E-03 0.  1.
         11   -1    0    0    0    0 -0.00000000000E+00 -0.00000000000E+00 -0.45593999997E+02  0.45594000000E+02  0.51100000000E-03 0. -1.
    9900012    2    1    2    0    0 -0.27109194602E+02  0.10651629686E+02  0.34362011219E+02  0.46142318055E+02  0.10000002677E+02 0.  0.
         12    1    1    2    0    0  0.27109194602E+02 -0.10651629686E+02 -0.34362011219E+02  0.45045681945E+02  0.00000000000E+00 0. -1.
         11    1    3    3    0    0 -0.10967654650E+02  0.88710305420E+01  0.14426569920E+02  0.20176980728E+02  0.51100000000E-03 0. -1.
        -11    1    3    3    0    0 -0.23978074091E+01  0.68024186639E+00  0.53078280334E+01  0.58638935923E+01  0.51100000000E-03 0.  1.
        -12    1    3    3    0    0 -0.13743732543E+02  0.11003572772E+01  0.14627613266E+02  0.20101443734E+02  0.00000000000E+00 0.  1.
</event>
<event>
 7    1  0.1442665E-008  0.4614232E+02  0.7816164E-02  0.1320468E+00
        -11   -1    0    0    0    0  0.00000000000E+00  0.00000000000E+00  0.45593999997E+02  0.45594000000E+02  0.51100000000E-03 0. -1.
         11   -1    0    0    0    0 -0.00000000000E+00 -0.00000000000E+00 -0.45593999997E+02  0.45594000000E+02  0.51100000000E-03 0.  1.
    9900012    2    1    2    0    0  0.18282569402E+02 -0.31418572395E+02 -0.26603278723E+02  0.46142317919E+02  0.10000001443E+02 0.  0.
         12    1    1    2    0    0 -0.18282569402E+02  0.31418572395E+02  0.26603278723E+02  0.45045682081E+02  0.00000000000E+00 0. -1.
         11    1    3    3    0    0  0.72696766243E+01 -0.54090419456E+01 -0.68954682606E+01  0.11386545384E+02  0.51100000000E-03 0.  1.
        -11    1    3    3    0    0  0.73459595728E+01 -0.18846092910E+02 -0.11530805978E+02  0.23282994369E+02  0.51100000000E-03 0. -1.
         12    1    3    3    0    0  0.36669332052E+01 -0.71634375396E+01 -0.81770044846E+01  0.11472778166E+02  0.00000000000E+00 0. -1.
</event>
<event>
 7    1  0.1442665E-008  0.4614232E+02  0.7816164E-02  0.1320468E+00
        -11   -1    0    0    0    0  0.00000000000E+00  0.00000000000E+00  0.45593999997E+02  0.45594000000E+02  0.51100000000E-03 0.  1.
         11   -1    0    0    0    0 -0.00000000000E+00 -0.00000000000E+00 -0.45593999997E+02  0.45594000000E+02  0.51100000000E-03 0. -1.
    9900012    2    1    2    0    0  0.19133910892E+02  0.30645828664E+02  0.26904276873E+02  0.46142317914E+02  0.10000001399E+02 0.  0.
         12    1    1    2    0    0 -0.19133910892E+02 -0.30645828664E+02 -0.26904276873E+02  0.45045682086E+02  0.00000000000E+00 0. -1.
         11    1    3    3    0    0  0.15451435694E+01  0.79118199700E+01  0.91102886531E+01  0.12164773878E+02  0.51100000000E-03 0. -1.
        -11    1    3    3    0    0  0.13546108420E+02  0.19447922380E+02  0.15218392355E+02  0.28165904998E+02  0.51100000000E-03 0.  1.
         12    1    3    3    0    0  0.40426589021E+01  0.32860863136E+01  0.25755958653E+01  0.58116390391E+01  0.00000000000E+00 0. -1.
</event>
<event>
 7    1  0.1442665E-008  0.4614232E+02  0.7816164E-02  0.1320468E+00
        -11   -1    0    0    0    0  0.00000000000E+00  0.00000000000E+00  0.45593999997E+02  0.45594000000E+02  0.51100000000E-03 0.  1.
         11   -1    0    0    0    0 -0.00000000000E+00 -0.00000000000E+00 -0.45593999997E+02  0.45594000000E+02  0.51100000000E-03 0. -1.
    9900012    2    1    2    0    0  0.10360957246E+02 -0.48585696329E+01  0.43567858232E+02  0.46142318688E+02  0.10000008455E+02 0.  0.
         12    1    1    2    0    0 -0.10360957246E+02  0.48585696329E+01 -0.43567858232E+02  0.45045681312E+02  0.00000000000E+00 0. -1.
         11    1    3    3    0    0  0.20127736910E+01  0.20472204202E+01  0.17835265743E+02  0.18064857424E+02  0.51100000000E-03 0.  1.
        -11    1    3    3    0    0  0.69544713100E+01 -0.43045824578E+01  0.17121078859E+02  0.18974336428E+02  0.51100000000E-03 0. -1.
        -12    1    3    3    0    0  0.13937122455E+01 -0.26012075953E+01  0.86115136304E+01  0.91031248362E+01  0.00000000000E+00 0.  1.
</event>
<event>
 7    1  0.1442665E-008  0.4614232E+02  0.7816164E-02  0.1320468E+00
        -11   -1    0    0    0    0  0.00000000000E+00  0.00000000000E+00  0.45593999997E+02  0.45594000000E+02  0.51100000000E-03 0.  1.
         11   -1    0    0    0    0 -0.00000000000E+00 -0.00000000000E+00 -0.45593999997E+02  0.45594000000E+02  0.51100000000E-03 0. -1.
    9900012    2    1    2    0    0 -0.39037440741E+02  0.17345464010E+02  0.14294285225E+02  0.46142317728E+02  0.99999996937E+01 0.  0.
         12    1    1    2    0    0  0.39037440741E+02 -0.17345464010E+02 -0.14294285225E+02  0.45045682272E+02  0.00000000000E+00 0. -1.
         11    1    3    3    0    0 -0.92569743887E+01  0.55068983921E+01  0.73432498995E+01  0.13036135320E+02  0.51100000000E-03 0. -1.
        -11    1    3    3    0    0 -0.23398156667E+02  0.72491436068E+01  0.56437440979E+01  0.25137137191E+02  0.51100000000E-03 0.  1.
         12    1    3    3    0    0 -0.63823096846E+01  0.45894220113E+01  0.13072912274E+01  0.79690452164E+01  0.00000000000E+00 0. -1.
</event>
<event>
 7    1  0.1442665E-008  0.4614232E+02  0.7816164E-02  0.1320468E+00
        -11   -1    0    0    0    0  0.00000000000E+00  0.00000000000E+00  0.45593999997E+02  0.45594000000E+02  0.51100000000E-03 0.  1.
         11   -1    0    0    0    0 -0.00000000000E+00 -0.00000000000E+00 -0.45593999997E+02  0.45594000000E+02  0.51100000000E-03 0. -1.
    9900012    2    1    2    0    0  0.38208954966E+02 -0.23781200136E+02  0.19088502412E+01  0.46142318423E+02  0.10000006033E+02 0.  0.
         12    1    1    2    0    0 -0.38208954966E+02  0.23781200136E+02 -0.19088502412E+01  0.45045681577E+02  0.00000000000E+00 0. -1.
         11    1    3    3    0    0  0.85338536732E+01 -0.56649518973E+01 -0.17843063791E+01  0.10397215398E+02  0.51100000000E-03 0. -1.
        -11    1    3    3    0    0  0.18110651513E+02 -0.14916201611E+02  0.12223261063E+01  0.23494315272E+02  0.51100000000E-03 0.  1.
        -12    1    3    3    0    0  0.11564449781E+02 -0.32000466271E+01  0.24708305139E+01  0.12250787753E+02  0.00000000000E+00 0.  1.
</event>
<event>
 7    1  0.1442665E-008  0.4614232E+02  0.7816164E-02  0.1320468E+00
        -11   -1    0    0    0    0  0.00000000000E+00  0.00000000000E+00  0.45593999997E+02  0.45594000000E+02  0.51100000000E-03 0.  1.
         11   -1    0    0    0    0 -0.00000000000E+00 -0.00000000000E+00 -0.45593999997E+02  0.45594000000E+02  0.51100000000E-03 0. -1.
    9900012    2    1    2    0    0 -0.72979023202E+00 -0.34578162854E+02  0.28860554077E+02  0.46142317390E+02  0.99999966196E+01 0.  0.
         12    1    1    2    0    0  0.72979023202E+00  0.34578162854E+02 -0.28860554077E+02  0.45045682610E+02  0.00000000000E+00 0. -1.
         11    1    3    3    0    0 -0.82936158744E+00 -0.13618937882E+02  0.13023221041E+02  0.18861802571E+02  0.51100000000E-03 0. -1.
        -11    1    3    3    0    0  0.25555850124E+01 -0.15515231997E+02  0.13940796382E+02  0.21014262839E+02  0.51100000000E-03 0.  1.
        -12    1    3    3    0    0 -0.24560136569E+01 -0.54439929754E+01  0.18965366541E+01  0.62662519802E+01  0.00000000000E+00 0.  1.
</event>
<event>
 7    1  0.1442665E-008  0.4614232E+02  0.7816164E-02  0.1320468E+00
        -11   -1    0    0    0    0  0.00000000000E+00  0.00000000000E+00  0.45593999997E+02  0.45594000000E+02  0.51100000000E-03 0. -1.
         11   -1    0    0    0    0 -0.00000000000E+00 -0.00000000000E+00 -0.45593999997E+02  0.45594000000E+02  0.51100000000E-03 0.  1.
    9900012    2    1    2    0    0 -0.19196873015E+02  0.35988258113E+02  0.19116454457E+02  0.46142317781E+02  0.10000000182E+02 0.  0.
         12    1    1    2    0    0  0.19196873015E+02 -0.35988258113E+02 -0.19116454457E+02  0.45045682219E+02  0.00000000000E+00 0. -1.
         11    1    3    3    0    0 -0.30126748706E+01  0.12482840854E+02  0.63252724256E+01  0.14314558924E+02  0.51100000000E-03 0. -1.
        -11    1    3    3    0    0 -0.12790687215E+02  0.13982875654E+02  0.94851411173E+01  0.21191752954E+02  0.51100000000E-03 0.  1.
        -12    1    3    3    0    0 -0.33935109296E+01  0.95225416056E+01  0.33060409137E+01  0.10636005904E+02  0.00000000000E+00 0.  1.
</event>
<event>
 7    1  0.1442665E-008  0.4614232E+02  0.7816164E-02  0.1320468E+00
        -11   -1    0    0    0    0  0.00000000000E+00  0.00000000000E+00  0.45593999997E+02  0.45594000000E+02  0.51100000000E-03 0.  1.
         11   -1    0    0    0    0 -0.00000000000E+00 -0.00000000000E+00 -0.45593999997E+02  0.45594000000E+02  0.51100000000E-03 0. -1.
    9900012    2    1    2    0    0  0.22365371354E+02  0.13467874400E+02  0.36708581673E+02  0.46142318241E+02  0.10000004377E+02 0.  0.
         12    1    1    2    0    0 -0.22365371354E+02 -0.13467874400E+02 -0.36708581673E+02  0.45045681759E+02  0.00000000000E+00 0. -1.
         11    1    3    3    0    0  0.29075486421E+01  0.60573312607E+01  0.62576062526E+01  0.91816522142E+01  0.51100000000E-03 0. -1.
        -11    1    3    3    0    0  0.12087870364E+02  0.57565404353E+01  0.19027348045E+02  0.23265733206E+02  0.51100000000E-03 0.  1.
         12    1    3    3    0    0  0.73699523479E+01  0.16540027038E+01  0.11423627376E+02  0.13694932821E+02  0.00000000000E+00 0. -1.
</event>
<event>
 7    1  0.1442665E-008  0.4614231E+02  0.7816164E-02  0.1320468E+00
        -11   -1    0    0    0    0  0.00000000000E+00  0.00000000000E+00  0.45593999997E+02  0.45594000000E+02  0.51100000000E-03 0.  1.
         11   -1    0    0    0    0 -0.00000000000E+00 -0.00000000000E+00 -0.45593999997E+02  0.45594000000E+02  0.51100000000E-03 0. -1.
    9900012    2    1    2    0    0 -0.36698665614E+02  0.26004473691E+02 -0.24676545237E+01  0.46142311765E+02  0.99999453181E+01 0.  0.
         12    1    1    2    0    0  0.36698665614E+02 -0.26004473691E+02  0.24676545237E+01  0.45045688235E+02  0.00000000000E+00 0. -1.
         11    1    3    3    0    0 -0.14588750598E+02  0.54861315440E+01 -0.31015213006E+01  0.15891781460E+02  0.51100000000E-03 0. -1.
        -11    1    3    3    0    0 -0.10234988272E+02  0.10108494762E+02 -0.70188698425E+00  0.14402405941E+02  0.51100000000E-03 0.  1.
         12    1    3    3    0    0 -0.11874926743E+02  0.10409847385E+02  0.13357537612E+01  0.15848124364E+02  0.00000000000E+00 0. -1.
</event>
<event>
 7    1  0.1442665E-008  0.4614232E+02  0.7816164E-02  0.1320468E+00
        -11   -1    0    0    0    0  0.00000000000E+00  0.00000000000E+00  0.45593999997E+02  0.45594000000E+02  0.51100000000E-03 0.  1.
         11   -1    0    0    0    0 -0.00000000000E+00 -0.00000000000E+00 -0.45593999997E+02  0.45594000000E+02  0.51100000000E-03 0. -1.
    9900012    2    1    2    0    0  0.12406563842E+02  0.59898139980E+01  0.42887210374E+02  0.46142317501E+02  0.99999976297E+01 0.  0.
         12    1    1    2    0    0 -0.12406563842E+02 -0.59898139980E+01 -0.42887210374E+02  0.45045682499E+02  0.00000000000E+00 0. -1.
         11    1    3    3    0    0  0.47596859612E+01 -0.29067851882E+00  0.18011563302E+02  0.18632109845E+02  0.51100000000E-03 0. -1.
        -11    1    3    3    0    0  0.73337238739E+01  0.55077271820E+01  0.25034262854E+02  0.26661449350E+02  0.51100000000E-03 0.  1.
        -12    1    3    3    0    0  0.31315400700E+00  0.77276533485E+00 -0.15861578146E+00  0.84875830539E+00  0.00000000000E+00 0.  1.
</event>
<event>
 7    1  0.1442665E-008  0.4614232E+02  0.7816164E-02  0.1320468E+00
        -11   -1    0    0    0    0  0.00000000000E+00  0.00000000000E+00  0.45593999997E+02  0.45594000000E+02  0.51100000000E-03 0.  1.
         11   -1    0    0    0    0 -0.00000000000E+00 -0.00000000000E+00 -0.45593999997E+02  0.45594000000E+02  0.51100000000E-03 0. -1.
    9900012    2    1    2    0    0 -0.29982078195E+02  0.32316659526E+02  0.92640162363E+01  0.46142317713E+02  0.99999995655E+01 0.  0.
         12    1    1    2    0    0  0.29982078195E+02 -0.32316659526E+02 -0.92640162363E+01  0.45045682287E+02  0.00000000000E+00 0. -1.
         11    1    3    3    0    0 -0.21732678802E+02  0.28506111113E+02  0.56207795039E+01  0.36283616981E+02  0.51100000000E-03 0. -1.
        -11    1    3    3    0    0 -0.39166722809E+01  0.24313441546E+01  0.19783313351E+01  0.50165278118E+01  0.51100000000E-03 0.  1.
         12    1    3    3    0    0 -0.43327271119E+01  0.13792042584E+01  0.16649053973E+01  0.48421729207E+01  0.00000000000E+00 0. -1.
</event>
<event>
 7    1  0.1442665E-008  0.4614232E+02  0.7816164E-02  0.1320468E+00
        -11   -1    0    0    0    0  0.00000000000E+00  0.00000000000E+00  0.45593999997E+02  0.45594000000E+02  0.51100000000E-03 0.  1.
         11   -1    0    0    0    0 -0.00000000000E+00 -0.00000000000E+00 -0.45593999997E+02  0.45594000000E+02  0.51100000000E-03 0. -1.
    9900012    2    1    2    0    0 -0.11698164795E+02  0.26516122356E+02  0.34484224310E+02  0.46142317292E+02  0.99999957266E+01 0.  0.
         12    1    1    2    0    0  0.11698164795E+02 -0.26516122356E+02 -0.34484224310E+02  0.45045682708E+02  0.00000000000E+00 0. -1.
         11    1    3    3    0    0 -0.28118331792E+01  0.33741120645E+01  0.18390600963E+01  0.47616363102E+01  0.51100000000E-03 0. -1.
        -11    1    3    3    0    0 -0.82040903676E+01  0.16190429732E+02  0.20587976555E+02  0.27446345705E+02  0.51100000000E-03 0.  1.
         12    1    3    3    0    0 -0.68224124794E+00  0.69515805594E+01  0.12057187659E+02  0.13934335278E+02  0.00000000000E+00 0. -1.
</event>
<event>
 7    1  0.1442665E-008  0.4614232E+02  0.7816164E-02  0.1320468E+00
        -11   -1    0    0    0    0  0.00000000000E+00  0.00000000000E+00  0.45593999997E+02  0.45594000000E+02  0.51100000000E-03 0. -1.
         11   -1    0    0    0    0 -0.00000000000E+00 -0.00000000000E+00 -0.45593999997E+02  0.45594000000E+02  0.51100000000E-03 0.  1.
    9900012    2    1    2    0    0  0.38131631077E+02  0.22830777619E+02 -0.73381035389E+01  0.46142318089E+02  0.10000002987E+02 0.  0.
         12    1    1    2    0    0 -0.38131631077E+02 -0.22830777619E+02  0.73381035389E+01  0.45045681911E+02  0.00000000000E+00 0. -1.
         11    1    3    3    0    0  0.15901741933E+02  0.64174704591E+01 -0.60381167891E+01  0.18179883889E+02  0.51100000000E-03 0. -1.
        -11    1    3    3    0    0  0.12299188612E+02  0.97446083047E+01 -0.26877749811E+01  0.15920162252E+02  0.51100000000E-03 0.  1.
         12    1    3    3    0    0  0.99307005320E+01  0.66686988554E+01  0.13877882313E+01  0.12042271947E+02  0.00000000000E+00 0. -1.
</event>
<event>
 7    1  0.1442665E-008  0.4614232E+02  0.7816164E-02  0.1320468E+00
        -11   -1    0    0    0    0  0.00000000000E+00  0.00000000000E+00  0.45593999997E+02  0.45594000000E+02  0.51100000000E-03 0.  1.
         11   -1    0    0    0    0 -0.00000000000E+00 -0.00000000000E+00 -0.45593999997E+02  0.45594000000E+02  0.51100000000E-03 0. -1.
    9900012    2    1    2    0    0  0.40642204998E+02 -0.58338864378E+01  0.18528099457E+02  0.46142317326E+02  0.99999960341E+01 0.  0.
         12    1    1    2    0    0 -0.40642204998E+02  0.58338864378E+01 -0.18528099457E+02  0.45045682674E+02  0.00000000000E+00 0. -1.
         11    1    3    3    0    0  0.58012315748E+01  0.18535143489E+01  0.53472921859E+01  0.81045257239E+01  0.51100000000E-03 0. -1.
        -11    1    3    3    0    0  0.22303922581E+02 -0.51071921659E+01  0.84098538649E+01  0.24377736085E+02  0.51100000000E-03 0.  1.
         12    1    3    3    0    0  0.12537050842E+02 -0.25802086208E+01  0.47709534058E+01  0.13660055518E+02  0.00000000000E+00 0. -1.
</event>
<event>
 7    1  0.1442665E-008  0.4614232E+02  0.7816164E-02  0.1320468E+00
        -11   -1    0    0    0    0  0.00000000000E+00  0.00000000000E+00  0.45593999997E+02  0.45594000000E+02  0.51100000000E-03 0.  1.
         11   -1    0    0    0    0 -0.00000000000E+00 -0.00000000000E+00 -0.45593999997E+02  0.45594000000E+02  0.51100000000E-03 0. -1.
    9900012    2    1    2    0    0  0.54656165119E+01  0.43796432933E+02  0.90062630040E+01  0.46142320131E+02  0.10000021614E+02 0.  0.
         12    1    1    2    0    0 -0.54656165119E+01 -0.43796432933E+02 -0.90062630040E+01  0.45045679869E+02  0.00000000000E+00 0. -1.
         11    1    3    3    0    0 -0.98782040259E+00  0.48090672116E+01  0.53168113182E+00  0.49381779717E+01  0.51100000000E-03 0. -1.
        -11    1    3    3    0    0  0.18801409518E+01  0.25936189076E+02  0.24494087848E+01  0.26119349866E+02  0.51100000000E-03 0.  1.
        -12    1    3    3    0    0  0.45732959627E+01  0.13051176646E+02  0.60251730874E+01  0.15084792293E+02  0.00000000000E+00 0.  1.
</event>
<event>
 7    1  0.1442665E-008  0.4614232E+02  0.7816164E-02  0.1320468E+00
        -11   -1    0    0    0    0  0.00000000000E+00  0.00000000000E+00  0.45593999997E+02  0.45594000000E+02  0.51100000000E-03 0. -1.
         11   -1    0    0    0    0 -0.00000000000E+00 -0.00000000000E+00 -0.45593999997E+02  0.45594000000E+02  0.51100000000E-03 0.  1.
    9900012    2    1    2    0    0 -0.29461836571E+02  0.18214233865E+00 -0.34074630883E+02  0.46142318079E+02  0.10000002895E+02 0.  0.
         12    1    1    2    0    0  0.29461836571E+02 -0.18214233865E+00  0.34074630883E+02  0.45045681921E+02  0.00000000000E+00 0. -1.
         11    1    3    3    0    0 -0.30342403287E+01  0.25201449489E+01 -0.39694593718E+01  0.55959228820E+01  0.51100000000E-03 0. -1.
        -11    1    3    3    0    0 -0.21941422277E+02  0.14835542539E+00 -0.23048976567E+02  0.31823000203E+02  0.51100000000E-03 0.  1.
         12    1    3    3    0    0 -0.44861739655E+01 -0.24863580356E+01 -0.70561949437E+01  0.87233949935E+01  0.00000000000E+00 0. -1.
</event>
<event>
 7    1  0.1442665E-008  0.4614232E+02  0.7816164E-02  0.1320468E+00
        -11   -1    0    0    0    0  0.00000000000E+00  0.00000000000E+00  0.45593999997E+02  0.45594000000E+02  0.51100000000E-03 0. -1.
         11   -1    0    0    0    0 -0.00000000000E+00 -0.00000000000E+00 -0.45593999997E+02  0.45594000000E+02  0.51100000000E-03 0.  1.
    9900012    2    1    2    0    0  0.39887728986E+02 -0.14848889951E+02  0.14751025478E+02  0.46142320861E+02  0.10000028264E+02 0.  0.
         12    1    1    2    0    0 -0.39887728986E+02  0.14848889951E+02 -0.14751025478E+02  0.45045679139E+02  0.00000000000E+00 0. -1.
         11    1    3    3    0    0  0.79099665687E+01 -0.71653161587E-01  0.19838896178E+01  0.81552758120E+01  0.51100000000E-03 0.  1.
        -11    1    3    3    0    0  0.12680524454E+02 -0.29297394732E+01  0.31814968144E+01  0.13397798180E+02  0.51100000000E-03 0. -1.
        -12    1    3    3    0    0  0.19297237963E+02 -0.11847497316E+02  0.95856390461E+01  0.24589246869E+02  0.00000000000E+00 0.  1.
</event>
<event>
 7    1  0.1442665E-008  0.4614232E+02  0.7816164E-02  0.1320468E+00
        -11   -1    0    0    0    0  0.00000000000E+00  0.00000000000E+00  0.45593999997E+02  0.45594000000E+02  0.51100000000E-03 0. -1.
         11   -1    0    0    0    0 -0.00000000000E+00 -0.00000000000E+00 -0.45593999997E+02  0.45594000000E+02  0.51100000000E-03 0.  1.
    9900012    2    1    2    0    0 -0.23472810534E+02 -0.53263104641E+01 -0.38075860267E+02  0.46142317048E+02  0.99999934965E+01 0.  0.
         12    1    1    2    0    0  0.23472810534E+02  0.53263104641E+01  0.38075860267E+02  0.45045682952E+02  0.00000000000E+00 0. -1.
         11    1    3    3    0    0 -0.10760122659E+02 -0.26483054660E+01 -0.11527560883E+02  0.15989947519E+02  0.51100000000E-03 0. -1.
        -11    1    3    3    0    0 -0.77806239307E+01 -0.12949913967E+01 -0.94814523411E+01  0.12333411946E+02  0.51100000000E-03 0.  1.
         12    1    3    3    0    0 -0.49320639450E+01 -0.13830136014E+01 -0.17066847043E+02  0.17818957583E+02  0.00000000000E+00 0. -1.
</event>
<event>
 7    1  0.1442665E-008  0.4614231E+02  0.7816164E-02  0.1320468E+00
        -11   -1    0    0    0    0  0.00000000000E+00  0.00000000000E+00  0.45593999997E+02  0.45594000000E+02  0.51100000000E-03 0.  1.
         11   -1    0    0    0    0 -0.00000000000E+00 -0.00000000000E+00 -0.45593999997E+02  0.45594000000E+02  0.51100000000E-03 0. -1.
    9900012    2    1    2    0    0  0.43022689879E+02  0.10865967388E+02  0.77519534964E+01  0.46142313473E+02  0.99999608951E+01 0.  0.
         12    1    1    2    0    0 -0.43022689879E+02 -0.10865967388E+02 -0.77519534964E+01  0.45045686527E+02  0.00000000000E+00 0. -1.
         11    1    3    3    0    0  0.18413590168E+02  0.76337298241E+01  0.97262477825E+00  0.19956957011E+02  0.51100000000E-03 0. -1.
        -11    1    3    3    0    0  0.58197415605E+01  0.28634849542E+01  0.21152300979E+01  0.68222530400E+01  0.51100000000E-03 0.  1.
        -12    1    3    3    0    0  0.18789358150E+02  0.36875260959E+00  0.46640986202E+01  0.19363103422E+02  0.00000000000E+00 0.  1.
</event>
<event>
 7    1  0.1442665E-008  0.4614232E+02  0.7816164E-02  0.1320468E+00
        -11   -1    0    0    0    0  0.00000000000E+00  0.00000000000E+00  0.45593999997E+02  0.45594000000E+02  0.51100000000E-03 0. -1.
         11   -1    0    0    0    0 -0.00000000000E+00 -0.00000000000E+00 -0.45593999997E+02  0.45594000000E+02  0.51100000000E-03 0.  1.
    9900012    2    1    2    0    0  0.34788464448E+02  0.33001742125E+01 -0.28425075331E+02  0.46142319673E+02  0.10000017438E+02 0.  0.
         12    1    1    2    0    0 -0.34788464448E+02 -0.33001742125E+01  0.28425075331E+02  0.45045680327E+02  0.00000000000E+00 0. -1.
         11    1    3    3    0    0 -0.36356675540E+00  0.87637775807E+00 -0.11264582956E+01  0.14727957473E+01  0.51100000000E-03 0. -1.
        -11    1    3    3    0    0  0.94971486438E+01 -0.42891404264E+00 -0.64468105372E+01  0.11486564586E+02  0.51100000000E-03 0.  1.
         12    1    3    3    0    0  0.25654882560E+02  0.28527104971E+01 -0.20851806499E+02  0.33182959340E+02  0.00000000000E+00 0. -1.
</event>
<event>
 7    1  0.1442665E-008  0.4614232E+02  0.7816164E-02  0.1320468E+00
        -11   -1    0    0    0    0  0.00000000000E+00  0.00000000000E+00  0.45593999997E+02  0.45594000000E+02  0.51100000000E-03 0.  1.
         11   -1    0    0    0    0 -0.00000000000E+00 -0.00000000000E+00 -0.45593999997E+02  0.45594000000E+02  0.51100000000E-03 0. -1.
    9900012    2    1    2    0    0 -0.31394039843E+02  0.32294743195E+02  0.75990736639E+00  0.46142316134E+02  0.99999851649E+01 0.  0.
         12    1    1    2    0    0  0.31394039843E+02 -0.32294743195E+02 -0.75990736639E+00  0.45045683866E+02  0.00000000000E+00 0. -1.
         11    1    3    3    0    0 -0.29699815643E+01  0.59147781155E+01  0.55108029369E+00  0.66414667355E+01  0.51100000000E-03 0. -1.
        -11    1    3    3    0    0 -0.83862837273E+01  0.35805461334E+01  0.67840121324E+00  0.91438664599E+01  0.51100000000E-03 0.  1.
         12    1    3    3    0    0 -0.20037774551E+02  0.22799418947E+02 -0.46957414054E+00  0.30356982939E+02  0.00000000000E+00 0. -1.
</event>
<event>
 7    1  0.1442665E-008  0.4614232E+02  0.7816164E-02  0.1320468E+00
        -11   -1    0    0    0    0  0.00000000000E+00  0.00000000000E+00  0.45593999997E+02  0.45594000000E+02  0.51100000000E-03 0.  1.
         11   -1    0    0    0    0 -0.00000000000E+00 -0.00000000000E+00 -0.45593999997E+02  0.45594000000E+02  0.51100000000E-03 0. -1.
    9900012    2    1    2    0    0  0.61589263888E+01  0.44506261006E+02 -0.32208533936E+01  0.46142317192E+02  0.99999948132E+01 0.  0.
         12    1    1    2    0    0 -0.61589263888E+01 -0.44506261006E+02  0.32208533936E+01  0.45045682808E+02  0.00000000000E+00 0. -1.
         11    1    3    3    0    0 -0.23948713475E+01  0.12401106446E+02 -0.10402010520E+01  0.12672997607E+02  0.51100000000E-03 0. -1.
        -11    1    3    3    0    0  0.38482550503E+01  0.15055196476E+02  0.67010791695E+00  0.15553682932E+02  0.51100000000E-03 0.  1.
         12    1    3    3    0    0  0.47055426860E+01  0.17049958084E+02 -0.28507602586E+01  0.17915636653E+02  0.00000000000E+00 0. -1.
</event>
<event>
 7    1  0.1442665E-008  0.4614232E+02  0.7816164E-02  0.1320468E+00
        -11   -1    0    0    0    0  0.00000000000E+00  0.00000000000E+00  0.45593999997E+02  0.45594000000E+02  0.51100000000E-03 0.  1.
         11   -1    0    0    0    0 -0.00000000000E+00 -0.00000000000E+00 -0.45593999997E+02  0.45594000000E+02  0.51100000000E-03 0. -1.
    9900012    2    1    2    0    0  0.35586961855E+01  0.44162282738E+02  0.81327786521E+01  0.46142316258E+02  0.99999862920E+01 0.  0.
         12    1    1    2    0    0 -0.35586961855E+01 -0.44162282738E+02 -0.81327786521E+01  0.45045683742E+02  0.00000000000E+00 0. -1.
         11    1    3    3    0    0  0.32708930059E+01  0.12551326915E+02  0.23852977218E+01  0.13188032221E+02  0.51100000000E-03 0. -1.
        -11    1    3    3    0    0 -0.20279107146E+01  0.26870510661E+02  0.62259296964E+01  0.27656806864E+02  0.51100000000E-03 0.  1.
        -12    1    3    3    0    0  0.23157138942E+01  0.47404451616E+01 -0.47844876613E+00  0.52974771724E+01  0.00000000000E+00 0.  1.
</event>
<event>
 7    1  0.1442665E-008  0.4614232E+02  0.7816164E-02  0.1320468E+00
        -11   -1    0    0    0    0  0.00000000000E+00  0.00000000000E+00  0.45593999997E+02  0.45594000000E+02  0.51100000000E-03 0.  1.
         11   -1    0    0    0    0 -0.00000000000E+00 -0.00000000000E+00 -0.45593999997E+02  0.45594000000E+02  0.51100000000E-03 0. -1.
    9900012    2    1    2    0    0  0.17668628583E+02 -0.36383073015E+02  0.19829399269E+02  0.46142317483E+02  0.99999974669E+01 0.  0.
         12    1    1    2    0    0 -0.17668628583E+02  0.36383073015E+02 -0.19829399269E+02  0.45045682517E+02  0.00000000000E+00 0. -1.
         11    1    3    3    0    0  0.99296420176E+01 -0.14269121272E+02  0.93671273475E+01  0.19747118460E+02  0.51100000000E-03 0.  1.
        -11    1    3    3    0    0 -0.10293815670E+01 -0.29614445567E+01  0.89824777106E+00  0.32613846128E+01  0.51100000000E-03 0. -1.
        -12    1    3    3    0    0  0.87683681326E+01 -0.19152507186E+02  0.95640241508E+01  0.23133814410E+02  0.00000000000E+00 0.  1.
</event>
<event>
 7    1  0.1442665E-008  0.4614232E+02  0.7816164E-02  0.1320468E+00
        -11   -1    0    0    0    0  0.00000000000E+00  0.00000000000E+00  0.45593999997E+02  0.45594000000E+02  0.51100000000E-03 0.  1.
         11   -1    0    0    0    0 -0.00000000000E+00 -0.00000000000E+00 -0.45593999997E+02  0.45594000000E+02  0.51100000000E-03 0. -1.
    9900012    2    1    2    0    0 -0.29183813192E+01 -0.32651892362E+02  0.30894181502E+02  0.46142317909E+02  0.10000001351E+02 0.  0.
         12    1    1    2    0    0  0.29183813192E+01  0.32651892362E+02 -0.30894181502E+02  0.45045682091E+02  0.00000000000E+00 0. -1.
         11    1    3    3    0    0 -0.13405042862E+01 -0.12520041201E+02  0.95933961195E+01  0.15829770459E+02  0.51100000000E-03 0. -1.
        -11    1    3    3    0    0 -0.19491876390E+01 -0.18621145536E+01  0.72037618691E+00  0.27902948185E+01  0.51100000000E-03 0.  1.
        -12    1    3    3    0    0  0.37131060593E+00 -0.18269736607E+02  0.20580409196E+02  0.27522252632E+02  0.00000000000E+00 0.  1.
</event>
<event>
 7    1  0.1442665E-008  0.4614232E+02  0.7816164E-02  0.1320468E+00
        -11   -1    0    0    0    0  0.00000000000E+00  0.00000000000E+00  0.45593999997E+02  0.45594000000E+02  0.51100000000E-03 0.  1.
         11   -1    0    0    0    0 -0.00000000000E+00 -0.00000000000E+00 -0.45593999997E+02  0.45594000000E+02  0.51100000000E-03 0. -1.
    9900012    2    1    2    0    0  0.77033822491E+01 -0.19763163311E+02  0.39739007347E+02  0.46142318442E+02  0.10000006209E+02 0.  0.
         12    1    1    2    0    0 -0.77033822491E+01  0.19763163311E+02 -0.39739007347E+02  0.45045681558E+02  0.00000000000E+00 0. -1.
         11    1    3    3    0    0  0.31613936779E+01 -0.53086975854E+01  0.63580807879E+01  0.88657696568E+01  0.51100000000E-03 0. -1.
        -11    1    3    3    0    0 -0.10759339058E+00 -0.62884599317E+01  0.19697261016E+02  0.20677001631E+02  0.51100000000E-03 0.  1.
        -12    1    3    3    0    0  0.46495819617E+01 -0.81660057940E+01  0.13683665543E+02  0.16599547155E+02  0.00000000000E+00 0.  1.
</event>
<event>
 7    1  0.1442665E-008  0.4614231E+02  0.7816164E-02  0.1320468E+00
        -11   -1    0    0    0    0  0.00000000000E+00  0.00000000000E+00  0.45593999997E+02  0.45594000000E+02  0.51100000000E-03 0. -1.
         11   -1    0    0    0    0 -0.00000000000E+00 -0.00000000000E+00 -0.45593999997E+02  0.45594000000E+02  0.51100000000E-03 0.  1.
    9900012    2    1    2    0    0 -0.31337813351E+02  0.24951141212E+02 -0.20603311593E+02  0.46142307175E+02  0.99999034711E+01 0.  0.
         12    1    1    2    0    0  0.31337813351E+02 -0.24951141212E+02  0.20603311593E+02  0.45045692825E+02  0.00000000000E+00 0. -1.
         11    1    3    3    0    0 -0.16515929714E+01  0.14253470029E+01  0.91253829831E+00  0.23647621083E+01  0.51100000000E-03 0. -1.
        -11    1    3    3    0    0 -0.24292011434E+02  0.19145753708E+02 -0.15547777660E+02  0.34617843592E+02  0.51100000000E-03 0.  1.
         12    1    3    3    0    0 -0.53942089454E+01  0.43800405017E+01 -0.59680722318E+01  0.91597014748E+01  0.00000000000E+00 0. -1.
</event>
<event>
 7    1  0.1442665E-008  0.4614232E+02  0.7816164E-02  0.1320468E+00
        -11   -1    0    0    0    0  0.00000000000E+00  0.00000000000E+00  0.45593999997E+02  0.45594000000E+02  0.51100000000E-03 0.  1.
         11   -1    0    0    0    0 -0.00000000000E+00 -0.00000000000E+00 -0.45593999997E+02  0.45594000000E+02  0.51100000000E-03 0. -1.
    9900012    2    1    2    0    0  0.16430072594E+02  0.30921709321E+02  0.28337503748E+02  0.46142317505E+02  0.99999976634E+01 0.  0.
         12    1    1    2    0    0 -0.16430072594E+02 -0.30921709321E+02 -0.28337503748E+02  0.45045682495E+02  0.00000000000E+00 0. -1.
         11    1    3    3    0    0  0.58554256464E+00 -0.71162921651E-01  0.13898005743E+01  0.15097914272E+01  0.51100000000E-03 0. -1.
        -11    1    3    3    0    0  0.12984134195E+01  0.97134056612E+01  0.71486552487E+01  0.12130103012E+02  0.51100000000E-03 0.  1.
        -12    1    3    3    0    0  0.14546116609E+02  0.21279466582E+02  0.19799047925E+02  0.32502423066E+02  0.00000000000E+00 0.  1.
</event>
<event>
 7    1  0.1442665E-008  0.4614232E+02  0.7816164E-02  0.1320468E+00
        -11   -1    0    0    0    0  0.00000000000E+00  0.00000000000E+00  0.45593999997E+02  0.45594000000E+02  0.51100000000E-03 0.  1.
         11   -1    0    0    0    0 -0.00000000000E+00 -0.00000000000E+00 -0.45593999997E+02  0.45594000000E+02  0.51100000000E-03 0. -1.
    9900012    2    1    2    0    0 -0.29146696501E+01  0.34558329830E+02  0.28746130933E+02  0.46142317594E+02  0.99999984734E+01 0.  0.
         12    1    1    2    0    0  0.29146696501E+01 -0.34558329830E+02 -0.28746130933E+02  0.45045682406E+02  0.00000000000E+00 0. -1.
         11    1    3    3    0    0 -0.22477673795E+01  0.21079245606E+02  0.17316697390E+02  0.27372523856E+02  0.51100000000E-03 0.  1.
        -11    1    3    3    0    0  0.19556634756E+01  0.28382538322E+01  0.49710676898E+01  0.60491171822E+01  0.51100000000E-03 0. -1.
         12    1    3    3    0    0 -0.26225657462E+01  0.10640830392E+02  0.64583658533E+01  0.12720676555E+02  0.00000000000E+00 0. -1.
</event>
<event>
 7    1  0.1442665E-008  0.4614232E+02  0.7816164E-02  0.1320468E+00
        -11   -1    0    0    0    0  0.00000000000E+00  0.00000000000E+00  0.45593999997E+02  0.45594000000E+02  0.51100000000E-03 0. -1.
         11   -1    0    0    0    0 -0.00000000000E+00 -0.00000000000E+00 -0.45593999997E+02  0.45594000000E+02  0.51100000000E-03 0.  1.
    9900012    2    1    2    0    0  0.64486079675E+01 -0.44425035682E+02  0.37343199335E+01  0.46142317794E+02  0.10000000299E+02 0.  0.
         12    1    1    2    0    0 -0.64486079675E+01  0.44425035682E+02 -0.37343199335E+01  0.45045682206E+02  0.00000000000E+00 0. -1.
         11    1    3    3    0    0  0.54330884605E+01 -0.31528132635E+02  0.45485898786E+01  0.32314567425E+02  0.51100000000E-03 0. -1.
        -11    1    3    3    0    0 -0.13834088052E+01 -0.97055389735E+01 -0.78742599817E+00  0.98352095378E+01  0.51100000000E-03 0.  1.
        -12    1    3    3    0    0  0.23989283123E+01 -0.31913640730E+01 -0.26843946993E-01  0.39925408315E+01  0.00000000000E+00 0.  1.
</event>
<event>
 7    1  0.1442665E-008  0.4614232E+02  0.7816164E-02  0.1320468E+00
        -11   -1    0    0    0    0  0.00000000000E+00  0.00000000000E+00  0.45593999997E+02  0.45594000000E+02  0.51100000000E-03 0. -1.
         11   -1    0    0    0    0 -0.00000000000E+00 -0.00000000000E+00 -0.45593999997E+02  0.45594000000E+02  0.51100000000E-03 0.  1.
    9900012    2    1    2    0    0 -0.40575754044E+02 -0.11421509454E+02 -0.15883036217E+02  0.46142317255E+02  0.99999953879E+01 0.  0.
         12    1    1    2    0    0  0.40575754044E+02  0.11421509454E+02  0.15883036217E+02  0.45045682745E+02  0.00000000000E+00 0. -1.
         11    1    3    3    0    0 -0.22216842421E+02 -0.56565173082E+01 -0.13242301745E+02  0.26475324945E+02  0.51100000000E-03 0. -1.
        -11    1    3    3    0    0 -0.14840711253E+02 -0.44363000044E+01 -0.33302945918E+01  0.15843558014E+02  0.51100000000E-03 0.  1.
         12    1    3    3    0    0 -0.35182003708E+01 -0.13286921419E+01  0.68956011965E+00  0.38234342960E+01  0.00000000000E+00 0. -1.
</event>
<event>
 7    1  0.1442665E-008  0.4614232E+02  0.7816164E-02  0.1320468E+00
        -11   -1    0    0    0    0  0.00000000000E+00  0.00000000000E+00  0.45593999997E+02  0.45594000000E+02  0.51100000000E-03 0. -1.
         11   -1    0    0    0    0 -0.00000000000E+00 -0.00000000000E+00 -0.45593999997E+02  0.45594000000E+02  0.51100000000E-03 0.  1.
    9900012    2    1    2    0    0 -0.19332973645E+02  0.25375175417E+01 -0.40606780143E+02  0.46142318089E+02  0.10000002990E+02 0.  0.
         12    1    1    2    0    0  0.19332973645E+02 -0.25375175417E+01  0.40606780143E+02  0.45045681911E+02  0.00000000000E+00 0. -1.
         11    1    3    3    0    0  0.25848499527E+00 -0.34107294825E-01 -0.29142707646E+01  0.29259104824E+01  0.51100000000E-03 0. -1.
        -11    1    3    3    0    0 -0.83950818421E+01 -0.18003260571E+00 -0.90761408830E+01  0.12364713683E+02  0.51100000000E-03 0.  1.
        -12    1    3    3    0    0 -0.11196376798E+02  0.27516574423E+01 -0.28616368495E+02  0.30851693924E+02  0.00000000000E+00 0.  1.
</event>
<event>
 7    1  0.1442665E-008  0.4614232E+02  0.7816164E-02  0.1320468E+00
        -11   -1    0    0    0    0  0.00000000000E+00  0.00000000000E+00  0.45593999997E+02  0.45594000000E+02  0.51100000000E-03 0.  1.
         11   -1    0    0    0    0 -0.00000000000E+00 -0.00000000000E+00 -0.45593999997E+02  0.45594000000E+02  0.51100000000E-03 0. -1.
    9900012    2    1    2    0    0 -0.27681235250E+02  0.22215529902E+02  0.27736851651E+02  0.46142317707E+02  0.99999995029E+01 0.  0.
         12    1    1    2    0    0  0.27681235250E+02 -0.22215529902E+02 -0.27736851651E+02  0.45045682293E+02  0.00000000000E+00 0. -1.
         11    1    3    3    0    0 -0.59355107894E+00  0.32014118273E+01  0.47205921875E+01  0.57345733436E+01  0.51100000000E-03 0. -1.
        -11    1    3    3    0    0 -0.22888084575E+02  0.16756069158E+02  0.20638512559E+02  0.35079601909E+02  0.51100000000E-03 0.  1.
         12    1    3    3    0    0 -0.41995995958E+01  0.22580489157E+01  0.23777469043E+01  0.53281424541E+01  0.00000000000E+00 0. -1.
</event>
<event>
 7    1  0.1442665E-008  0.4614231E+02  0.7816164E-02  0.1320468E+00
        -11   -1    0    0    0    0  0.00000000000E+00  0.00000000000E+00  0.45593999997E+02  0.45594000000E+02  0.51100000000E-03 0.  1.
         11   -1    0    0    0    0 -0.00000000000E+00 -0.00000000000E+00 -0.45593999997E+02  0.45594000000E+02  0.51100000000E-03 0. -1.
    9900012    2    1    2    0    0 -0.10304813642E+02 -0.36275037271E+02  0.24638310005E+02  0.46142313934E+02  0.99999651052E+01 0.  0.
         12    1    1    2    0    0  0.10304813642E+02  0.36275037271E+02 -0.24638310005E+02  0.45045686066E+02  0.00000000000E+00 0. -1.
         11    1    3    3    0    0 -0.11231423413E+02 -0.25846046986E+02  0.18930615959E+02  0.33948950463E+02  0.51100000000E-03 0. -1.
        -11    1    3    3    0    0 -0.68309684745E-01 -0.91462053802E+01  0.47107226460E+01  0.10288277173E+02  0.51100000000E-03 0.  1.
         12    1    3    3    0    0  0.99491945522E+00 -0.12827849042E+01  0.99697140011E+00  0.19050862987E+01  0.00000000000E+00 0. -1.
</event>
<event>
 7    1  0.1442665E-008  0.4614232E+02  0.7816164E-02  0.1320468E+00
        -11   -1    0    0    0    0  0.00000000000E+00  0.00000000000E+00  0.45593999997E+02  0.45594000000E+02  0.51100000000E-03 0. -1.
         11   -1    0    0    0    0 -0.00000000000E+00 -0.00000000000E+00 -0.45593999997E+02  0.45594000000E+02  0.51100000000E-03 0.  1.
    9900012    2    1    2    0    0 -0.17137637173E+02 -0.14281035027E+02 -0.39133960229E+02  0.46142318603E+02  0.10000007680E+02 0.  0.
         12    1    1    2    0    0  0.17137637173E+02  0.14281035027E+02  0.39133960229E+02  0.45045681397E+02  0.00000000000E+00 0. -1.
         11    1    3    3    0    0 -0.11390681646E+02 -0.57947734095E+01 -0.23940545560E+02  0.27138105115E+02  0.51100000000E-03 0.  1.
        -11    1    3    3    0    0  0.22419388515E+00 -0.19944034402E+01 -0.57126464117E+01  0.60549349515E+01  0.51100000000E-03 0. -1.
         12    1    3    3    0    0 -0.59711494126E+01 -0.64918581769E+01 -0.94807682566E+01  0.12949278537E+02  0.00000000000E+00 0. -1.
</event>
<event>
 7    1  0.1442665E-008  0.4614232E+02  0.7816164E-02  0.1320468E+00
        -11   -1    0    0    0    0  0.00000000000E+00  0.00000000000E+00  0.45593999997E+02  0.45594000000E+02  0.51100000000E-03 0.  1.
         11   -1    0    0    0    0 -0.00000000000E+00 -0.00000000000E+00 -0.45593999997E+02  0.45594000000E+02  0.51100000000E-03 0. -1.
    9900012    2    1    2    0    0 -0.48200861531E+01  0.14560461372E+02  0.42354140476E+02  0.46142317839E+02  0.10000000710E+02 0.  0.
         12    1    1    2    0    0  0.48200861531E+01 -0.14560461372E+02 -0.42354140476E+02  0.45045682161E+02  0.00000000000E+00 0. -1.
         11    1    3    3    0    0 -0.28931540643E+01  0.81278994948E+00  0.38191879785E+01  0.48597494810E+01  0.51100000000E-03 0. -1.
        -11    1    3    3    0    0 -0.34015649774E+01  0.10512190699E+02  0.31830649966E+02  0.33693724566E+02  0.51100000000E-03 0.  1.
        -12    1    3    3    0    0  0.14746328886E+01  0.32354807239E+01  0.67043025314E+01  0.75888437923E+01  0.00000000000E+00 0.  1.
</event>
<event>
 7    1  0.1442665E-008  0.4614232E+02  0.7816164E-02  0.1320468E+00
        -11   -1    0    0    0    0  0.00000000000E+00  0.00000000000E+00  0.45593999997E+02  0.45594000000E+02  0.51100000000E-03 0.  1.
         11   -1    0    0    0    0 -0.00000000000E+00 -0.00000000000E+00 -0.45593999997E+02  0.45594000000E+02  0.51100000000E-03 0. -1.
    9900012    2    1    2    0    0  0.23470181806E+02  0.14208587969E+02  0.35726462249E+02  0.46142317511E+02  0.99999977210E+01 0.  0.
         12    1    1    2    0    0 -0.23470181806E+02 -0.14208587969E+02 -0.35726462249E+02  0.45045682489E+02  0.00000000000E+00 0. -1.
         11    1    3    3    0    0  0.12514968530E+02  0.56174304305E+01  0.16038435634E+02  0.21104771493E+02  0.51100000000E-03 0. -1.
        -11    1    3    3    0    0  0.79132293984E+01  0.36474876870E+01  0.15824134871E+02  0.18064512466E+02  0.51100000000E-03 0.  1.
         12    1    3    3    0    0  0.30419838779E+01  0.49436698517E+01  0.38638917436E+01  0.69730335524E+01  0.00000000000E+00 0. -1.
</event>
<event>
 7    1  0.1442665E-008  0.4614232E+02  0.7816164E-02  0.1320468E+00
        -11   -1    0    0    0    0  0.00000000000E+00  0.00000000000E+00  0.45593999997E+02  0.45594000000E+02  0.51100000000E-03 0. -1.
         11   -1    0    0    0    0 -0.00000000000E+00 -0.00000000000E+00 -0.45593999997E+02  0.45594000000E+02  0.51100000000E-03 0.  1.
    9900012    2    1    2    0    0  0.12910509973E+01 -0.26051112090E+02 -0.36725825132E+02  0.46142317794E+02  0.10000000297E+02 0.  0.
         12    1    1    2    0    0 -0.12910509973E+01  0.26051112090E+02  0.36725825132E+02  0.45045682206E+02  0.00000000000E+00 0. -1.
         11    1    3    3    0    0  0.12642550385E+01 -0.21315844336E+01 -0.64626415953E+01  0.69215409881E+01  0.51100000000E-03 0. -1.
        -11    1    3    3    0    0  0.20099630500E+01 -0.20259470894E+02 -0.22041068504E+02  0.30004913154E+02  0.51100000000E-03 0.  1.
        -12    1    3    3    0    0 -0.19831670912E+01 -0.36600567620E+01 -0.82221150335E+01  0.92158636512E+01  0.00000000000E+00 0.  1.
</event>
<event>
 7    1  0.1442665E-008  0.4614232E+02  0.7816164E-02  0.1320468E+00
        -11   -1    0    0    0    0  0.00000000000E+00  0.00000000000E+00  0.45593999997E+02  0.45594000000E+02  0.51100000000E-03 0.  1.
         11   -1    0    0    0    0 -0.00000000000E+00 -0.00000000000E+00 -0.45593999997E+02  0.45594000000E+02  0.51100000000E-03 0. -1.
    9900012    2    1    2    0    0 -0.38100684568E+02  0.75923998715E+01  0.22799270440E+02  0.46142318376E+02  0.10000005610E+02 0.  0.
         12    1    1    2    0    0  0.38100684568E+02 -0.75923998715E+01 -0.22799270440E+02  0.45045681624E+02  0.00000000000E+00 0. -1.
         11    1    3    3    0    0 -0.13938380757E+02  0.14857883101E+01  0.45451467222E+01  0.14735819761E+02  0.51100000000E-03 0. -1.
        -11    1    3    3    0    0 -0.13939926066E+02  0.32537094213E+01  0.13843154414E+02  0.19913339452E+02  0.51100000000E-03 0.  1.
        -12    1    3    3    0    0 -0.10222377744E+02  0.28529021402E+01  0.44109693047E+01  0.11493159164E+02  0.00000000000E+00 0.  1.
</event>
<event>
 7    1  0.1442665E-008  0.4614232E+02  0.7816164E-02  0.1320468E+00
        -11   -1    0    0    0    0  0.00000000000E+00  0.00000000000E+00  0.45593999997E+02  0.45594000000E+02  0.51100000000E-03 0.  1.
         11   -1    0    0    0    0 -0.00000000000E+00 -0.00000000000E+00 -0.45593999997E+02  0.45594000000E+02  0.51100000000E-03 0. -1.
    9900012    2    1    2    0    0  0.20663160591E+02 -0.33706012926E+02  0.21588236253E+02  0.46142318104E+02  0.10000003124E+02 0.  0.
         12    1    1    2    0    0 -0.20663160591E+02  0.33706012926E+02 -0.21588236253E+02  0.45045681896E+02  0.00000000000E+00 0. -1.
         11    1    3    3    0    0  0.42365321924E+01 -0.67541202075E+01  0.33691627398E+01  0.86554955157E+01  0.51100000000E-03 0. -1.
        -11    1    3    3    0    0  0.14855126026E+01 -0.23711259996E+01 -0.90919580706E+00  0.29420440981E+01  0.51100000000E-03 0.  1.
        -12    1    3    3    0    0  0.14941115796E+02 -0.24580766719E+02  0.19128269321E+02  0.34544778490E+02  0.00000000000E+00 0.  1.
</event>
<event>
 7    1  0.1442665E-008  0.4614231E+02  0.7816164E-02  0.1320468E+00
        -11   -1    0    0    0    0  0.00000000000E+00  0.00000000000E+00  0.45593999997E+02  0.45594000000E+02  0.51100000000E-03 0.  1.
         11   -1    0    0    0    0 -0.00000000000E+00 -0.00000000000E+00 -0.45593999997E+02  0.45594000000E+02  0.51100000000E-03 0. -1.
    9900012    2    1    2    0    0  0.19874833143E+01  0.42102458390E+02  0.15891718134E+02  0.46142314328E+02  0.99999686946E+01 0.  0.
         12    1    1    2    0    0 -0.19874833143E+01 -0.42102458390E+02 -0.15891718134E+02  0.45045685672E+02  0.00000000000E+00 0. -1.
         11    1    3    3    0    0  0.10161109177E+01  0.45389418908E+01  0.48214166844E+01  0.66992935442E+01  0.51100000000E-03 0.  1.
        -11    1    3    3    0    0 -0.40899963776E-01  0.84484808779E+01  0.54059935677E+00  0.84658578937E+01  0.51100000000E-03 0. -1.
        -12    1    3    3    0    0  0.10122723603E+01  0.29115035621E+02  0.10529702092E+02  0.30977162890E+02  0.00000000000E+00 0.  1.
</event>
<event>
 7    1  0.1442665E-008  0.4614232E+02  0.7816164E-02  0.1320468E+00
        -11   -1    0    0    0    0  0.00000000000E+00  0.00000000000E+00  0.45593999997E+02  0.45594000000E+02  0.51100000000E-03 0.  1.
         11   -1    0    0    0    0 -0.00000000000E+00 -0.00000000000E+00 -0.45593999997E+02  0.45594000000E+02  0.51100000000E-03 0. -1.
    9900012    2    1    2    0    0 -0.26420242193E+02 -0.33993762570E+02 -0.13247960178E+02  0.46142317187E+02  0.99999947670E+01 0.  0.
         12    1    1    2    0    0  0.26420242193E+02  0.33993762570E+02  0.13247960178E+02  0.45045682813E+02  0.00000000000E+00 0. -1.
         11    1    3    3    0    0 -0.54199681768E+01 -0.11795135766E+02 -0.74056827770E+01  0.14944745579E+02  0.51100000000E-03 0. -1.
        -11    1    3    3    0    0 -0.17316647249E+02 -0.18719268576E+02 -0.56931531673E+01  0.26128323353E+02  0.51100000000E-03 0.  1.
         12    1    3    3    0    0 -0.36836267672E+01 -0.34793582278E+01 -0.14912423376E+00  0.50692482553E+01  0.00000000000E+00 0. -1.
</event>
<event>
 7    1  0.1442665E-008  0.4614232E+02  0.7816164E-02  0.1320468E+00
        -11   -1    0    0    0    0  0.00000000000E+00  0.00000000000E+00  0.45593999997E+02  0.45594000000E+02  0.51100000000E-03 0.  1.
         11   -1    0    0    0    0 -0.00000000000E+00 -0.00000000000E+00 -0.45593999997E+02  0.45594000000E+02  0.51100000000E-03 0. -1.
    9900012    2    1    2    0    0  0.95253209973E+01  0.41536674381E+02  0.14597479274E+02  0.46142318077E+02  0.10000002880E+02 0.  0.
         12    1    1    2    0    0 -0.95253209973E+01 -0.41536674381E+02 -0.14597479274E+02  0.45045681923E+02  0.00000000000E+00 0. -1.
         11    1    3    3    0    0  0.53231862345E+00  0.13539016293E+01  0.28533063756E+01  0.32027754015E+01  0.51100000000E-03 0. -1.
        -11    1    3    3    0    0  0.57681714539E+01  0.19701522342E+02  0.67893832751E+01  0.21622153224E+02  0.51100000000E-03 0.  1.
        -12    1    3    3    0    0  0.32248309200E+01  0.20481250410E+02  0.49547896236E+01  0.21317389452E+02  0.00000000000E+00 0.  1.
</event>
<event>
 7    1  0.1442665E-008  0.4614232E+02  0.7816164E-02  0.1320468E+00
        -11   -1    0    0    0    0  0.00000000000E+00  0.00000000000E+00  0.45593999997E+02  0.45594000000E+02  0.51100000000E-03 0.  1.
         11   -1    0    0    0    0 -0.00000000000E+00 -0.00000000000E+00 -0.45593999997E+02  0.45594000000E+02  0.51100000000E-03 0. -1.
    9900012    2    1    2    0    0 -0.20291878458E+02 -0.31798733856E+02  0.24621002315E+02  0.46142316953E+02  0.99999926313E+01 0.  0.
         12    1    1    2    0    0  0.20291878458E+02  0.31798733856E+02 -0.24621002315E+02  0.45045683047E+02  0.00000000000E+00 0. -1.
         11    1    3    3    0    0 -0.71497160108E+01 -0.67787768698E+01  0.60971863596E+01  0.11586454878E+02  0.51100000000E-03 0. -1.
        -11    1    3    3    0    0 -0.59647368918E+00 -0.76558822681E+00  0.29817781655E+01  0.31357467187E+01  0.51100000000E-03 0.  1.
        -12    1    3    3    0    0 -0.12545688758E+02 -0.24254368759E+02  0.15542037790E+02  0.31420115356E+02  0.00000000000E+00 0.  1.
</event>
<event>
 7    1  0.1442665E-008  0.4614232E+02  0.7816164E-02  0.1320468E+00
        -11   -1    0    0    0    0  0.00000000000E+00  0.00000000000E+00  0.45593999997E+02  0.45594000000E+02  0.51100000000E-03 0.  1.
         11   -1    0    0    0    0 -0.00000000000E+00 -0.00000000000E+00 -0.45593999997E+02  0.45594000000E+02  0.51100000000E-03 0. -1.
    9900012    2    1    2    0    0  0.96431995696E+01 -0.19277765537E+02  0.39553633409E+02  0.46142318100E+02  0.10000003088E+02 0.  0.
         12    1    1    2    0    0 -0.96431995696E+01  0.19277765537E+02 -0.39553633409E+02  0.45045681900E+02  0.00000000000E+00 0. -1.
         11    1    3    3    0    0  0.26553425767E+01 -0.31551230053E+01  0.45787981663E+01  0.61620644501E+01  0.51100000000E-03 0. -1.
        -11    1    3    3    0    0  0.36005232346E+01 -0.49707309503E+01  0.53387910548E+01  0.81347786651E+01  0.51100000000E-03 0.  1.
        -12    1    3    3    0    0  0.33873337583E+01 -0.11151911581E+02  0.29636044187E+02  0.31845474985E+02  0.00000000000E+00 0.  1.
</event>
<event>
 7    1  0.1442665E-008  0.4614232E+02  0.7816164E-02  0.1320468E+00
        -11   -1    0    0    0    0  0.00000000000E+00  0.00000000000E+00  0.45593999997E+02  0.45594000000E+02  0.51100000000E-03 0. -1.
         11   -1    0    0    0    0 -0.00000000000E+00 -0.00000000000E+00 -0.45593999997E+02  0.45594000000E+02  0.51100000000E-03 0.  1.
    9900012    2    1    2    0    0 -0.37025743776E+02 -0.19307172774E+02  0.16894983590E+02  0.46142322148E+02  0.10000040001E+02 0.  0.
         12    1    1    2    0    0  0.37025743776E+02  0.19307172774E+02 -0.16894983590E+02  0.45045677852E+02  0.00000000000E+00 0. -1.
         11    1    3    3    0    0 -0.59653202743E+01 -0.40191981833E+00  0.12678701328E+01  0.61117984629E+01  0.51100000000E-03 0. -1.
        -11    1    3    3    0    0 -0.14165329869E+02 -0.66238591928E+01  0.40672932952E+01  0.16157814082E+02  0.51100000000E-03 0.  1.
         12    1    3    3    0    0 -0.16895093632E+02 -0.12281393763E+02  0.11559820162E+02  0.23872709603E+02  0.00000000000E+00 0. -1.
</event>
<event>
 7    1  0.1442665E-008  0.4614232E+02  0.7816164E-02  0.1320468E+00
        -11   -1    0    0    0    0  0.00000000000E+00  0.00000000000E+00  0.45593999997E+02  0.45594000000E+02  0.51100000000E-03 0. -1.
         11   -1    0    0    0    0 -0.00000000000E+00 -0.00000000000E+00 -0.45593999997E+02  0.45594000000E+02  0.51100000000E-03 0.  1.
    9900012    2    1    2    0    0  0.24248286538E+02  0.23177309983E+02 -0.30065702150E+02  0.46142317146E+02  0.99999943882E+01 0.  0.
         12    1    1    2    0    0 -0.24248286538E+02 -0.23177309983E+02  0.30065702150E+02  0.45045682854E+02  0.00000000000E+00 0. -1.
         11    1    3    3    0    0  0.55252649880E+00 -0.10430191201E+00  0.48529765012E-01  0.56437560183E+00  0.51100000000E-03 0. -1.
        -11    1    3    3    0    0  0.70918861653E+01  0.52064288763E+01 -0.37683354622E+01  0.95708987792E+01  0.51100000000E-03 0.  1.
        -12    1    3    3    0    0  0.16603873873E+02  0.18075183018E+02 -0.26345896453E+02  0.36007042765E+02  0.00000000000E+00 0.  1.
</event>
<event>
 7    1  0.1442665E-008  0.4614232E+02  0.7816164E-02  0.1320468E+00
        -11   -1    0    0    0    0  0.00000000000E+00  0.00000000000E+00  0.45593999997E+02  0.45594000000E+02  0.51100000000E-03 0.  1.
         11   -1    0    0    0    0 -0.00000000000E+00 -0.00000000000E+00 -0.45593999997E+02  0.45594000000E+02  0.51100000000E-03 0. -1.
    9900012    2    1    2    0    0  0.30813922694E+02 -0.77627825573E+01  0.31927337370E+02  0.46142317672E+02  0.99999991917E+01 0.  0.
         12    1    1    2    0    0 -0.30813922694E+02  0.77627825573E+01 -0.31927337370E+02  0.45045682328E+02  0.00000000000E+00 0. -1.
         11    1    3    3    0    0  0.10953123392E+02 -0.60074040060E+01  0.12544588456E+02  0.17703855928E+02  0.51100000000E-03 0. -1.
        -11    1    3    3    0    0  0.12924847245E+02  0.83937520817E+00  0.15060715279E+02  0.19864072393E+02  0.51100000000E-03 0.  1.
         12    1    3    3    0    0  0.69359520581E+01 -0.25947537594E+01  0.43220336348E+01  0.85743893523E+01  0.00000000000E+00 0. -1.
</event>
<event>
 7    1  0.1442665E-008  0.4614232E+02  0.7816164E-02  0.1320468E+00
        -11   -1    0    0    0    0  0.00000000000E+00  0.00000000000E+00  0.45593999997E+02  0.45594000000E+02  0.51100000000E-03 0. -1.
         11   -1    0    0    0    0 -0.00000000000E+00 -0.00000000000E+00 -0.45593999997E+02  0.45594000000E+02  0.51100000000E-03 0.  1.
    9900012    2    1    2    0    0  0.38518126999E+02  0.67455158142E+01  0.22359906230E+02  0.46142317657E+02  0.99999990522E+01 0.  0.
         12    1    1    2    0    0 -0.38518126999E+02 -0.67455158142E+01 -0.22359906230E+02  0.45045682343E+02  0.00000000000E+00 0. -1.
         11    1    3    3    0    0  0.50835913117E-01 -0.25336725611E+00  0.18695108080E+01  0.18872864591E+01  0.51100000000E-03 0. -1.
        -11    1    3    3    0    0  0.23543353816E+02  0.34015409427E+01  0.11009834064E+02  0.26212142913E+02  0.51100000000E-03 0.  1.
        -12    1    3    3    0    0  0.14923937270E+02  0.35973421277E+01  0.94805613575E+01  0.18042888285E+02  0.00000000000E+00 0.  1.
</event>
<event>
 7    1  0.1442665E-008  0.4614232E+02  0.7816164E-02  0.1320468E+00
        -11   -1    0    0    0    0  0.00000000000E+00  0.00000000000E+00  0.45593999997E+02  0.45594000000E+02  0.51100000000E-03 0.  1.
         11   -1    0    0    0    0 -0.00000000000E+00 -0.00000000000E+00 -0.45593999997E+02  0.45594000000E+02  0.51100000000E-03 0. -1.
    9900012    2    1    2    0    0 -0.40358445750E+02  0.16953830920E+02  0.10624355864E+02  0.46142318034E+02  0.10000002490E+02 0.  0.
         12    1    1    2    0    0  0.40358445750E+02 -0.16953830920E+02 -0.10624355864E+02  0.45045681966E+02  0.00000000000E+00 0. -1.
         11    1    3    3    0    0 -0.59941827611E+01  0.11625496636E+01  0.31926179896E+01  0.68901784144E+01  0.51100000000E-03 0. -1.
        -11    1    3    3    0    0 -0.73276690748E+00  0.28682781077E+00 -0.99861988078E+00  0.12714005903E+01  0.51100000000E-03 0.  1.
        -12    1    3    3    0    0 -0.33631496082E+02  0.15504453446E+02  0.84303577555E+01  0.37980739029E+02  0.00000000000E+00 0.  1.
</event>
<event>
 7    1  0.1442665E-008  0.4614232E+02  0.7816164E-02  0.1320468E+00
        -11   -1    0    0    0    0  0.00000000000E+00  0.00000000000E+00  0.45593999997E+02  0.45594000000E+02  0.51100000000E-03 0. -1.
         11   -1    0    0    0    0 -0.00000000000E+00 -0.00000000000E+00 -0.45593999997E+02  0.45594000000E+02  0.51100000000E-03 0.  1.
    9900012    2    1    2    0    0  0.15955796691E+02  0.96859348313E+01 -0.40996448063E+02  0.46142317239E+02  0.99999952404E+01 0.  0.
         12    1    1    2    0    0 -0.15955796691E+02 -0.96859348313E+01  0.40996448063E+02  0.45045682761E+02  0.00000000000E+00 0. -1.
         11    1    3    3    0    0  0.54294062273E+00 -0.49657072146E+00  0.26404005306E+00  0.78171888295E+00  0.51100000000E-03 0. -1.
        -11    1    3    3    0    0  0.44725933820E+01  0.47012873152E+01 -0.16813152796E+02  0.18021883952E+02  0.51100000000E-03 0.  1.
        -12    1    3    3    0    0  0.10940262686E+02  0.54812182376E+01 -0.24447335320E+02  0.27338714404E+02  0.00000000000E+00 0.  1.
</event>
<event>
 7    1  0.1442665E-008  0.4614232E+02  0.7816164E-02  0.1320468E+00
        -11   -1    0    0    0    0  0.00000000000E+00  0.00000000000E+00  0.45593999997E+02  0.45594000000E+02  0.51100000000E-03 0. -1.
         11   -1    0    0    0    0 -0.00000000000E+00 -0.00000000000E+00 -0.45593999997E+02  0.45594000000E+02  0.51100000000E-03 0.  1.
    9900012    2    1    2    0    0  0.24983910590E+02 -0.34983226676E+02 -0.13457027534E+02  0.46142317331E+02  0.99999960817E+01 0.  0.
         12    1    1    2    0    0 -0.24983910590E+02  0.34983226676E+02  0.13457027534E+02  0.45045682669E+02  0.00000000000E+00 0. -1.
         11    1    3    3    0    0  0.91560222530E+01 -0.59014620502E+01 -0.40868406697E+01  0.11634528987E+02  0.51100000000E-03 0. -1.
        -11    1    3    3    0    0  0.87991614100E+01 -0.13495620552E+02 -0.47693830955E+01  0.16801905576E+02  0.51100000000E-03 0.  1.
         12    1    3    3    0    0  0.70287269269E+01 -0.15586144073E+02 -0.46008037686E+01  0.17705882768E+02  0.00000000000E+00 0. -1.
</event>
<event>
 7    1  0.1442665E-008  0.4614232E+02  0.7816164E-02  0.1320468E+00
        -11   -1    0    0    0    0  0.00000000000E+00  0.00000000000E+00  0.45593999997E+02  0.45594000000E+02  0.51100000000E-03 0. -1.
         11   -1    0    0    0    0 -0.00000000000E+00 -0.00000000000E+00 -0.45593999997E+02  0.45594000000E+02  0.51100000000E-03 0.  1.
    9900012    2    1    2    0    0 -0.19664068674E+02 -0.27461192550E+02 -0.29804710711E+02  0.46142317924E+02  0.10000001487E+02 0.  0.
         12    1    1    2    0    0  0.19664068674E+02  0.27461192550E+02  0.29804710711E+02  0.45045682076E+02  0.00000000000E+00 0. -1.
         11    1    3    3    0    0 -0.63824642049E+01 -0.25533600166E+01 -0.44290520956E+01  0.81775301545E+01  0.51100000000E-03 0. -1.
        -11    1    3    3    0    0 -0.11884879029E+02 -0.22400493412E+02 -0.23095173532E+02  0.34298972221E+02  0.51100000000E-03 0.  1.
         12    1    3    3    0    0 -0.13967254406E+01 -0.25073391211E+01 -0.22804850833E+01  0.36658155491E+01  0.00000000000E+00 0. -1.
</event>
<event>
 7    1  0.1442665E-008  0.4614232E+02  0.7816164E-02  0.1320468E+00
        -11   -1    0    0    0    0  0.00000000000E+00  0.00000000000E+00  0.45593999997E+02  0.45594000000E+02  0.51100000000E-03 0. -1.
         11   -1    0    0    0    0 -0.00000000000E+00 -0.00000000000E+00 -0.45593999997E+02  0.45594000000E+02  0.51100000000E-03 0.  1.
    9900012    2    1    2    0    0  0.57431359047E+01 -0.27987888147E+02 -0.34825392467E+02  0.46142318148E+02  0.10000003532E+02 0.  0.
         12    1    1    2    0    0 -0.57431359047E+01  0.27987888147E+02  0.34825392467E+02  0.45045681852E+02  0.00000000000E+00 0. -1.
         11    1    3    3    0    0  0.77598900298E+00 -0.40670167272E+01 -0.15545935690E+01  0.44226174849E+01  0.51100000000E-03 0. -1.
        -11    1    3    3    0    0  0.45958848216E+01 -0.11923552874E+02 -0.13486430478E+02  0.18578941782E+02  0.51100000000E-03 0.  1.
         12    1    3    3    0    0  0.37126208009E+00 -0.11997318546E+02 -0.19784368420E+02  0.23140758882E+02  0.00000000000E+00 0. -1.
</event>
<event>
 7    1  0.1442665E-008  0.4614232E+02  0.7816164E-02  0.1320468E+00
        -11   -1    0    0    0    0  0.00000000000E+00  0.00000000000E+00  0.45593999997E+02  0.45594000000E+02  0.51100000000E-03 0.  1.
         11   -1    0    0    0    0 -0.00000000000E+00 -0.00000000000E+00 -0.45593999997E+02  0.45594000000E+02  0.51100000000E-03 0. -1.
    9900012    2    1    2    0    0  0.32516729993E+02  0.21017680158E+02 -0.23022441787E+02  0.46142318359E+02  0.10000005452E+02 0.  0.
         12    1    1    2    0    0 -0.32516729993E+02 -0.21017680158E+02  0.23022441787E+02  0.45045681641E+02  0.00000000000E+00 0. -1.
         11    1    3    3    0    0  0.25790427678E+01  0.33791437502E+01 -0.17714205269E+01  0.46052149816E+01  0.51100000000E-03 0. -1.
        -11    1    3    3    0    0  0.10443379553E+02  0.35954675587E+01 -0.10414118699E+02  0.15180429243E+02  0.51100000000E-03 0.  1.
        -12    1    3    3    0    0  0.19494307672E+02  0.14043068849E+02 -0.10836902561E+02  0.26356674135E+02  0.00000000000E+00 0.  1.
</event>
<event>
 7    1  0.1442665E-008  0.4614232E+02  0.7816164E-02  0.1320468E+00
        -11   -1    0    0    0    0  0.00000000000E+00  0.00000000000E+00  0.45593999997E+02  0.45594000000E+02  0.51100000000E-03 0.  1.
         11   -1    0    0    0    0 -0.00000000000E+00 -0.00000000000E+00 -0.45593999997E+02  0.45594000000E+02  0.51100000000E-03 0. -1.
    9900012    2    1    2    0    0 -0.81321488321E+01  0.41126345507E+02  0.16480445750E+02  0.46142320612E+02  0.10000025994E+02 0.  0.
         12    1    1    2    0    0  0.81321488321E+01 -0.41126345507E+02 -0.16480445750E+02  0.45045679388E+02  0.00000000000E+00 0. -1.
         11    1    3    3    0    0 -0.30427918674E+00  0.41516642471E+01  0.22114575678E+00  0.41686697580E+01  0.51100000000E-03 0. -1.
        -11    1    3    3    0    0 -0.54346283330E+01  0.13906073653E+02  0.29018721377E+01  0.15209698607E+02  0.51100000000E-03 0.  1.
        -12    1    3    3    0    0 -0.23932413123E+01  0.23068607607E+02  0.13357427856E+02  0.26763952247E+02  0.00000000000E+00 0.  1.
</event>
<event>
 7    1  0.1442665E-008  0.4614232E+02  0.7816164E-02  0.1320468E+00
        -11   -1    0    0    0    0  0.00000000000E+00  0.00000000000E+00  0.45593999997E+02  0.45594000000E+02  0.51100000000E-03 0.  1.
         11   -1    0    0    0    0 -0.00000000000E+00 -0.00000000000E+00 -0.45593999997E+02  0.45594000000E+02  0.51100000000E-03 0. -1.
    9900012    2    1    2    0    0 -0.92387532788E+01  0.29628389483E+01  0.43988414975E+02  0.46142316203E+02  0.99999857898E+01 0.  0.
         12    1    1    2    0    0  0.92387532788E+01 -0.29628389483E+01 -0.43988414975E+02  0.45045683797E+02  0.00000000000E+00 0. -1.
         11    1    3    3    0    0 -0.38516489570E+01 -0.30837704530E+00  0.89078960659E+01  0.97098356666E+01  0.51100000000E-03 0. -1.
        -11    1    3    3    0    0  0.17768291938E+01  0.74169594544E+00  0.11447638995E+02  0.11608431146E+02  0.51100000000E-03 0.  1.
        -12    1    3    3    0    0 -0.71639335157E+01  0.25295200482E+01  0.23632879914E+02  0.24824049390E+02  0.00000000000E+00 0.  1.
</event>
<event>
 7    1  0.1442665E-008  0.4614232E+02  0.7816164E-02  0.1320468E+00
        -11   -1    0    0    0    0  0.00000000000E+00  0.00000000000E+00  0.45593999997E+02  0.45594000000E+02  0.51100000000E-03 0.  1.
         11   -1    0    0    0    0 -0.00000000000E+00 -0.00000000000E+00 -0.45593999997E+02  0.45594000000E+02  0.51100000000E-03 0. -1.
    9900012    2    1    2    0    0 -0.28958074931E+02  0.75347674305E+01  0.33671512528E+02  0.46142316746E+02  0.99999907437E+01 0.  0.
         12    1    1    2    0    0  0.28958074931E+02 -0.75347674305E+01 -0.33671512528E+02  0.45045683254E+02  0.00000000000E+00 0. -1.
         11    1    3    3    0    0 -0.22342821780E+02  0.76876378997E+01  0.27469851098E+02  0.36233881674E+02  0.51100000000E-03 0. -1.
        -11    1    3    3    0    0 -0.60911244557E+00 -0.11171672219E+01  0.74746295672E-01  0.12746245890E+01  0.51100000000E-03 0.  1.
        -12    1    3    3    0    0 -0.60061407049E+01  0.96429675264E+00  0.61269151340E+01  0.86338104828E+01  0.00000000000E+00 0.  1.
</event>
<event>
 7    1  0.1442665E-008  0.4614232E+02  0.7816164E-02  0.1320468E+00
        -11   -1    0    0    0    0  0.00000000000E+00  0.00000000000E+00  0.45593999997E+02  0.45594000000E+02  0.51100000000E-03 0.  1.
         11   -1    0    0    0    0 -0.00000000000E+00 -0.00000000000E+00 -0.45593999997E+02  0.45594000000E+02  0.51100000000E-03 0. -1.
    9900012    2    1    2    0    0 -0.17525602148E+02 -0.28601408605E+02  0.30065367898E+02  0.46142315948E+02  0.99999834687E+01 0.  0.
         12    1    1    2    0    0  0.17525602148E+02  0.28601408605E+02 -0.30065367898E+02  0.45045684052E+02  0.00000000000E+00 0. -1.
         11    1    3    3    0    0 -0.82706660039E+01 -0.53737594470E+01  0.93794552691E+01  0.13610855526E+02  0.51100000000E-03 0. -1.
        -11    1    3    3    0    0 -0.70439407833E+01 -0.14749601612E+02  0.13353778603E+02  0.21106663704E+02  0.51100000000E-03 0.  1.
         12    1    3    3    0    0 -0.22109953604E+01 -0.84780475464E+01  0.73321340262E+01  0.11424796719E+02  0.00000000000E+00 0. -1.
</event>
<event>
 7    1  0.1442665E-008  0.4614232E+02  0.7816164E-02  0.1320468E+00
        -11   -1    0    0    0    0  0.00000000000E+00  0.00000000000E+00  0.45593999997E+02  0.45594000000E+02  0.51100000000E-03 0. -1.
         11   -1    0    0    0    0 -0.00000000000E+00 -0.00000000000E+00 -0.45593999997E+02  0.45594000000E+02  0.51100000000E-03 0.  1.
    9900012    2    1    2    0    0  0.15713380657E+01  0.36844096968E+02 -0.25868066178E+02  0.46142318381E+02  0.10000005654E+02 0.  0.
         12    1    1    2    0    0 -0.15713380657E+01 -0.36844096968E+02  0.25868066178E+02  0.45045681619E+02  0.00000000000E+00 0. -1.
         11    1    3    3    0    0 -0.21571013818E+01  0.82192646319E+01 -0.21728055436E+01  0.87710023174E+01  0.51100000000E-03 0. -1.
        -11    1    3    3    0    0  0.23658560005E+01  0.17794327399E+02 -0.15583374235E+02  0.23771346512E+02  0.51100000000E-03 0.  1.
         12    1    3    3    0    0  0.13625834470E+01  0.10830504938E+02 -0.81118863993E+01  0.13599969552E+02  0.00000000000E+00 0. -1.
</event>
<event>
 7    1  0.1442665E-008  0.4614232E+02  0.7816164E-02  0.1320468E+00
        -11   -1    0    0    0    0  0.00000000000E+00  0.00000000000E+00  0.45593999997E+02  0.45594000000E+02  0.51100000000E-03 0.  1.
         11   -1    0    0    0    0 -0.00000000000E+00 -0.00000000000E+00 -0.45593999997E+02  0.45594000000E+02  0.51100000000E-03 0. -1.
    9900012    2    1    2    0    0 -0.74473852352E+01  0.38600112114E+02  0.21992754456E+02  0.46142318180E+02  0.10000003820E+02 0.  0.
         12    1    1    2    0    0  0.74473852352E+01 -0.38600112114E+02 -0.21992754456E+02  0.45045681820E+02  0.00000000000E+00 0. -1.
         11    1    3    3    0    0  0.54038294694E+00  0.10956211128E+00  0.93777026430E-01  0.55929596582E+00  0.51100000000E-03 0. -1.
        -11    1    3    3    0    0 -0.46414485954E+01  0.28878462856E+02  0.12786383567E+02  0.31921783581E+02  0.51100000000E-03 0.  1.
        -12    1    3    3    0    0 -0.33463195867E+01  0.96120871464E+01  0.91125938627E+01  0.13661238633E+02  0.00000000000E+00 0.  1.
</event>
<event>
 7    1  0.1442665E-008  0.4614232E+02  0.7816164E-02  0.1320468E+00
        -11   -1    0    0    0    0  0.00000000000E+00  0.00000000000E+00  0.45593999997E+02  0.45594000000E+02  0.51100000000E-03 0. -1.
         11   -1    0    0    0    0 -0.00000000000E+00 -0.00000000000E+00 -0.45593999997E+02  0.45594000000E+02  0.51100000000E-03 0.  1.
    9900012    2    1    2    0    0  0.29800101399E+01 -0.40866157236E+02 -0.18713371818E+02  0.46142317050E+02  0.99999935138E+01 0.  0.
         12    1    1    2    0    0 -0.29800101399E+01  0.40866157236E+02  0.18713371818E+02  0.45045682950E+02  0.00000000000E+00 0. -1.
         11    1    3    3    0    0 -0.19615308222E+01 -0.11156149352E+02 -0.54656958779E+01  0.12577006926E+02  0.51100000000E-03 0. -1.
        -11    1    3    3    0    0  0.42645454819E+01 -0.29739680066E+02 -0.13356404688E+02  0.32878997324E+02  0.51100000000E-03 0.  1.
        -12    1    3    3    0    0  0.67699548019E+00  0.29672181905E-01  0.10872874771E+00  0.68631279979E+00  0.00000000000E+00 0.  1.
</event>
<event>
 7    1  0.1442665E-008  0.4614232E+02  0.7816164E-02  0.1320468E+00
        -11   -1    0    0    0    0  0.00000000000E+00  0.00000000000E+00  0.45593999997E+02  0.45594000000E+02  0.51100000000E-03 0.  1.
         11   -1    0    0    0    0 -0.00000000000E+00 -0.00000000000E+00 -0.45593999997E+02  0.45594000000E+02  0.51100000000E-03 0. -1.
    9900012    2    1    2    0    0  0.20490005613E+00  0.37824950666E+02  0.24461083347E+02  0.46142317905E+02  0.10000001314E+02 0.  0.
         12    1    1    2    0    0 -0.20490005613E+00 -0.37824950666E+02 -0.24461083347E+02  0.45045682095E+02  0.00000000000E+00 0. -1.
         11    1    3    3    0    0 -0.50352401696E+00  0.97344049849E+00 -0.38844191478E+00  0.11627597439E+01  0.51100000000E-03 0. -1.
        -11    1    3    3    0    0  0.17091987697E+01  0.12237340313E+02  0.11874222371E+02  0.17136832132E+02  0.51100000000E-03 0.  1.
        -12    1    3    3    0    0 -0.10007746966E+01  0.24614169854E+02  0.12975302891E+02  0.27842726029E+02  0.00000000000E+00 0.  1.
</event>
<event>
 7    1  0.1442665E-008  0.4614232E+02  0.7816164E-02  0.1320468E+00
        -11   -1    0    0    0    0  0.00000000000E+00  0.00000000000E+00  0.45593999997E+02  0.45594000000E+02  0.51100000000E-03 0.  1.
         11   -1    0    0    0    0 -0.00000000000E+00 -0.00000000000E+00 -0.45593999997E+02  0.45594000000E+02  0.51100000000E-03 0. -1.
    9900012    2    1    2    0    0  0.24743282728E+02  0.11325782269E+02  0.35897216078E+02  0.46142317562E+02  0.99999981869E+01 0.  0.
         12    1    1    2    0    0 -0.24743282728E+02 -0.11325782269E+02 -0.35897216078E+02  0.45045682438E+02  0.00000000000E+00 0. -1.
         11    1    3    3    0    0  0.81442250359E+01  0.76344827492E+01  0.12705196723E+02  0.16912591531E+02  0.51100000000E-03 0. -1.
        -11    1    3    3    0    0  0.26088968083E+01 -0.10291766718E+01  0.21968730819E+01  0.35625550911E+01  0.51100000000E-03 0.  1.
        -12    1    3    3    0    0  0.13990160884E+02  0.47204761916E+01  0.20995146273E+02  0.25667170940E+02  0.00000000000E+00 0.  1.
</event>
<event>
 7    1  0.1442665E-008  0.4614232E+02  0.7816164E-02  0.1320468E+00
        -11   -1    0    0    0    0  0.00000000000E+00  0.00000000000E+00  0.45593999997E+02  0.45594000000E+02  0.51100000000E-03 0.  1.
         11   -1    0    0    0    0 -0.00000000000E+00 -0.00000000000E+00 -0.45593999997E+02  0.45594000000E+02  0.51100000000E-03 0. -1.
    9900012    2    1    2    0    0  0.20835622423E+02  0.21285381249E+02  0.33792344183E+02  0.46142321605E+02  0.10000035053E+02 0.  0.
         12    1    1    2    0    0 -0.20835622423E+02 -0.21285381249E+02 -0.33792344183E+02  0.45045678395E+02  0.00000000000E+00 0. -1.
         11    1    3    3    0    0  0.27606077372E+01  0.71384317256E+01  0.50145503082E+01  0.91500752802E+01  0.51100000000E-03 0. -1.
        -11    1    3    3    0    0  0.39694569011E+01  0.50070171238E+01  0.69111736421E+01  0.94122861165E+01  0.51100000000E-03 0.  1.
         12    1    3    3    0    0  0.14105557785E+02  0.91399323994E+01  0.21866620233E+02  0.27579960208E+02  0.00000000000E+00 0. -1.
</event>
<event>
 7    1  0.1442665E-008  0.4614232E+02  0.7816164E-02  0.1320468E+00
        -11   -1    0    0    0    0  0.00000000000E+00  0.00000000000E+00  0.45593999997E+02  0.45594000000E+02  0.51100000000E-03 0.  1.
         11   -1    0    0    0    0 -0.00000000000E+00 -0.00000000000E+00 -0.45593999997E+02  0.45594000000E+02  0.51100000000E-03 0. -1.
    9900012    2    1    2    0    0 -0.20995034061E+02  0.39853726500E+02  0.50318396450E-01  0.46142317598E+02  0.99999985098E+01 0.  0.
         12    1    1    2    0    0  0.20995034061E+02 -0.39853726500E+02 -0.50318396450E-01  0.45045682402E+02  0.00000000000E+00 0. -1.
         11    1    3    3    0    0 -0.45755696877E+01  0.47491013289E+01 -0.98026073451E+00  0.66671367743E+01  0.51100000000E-03 0. -1.
        -11    1    3    3    0    0 -0.10594425877E-01  0.31027397074E+01  0.16338446849E+01  0.35066443573E+01  0.51100000000E-03 0.  1.
        -12    1    3    3    0    0 -0.16408869947E+02  0.32001885464E+02 -0.60326555391E+00  0.35968536466E+02  0.00000000000E+00 0.  1.
</event>
<event>
 7    1  0.1442665E-008  0.4614232E+02  0.7816164E-02  0.1320468E+00
        -11   -1    0    0    0    0  0.00000000000E+00  0.00000000000E+00  0.45593999997E+02  0.45594000000E+02  0.51100000000E-03 0.  1.
         11   -1    0    0    0    0 -0.00000000000E+00 -0.00000000000E+00 -0.45593999997E+02  0.45594000000E+02  0.51100000000E-03 0. -1.
    9900012    2    1    2    0    0 -0.21785869407E+02 -0.14175377293E+02  0.36790597434E+02  0.46142317779E+02  0.10000000166E+02 0.  0.
         12    1    1    2    0    0  0.21785869407E+02  0.14175377293E+02 -0.36790597434E+02  0.45045682221E+02  0.00000000000E+00 0. -1.
         11    1    3    3    0    0 -0.10031555580E+02 -0.33056928848E+01  0.16966427747E+02  0.19985479318E+02  0.51100000000E-03 0. -1.
        -11    1    3    3    0    0 -0.11624501656E+02 -0.94392815836E+01  0.19656998665E+02  0.24710861425E+02  0.51100000000E-03 0.  1.
         12    1    3    3    0    0 -0.12981216964E+00 -0.14304028243E+01  0.16717102160E+00  0.14459770363E+01  0.00000000000E+00 0. -1.
</event>
<event>
 7    1  0.1442665E-008  0.4614232E+02  0.7816164E-02  0.1320468E+00
        -11   -1    0    0    0    0  0.00000000000E+00  0.00000000000E+00  0.45593999997E+02  0.45594000000E+02  0.51100000000E-03 0. -1.
         11   -1    0    0    0    0 -0.00000000000E+00 -0.00000000000E+00 -0.45593999997E+02  0.45594000000E+02  0.51100000000E-03 0.  1.
    9900012    2    1    2    0    0  0.37560910448E+02  0.23804172025E+02 -0.71869906038E+01  0.46142318371E+02  0.10000005561E+02 0.  0.
         12    1    1    2    0    0 -0.37560910448E+02 -0.23804172025E+02  0.71869906038E+01  0.45045681629E+02  0.00000000000E+00 0. -1.
         11    1    3    3    0    0  0.81439650908E+01  0.10234047332E+02 -0.21287275785E+01  0.13251089523E+02  0.51100000000E-03 0. -1.
        -11    1    3    3    0    0  0.22864517153E+02  0.10569806036E+02 -0.28298257526E+01  0.25347876802E+02  0.51100000000E-03 0.  1.
         12    1    3    3    0    0  0.65524282038E+01  0.30003186570E+01 -0.22284372727E+01  0.75433520459E+01  0.00000000000E+00 0. -1.
</event>
<event>
 7    1  0.1442665E-008  0.4614232E+02  0.7816164E-02  0.1320468E+00
        -11   -1    0    0    0    0  0.00000000000E+00  0.00000000000E+00  0.45593999997E+02  0.45594000000E+02  0.51100000000E-03 0. -1.
         11   -1    0    0    0    0 -0.00000000000E+00 -0.00000000000E+00 -0.45593999997E+02  0.45594000000E+02  0.51100000000E-03 0.  1.
    9900012    2    1    2    0    0  0.28070075454E+02 -0.91929651298E+01 -0.34009909851E+02  0.46142315280E+02  0.99999773742E+01 0.  0.
         12    1    1    2    0    0 -0.28070075454E+02  0.91929651298E+01  0.34009909851E+02  0.45045684720E+02  0.00000000000E+00 0. -1.
         11    1    3    3    0    0  0.74508143281E+01 -0.36901908986E+01 -0.68869183900E+01  0.10796378476E+02  0.51100000000E-03 0. -1.
        -11    1    3    3    0    0  0.13398733692E+02  0.45756642275E-01 -0.14056839507E+02  0.19419652298E+02  0.51100000000E-03 0.  1.
        -12    1    3    3    0    0  0.72205274342E+01 -0.55485308735E+01 -0.13066151954E+02  0.15926284506E+02  0.00000000000E+00 0.  1.
</event>
<event>
 7    1  0.1442665E-008  0.4614232E+02  0.7816164E-02  0.1320468E+00
        -11   -1    0    0    0    0  0.00000000000E+00  0.00000000000E+00  0.45593999997E+02  0.45594000000E+02  0.51100000000E-03 0.  1.
         11   -1    0    0    0    0 -0.00000000000E+00 -0.00000000000E+00 -0.45593999997E+02  0.45594000000E+02  0.51100000000E-03 0. -1.
    9900012    2    1    2    0    0 -0.39434173145E+02 -0.18153521008E+02  0.12021196652E+02  0.46142317570E+02  0.99999982597E+01 0.  0.
         12    1    1    2    0    0  0.39434173145E+02  0.18153521008E+02 -0.12021196652E+02  0.45045682430E+02  0.00000000000E+00 0. -1.
         11    1    3    3    0    0 -0.23943854148E+02 -0.58875186817E+01  0.71541096385E+01  0.25673961764E+02  0.51100000000E-03 0.  1.
        -11    1    3    3    0    0 -0.13003420338E+02 -0.97053024659E+01  0.47082565442E+01  0.16895251297E+02  0.51100000000E-03 0. -1.
        -12    1    3    3    0    0 -0.24868986590E+01 -0.25606998601E+01  0.15883046901E+00  0.35731045089E+01  0.00000000000E+00 0.  1.
</event>
<event>
 7    1  0.1442665E-008  0.4614232E+02  0.7816164E-02  0.1320468E+00
        -11   -1    0    0    0    0  0.00000000000E+00  0.00000000000E+00  0.45593999997E+02  0.45594000000E+02  0.51100000000E-03 0.  1.
         11   -1    0    0    0    0 -0.00000000000E+00 -0.00000000000E+00 -0.45593999997E+02  0.45594000000E+02  0.51100000000E-03 0. -1.
    9900012    2    1    2    0    0 -0.25197897146E+02  0.35875712399E+02  0.10349524963E+02  0.46142318435E+02  0.10000006141E+02 0.  0.
         12    1    1    2    0    0  0.25197897146E+02 -0.35875712399E+02 -0.10349524963E+02  0.45045681565E+02  0.00000000000E+00 0. -1.
         11    1    3    3    0    0 -0.12642504481E+02  0.16951526663E+02  0.18765855127E+00  0.21147633242E+02  0.51100000000E-03 0. -1.
        -11    1    3    3    0    0 -0.11706666352E+02  0.18006816933E+02  0.10124389647E+02  0.23744362680E+02  0.51100000000E-03 0.  1.
        -12    1    3    3    0    0 -0.84872631253E+00  0.91736880414E+00  0.37476765492E-01  0.12503225121E+01  0.00000000000E+00 0.  1.
</event>
<event>
 7    1  0.1442665E-008  0.4614232E+02  0.7816164E-02  0.1320468E+00
        -11   -1    0    0    0    0  0.00000000000E+00  0.00000000000E+00  0.45593999997E+02  0.45594000000E+02  0.51100000000E-03 0.  1.
         11   -1    0    0    0    0 -0.00000000000E+00 -0.00000000000E+00 -0.45593999997E+02  0.45594000000E+02  0.51100000000E-03 0. -1.
    9900012    2    1    2    0    0  0.15806469567E+02  0.41705643482E+02  0.63173038519E+01  0.46142317561E+02  0.99999981722E+01 0.  0.
         12    1    1    2    0    0 -0.15806469567E+02 -0.41705643482E+02 -0.63173038519E+01  0.45045682439E+02  0.00000000000E+00 0. -1.
         11    1    3    3    0    0  0.15121674849E+01  0.53452299916E+00  0.33851545260E+00  0.16391944094E+01  0.51100000000E-03 0. -1.
        -11    1    3    3    0    0  0.43454475893E+01  0.21661439382E+02  0.45496660671E+01  0.22556602857E+02  0.51100000000E-03 0.  1.
         12    1    3    3    0    0  0.99488544932E+01  0.19509681101E+02  0.14291223322E+01  0.21946520295E+02  0.00000000000E+00 0. -1.
</event>
<event>
 7    1  0.1442665E-008  0.4614232E+02  0.7816164E-02  0.1320468E+00
        -11   -1    0    0    0    0  0.00000000000E+00  0.00000000000E+00  0.45593999997E+02  0.45594000000E+02  0.51100000000E-03 0.  1.
         11   -1    0    0    0    0 -0.00000000000E+00 -0.00000000000E+00 -0.45593999997E+02  0.45594000000E+02  0.51100000000E-03 0. -1.
    9900012    2    1    2    0    0  0.38629804451E+02 -0.76275003201E+01  0.21878595018E+02  0.46142317931E+02  0.10000001551E+02 0.  0.
         12    1    1    2    0    0 -0.38629804451E+02  0.76275003201E+01 -0.21878595018E+02  0.45045682069E+02  0.00000000000E+00 0. -1.
         11    1    3    3    0    0  0.19778338571E+02 -0.76629680768E+01  0.92797555903E+01  0.23152054347E+02  0.51100000000E-03 0. -1.
        -11    1    3    3    0    0  0.16023261214E+02  0.13217845145E+01  0.99509513700E+01  0.18908026012E+02  0.51100000000E-03 0.  1.
        -12    1    3    3    0    0  0.28282046658E+01 -0.12863167577E+01  0.26478880577E+01  0.40822375726E+01  0.00000000000E+00 0.  1.
</event>
<event>
 7    1  0.1442665E-008  0.4614232E+02  0.7816164E-02  0.1320468E+00
        -11   -1    0    0    0    0  0.00000000000E+00  0.00000000000E+00  0.45593999997E+02  0.45594000000E+02  0.51100000000E-03 0.  1.
         11   -1    0    0    0    0 -0.00000000000E+00 -0.00000000000E+00 -0.45593999997E+02  0.45594000000E+02  0.51100000000E-03 0. -1.
    9900012    2    1    2    0    0 -0.24752431886E+02 -0.35982733559E+02 -0.11030570513E+02  0.46142317804E+02  0.10000000389E+02 0.  0.
         12    1    1    2    0    0  0.24752431886E+02  0.35982733559E+02  0.11030570513E+02  0.45045682196E+02  0.00000000000E+00 0. -1.
         11    1    3    3    0    0 -0.98331620359E+01 -0.11811655690E+02 -0.85149235655E+01  0.17570151090E+02  0.51100000000E-03 0. -1.
        -11    1    3    3    0    0 -0.82041723445E+01 -0.14542729279E+02 -0.20685548602E+01  0.16824932042E+02  0.51100000000E-03 0.  1.
         12    1    3    3    0    0 -0.67150975060E+01 -0.96283485902E+01 -0.44709208746E+00  0.11747234671E+02  0.00000000000E+00 0. -1.
</event>
<event>
 7    1  0.1442665E-008  0.4614232E+02  0.7816164E-02  0.1320468E+00
        -11   -1    0    0    0    0  0.00000000000E+00  0.00000000000E+00  0.45593999997E+02  0.45594000000E+02  0.51100000000E-03 0.  1.
         11   -1    0    0    0    0 -0.00000000000E+00 -0.00000000000E+00 -0.45593999997E+02  0.45594000000E+02  0.51100000000E-03 0. -1.
    9900012    2    1    2    0    0  0.34490800862E+02 -0.12141574128E+02  0.26307418900E+02  0.46142318125E+02  0.10000003318E+02 0.  0.
         12    1    1    2    0    0 -0.34490800862E+02  0.12141574128E+02 -0.26307418900E+02  0.45045681875E+02  0.00000000000E+00 0. -1.
         11    1    3    3    0    0  0.86288793833E+01 -0.19859180692E+00  0.10062409599E+02  0.13257039086E+02  0.51100000000E-03 0. -1.
        -11    1    3    3    0    0  0.19364938334E+02 -0.78272643226E+01  0.12338159860E+02  0.24258959014E+02  0.51100000000E-03 0.  1.
        -12    1    3    3    0    0  0.64969831452E+01 -0.41157179981E+01  0.39068494406E+01  0.86263200253E+01  0.00000000000E+00 0.  1.
</event>
<event>
 7    1  0.1442665E-008  0.4614232E+02  0.7816164E-02  0.1320468E+00
        -11   -1    0    0    0    0  0.00000000000E+00  0.00000000000E+00  0.45593999997E+02  0.45594000000E+02  0.51100000000E-03 0. -1.
         11   -1    0    0    0    0 -0.00000000000E+00 -0.00000000000E+00 -0.45593999997E+02  0.45594000000E+02  0.51100000000E-03 0.  1.
    9900012    2    1    2    0    0  0.32404036555E+02  0.30769878166E+02 -0.56838792576E+01  0.46142317956E+02  0.10000001780E+02 0.  0.
         12    1    1    2    0    0 -0.32404036555E+02 -0.30769878166E+02  0.56838792576E+01  0.45045682044E+02  0.00000000000E+00 0. -1.
         11    1    3    3    0    0  0.16473230459E+02  0.11202369890E+02 -0.56971237056E+01  0.20719981460E+02  0.51100000000E-03 0. -1.
        -11    1    3    3    0    0  0.12310079604E+02  0.14720769883E+02 -0.12930621082E+01  0.19233074005E+02  0.51100000000E-03 0.  1.
         12    1    3    3    0    0  0.36207264914E+01  0.48467383924E+01  0.13063065561E+01  0.61892624915E+01  0.00000000000E+00 0. -1.
</event>
<event>
 7    1  0.1442665E-008  0.4614232E+02  0.7816164E-02  0.1320468E+00
        -11   -1    0    0    0    0  0.00000000000E+00  0.00000000000E+00  0.45593999997E+02  0.45594000000E+02  0.51100000000E-03 0.  1.
         11   -1    0    0    0    0 -0.00000000000E+00 -0.00000000000E+00 -0.45593999997E+02  0.45594000000E+02  0.51100000000E-03 0. -1.
    9900012    2    1    2    0    0  0.33857804797E+02 -0.10070281949E+02  0.27952673983E+02  0.46142317554E+02  0.99999981132E+01 0.  0.
         12    1    1    2    0    0 -0.33857804797E+02  0.10070281949E+02 -0.27952673983E+02  0.45045682446E+02  0.00000000000E+00 0. -1.
         11    1    3    3    0    0  0.21890068806E+02 -0.29612618951E+01  0.14475105854E+02  0.26409711738E+02  0.51100000000E-03 0. -1.
        -11    1    3    3    0    0  0.90530764994E+01 -0.41866549997E+01  0.11277307915E+02  0.15055362774E+02  0.51100000000E-03 0.  1.
        -12    1    3    3    0    0  0.29146594910E+01 -0.29223650543E+01  0.22002602143E+01  0.46772430416E+01  0.00000000000E+00 0.  1.
</event>
<event>
 7    1  0.1442665E-008  0.4614232E+02  0.7816164E-02  0.1320468E+00
        -11   -1    0    0    0    0  0.00000000000E+00  0.00000000000E+00  0.45593999997E+02  0.45594000000E+02  0.51100000000E-03 0.  1.
         11   -1    0    0    0    0 -0.00000000000E+00 -0.00000000000E+00 -0.45593999997E+02  0.45594000000E+02  0.51100000000E-03 0. -1.
    9900012    2    1    2    0    0 -0.38149123478E+02  0.23736800303E+02  0.32128151656E+01  0.46142317721E+02  0.99999996305E+01 0.  0.
         12    1    1    2    0    0  0.38149123478E+02 -0.23736800303E+02 -0.32128151656E+01  0.45045682279E+02  0.00000000000E+00 0. -1.
         11    1    3    3    0    0 -0.10116503140E+01  0.27832511952E+01 -0.12005496528E+01  0.31955036072E+01  0.51100000000E-03 0. -1.
        -11    1    3    3    0    0 -0.19429517448E+02  0.95282920855E+01  0.25791439020E+01  0.21793266892E+02  0.51100000000E-03 0.  1.
         12    1    3    3    0    0 -0.17707955716E+02  0.11425257022E+02  0.18342209164E+01  0.21153547221E+02  0.00000000000E+00 0. -1.
</event>
<event>
 7    1  0.1442665E-008  0.4614232E+02  0.7816164E-02  0.1320468E+00
        -11   -1    0    0    0    0  0.00000000000E+00  0.00000000000E+00  0.45593999997E+02  0.45594000000E+02  0.51100000000E-03 0. -1.
         11   -1    0    0    0    0 -0.00000000000E+00 -0.00000000000E+00 -0.45593999997E+02  0.45594000000E+02  0.51100000000E-03 0.  1.
    9900012    2    1    2    0    0 -0.41430504121E+02  0.14381966752E+02 -0.10285223358E+02  0.46142318088E+02  0.10000002984E+02 0.  0.
         12    1    1    2    0    0  0.41430504121E+02 -0.14381966752E+02  0.10285223358E+02  0.45045681912E+02  0.00000000000E+00 0. -1.
         11    1    3    3    0    0 -0.13049728424E+02  0.15417861414E+01  0.71833125009E-01  0.13140687832E+02  0.51100000000E-03 0. -1.
        -11    1    3    3    0    0 -0.13952445298E+02  0.44558231323E+01 -0.48806188400E+01  0.15438443254E+02  0.51100000000E-03 0.  1.
         12    1    3    3    0    0 -0.14428330399E+02  0.83843574780E+01 -0.54764376432E+01  0.17563187002E+02  0.00000000000E+00 0. -1.
</event>
<event>
 7    1  0.1442665E-008  0.4614232E+02  0.7816164E-02  0.1320468E+00
        -11   -1    0    0    0    0  0.00000000000E+00  0.00000000000E+00  0.45593999997E+02  0.45594000000E+02  0.51100000000E-03 0.  1.
         11   -1    0    0    0    0 -0.00000000000E+00 -0.00000000000E+00 -0.45593999997E+02  0.45594000000E+02  0.51100000000E-03 0. -1.
    9900012    2    1    2    0    0 -0.20345323580E+02  0.29614904083E+02  0.27168708520E+02  0.46142318097E+02  0.10000003067E+02 0.  0.
         12    1    1    2    0    0  0.20345323580E+02 -0.29614904083E+02 -0.27168708520E+02  0.45045681903E+02  0.00000000000E+00 0. -1.
         11    1    3    3    0    0 -0.97496163290E+01  0.13175249083E+02  0.81542134299E+01  0.18306649171E+02  0.51100000000E-03 0. -1.
        -11    1    3    3    0    0 -0.10680956658E+02  0.15588507140E+02  0.16187571051E+02  0.24882159207E+02  0.51100000000E-03 0.  1.
         12    1    3    3    0    0  0.85249406983E-01  0.85114786021E+00  0.28269240392E+01  0.29535097198E+01  0.00000000000E+00 0. -1.
</event>
<event>
 7    1  0.1442665E-008  0.4614232E+02  0.7816164E-02  0.1320468E+00
        -11   -1    0    0    0    0  0.00000000000E+00  0.00000000000E+00  0.45593999997E+02  0.45594000000E+02  0.51100000000E-03 0.  1.
         11   -1    0    0    0    0 -0.00000000000E+00 -0.00000000000E+00 -0.45593999997E+02  0.45594000000E+02  0.51100000000E-03 0. -1.
    9900012    2    1    2    0    0 -0.15450334538E+02  0.28692649688E+02  0.31098754719E+02  0.46142317315E+02  0.99999959330E+01 0.  0.
         12    1    1    2    0    0  0.15450334538E+02 -0.28692649688E+02 -0.31098754719E+02  0.45045682685E+02  0.00000000000E+00 0. -1.
         11    1    3    3    0    0 -0.11105433698E+01  0.73452841566E+01  0.43507169506E+01  0.86090210920E+01  0.51100000000E-03 0. -1.
        -11    1    3    3    0    0 -0.51332662873E+01  0.99777813401E+01  0.81373787243E+01  0.13860861301E+02  0.51100000000E-03 0.  1.
         12    1    3    3    0    0 -0.92065248808E+01  0.11369584192E+02  0.18610659044E+02  0.23672434922E+02  0.00000000000E+00 0. -1.
</event>
<event>
 7    1  0.1442665E-008  0.4614232E+02  0.7816164E-02  0.1320468E+00
        -11   -1    0    0    0    0  0.00000000000E+00  0.00000000000E+00  0.45593999997E+02  0.45594000000E+02  0.51100000000E-03 0.  1.
         11   -1    0    0    0    0 -0.00000000000E+00 -0.00000000000E+00 -0.45593999997E+02  0.45594000000E+02  0.51100000000E-03 0. -1.
    9900012    2    1    2    0    0  0.22820865367E+02  0.30361188841E+02  0.24218168359E+02  0.46142319157E+02  0.10000012731E+02 0.  0.
         12    1    1    2    0    0 -0.22820865367E+02 -0.30361188841E+02 -0.24218168359E+02  0.45045680843E+02  0.00000000000E+00 0. -1.
         11    1    3    3    0    0  0.91048088980E-01  0.14592848536E+01  0.22809012571E+01  0.27093011727E+01  0.51100000000E-03 0. -1.
        -11    1    3    3    0    0  0.15273875646E+02  0.21787116178E+02  0.19069602404E+02  0.32735599043E+02  0.51100000000E-03 0.  1.
        -12    1    3    3    0    0  0.74559416320E+01  0.71147878092E+01  0.28676646979E+01  0.10697418942E+02  0.00000000000E+00 0.  1.
</event>
<event>
 7    1  0.1442665E-008  0.4614232E+02  0.7816164E-02  0.1320468E+00
        -11   -1    0    0    0    0  0.00000000000E+00  0.00000000000E+00  0.45593999997E+02  0.45594000000E+02  0.51100000000E-03 0.  1.
         11   -1    0    0    0    0 -0.00000000000E+00 -0.00000000000E+00 -0.45593999997E+02  0.45594000000E+02  0.51100000000E-03 0. -1.
    9900012    2    1    2    0    0  0.25942987227E+02  0.31936035536E+02  0.18334792106E+02  0.46142317037E+02  0.99999933991E+01 0.  0.
         12    1    1    2    0    0 -0.25942987227E+02 -0.31936035536E+02 -0.18334792106E+02  0.45045682963E+02  0.00000000000E+00 0. -1.
         11    1    3    3    0    0  0.99632988443E+01  0.79264231143E+01  0.55562795131E+01  0.13891283221E+02  0.51100000000E-03 0. -1.
        -11    1    3    3    0    0  0.37592248871E+01  0.11473762846E+02  0.59409069391E+01  0.13456350959E+02  0.51100000000E-03 0.  1.
        -12    1    3    3    0    0  0.12220463496E+02  0.12535849575E+02  0.68376056541E+01  0.18794682857E+02  0.00000000000E+00 0.  1.
</event>
<event>
 7    1  0.1442665E-008  0.4614232E+02  0.7816164E-02  0.1320468E+00
        -11   -1    0    0    0    0  0.00000000000E+00  0.00000000000E+00  0.45593999997E+02  0.45594000000E+02  0.51100000000E-03 0.  1.
         11   -1    0    0    0    0 -0.00000000000E+00 -0.00000000000E+00 -0.45593999997E+02  0.45594000000E+02  0.51100000000E-03 0. -1.
    9900012    2    1    2    0    0 -0.28438039613E+01  0.15851334127E+02  0.42068533187E+02  0.46142317642E+02  0.99999989178E+01 0.  0.
         12    1    1    2    0    0  0.28438039613E+01 -0.15851334127E+02 -0.42068533187E+02  0.45045682358E+02  0.00000000000E+00 0. -1.
         11    1    3    3    0    0 -0.30006369650E+01  0.45663487971E+01  0.56988482041E+01  0.78950766081E+01  0.51100000000E-03 0. -1.
        -11    1    3    3    0    0  0.13347424805E+01  0.70395124225E+01  0.26245453493E+02  0.27205883591E+02  0.51100000000E-03 0.  1.
         12    1    3    3    0    0 -0.11779094768E+01  0.42454729076E+01  0.10124231489E+02  0.11041357443E+02  0.00000000000E+00 0. -1.
</event>
<event>
 7    1  0.1442665E-008  0.4614232E+02  0.7816164E-02  0.1320468E+00
        -11   -1    0    0    0    0  0.00000000000E+00  0.00000000000E+00  0.45593999997E+02  0.45594000000E+02  0.51100000000E-03 0.  1.
         11   -1    0    0    0    0 -0.00000000000E+00 -0.00000000000E+00 -0.45593999997E+02  0.45594000000E+02  0.51100000000E-03 0. -1.
    9900012    2    1    2    0    0 -0.55787744490E+01 -0.34268310317E+02 -0.28699717006E+02  0.46142316826E+02  0.99999914746E+01 0.  0.
         12    1    1    2    0    0  0.55787744490E+01  0.34268310317E+02  0.28699717006E+02  0.45045683174E+02  0.00000000000E+00 0. -1.
         11    1    3    3    0    0 -0.58523893182E+01 -0.10013640269E+02 -0.81072784694E+01  0.14151021751E+02  0.51100000000E-03 0. -1.
        -11    1    3    3    0    0  0.31229775574E+00 -0.12491454445E+02 -0.12758642463E+02  0.17858245204E+02  0.51100000000E-03 0.  1.
        -12    1    3    3    0    0 -0.38682886570E-01 -0.11763215604E+02 -0.78337960744E+01  0.14133049870E+02  0.00000000000E+00 0.  1.
</event>
<event>
 7    1  0.1442665E-008  0.4614232E+02  0.7816164E-02  0.1320468E+00
        -11   -1    0    0    0    0  0.00000000000E+00  0.00000000000E+00  0.45593999997E+02  0.45594000000E+02  0.51100000000E-03 0. -1.
         11   -1    0    0    0    0 -0.00000000000E+00 -0.00000000000E+00 -0.45593999997E+02  0.45594000000E+02  0.51100000000E-03 0.  1.
    9900012    2    1    2    0    0  0.22701599844E+02 -0.16254929442E+02 -0.35348665603E+02  0.46142317337E+02  0.99999961318E+01 0.  0.
         12    1    1    2    0    0 -0.22701599844E+02  0.16254929442E+02  0.35348665603E+02  0.45045682663E+02  0.00000000000E+00 0. -1.
         11    1    3    3    0    0  0.34478065335E+01 -0.42260593787E+01 -0.29645466053E+01  0.62076955951E+01  0.51100000000E-03 0. -1.
        -11    1    3    3    0    0  0.37212732018E+01 -0.39453276923E+01 -0.11250895804E+02  0.12489841532E+02  0.51100000000E-03 0.  1.
        -12    1    3    3    0    0  0.15532520109E+02 -0.80835423714E+01 -0.21133223194E+02  0.27444780210E+02  0.00000000000E+00 0.  1.
</event>
<event>
 7    1  0.1442665E-008  0.4614232E+02  0.7816164E-02  0.1320468E+00
        -11   -1    0    0    0    0  0.00000000000E+00  0.00000000000E+00  0.45593999997E+02  0.45594000000E+02  0.51100000000E-03 0.  1.
         11   -1    0    0    0    0 -0.00000000000E+00 -0.00000000000E+00 -0.45593999997E+02  0.45594000000E+02  0.51100000000E-03 0. -1.
    9900012    2    1    2    0    0  0.14311752191E+02  0.39712102699E+01  0.42526659176E+02  0.46142317604E+02  0.99999985691E+01 0.  0.
         12    1    1    2    0    0 -0.14311752191E+02 -0.39712102699E+01 -0.42526659176E+02  0.45045682396E+02  0.00000000000E+00 0. -1.
         11    1    3    3    0    0  0.87682674470E+01 -0.22221869496E+01  0.18192011712E+02  0.20316739877E+02  0.51100000000E-03 0.  1.
        -11    1    3    3    0    0  0.56692810122E+01  0.53599254366E+01  0.22158561655E+02  0.23491943359E+02  0.51100000000E-03 0. -1.
         12    1    3    3    0    0 -0.12579626779E+00  0.83347178294E+00  0.21760858093E+01  0.23336343680E+01  0.00000000000E+00 0. -1.
</event>
<event>
 7    1  0.1442665E-008  0.4614232E+02  0.7816164E-02  0.1320468E+00
        -11   -1    0    0    0    0  0.00000000000E+00  0.00000000000E+00  0.45593999997E+02  0.45594000000E+02  0.51100000000E-03 0. -1.
         11   -1    0    0    0    0 -0.00000000000E+00 -0.00000000000E+00 -0.45593999997E+02  0.45594000000E+02  0.51100000000E-03 0.  1.
    9900012    2    1    2    0    0  0.15438774718E+02  0.27480027263E+02 -0.32180830381E+02  0.46142317553E+02  0.99999981000E+01 0.  0.
         12    1    1    2    0    0 -0.15438774718E+02 -0.27480027263E+02  0.32180830381E+02  0.45045682447E+02  0.00000000000E+00 0. -1.
         11    1    3    3    0    0  0.38964306155E+01  0.47849092942E+01 -0.11973798632E+02  0.13470314860E+02  0.51100000000E-03 0. -1.
        -11    1    3    3    0    0  0.54713151630E+01  0.12026977278E+02 -0.85085935643E+01  0.15715585791E+02  0.51100000000E-03 0.  1.
         12    1    3    3    0    0  0.60710289397E+01  0.10668140690E+02 -0.11698438185E+02  0.16956416901E+02  0.00000000000E+00 0. -1.
</event>
<event>
 7    1  0.1442665E-008  0.4614232E+02  0.7816164E-02  0.1320468E+00
        -11   -1    0    0    0    0  0.00000000000E+00  0.00000000000E+00  0.45593999997E+02  0.45594000000E+02  0.51100000000E-03 0.  1.
         11   -1    0    0    0    0 -0.00000000000E+00 -0.00000000000E+00 -0.45593999997E+02  0.45594000000E+02  0.51100000000E-03 0. -1.
    9900012    2    1    2    0    0  0.23261043405E+02 -0.38293100085E+02 -0.46557529284E+01  0.46142315526E+02  0.99999796170E+01 0.  0.
         12    1    1    2    0    0 -0.23261043405E+02  0.38293100085E+02  0.46557529284E+01  0.45045684474E+02  0.00000000000E+00 0. -1.
         11    1    3    3    0    0  0.35588478690E+01 -0.99242729207E+01  0.52028921782E+00  0.10555912670E+02  0.51100000000E-03 0. -1.
        -11    1    3    3    0    0  0.10528025200E+02 -0.18501918030E+02 -0.39805586469E+00  0.21291283055E+02  0.51100000000E-03 0.  1.
         12    1    3    3    0    0  0.91741703356E+01 -0.98669091343E+01 -0.47779862815E+01  0.14295119801E+02  0.00000000000E+00 0. -1.
</event>
<event>
 7    1  0.1442665E-008  0.4614232E+02  0.7816164E-02  0.1320468E+00
        -11   -1    0    0    0    0  0.00000000000E+00  0.00000000000E+00  0.45593999997E+02  0.45594000000E+02  0.51100000000E-03 0.  1.
         11   -1    0    0    0    0 -0.00000000000E+00 -0.00000000000E+00 -0.45593999997E+02  0.45594000000E+02  0.51100000000E-03 0. -1.
    9900012    2    1    2    0    0  0.44808500136E+02 -0.35182563229E+01  0.29889176402E+01  0.46142318291E+02  0.10000004832E+02 0.  0.
         12    1    1    2    0    0 -0.44808500136E+02  0.35182563229E+01 -0.29889176402E+01  0.45045681709E+02  0.00000000000E+00 0. -1.
         11    1    3    3    0    0  0.51409655993E+01 -0.24552526581E+01 -0.52430549022E+00  0.57212489385E+01  0.51100000000E-03 0. -1.
        -11    1    3    3    0    0  0.35626221424E+02  0.11656846099E+01  0.28580351350E+01  0.35759681747E+02  0.51100000000E-03 0.  1.
         12    1    3    3    0    0  0.40413131130E+01 -0.22286882747E+01  0.65518799541E+00  0.46613876058E+01  0.00000000000E+00 0. -1.
</event>
<event>
 7    1  0.1442665E-008  0.4614232E+02  0.7816164E-02  0.1320468E+00
        -11   -1    0    0    0    0  0.00000000000E+00  0.00000000000E+00  0.45593999997E+02  0.45594000000E+02  0.51100000000E-03 0.  1.
         11   -1    0    0    0    0 -0.00000000000E+00 -0.00000000000E+00 -0.45593999997E+02  0.45594000000E+02  0.51100000000E-03 0. -1.
    9900012    2    1    2    0    0 -0.33407827882E+01 -0.31351416557E+02  0.32172058817E+02  0.46142317429E+02  0.99999969677E+01 0.  0.
         12    1    1    2    0    0  0.33407827882E+01  0.31351416557E+02 -0.32172058817E+02  0.45045682571E+02  0.00000000000E+00 0. -1.
         11    1    3    3    0    0 -0.29548435850E+01 -0.36833066826E+01  0.63304258612E+01  0.78976034703E+01  0.51100000000E-03 0. -1.
        -11    1    3    3    0    0 -0.20986994925E+01 -0.15320834896E+02  0.11686182617E+02  0.19382966386E+02  0.51100000000E-03 0.  1.
        -12    1    3    3    0    0  0.17127602892E+01 -0.12347274978E+02  0.14155450339E+02  0.18861747573E+02  0.00000000000E+00 0.  1.
</event>
<event>
 7    1  0.1442665E-008  0.4614233E+02  0.7816164E-02  0.1320468E+00
        -11   -1    0    0    0    0  0.00000000000E+00  0.00000000000E+00  0.45593999997E+02  0.45594000000E+02  0.51100000000E-03 0.  1.
         11   -1    0    0    0    0 -0.00000000000E+00 -0.00000000000E+00 -0.45593999997E+02  0.45594000000E+02  0.51100000000E-03 0. -1.
    9900012    2    1    2    0    0  0.65250474301E+01  0.34386720964E+02  0.28356471163E+02  0.46142331179E+02  0.10000122358E+02 0.  0.
         12    1    1    2    0    0 -0.65250474301E+01 -0.34386720964E+02 -0.28356471163E+02  0.45045668821E+02  0.00000000000E+00 0. -1.
         11    1    3    3    0    0 -0.21932889030E+01  0.44697606360E+01  0.42571347191E+01  0.65507612255E+01  0.51100000000E-03 0. -1.
        -11    1    3    3    0    0  0.84562610843E+01  0.29101798317E+02  0.24124133174E+02  0.38734956027E+02  0.51100000000E-03 0.  1.
        -12    1    3    3    0    0  0.26207524892E+00  0.81516201192E+00 -0.24796729256E-01  0.85661392678E+00  0.00000000000E+00 0.  1.
</event>
<event>
 7    1  0.1442665E-008  0.4614232E+02  0.7816164E-02  0.1320468E+00
        -11   -1    0    0    0    0  0.00000000000E+00  0.00000000000E+00  0.45593999997E+02  0.45594000000E+02  0.51100000000E-03 0.  1.
         11   -1    0    0    0    0 -0.00000000000E+00 -0.00000000000E+00 -0.45593999997E+02  0.45594000000E+02  0.51100000000E-03 0. -1.
    9900012    2    1    2    0    0  0.67836792100E+01  0.15599067011E+02  0.41710482190E+02  0.46142317412E+02  0.99999968207E+01 0.  0.
         12    1    1    2    0    0 -0.67836792100E+01 -0.15599067011E+02 -0.41710482190E+02  0.45045682588E+02  0.00000000000E+00 0. -1.
         11    1    3    3    0    0  0.61246001970E+01  0.79880035537E+01  0.13239646499E+02  0.16631511297E+02  0.51100000000E-03 0. -1.
        -11    1    3    3    0    0 -0.36663407992E+00  0.31555889990E+01  0.10739610142E+02  0.11199615563E+02  0.51100000000E-03 0.  1.
         12    1    3    3    0    0  0.10257130929E+01  0.44554744587E+01  0.17731225548E+02  0.18311190552E+02  0.00000000000E+00 0. -1.
</event>
<event>
 7    1  0.1442665E-008  0.4614232E+02  0.7816164E-02  0.1320468E+00
        -11   -1    0    0    0    0  0.00000000000E+00  0.00000000000E+00  0.45593999997E+02  0.45594000000E+02  0.51100000000E-03 0.  1.
         11   -1    0    0    0    0 -0.00000000000E+00 -0.00000000000E+00 -0.45593999997E+02  0.45594000000E+02  0.51100000000E-03 0. -1.
    9900012    2    1    2    0    0 -0.13247177394E+01  0.37006762144E+02  0.25648744768E+02  0.46142318413E+02  0.10000005946E+02 0.  0.
         12    1    1    2    0    0  0.13247177394E+01 -0.37006762144E+02 -0.25648744768E+02  0.45045681587E+02  0.00000000000E+00 0. -1.
         11    1    3    3    0    0  0.33144669059E+01  0.13211764871E+02  0.90167089124E+01  0.16335160292E+02  0.51100000000E-03 0. -1.
        -11    1    3    3    0    0 -0.32913053992E+01  0.16538045385E+02  0.87083939101E+01  0.18978297109E+02  0.51100000000E-03 0.  1.
         12    1    3    3    0    0 -0.13478792461E+01  0.72569518876E+01  0.79236419454E+01  0.10828861013E+02  0.00000000000E+00 0. -1.
</event>
<event>
 7    1  0.1442665E-008  0.4614231E+02  0.7816164E-02  0.1320468E+00
        -11   -1    0    0    0    0  0.00000000000E+00  0.00000000000E+00  0.45593999997E+02  0.45594000000E+02  0.51100000000E-03 0.  1.
         11   -1    0    0    0    0 -0.00000000000E+00 -0.00000000000E+00 -0.45593999997E+02  0.45594000000E+02  0.51100000000E-03 0. -1.
    9900012    2    1    2    0    0 -0.21997643941E+02 -0.33928988316E+02  0.19850475779E+02  0.46142312352E+02  0.99999506719E+01 0.  0.
         12    1    1    2    0    0  0.21997643941E+02  0.33928988316E+02 -0.19850475779E+02  0.45045687648E+02  0.00000000000E+00 0. -1.
         11    1    3    3    0    0 -0.10040634474E+02 -0.23380317240E+02  0.10000312636E+02  0.27339711556E+02  0.51100000000E-03 0. -1.
        -11    1    3    3    0    0 -0.97645810733E+01 -0.79926371792E+01  0.72959716296E+01  0.14576024660E+02  0.51100000000E-03 0.  1.
         12    1    3    3    0    0 -0.21924283932E+01 -0.25560338962E+01  0.25541915141E+01  0.42265761354E+01  0.00000000000E+00 0. -1.
</event>
<event>
 7    1  0.1442665E-008  0.4614232E+02  0.7816164E-02  0.1320468E+00
        -11   -1    0    0    0    0  0.00000000000E+00  0.00000000000E+00  0.45593999997E+02  0.45594000000E+02  0.51100000000E-03 0. -1.
         11   -1    0    0    0    0 -0.00000000000E+00 -0.00000000000E+00 -0.45593999997E+02  0.45594000000E+02  0.51100000000E-03 0.  1.
    9900012    2    1    2    0    0  0.99449097132E+01 -0.43689025156E+02  0.46347766736E+01  0.46142319818E+02  0.10000018756E+02 0.  0.
         12    1    1    2    0    0 -0.99449097132E+01  0.43689025156E+02 -0.46347766736E+01  0.45045680182E+02  0.00000000000E+00 0. -1.
         11    1    3    3    0    0  0.36011703475E+00 -0.79671278077E+01 -0.14773945658E+01  0.81109496822E+01  0.51100000000E-03 0. -1.
        -11    1    3    3    0    0  0.37835103660E+01 -0.14798655727E+02 -0.65485535745E+00  0.15288688557E+02  0.51100000000E-03 0.  1.
         12    1    3    3    0    0  0.58012823125E+01 -0.20923241621E+02  0.67670265969E+01  0.22742681578E+02  0.00000000000E+00 0. -1.
</event>
<event>
 7    1  0.1442665E-008  0.4614232E+02  0.7816164E-02  0.1320468E+00
        -11   -1    0    0    0    0  0.00000000000E+00  0.00000000000E+00  0.45593999997E+02  0.45594000000E+02  0.51100000000E-03 0.  1.
         11   -1    0    0    0    0 -0.00000000000E+00 -0.00000000000E+00 -0.45593999997E+02  0.45594000000E+02  0.51100000000E-03 0. -1.
    9900012    2    1    2    0    0  0.18656584489E+02  0.21208759565E+02  0.35088940916E+02  0.46142318723E+02  0.10000008774E+02 0.  0.
         12    1    1    2    0    0 -0.18656584489E+02 -0.21208759565E+02 -0.35088940916E+02  0.45045681277E+02  0.00000000000E+00 0. -1.
         11    1    3    3    0    0  0.65550771992E+01  0.23295870014E+01  0.59721326763E+01  0.91685539563E+01  0.51100000000E-03 0. -1.
        -11    1    3    3    0    0  0.35277613692E+01  0.84315127390E+01  0.13732613315E+02  0.16496065472E+02  0.51100000000E-03 0.  1.
         12    1    3    3    0    0  0.85737459206E+01  0.10447659825E+02  0.15384194925E+02  0.20477699295E+02  0.00000000000E+00 0. -1.
</event>
<event>
 7    1  0.1442665E-008  0.4614232E+02  0.7816164E-02  0.1320468E+00
        -11   -1    0    0    0    0  0.00000000000E+00  0.00000000000E+00  0.45593999997E+02  0.45594000000E+02  0.51100000000E-03 0. -1.
         11   -1    0    0    0    0 -0.00000000000E+00 -0.00000000000E+00 -0.45593999997E+02  0.45594000000E+02  0.51100000000E-03 0.  1.
    9900012    2    1    2    0    0 -0.10397836920E+02  0.41383500860E+02  0.14436214257E+02  0.46142318319E+02  0.10000005084E+02 0.  0.
         12    1    1    2    0    0  0.10397836920E+02 -0.41383500860E+02 -0.14436214257E+02  0.45045681681E+02  0.00000000000E+00 0. -1.
         11    1    3    3    0    0 -0.15620942287E+01  0.15857552399E+02  0.12480186254E+01  0.15983105369E+02  0.51100000000E-03 0. -1.
        -11    1    3    3    0    0 -0.10557962695E+01  0.61958205627E+01  0.31483066149E+01  0.70295613668E+01  0.51100000000E-03 0.  1.
         12    1    3    3    0    0 -0.77799464213E+01  0.19330127898E+02  0.10039889017E+02  0.23129651583E+02  0.00000000000E+00 0. -1.
</event>
<event>
 7    1  0.1442665E-008  0.4614233E+02  0.7816164E-02  0.1320468E+00
        -11   -1    0    0    0    0  0.00000000000E+00  0.00000000000E+00  0.45593999997E+02  0.45594000000E+02  0.51100000000E-03 0.  1.
         11   -1    0    0    0    0 -0.00000000000E+00 -0.00000000000E+00 -0.45593999997E+02  0.45594000000E+02  0.51100000000E-03 0. -1.
    9900012    2    1    2    0    0 -0.18528151100E+02  0.34309758674E+02  0.22553502455E+02  0.46142329881E+02  0.10000110523E+02 0.  0.
         12    1    1    2    0    0  0.18528151100E+02 -0.34309758674E+02 -0.22553502455E+02  0.45045670119E+02  0.00000000000E+00 0. -1.
         11    1    3    3    0    0 -0.18758647068E+00  0.21831418597E+01  0.25105858203E+00  0.22055221006E+01  0.51100000000E-03 0. -1.
        -11    1    3    3    0    0 -0.17438974540E+02  0.25497057647E+02  0.16197164416E+02  0.34879304997E+02  0.51100000000E-03 0.  1.
        -12    1    3    3    0    0 -0.90159008906E+00  0.66295591669E+01  0.61052794568E+01  0.90575027840E+01  0.00000000000E+00 0.  1.
</event>
<event>
 7    1  0.1442665E-008  0.4614232E+02  0.7816164E-02  0.1320468E+00
        -11   -1    0    0    0    0  0.00000000000E+00  0.00000000000E+00  0.45593999997E+02  0.45594000000E+02  0.51100000000E-03 0. -1.
         11   -1    0    0    0    0 -0.00000000000E+00 -0.00000000000E+00 -0.45593999997E+02  0.45594000000E+02  0.51100000000E-03 0.  1.
    9900012    2    1    2    0    0  0.38296639602E+02  0.28660526330E+01  0.23542868398E+02  0.46142317467E+02  0.99999973162E+01 0.  0.
         12    1    1    2    0    0 -0.38296639602E+02 -0.28660526330E+01 -0.23542868398E+02  0.45045682533E+02  0.00000000000E+00 0. -1.
         11    1    3    3    0    0  0.94921466142E+01 -0.32766322757E+01  0.68791598552E+01  0.12172099531E+02  0.51100000000E-03 0. -1.
        -11    1    3    3    0    0  0.28352061801E+02  0.61868448045E+01  0.15921893584E+02  0.33100198678E+02  0.51100000000E-03 0.  1.
        -12    1    3    3    0    0  0.45243118686E+00 -0.44159895798E-01  0.74181495924E+00  0.87001925783E+00  0.00000000000E+00 0.  1.
</event>
<event>
 7    1  0.1442665E-008  0.4614232E+02  0.7816164E-02  0.1320468E+00
        -11   -1    0    0    0    0  0.00000000000E+00  0.00000000000E+00  0.45593999997E+02  0.45594000000E+02  0.51100000000E-03 0.  1.
         11   -1    0    0    0    0 -0.00000000000E+00 -0.00000000000E+00 -0.45593999997E+02  0.45594000000E+02  0.51100000000E-03 0. -1.
    9900012    2    1    2    0    0 -0.11252129051E+02 -0.35170112281E+02  0.25798572048E+02  0.46142317346E+02  0.99999962169E+01 0.  0.
         12    1    1    2    0    0  0.11252129051E+02  0.35170112281E+02 -0.25798572048E+02  0.45045682654E+02  0.00000000000E+00 0. -1.
         11    1    3    3    0    0 -0.13380162043E+01 -0.58415875696E+01  0.46158718173E+00  0.60106152500E+01  0.51100000000E-03 0. -1.
        -11    1    3    3    0    0 -0.43559209867E+01 -0.17230812783E+02  0.13528566203E+02  0.22336003684E+02  0.51100000000E-03 0.  1.
         12    1    3    3    0    0 -0.55581918601E+01 -0.12097711929E+02  0.11808418663E+02  0.17795698413E+02  0.00000000000E+00 0. -1.
</event>
<event>
 7    1  0.1442665E-008  0.4614232E+02  0.7816164E-02  0.1320468E+00
        -11   -1    0    0    0    0  0.00000000000E+00  0.00000000000E+00  0.45593999997E+02  0.45594000000E+02  0.51100000000E-03 0.  1.
         11   -1    0    0    0    0 -0.00000000000E+00 -0.00000000000E+00 -0.45593999997E+02  0.45594000000E+02  0.51100000000E-03 0. -1.
    9900012    2    1    2    0    0  0.21014320200E+02  0.23883655877E+02  0.31891738621E+02  0.46142315814E+02  0.99999822413E+01 0.  0.
         12    1    1    2    0    0 -0.21014320200E+02 -0.23883655877E+02 -0.31891738621E+02  0.45045684186E+02  0.00000000000E+00 0. -1.
         11    1    3    3    0    0  0.99770235498E+01  0.44185311991E+01  0.99810391302E+01  0.14788020802E+02  0.51100000000E-03 0. -1.
        -11    1    3    3    0    0  0.64423481975E+01  0.11205883525E+02  0.11606851907E+02  0.17372238985E+02  0.51100000000E-03 0.  1.
         12    1    3    3    0    0  0.45949484529E+01  0.82592411529E+01  0.10303847584E+02  0.13982056027E+02  0.00000000000E+00 0. -1.
</event>
<event>
 7    1  0.1442665E-008  0.4614232E+02  0.7816164E-02  0.1320468E+00
        -11   -1    0    0    0    0  0.00000000000E+00  0.00000000000E+00  0.45593999997E+02  0.45594000000E+02  0.51100000000E-03 0.  1.
         11   -1    0    0    0    0 -0.00000000000E+00 -0.00000000000E+00 -0.45593999997E+02  0.45594000000E+02  0.51100000000E-03 0. -1.
    9900012    2    1    2    0    0  0.99692874271E+01  0.38665434692E+02  0.20849722099E+02  0.46142318261E+02  0.10000004558E+02 0.  0.
         12    1    1    2    0    0 -0.99692874271E+01 -0.38665434692E+02 -0.20849722099E+02  0.45045681739E+02  0.00000000000E+00 0. -1.
         11    1    3    3    0    0 -0.17397546457E+01  0.45265232894E+01  0.12686906338E+01  0.50125577804E+01  0.51100000000E-03 0. -1.
        -11    1    3    3    0    0  0.21771167835E+01  0.95458070250E+01  0.50677569105E+01  0.11024719026E+02  0.51100000000E-03 0.  1.
         12    1    3    3    0    0  0.95319252893E+01  0.24593104378E+02  0.14513274555E+02  0.30105041454E+02  0.00000000000E+00 0. -1.
</event>
<event>
 7    1  0.1442665E-008  0.4614232E+02  0.7816164E-02  0.1320468E+00
        -11   -1    0    0    0    0  0.00000000000E+00  0.00000000000E+00  0.45593999997E+02  0.45594000000E+02  0.51100000000E-03 0.  1.
         11   -1    0    0    0    0 -0.00000000000E+00 -0.00000000000E+00 -0.45593999997E+02  0.45594000000E+02  0.51100000000E-03 0. -1.
    9900012    2    1    2    0    0 -0.19527297877E+01 -0.25181751453E+02  0.37298521590E+02  0.46142317935E+02  0.10000001589E+02 0.  0.
         12    1    1    2    0    0  0.19527297877E+01  0.25181751453E+02 -0.37298521590E+02  0.45045682065E+02  0.00000000000E+00 0. -1.
         11    1    3    3    0    0 -0.10867582982E+01 -0.17539002782E+01  0.12917484191E+01  0.24343015475E+01  0.51100000000E-03 0. -1.
        -11    1    3    3    0    0 -0.43470653226E+00 -0.88294663572E+01  0.71645791877E+01  0.11378912124E+02  0.51100000000E-03 0.  1.
        -12    1    3    3    0    0 -0.43126495724E+00 -0.14598384818E+02  0.28842193983E+02  0.32329104264E+02  0.00000000000E+00 0.  1.
</event>
<event>
 7    1  0.1442665E-008  0.4614232E+02  0.7816164E-02  0.1320468E+00
        -11   -1    0    0    0    0  0.00000000000E+00  0.00000000000E+00  0.45593999997E+02  0.45594000000E+02  0.51100000000E-03 0.  1.
         11   -1    0    0    0    0 -0.00000000000E+00 -0.00000000000E+00 -0.45593999997E+02  0.45594000000E+02  0.51100000000E-03 0. -1.
    9900012    2    1    2    0    0  0.68056394237E+01  0.44441916055E+02  0.27772008871E+01  0.46142317905E+02  0.10000001316E+02 0.  0.
         12    1    1    2    0    0 -0.68056394237E+01 -0.44441916055E+02 -0.27772008871E+01  0.45045682095E+02  0.00000000000E+00 0. -1.
         11    1    3    3    0    0 -0.44178877088E+00  0.12466891811E+02  0.30174750938E+01  0.12834474082E+02  0.51100000000E-03 0.  1.
        -11    1    3    3    0    0  0.76994161258E+01  0.25413864391E+02  0.11750709807E+01  0.26580562523E+02  0.51100000000E-03 0. -1.
        -12    1    3    3    0    0 -0.45198793125E+00  0.65611598527E+01 -0.14153451874E+01  0.67272813010E+01  0.00000000000E+00 0.  1.
</event>
<event>
 7    1  0.1442665E-008  0.4614232E+02  0.7816164E-02  0.1320468E+00
        -11   -1    0    0    0    0  0.00000000000E+00  0.00000000000E+00  0.45593999997E+02  0.45594000000E+02  0.51100000000E-03 0.  1.
         11   -1    0    0    0    0 -0.00000000000E+00 -0.00000000000E+00 -0.45593999997E+02  0.45594000000E+02  0.51100000000E-03 0. -1.
    9900012    2    1    2    0    0 -0.94752619609E+01  0.34837845841E+02  0.26938028749E+02  0.46142317799E+02  0.10000000347E+02 0.  0.
         12    1    1    2    0    0  0.94752619609E+01 -0.34837845841E+02 -0.26938028749E+02  0.45045682201E+02  0.00000000000E+00 0. -1.
         11    1    3    3    0    0 -0.32499516418E+01  0.13575014560E+02  0.97745918691E+01  0.17040711618E+02  0.51100000000E-03 0. -1.
        -11    1    3    3    0    0 -0.75338868475E+00  0.86941217702E+01  0.26099143797E+01  0.91086223544E+01  0.51100000000E-03 0.  1.
        -12    1    3    3    0    0 -0.54719216343E+01  0.12568709511E+02  0.14553522500E+02  0.19992983827E+02  0.00000000000E+00 0.  1.
</event>
<event>
 7    1  0.1442665E-008  0.4614232E+02  0.7816164E-02  0.1320468E+00
        -11   -1    0    0    0    0  0.00000000000E+00  0.00000000000E+00  0.45593999997E+02  0.45594000000E+02  0.51100000000E-03 0.  1.
         11   -1    0    0    0    0 -0.00000000000E+00 -0.00000000000E+00 -0.45593999997E+02  0.45594000000E+02  0.51100000000E-03 0. -1.
    9900012    2    1    2    0    0 -0.39866961911E+01  0.41629161658E+02 -0.16740152793E+02  0.46142316940E+02  0.99999925093E+01 0.  0.
         12    1    1    2    0    0  0.39866961911E+01 -0.41629161658E+02  0.16740152793E+02  0.45045683060E+02  0.00000000000E+00 0. -1.
         11    1    3    3    0    0 -0.62563777879E+01  0.26378931235E+02 -0.13189451103E+02  0.30148829112E+02  0.51100000000E-03 0. -1.
        -11    1    3    3    0    0  0.14460617345E+01  0.13671088826E+02 -0.26606784143E+01  0.14002463145E+02  0.51100000000E-03 0.  1.
        -12    1    3    3    0    0  0.82361986221E+00  0.15791415960E+01 -0.89002327601E+00  0.19910246833E+01  0.00000000000E+00 0.  1.
</event>
<event>
 7    1  0.1442665E-008  0.4614232E+02  0.7816164E-02  0.1320468E+00
        -11   -1    0    0    0    0  0.00000000000E+00  0.00000000000E+00  0.45593999997E+02  0.45594000000E+02  0.51100000000E-03 0.  1.
         11   -1    0    0    0    0 -0.00000000000E+00 -0.00000000000E+00 -0.45593999997E+02  0.45594000000E+02  0.51100000000E-03 0. -1.
    9900012    2    1    2    0    0 -0.40891677187E+01  0.11888519728E+02  0.43255696520E+02  0.46142317905E+02  0.10000001316E+02 0.  0.
         12    1    1    2    0    0  0.40891677187E+01 -0.11888519728E+02 -0.43255696520E+02  0.45045682095E+02  0.00000000000E+00 0. -1.
         11    1    3    3    0    0 -0.19846848956E+01  0.21673198985E+01  0.15806270626E+02  0.16077140325E+02  0.51100000000E-03 0. -1.
        -11    1    3    3    0    0 -0.47783568191E+01  0.67091581845E+01  0.18248036576E+02  0.20020897497E+02  0.51100000000E-03 0.  1.
        -12    1    3    3    0    0  0.26738739959E+01  0.30120416455E+01  0.92013893177E+01  0.10044280083E+02  0.00000000000E+00 0.  1.
</event>
<event>
 7    1  0.1442665E-008  0.4614232E+02  0.7816164E-02  0.1320468E+00
        -11   -1    0    0    0    0  0.00000000000E+00  0.00000000000E+00  0.45593999997E+02  0.45594000000E+02  0.51100000000E-03 0.  1.
         11   -1    0    0    0    0 -0.00000000000E+00 -0.00000000000E+00 -0.45593999997E+02  0.45594000000E+02  0.51100000000E-03 0. -1.
    9900012    2    1    2    0    0 -0.67365105752E+01  0.66654331461E+01  0.44037538475E+02  0.46142319089E+02  0.10000012111E+02 0.  0.
         12    1    1    2    0    0  0.67365105752E+01 -0.66654331461E+01 -0.44037538475E+02  0.45045680911E+02  0.00000000000E+00 0. -1.
         11    1    3    3    0    0 -0.17977133195E+01 -0.15607208338E+01  0.37796929408E+01  0.44669566472E+01  0.51100000000E-03 0. -1.
        -11    1    3    3    0    0 -0.24482073065E+01  0.78890703399E+01  0.31301902290E+02  0.32373449570E+02  0.51100000000E-03 0.  1.
        -12    1    3    3    0    0 -0.24905899492E+01  0.33708363999E+00  0.89559432447E+01  0.93019128720E+01  0.00000000000E+00 0.  1.
</event>
<event>
 7    1  0.1442665E-008  0.4614232E+02  0.7816164E-02  0.1320468E+00
        -11   -1    0    0    0    0  0.00000000000E+00  0.00000000000E+00  0.45593999997E+02  0.45594000000E+02  0.51100000000E-03 0.  1.
         11   -1    0    0    0    0 -0.00000000000E+00 -0.00000000000E+00 -0.45593999997E+02  0.45594000000E+02  0.51100000000E-03 0. -1.
    9900012    2    1    2    0    0 -0.17606712469E+02  0.38521238581E+02  0.15337253585E+02  0.46142317706E+02  0.99999995017E+01 0.  0.
         12    1    1    2    0    0  0.17606712469E+02 -0.38521238581E+02 -0.15337253585E+02  0.45045682294E+02  0.00000000000E+00 0. -1.
         11    1    3    3    0    0 -0.34449967475E+01  0.32892143827E+01  0.78120074167E+00  0.48267182128E+01  0.51100000000E-03 0. -1.
        -11    1    3    3    0    0 -0.89084150993E+01  0.25397958475E+02  0.68830246321E+01  0.27781147971E+02  0.51100000000E-03 0.  1.
        -12    1    3    3    0    0 -0.52533006224E+01  0.98340657234E+01  0.76730282112E+01  0.13534451522E+02  0.00000000000E+00 0.  1.
</event>
<event>
 7    1  0.1442665E-008  0.4614232E+02  0.7816164E-02  0.1320468E+00
        -11   -1    0    0    0    0  0.00000000000E+00  0.00000000000E+00  0.45593999997E+02  0.45594000000E+02  0.51100000000E-03 0.  1.
         11   -1    0    0    0    0 -0.00000000000E+00 -0.00000000000E+00 -0.45593999997E+02  0.45594000000E+02  0.51100000000E-03 0. -1.
    9900012    2    1    2    0    0  0.42463512223E+02  0.12620216608E+02  0.81666220768E+01  0.46142318146E+02  0.10000003511E+02 0.  0.
         12    1    1    2    0    0 -0.42463512223E+02 -0.12620216608E+02 -0.81666220768E+01  0.45045681854E+02  0.00000000000E+00 0. -1.
         11    1    3    3    0    0  0.17326986642E+00  0.10070726096E+01  0.13401654364E+01  0.16853074929E+01  0.51100000000E-03 0. -1.
        -11    1    3    3    0    0  0.40810387666E+02  0.11548935036E+02  0.62665788504E+01  0.42873484261E+02  0.51100000000E-03 0.  1.
        -12    1    3    3    0    0  0.14798546907E+01  0.64208962278E-01  0.55987779003E+00  0.15835263926E+01  0.00000000000E+00 0.  1.
</event>
<event>
 7    1  0.1442665E-008  0.4614232E+02  0.7816164E-02  0.1320468E+00
        -11   -1    0    0    0    0  0.00000000000E+00  0.00000000000E+00  0.45593999997E+02  0.45594000000E+02  0.51100000000E-03 0.  1.
         11   -1    0    0    0    0 -0.00000000000E+00 -0.00000000000E+00 -0.45593999997E+02  0.45594000000E+02  0.51100000000E-03 0. -1.
    9900012    2    1    2    0    0  0.38066395105E+02 -0.37413926323E+01  0.23792120228E+02  0.46142318297E+02  0.10000004891E+02 0.  0.
         12    1    1    2    0    0 -0.38066395105E+02  0.37413926323E+01 -0.23792120228E+02  0.45045681703E+02  0.00000000000E+00 0. -1.
         11    1    3    3    0    0  0.22280637044E+01  0.86911278039E+00  0.34301011958E+01  0.41815331364E+01  0.51100000000E-03 0. -1.
        -11    1    3    3    0    0  0.22508670511E+02 -0.38166966134E+01  0.16128830753E+02  0.27952577751E+02  0.51100000000E-03 0.  1.
         12    1    3    3    0    0  0.13329660889E+02 -0.79380879931E+00  0.42331882795E+01  0.14008207410E+02  0.00000000000E+00 0. -1.
</event>
<event>
 7    1  0.1442665E-008  0.4614232E+02  0.7816164E-02  0.1320468E+00
        -11   -1    0    0    0    0  0.00000000000E+00  0.00000000000E+00  0.45593999997E+02  0.45594000000E+02  0.51100000000E-03 0.  1.
         11   -1    0    0    0    0 -0.00000000000E+00 -0.00000000000E+00 -0.45593999997E+02  0.45594000000E+02  0.51100000000E-03 0. -1.
    9900012    2    1    2    0    0  0.22768360396E+02 -0.67880832360E+01  0.38270577636E+02  0.46142318501E+02  0.10000006744E+02 0.  0.
         12    1    1    2    0    0 -0.22768360396E+02  0.67880832360E+01 -0.38270577636E+02  0.45045681499E+02  0.00000000000E+00 0. -1.
         11    1    3    3    0    0  0.19641294644E+01  0.39581082640E+00  0.20754941410E+01  0.28848131575E+01  0.51100000000E-03 0. -1.
        -11    1    3    3    0    0  0.15172929244E+02 -0.85177589686E+00  0.24024726694E+02  0.28427641425E+02  0.51100000000E-03 0.  1.
        -12    1    3    3    0    0  0.56313016875E+01 -0.63321181656E+01  0.12170356801E+02  0.14829863918E+02  0.00000000000E+00 0.  1.
</event>
<event>
 7    1  0.1442665E-008  0.4614232E+02  0.7816164E-02  0.1320468E+00
        -11   -1    0    0    0    0  0.00000000000E+00  0.00000000000E+00  0.45593999997E+02  0.45594000000E+02  0.51100000000E-03 0.  1.
         11   -1    0    0    0    0 -0.00000000000E+00 -0.00000000000E+00 -0.45593999997E+02  0.45594000000E+02  0.51100000000E-03 0. -1.
    9900012    2    1    2    0    0 -0.17165043327E+02 -0.34053285175E+02  0.23976001238E+02  0.46142316755E+02  0.99999908289E+01 0.  0.
         12    1    1    2    0    0  0.17165043327E+02  0.34053285175E+02 -0.23976001238E+02  0.45045683245E+02  0.00000000000E+00 0. -1.
         11    1    3    3    0    0 -0.42213578909E+01 -0.50418473278E+01  0.78061326155E+01  0.10206654378E+02  0.51100000000E-03 0. -1.
        -11    1    3    3    0    0 -0.37369892577E+01 -0.52995678675E+01  0.48308282850E+01  0.80862482323E+01  0.51100000000E-03 0.  1.
         12    1    3    3    0    0 -0.92066961780E+01 -0.23711869980E+02  0.11339040337E+02  0.27849414145E+02  0.00000000000E+00 0. -1.
</event>
<event>
 7    1  0.1442665E-008  0.4614232E+02  0.7816164E-02  0.1320468E+00
        -11   -1    0    0    0    0  0.00000000000E+00  0.00000000000E+00  0.45593999997E+02  0.45594000000E+02  0.51100000000E-03 0. -1.
         11   -1    0    0    0    0 -0.00000000000E+00 -0.00000000000E+00 -0.45593999997E+02  0.45594000000E+02  0.51100000000E-03 0.  1.
    9900012    2    1    2    0    0  0.38683180592E+02 -0.21151959100E+02  0.92368405579E+01  0.46142322539E+02  0.10000043567E+02 0.  0.
         12    1    1    2    0    0 -0.38683180592E+02  0.21151959100E+02 -0.92368405579E+01  0.45045677461E+02  0.00000000000E+00 0. -1.
         11    1    3    3    0    0  0.91300149227E+01 -0.51420767220E+01 -0.76440758089E+00  0.10506304998E+02  0.51100000000E-03 0. -1.
        -11    1    3    3    0    0  0.26047497706E+02 -0.14532155636E+02  0.10847994170E+02  0.31738535913E+02  0.51100000000E-03 0.  1.
        -12    1    3    3    0    0  0.35056679633E+01 -0.14777267421E+01 -0.84674603158E+00  0.38974816273E+01  0.00000000000E+00 0.  1.
</event>
<event>
 7    1  0.1442665E-008  0.4614230E+02  0.7816164E-02  0.1320468E+00
        -11   -1    0    0    0    0  0.00000000000E+00  0.00000000000E+00  0.45593999997E+02  0.45594000000E+02  0.51100000000E-03 0. -1.
         11   -1    0    0    0    0 -0.00000000000E+00 -0.00000000000E+00 -0.45593999997E+02  0.45594000000E+02  0.51100000000E-03 0.  1.
    9900012    2    1    2    0    0 -0.14423132552E+01  0.38723152613E+02 -0.22968502431E+02  0.46142301872E+02  0.99998551139E+01 0.  0.
         12    1    1    2    0    0  0.14423132552E+01 -0.38723152613E+02  0.22968502431E+02  0.45045698128E+02  0.00000000000E+00 0. -1.
         11    1    3    3    0    0  0.20355533626E+01  0.39663290325E+01 -0.42437687312E+01  0.61550643206E+01  0.51100000000E-03 0. -1.
        -11    1    3    3    0    0 -0.16794758110E+01  0.29111952761E+02 -0.17255653980E+02  0.33883388661E+02  0.51100000000E-03 0.  1.
         12    1    3    3    0    0 -0.17983908068E+01  0.56448708197E+01 -0.14690797201E+01  0.61038488914E+01  0.00000000000E+00 0. -1.
</event>
<event>
 7    1  0.1442665E-008  0.4614232E+02  0.7816164E-02  0.1320468E+00
        -11   -1    0    0    0    0  0.00000000000E+00  0.00000000000E+00  0.45593999997E+02  0.45594000000E+02  0.51100000000E-03 0. -1.
         11   -1    0    0    0    0 -0.00000000000E+00 -0.00000000000E+00 -0.45593999997E+02  0.45594000000E+02  0.51100000000E-03 0.  1.
    9900012    2    1    2    0    0  0.26043742621E+02 -0.86297153514E+01 -0.35726250833E+02  0.46142317462E+02  0.99999972731E+01 0.  0.
         12    1    1    2    0    0 -0.26043742621E+02  0.86297153514E+01  0.35726250833E+02  0.45045682538E+02  0.00000000000E+00 0. -1.
         11    1    3    3    0    0 -0.11769109965E+00  0.72387659251E+00 -0.17439207591E+01  0.18918531633E+01  0.51100000000E-03 0. -1.
        -11    1    3    3    0    0  0.10395453836E+02 -0.85372766900E+00 -0.12336038006E+02  0.16154632318E+02  0.51100000000E-03 0.  1.
        -12    1    3    3    0    0  0.15765979885E+02 -0.84998642749E+01 -0.21646292067E+02  0.28095831981E+02  0.00000000000E+00 0.  1.
</event>
<event>
 7    1  0.1442665E-008  0.4614232E+02  0.7816164E-02  0.1320468E+00
        -11   -1    0    0    0    0  0.00000000000E+00  0.00000000000E+00  0.45593999997E+02  0.45594000000E+02  0.51100000000E-03 0.  1.
         11   -1    0    0    0    0 -0.00000000000E+00 -0.00000000000E+00 -0.45593999997E+02  0.45594000000E+02  0.51100000000E-03 0. -1.
    9900012    2    1    2    0    0  0.27290035357E+02  0.27080337065E+02  0.23473874806E+02  0.46142317813E+02  0.10000000469E+02 0.  0.
         12    1    1    2    0    0 -0.27290035357E+02 -0.27080337065E+02 -0.23473874806E+02  0.45045682187E+02  0.00000000000E+00 0. -1.
         11    1    3    3    0    0  0.38558976467E+01  0.87262899972E+01  0.34963978010E+01  0.10160752020E+02  0.51100000000E-03 0. -1.
        -11    1    3    3    0    0  0.14512001845E+02  0.97417376041E+01  0.10688482783E+02  0.20487638067E+02  0.51100000000E-03 0.  1.
         12    1    3    3    0    0  0.89221358649E+01  0.86123094634E+01  0.92889942228E+01  0.15493927725E+02  0.00000000000E+00 0. -1.
</event>
<event>
 7    1  0.1442665E-008  0.4614232E+02  0.7816164E-02  0.1320468E+00
        -11   -1    0    0    0    0  0.00000000000E+00  0.00000000000E+00  0.45593999997E+02  0.45594000000E+02  0.51100000000E-03 0. -1.
         11   -1    0    0    0    0 -0.00000000000E+00 -0.00000000000E+00 -0.45593999997E+02  0.45594000000E+02  0.51100000000E-03 0.  1.
    9900012    2    1    2    0    0  0.26444011440E+01  0.11001810352E+02 -0.43601386927E+02  0.46142316185E+02  0.99999856274E+01 0.  0.
         12    1    1    2    0    0 -0.26444011440E+01 -0.11001810352E+02  0.43601386927E+02  0.45045683815E+02  0.00000000000E+00 0. -1.
         11    1    3    3    0    0 -0.12121606761E+01 -0.11699261844E+01 -0.46685597123E+01  0.49632157751E+01  0.51100000000E-03 0. -1.
        -11    1    3    3    0    0  0.24558039338E+01  0.80486118017E+01 -0.19062647633E+02  0.20837362115E+02  0.51100000000E-03 0.  1.
         12    1    3    3    0    0  0.14007578862E+01  0.41231247345E+01 -0.19870179582E+02  0.20341738295E+02  0.00000000000E+00 0. -1.
</event>
<event>
 7    1  0.1442665E-008  0.4614232E+02  0.7816164E-02  0.1320468E+00
        -11   -1    0    0    0    0  0.00000000000E+00  0.00000000000E+00  0.45593999997E+02  0.45594000000E+02  0.51100000000E-03 0.  1.
         11   -1    0    0    0    0 -0.00000000000E+00 -0.00000000000E+00 -0.45593999997E+02  0.45594000000E+02  0.51100000000E-03 0. -1.
    9900012    2    1    2    0    0  0.33643525491E+02 -0.12298439916E+02  0.27312547232E+02  0.46142315766E+02  0.99999818088E+01 0.  0.
         12    1    1    2    0    0 -0.33643525491E+02  0.12298439916E+02 -0.27312547232E+02  0.45045684234E+02  0.00000000000E+00 0. -1.
         11    1    3    3    0    0  0.40798011282E+00 -0.21164529071E+01  0.24078731821E+01  0.32316674028E+01  0.51100000000E-03 0. -1.
        -11    1    3    3    0    0  0.19980573635E+02 -0.79113800684E+01  0.14927994018E+02  0.26165975293E+02  0.51100000000E-03 0.  1.
         12    1    3    3    0    0  0.13254971743E+02 -0.22706069405E+01  0.99766800318E+01  0.16744673071E+02  0.00000000000E+00 0. -1.
</event>
<event>
 7    1  0.1442665E-008  0.4614231E+02  0.7816164E-02  0.1320468E+00
        -11   -1    0    0    0    0  0.00000000000E+00  0.00000000000E+00  0.45593999997E+02  0.45594000000E+02  0.51100000000E-03 0.  1.
         11   -1    0    0    0    0 -0.00000000000E+00 -0.00000000000E+00 -0.45593999997E+02  0.45594000000E+02  0.51100000000E-03 0. -1.
    9900012    2    1    2    0    0 -0.41385754285E+02 -0.15257261124E+02  0.91405239570E+01  0.46142313715E+02  0.99999631000E+01 0.  0.
         12    1    1    2    0    0  0.41385754285E+02  0.15257261124E+02 -0.91405239570E+01  0.45045686285E+02  0.00000000000E+00 0. -1.
         11    1    3    3    0    0 -0.96491470597E+01 -0.49142346564E+01  0.22266010675E+01  0.11055021204E+02  0.51100000000E-03 0. -1.
        -11    1    3    3    0    0 -0.22660550253E+02 -0.83293033296E+01  0.86194418774E+01  0.25635378098E+02  0.51100000000E-03 0.  1.
        -12    1    3    3    0    0 -0.90760569724E+01 -0.20137231378E+01 -0.17055189880E+01  0.94519144124E+01  0.00000000000E+00 0.  1.
</event>
<event>
 7    1  0.1442665E-008  0.4614232E+02  0.7816164E-02  0.1320468E+00
        -11   -1    0    0    0    0  0.00000000000E+00  0.00000000000E+00  0.45593999997E+02  0.45594000000E+02  0.51100000000E-03 0.  1.
         11   -1    0    0    0    0 -0.00000000000E+00 -0.00000000000E+00 -0.45593999997E+02  0.45594000000E+02  0.51100000000E-03 0. -1.
    9900012    2    1    2    0    0  0.13230255542E+02 -0.14334011061E+02  0.40603079353E+02  0.46142316658E+02  0.99999899449E+01 0.  0.
         12    1    1    2    0    0 -0.13230255542E+02  0.14334011061E+02 -0.40603079353E+02  0.45045683342E+02  0.00000000000E+00 0. -1.
         11    1    3    3    0    0  0.13651532520E+02 -0.13552249578E+02  0.33917856491E+02  0.38992932667E+02  0.51100000000E-03 0. -1.
        -11    1    3    3    0    0  0.82846333095E+00  0.29719553321E+00  0.21654804555E+01  0.23375163187E+01  0.51100000000E-03 0.  1.
         12    1    3    3    0    0 -0.12497403091E+01 -0.10789570155E+01  0.45197424058E+01  0.48118676724E+01  0.00000000000E+00 0. -1.
</event>
<event>
 7    1  0.1442665E-008  0.4614232E+02  0.7816164E-02  0.1320468E+00
        -11   -1    0    0    0    0  0.00000000000E+00  0.00000000000E+00  0.45593999997E+02  0.45594000000E+02  0.51100000000E-03 0.  1.
         11   -1    0    0    0    0 -0.00000000000E+00 -0.00000000000E+00 -0.45593999997E+02  0.45594000000E+02  0.51100000000E-03 0. -1.
    9900012    2    1    2    0    0 -0.20042108620E+02  0.36992627235E+02 -0.16092628339E+02  0.46142320134E+02  0.10000021641E+02 0.  0.
         12    1    1    2    0    0  0.20042108620E+02 -0.36992627235E+02  0.16092628339E+02  0.45045679866E+02  0.00000000000E+00 0. -1.
         11    1    3    3    0    0 -0.81310681403E+00 -0.85535120416E-01 -0.12864643510E+01  0.15242866316E+01  0.51100000000E-03 0.  1.
        -11    1    3    3    0    0 -0.11333987741E+02  0.26046829602E+02 -0.11570524435E+02  0.30672033620E+02  0.51100000000E-03 0. -1.
        -12    1    3    3    0    0 -0.78950140651E+01  0.11031332753E+02 -0.32356395532E+01  0.13945999882E+02  0.00000000000E+00 0.  1.
</event>
<event>
 7    1  0.1442665E-008  0.4614232E+02  0.7816164E-02  0.1320468E+00
        -11   -1    0    0    0    0  0.00000000000E+00  0.00000000000E+00  0.45593999997E+02  0.45594000000E+02  0.51100000000E-03 0.  1.
         11   -1    0    0    0    0 -0.00000000000E+00 -0.00000000000E+00 -0.45593999997E+02  0.45594000000E+02  0.51100000000E-03 0. -1.
    9900012    2    1    2    0    0 -0.10695483458E+02 -0.51344386030E+01  0.43455239267E+02  0.46142316012E+02  0.99999840533E+01 0.  0.
         12    1    1    2    0    0  0.10695483458E+02  0.51344386030E+01 -0.43455239267E+02  0.45045683988E+02  0.00000000000E+00 0. -1.
         11    1    3    3    0    0 -0.24655783796E+01  0.94552738249E+00  0.21363566839E+01  0.33966334684E+01  0.51100000000E-03 0. -1.
        -11    1    3    3    0    0 -0.64153307586E+01 -0.64525430818E+01  0.34185789543E+02  0.35375980381E+02  0.51100000000E-03 0.  1.
         12    1    3    3    0    0 -0.18145743195E+01  0.37257709632E+00  0.71330930398E+01  0.73697021628E+01  0.00000000000E+00 0. -1.
</event>
<event>
 7    1  0.1442665E-008  0.4614232E+02  0.7816164E-02  0.1320468E+00
        -11   -1    0    0    0    0  0.00000000000E+00  0.00000000000E+00  0.45593999997E+02  0.45594000000E+02  0.51100000000E-03 0.  1.
         11   -1    0    0    0    0 -0.00000000000E+00 -0.00000000000E+00 -0.45593999997E+02  0.45594000000E+02  0.51100000000E-03 0. -1.
    9900012    2    1    2    0    0  0.22268583642E+01 -0.44963299855E+02 -0.15672306924E+01  0.46142318253E+02  0.10000004484E+02 0.  0.
         12    1    1    2    0    0 -0.22268583642E+01  0.44963299855E+02  0.15672306924E+01  0.45045681747E+02  0.00000000000E+00 0. -1.
         11    1    3    3    0    0 -0.31995110103E+01 -0.96905092790E+01 -0.15680755271E+00  0.10206244641E+02  0.51100000000E-03 0.  1.
        -11    1    3    3    0    0  0.47397649045E+01 -0.18340460381E+02 -0.15898432235E+00  0.18943683238E+02  0.51100000000E-03 0. -1.
        -12    1    3    3    0    0  0.68660447009E+00 -0.16932330195E+02 -0.12514388173E+01  0.16992390374E+02  0.00000000000E+00 0.  1.
</event>
<event>
 7    1  0.1442665E-008  0.4614232E+02  0.7816164E-02  0.1320468E+00
        -11   -1    0    0    0    0  0.00000000000E+00  0.00000000000E+00  0.45593999997E+02  0.45594000000E+02  0.51100000000E-03 0.  1.
         11   -1    0    0    0    0 -0.00000000000E+00 -0.00000000000E+00 -0.45593999997E+02  0.45594000000E+02  0.51100000000E-03 0. -1.
    9900012    2    1    2    0    0  0.34303287068E+02 -0.84385984984E+01  0.27949741969E+02  0.46142317361E+02  0.99999963496E+01 0.  0.
         12    1    1    2    0    0 -0.34303287068E+02  0.84385984984E+01 -0.27949741969E+02  0.45045682639E+02  0.00000000000E+00 0. -1.
         11    1    3    3    0    0  0.25356996177E+01  0.69390689896E+00  0.40991535859E+01  0.48697371302E+01  0.51100000000E-03 0. -1.
        -11    1    3    3    0    0  0.22968975194E+02 -0.88668544450E+01  0.15223930432E+02  0.28947590353E+02  0.51100000000E-03 0.  1.
        -12    1    3    3    0    0  0.87986122570E+01 -0.26565095241E+00  0.86266579506E+01  0.12324989877E+02  0.00000000000E+00 0.  1.
</event>
<event>
 7    1  0.1442665E-008  0.4614232E+02  0.7816164E-02  0.1320468E+00
        -11   -1    0    0    0    0  0.00000000000E+00  0.00000000000E+00  0.45593999997E+02  0.45594000000E+02  0.51100000000E-03 0. -1.
         11   -1    0    0    0    0 -0.00000000000E+00 -0.00000000000E+00 -0.45593999997E+02  0.45594000000E+02  0.51100000000E-03 0.  1.
    9900012    2    1    2    0    0  0.44856854437E+02 -0.28287701340E+01  0.29957045844E+01  0.46142316784E+02  0.99999910889E+01 0.  0.
         12    1    1    2    0    0 -0.44856854437E+02  0.28287701340E+01 -0.29957045844E+01  0.45045683216E+02  0.00000000000E+00 0. -1.
         11    1    3    3    0    0  0.19677352613E+02 -0.25440271576E+00 -0.12982277803E+01  0.19721772796E+02  0.51100000000E-03 0. -1.
        -11    1    3    3    0    0  0.19249253298E+02  0.15428290452E+00  0.49025127207E+01  0.19864344615E+02  0.51100000000E-03 0.  1.
        -12    1    3    3    0    0  0.59302485259E+01 -0.27286503227E+01 -0.60858035607E+00  0.65561993725E+01  0.00000000000E+00 0.  1.
</event>
<event>
 7    1  0.1442665E-008  0.4614231E+02  0.7816164E-02  0.1320468E+00
        -11   -1    0    0    0    0  0.00000000000E+00  0.00000000000E+00  0.45593999997E+02  0.45594000000E+02  0.51100000000E-03 0.  1.
         11   -1    0    0    0    0 -0.00000000000E+00 -0.00000000000E+00 -0.45593999997E+02  0.45594000000E+02  0.51100000000E-03 0. -1.
    9900012    2    1    2    0    0 -0.14666036090E+02  0.42496290684E+02  0.28436861037E+01  0.46142313335E+02  0.99999596346E+01 0.  0.
         12    1    1    2    0    0  0.14666036090E+02 -0.42496290684E+02 -0.28436861037E+01  0.45045686665E+02  0.00000000000E+00 0. -1.
         11    1    3    3    0    0 -0.54373120119E+00  0.81360723660E+01  0.72577060398E+00  0.81864559118E+01  0.51100000000E-03 0. -1.
        -11    1    3    3    0    0 -0.59313736810E+01  0.16408575822E+02  0.46637865000E+01  0.18060272950E+02  0.51100000000E-03 0.  1.
         12    1    3    3    0    0 -0.81909312078E+01  0.17951642496E+02 -0.25458710003E+01  0.19895584473E+02  0.00000000000E+00 0. -1.
</event>
<event>
 7    1  0.1442665E-008  0.4614232E+02  0.7816164E-02  0.1320468E+00
        -11   -1    0    0    0    0  0.00000000000E+00  0.00000000000E+00  0.45593999997E+02  0.45594000000E+02  0.51100000000E-03 0.  1.
         11   -1    0    0    0    0 -0.00000000000E+00 -0.00000000000E+00 -0.45593999997E+02  0.45594000000E+02  0.51100000000E-03 0. -1.
    9900012    2    1    2    0    0 -0.18652373032E+02 -0.26407996422E+01  0.40917338921E+02  0.46142318000E+02  0.10000002174E+02 0.  0.
         12    1    1    2    0    0  0.18652373032E+02  0.26407996422E+01 -0.40917338921E+02  0.45045682000E+02  0.00000000000E+00 0. -1.
         11    1    3    3    0    0 -0.93613107408E+01 -0.27518111529E+01  0.24942293063E+02  0.26782915953E+02  0.51100000000E-03 0. -1.
        -11    1    3    3    0    0 -0.71475086933E+01 -0.15268428628E+01  0.75291855313E+01  0.10493177053E+02  0.51100000000E-03 0.  1.
         12    1    3    3    0    0 -0.21435535981E+01  0.16378543734E+01  0.84458603267E+01  0.88662249935E+01  0.00000000000E+00 0. -1.
</event>
<event>
 7    1  0.1442665E-008  0.4614232E+02  0.7816164E-02  0.1320468E+00
        -11   -1    0    0    0    0  0.00000000000E+00  0.00000000000E+00  0.45593999997E+02  0.45594000000E+02  0.51100000000E-03 0.  1.
         11   -1    0    0    0    0 -0.00000000000E+00 -0.00000000000E+00 -0.45593999997E+02  0.45594000000E+02  0.51100000000E-03 0. -1.
    9900012    2    1    2    0    0  0.31648010831E+02 -0.15946135478E+02  0.27807152185E+02  0.46142317201E+02  0.99999948886E+01 0.  0.
         12    1    1    2    0    0 -0.31648010831E+02  0.15946135478E+02 -0.27807152185E+02  0.45045682799E+02  0.00000000000E+00 0. -1.
         11    1    3    3    0    0  0.12440255722E+02 -0.49605862265E+01  0.89595658139E+01  0.16113385677E+02  0.51100000000E-03 0.  1.
        -11    1    3    3    0    0  0.12200388457E+02 -0.73795163256E+01  0.16497159718E+02  0.21805114508E+02  0.51100000000E-03 0. -1.
        -12    1    3    3    0    0  0.70073666520E+01 -0.36060329256E+01  0.23504266540E+01  0.82238170159E+01  0.00000000000E+00 0.  1.
</event>
<event>
 7    1  0.1442665E-008  0.4614232E+02  0.7816164E-02  0.1320468E+00
        -11   -1    0    0    0    0  0.00000000000E+00  0.00000000000E+00  0.45593999997E+02  0.45594000000E+02  0.51100000000E-03 0.  1.
         11   -1    0    0    0    0 -0.00000000000E+00 -0.00000000000E+00 -0.45593999997E+02  0.45594000000E+02  0.51100000000E-03 0. -1.
    9900012    2    1    2    0    0  0.46485202439E+01  0.43141089347E+02  0.12097566410E+02  0.46142318258E+02  0.10000004534E+02 0.  0.
         12    1    1    2    0    0 -0.46485202439E+01 -0.43141089347E+02 -0.12097566410E+02  0.45045681742E+02  0.00000000000E+00 0. -1.
         11    1    3    3    0    0 -0.16978371374E+01  0.31907698628E+01  0.27545773864E+00  0.36248504093E+01  0.51100000000E-03 0. -1.
        -11    1    3    3    0    0  0.45908993175E+01  0.24676404243E+02  0.10066011660E+02  0.27043037439E+02  0.51100000000E-03 0.  1.
         12    1    3    3    0    0  0.17554580639E+01  0.15273915241E+02  0.17560970112E+01  0.15474430410E+02  0.00000000000E+00 0. -1.
</event>
<event>
 7    1  0.1442665E-008  0.4614232E+02  0.7816164E-02  0.1320468E+00
        -11   -1    0    0    0    0  0.00000000000E+00  0.00000000000E+00  0.45593999997E+02  0.45594000000E+02  0.51100000000E-03 0.  1.
         11   -1    0    0    0    0 -0.00000000000E+00 -0.00000000000E+00 -0.45593999997E+02  0.45594000000E+02  0.51100000000E-03 0. -1.
    9900012    2    1    2    0    0 -0.23991612425E+02 -0.15362282935E+02  0.34892925565E+02  0.46142318095E+02  0.10000003049E+02 0.  0.
         12    1    1    2    0    0  0.23991612425E+02  0.15362282935E+02 -0.34892925565E+02  0.45045681905E+02  0.00000000000E+00 0. -1.
         11    1    3    3    0    0 -0.24598925202E+01 -0.31347962322E+01  0.71058309800E+01  0.81468308443E+01  0.51100000000E-03 0. -1.
        -11    1    3    3    0    0  0.51213963684E+00 -0.54733138889E+00  0.15037943384E+00  0.76450826819E+00  0.51100000000E-03 0.  1.
        -12    1    3    3    0    0 -0.22043859542E+02 -0.11680155314E+02  0.27636715152E+02  0.37230978983E+02  0.00000000000E+00 0.  1.
</event>
<event>
 7    1  0.1442665E-008  0.4614232E+02  0.7816164E-02  0.1320468E+00
        -11   -1    0    0    0    0  0.00000000000E+00  0.00000000000E+00  0.45593999997E+02  0.45594000000E+02  0.51100000000E-03 0.  1.
         11   -1    0    0    0    0 -0.00000000000E+00 -0.00000000000E+00 -0.45593999997E+02  0.45594000000E+02  0.51100000000E-03 0. -1.
    9900012    2    1    2    0    0  0.17938465020E+01  0.44837197658E+02  0.39396962453E+01  0.46142318902E+02  0.10000010403E+02 0.  0.
         12    1    1    2    0    0 -0.17938465020E+01 -0.44837197658E+02 -0.39396962453E+01  0.45045681098E+02  0.00000000000E+00 0. -1.
         11    1    3    3    0    0 -0.20794154742E+01  0.10372397409E+02 -0.11785855817E+01  0.10644231347E+02  0.51100000000E-03 0. -1.
        -11    1    3    3    0    0  0.28309888075E+01  0.18328949952E+02  0.54325179772E+01  0.19325557064E+02  0.51100000000E-03 0.  1.
         12    1    3    3    0    0  0.10422731686E+01  0.16135850296E+02 -0.31423615022E+00  0.16172530492E+02  0.00000000000E+00 0. -1.
</event>
<event>
 7    1  0.1442665E-008  0.4614232E+02  0.7816164E-02  0.1320468E+00
        -11   -1    0    0    0    0  0.00000000000E+00  0.00000000000E+00  0.45593999997E+02  0.45594000000E+02  0.51100000000E-03 0.  1.
         11   -1    0    0    0    0 -0.00000000000E+00 -0.00000000000E+00 -0.45593999997E+02  0.45594000000E+02  0.51100000000E-03 0. -1.
    9900012    2    1    2    0    0 -0.15933277537E+02 -0.42027395312E+02 -0.29903523192E+01  0.46142317667E+02  0.99999991446E+01 0.  0.
         12    1    1    2    0    0  0.15933277537E+02  0.42027395312E+02  0.29903523192E+01  0.45045682333E+02  0.00000000000E+00 0. -1.
         11    1    3    3    0    0 -0.44312550911E+00 -0.47438950690E+01  0.98766015348E+00  0.48658373876E+01  0.51100000000E-03 0. -1.
        -11    1    3    3    0    0 -0.15420901671E+02 -0.29429759861E+02 -0.29618438624E+01  0.33356970683E+02  0.51100000000E-03 0.  1.
        -12    1    3    3    0    0 -0.69250356971E-01 -0.78537403823E+01 -0.10161686103E+01  0.79195095965E+01  0.00000000000E+00 0.  1.
</event>
<event>
 7    1  0.1442665E-008  0.4614232E+02  0.7816164E-02  0.1320468E+00
        -11   -1    0    0    0    0  0.00000000000E+00  0.00000000000E+00  0.45593999997E+02  0.45594000000E+02  0.51100000000E-03 0.  1.
         11   -1    0    0    0    0 -0.00000000000E+00 -0.00000000000E+00 -0.45593999997E+02  0.45594000000E+02  0.51100000000E-03 0. -1.
    9900012    2    1    2    0    0  0.30952707219E+02 -0.26540484115E+02  0.19148004767E+02  0.46142317989E+02  0.10000002082E+02 0.  0.
         12    1    1    2    0    0 -0.30952707219E+02  0.26540484115E+02 -0.19148004767E+02  0.45045682011E+02  0.00000000000E+00 0. -1.
         11    1    3    3    0    0  0.82146880980E+01 -0.62584533601E+01  0.97786233434E+00  0.10373309694E+02  0.51100000000E-03 0. -1.
        -11    1    3    3    0    0  0.20903949102E+02 -0.19598893455E+02  0.17918031378E+02  0.33795673709E+02  0.51100000000E-03 0.  1.
        -12    1    3    3    0    0  0.18340700193E+01 -0.68313729995E+00  0.25211105495E+00  0.19733345865E+01  0.00000000000E+00 0.  1.
</event>
<event>
 7    1  0.1442665E-008  0.4614232E+02  0.7816164E-02  0.1320468E+00
        -11   -1    0    0    0    0  0.00000000000E+00  0.00000000000E+00  0.45593999997E+02  0.45594000000E+02  0.51100000000E-03 0.  1.
         11   -1    0    0    0    0 -0.00000000000E+00 -0.00000000000E+00 -0.45593999997E+02  0.45594000000E+02  0.51100000000E-03 0. -1.
    9900012    2    1    2    0    0  0.23159765173E+02  0.35639932322E+02  0.14917572106E+02  0.46142318117E+02  0.10000003243E+02 0.  0.
         12    1    1    2    0    0 -0.23159765173E+02 -0.35639932322E+02 -0.14917572106E+02  0.45045681883E+02  0.00000000000E+00 0. -1.
         11    1    3    3    0    0  0.91117860992E+01  0.15488271895E+02  0.27887303131E+01  0.18184835144E+02  0.51100000000E-03 0. -1.
        -11    1    3    3    0    0  0.24038819226E+00  0.59130394957E+00  0.17484564979E+01  0.18613240529E+01  0.51100000000E-03 0.  1.
        -12    1    3    3    0    0  0.13807590881E+02  0.19560356478E+02  0.10380385295E+02  0.26096158920E+02  0.00000000000E+00 0.  1.
</event>
<event>
 7    1  0.1442665E-008  0.4614232E+02  0.7816164E-02  0.1320468E+00
        -11   -1    0    0    0    0  0.00000000000E+00  0.00000000000E+00  0.45593999997E+02  0.45594000000E+02  0.51100000000E-03 0.  1.
         11   -1    0    0    0    0 -0.00000000000E+00 -0.00000000000E+00 -0.45593999997E+02  0.45594000000E+02  0.51100000000E-03 0. -1.
    9900012    2    1    2    0    0  0.35792083561E+02 -0.23558847052E+02  0.13893200519E+02  0.46142317180E+02  0.99999947049E+01 0.  0.
         12    1    1    2    0    0 -0.35792083561E+02  0.23558847052E+02 -0.13893200519E+02  0.45045682820E+02  0.00000000000E+00 0. -1.
         11    1    3    3    0    0  0.35750059264E+01 -0.11149828751E+01  0.16368753895E+01  0.40869567514E+01  0.51100000000E-03 0. -1.
        -11    1    3    3    0    0  0.41386886504E+01  0.62026804619E-01  0.35881422001E+00  0.41546767593E+01  0.51100000000E-03 0.  1.
        -12    1    3    3    0    0  0.28078388984E+02 -0.22505890981E+02  0.11897510910E+02  0.37900683670E+02  0.00000000000E+00 0.  1.
</event>
<event>
 7    1  0.1442665E-008  0.4614232E+02  0.7816164E-02  0.1320468E+00
        -11   -1    0    0    0    0  0.00000000000E+00  0.00000000000E+00  0.45593999997E+02  0.45594000000E+02  0.51100000000E-03 0.  1.
         11   -1    0    0    0    0 -0.00000000000E+00 -0.00000000000E+00 -0.45593999997E+02  0.45594000000E+02  0.51100000000E-03 0. -1.
    9900012    2    1    2    0    0 -0.19316795565E+02 -0.40672574882E+02  0.13101674132E+01  0.46142317886E+02  0.10000001140E+02 0.  0.
         12    1    1    2    0    0  0.19316795565E+02  0.40672574882E+02 -0.13101674132E+01  0.45045682114E+02  0.00000000000E+00 0. -1.
         11    1    3    3    0    0 -0.39241856811E+01 -0.31025688018E+01 -0.58035779530E-01  0.50028526705E+01  0.51100000000E-03 0. -1.
        -11    1    3    3    0    0 -0.87031947474E+01 -0.28458347639E+02  0.51466793837E-01  0.29759465692E+02  0.51100000000E-03 0.  1.
        -12    1    3    3    0    0 -0.66894151368E+01 -0.91116584413E+01  0.13167363989E+01  0.11379999524E+02  0.00000000000E+00 0.  1.
</event>
<event>
 7    1  0.1442665E-008  0.4614232E+02  0.7816164E-02  0.1320468E+00
        -11   -1    0    0    0    0  0.00000000000E+00  0.00000000000E+00  0.45593999997E+02  0.45594000000E+02  0.51100000000E-03 0.  1.
         11   -1    0    0    0    0 -0.00000000000E+00 -0.00000000000E+00 -0.45593999997E+02  0.45594000000E+02  0.51100000000E-03 0. -1.
    9900012    2    1    2    0    0 -0.19039500743E+02  0.35824056474E+02  0.19576718824E+02  0.46142317291E+02  0.99999957153E+01 0.  0.
         12    1    1    2    0    0  0.19039500743E+02 -0.35824056474E+02 -0.19576718824E+02  0.45045682709E+02  0.00000000000E+00 0. -1.
         11    1    3    3    0    0 -0.14258054900E+02  0.21595238128E+02  0.78244931166E+01  0.27034591399E+02  0.51100000000E-03 0.  1.
        -11    1    3    3    0    0 -0.48130211870E+01  0.13806296357E+02  0.11575594008E+02  0.18648682767E+02  0.51100000000E-03 0. -1.
        -12    1    3    3    0    0  0.31575343903E-01  0.42252198878E+00  0.17663169956E+00  0.45904312503E+00  0.00000000000E+00 0.  1.
</event>
<event>
 7    1  0.1442665E-008  0.4614232E+02  0.7816164E-02  0.1320468E+00
        -11   -1    0    0    0    0  0.00000000000E+00  0.00000000000E+00  0.45593999997E+02  0.45594000000E+02  0.51100000000E-03 0.  1.
         11   -1    0    0    0    0 -0.00000000000E+00 -0.00000000000E+00 -0.45593999997E+02  0.45594000000E+02  0.51100000000E-03 0. -1.
    9900012    2    1    2    0    0  0.40150000765E+02 -0.13024959000E+02  0.15730271323E+02  0.46142317030E+02  0.99999933314E+01 0.  0.
         12    1    1    2    0    0 -0.40150000765E+02  0.13024959000E+02 -0.15730271323E+02  0.45045682970E+02  0.00000000000E+00 0. -1.
         11    1    3    3    0    0  0.36587780160E+01  0.62621071497E+00  0.20535977661E+01  0.42421763844E+01  0.51100000000E-03 0. -1.
        -11    1    3    3    0    0  0.33411375616E+02 -0.13404304962E+02  0.10572318166E+02  0.37520252181E+02  0.51100000000E-03 0.  1.
        -12    1    3    3    0    0  0.30798471325E+01 -0.24686475307E+00  0.31043553910E+01  0.43798884643E+01  0.00000000000E+00 0.  1.
</event>
<event>
 7    1  0.1442665E-008  0.4614232E+02  0.7816164E-02  0.1320468E+00
        -11   -1    0    0    0    0  0.00000000000E+00  0.00000000000E+00  0.45593999997E+02  0.45594000000E+02  0.51100000000E-03 0.  1.
         11   -1    0    0    0    0 -0.00000000000E+00 -0.00000000000E+00 -0.45593999997E+02  0.45594000000E+02  0.51100000000E-03 0. -1.
    9900012    2    1    2    0    0 -0.93823741931E+01 -0.37991575266E+02  0.22309747679E+02  0.46142316764E+02  0.99999909074E+01 0.  0.
         12    1    1    2    0    0  0.93823741931E+01  0.37991575266E+02 -0.22309747679E+02  0.45045683236E+02  0.00000000000E+00 0. -1.
         11    1    3    3    0    0  0.38320739790E+00 -0.39677490093E+01  0.30575357808E+01  0.50237839745E+01  0.51100000000E-03 0. -1.
        -11    1    3    3    0    0 -0.89477515971E+01 -0.29363459102E+02  0.19523562336E+02  0.36379176401E+02  0.51100000000E-03 0.  1.
         12    1    3    3    0    0 -0.81782999386E+00 -0.46603671550E+01 -0.27135043751E+00  0.47393563886E+01  0.00000000000E+00 0. -1.
</event>
<event>
 7    1  0.1442665E-008  0.4614232E+02  0.7816164E-02  0.1320468E+00
        -11   -1    0    0    0    0  0.00000000000E+00  0.00000000000E+00  0.45593999997E+02  0.45594000000E+02  0.51100000000E-03 0. -1.
         11   -1    0    0    0    0 -0.00000000000E+00 -0.00000000000E+00 -0.45593999997E+02  0.45594000000E+02  0.51100000000E-03 0.  1.
    9900012    2    1    2    0    0 -0.14131722631E+02  0.19901903611E+02 -0.37859242007E+02  0.46142316997E+02  0.99999930355E+01 0.  0.
         12    1    1    2    0    0  0.14131722631E+02 -0.19901903611E+02  0.37859242007E+02  0.45045683003E+02  0.00000000000E+00 0. -1.
         11    1    3    3    0    0  0.49973721433E-01 -0.50797778300E+00 -0.90446717461E+00  0.10385566580E+01  0.51100000000E-03 0. -1.
        -11    1    3    3    0    0 -0.60675294323E+01  0.80058818289E+01 -0.21273515233E+02  0.23525975175E+02  0.51100000000E-03 0.  1.
        -12    1    3    3    0    0 -0.81141669199E+01  0.12403999565E+02 -0.15681259599E+02  0.21577785165E+02  0.00000000000E+00 0.  1.
</event>
<event>
 7    1  0.1442665E-008  0.4614232E+02  0.7816164E-02  0.1320468E+00
        -11   -1    0    0    0    0  0.00000000000E+00  0.00000000000E+00  0.45593999997E+02  0.45594000000E+02  0.51100000000E-03 0. -1.
         11   -1    0    0    0    0 -0.00000000000E+00 -0.00000000000E+00 -0.45593999997E+02  0.45594000000E+02  0.51100000000E-03 0.  1.
    9900012    2    1    2    0    0  0.96330968457E+01 -0.41557970589E+02 -0.14465546610E+02  0.46142317488E+02  0.99999975079E+01 0.  0.
         12    1    1    2    0    0 -0.96330968457E+01  0.41557970589E+02  0.14465546610E+02  0.45045682512E+02  0.00000000000E+00 0. -1.
         11    1    3    3    0    0  0.74472490543E+01 -0.15562972944E+02 -0.28541767567E+01  0.17487537578E+02  0.51100000000E-03 0. -1.
        -11    1    3    3    0    0  0.23496545820E+01 -0.18183395239E+02 -0.73316527320E+01  0.19746135600E+02  0.51100000000E-03 0.  1.
         12    1    3    3    0    0 -0.16380679065E+00 -0.78116024056E+01 -0.42797171208E+01  0.89086443100E+01  0.00000000000E+00 0. -1.
</event>
<event>
 7    1  0.1442665E-008  0.4614232E+02  0.7816164E-02  0.1320468E+00
        -11   -1    0    0    0    0  0.00000000000E+00  0.00000000000E+00  0.45593999997E+02  0.45594000000E+02  0.51100000000E-03 0. -1.
         11   -1    0    0    0    0 -0.00000000000E+00 -0.00000000000E+00 -0.45593999997E+02  0.45594000000E+02  0.51100000000E-03 0.  1.
    9900012    2    1    2    0    0  0.30684408584E+02  0.20040029638E+02 -0.26191177778E+02  0.46142317505E+02  0.99999976608E+01 0.  0.
         12    1    1    2    0    0 -0.30684408584E+02 -0.20040029638E+02  0.26191177778E+02  0.45045682495E+02  0.00000000000E+00 0. -1.
         11    1    3    3    0    0  0.24263981014E+01  0.13607519935E+01 -0.45590909753E+01  0.53408205846E+01  0.51100000000E-03 0. -1.
        -11    1    3    3    0    0  0.21900309277E+02  0.15127595798E+02 -0.20114468767E+02  0.33362547192E+02  0.51100000000E-03 0.  1.
        -12    1    3    3    0    0  0.63577012056E+01  0.35516818460E+01 -0.15176180359E+01  0.74389497281E+01  0.00000000000E+00 0.  1.
</event>
<event>
 7    1  0.1442665E-008  0.4614232E+02  0.7816164E-02  0.1320468E+00
        -11   -1    0    0    0    0  0.00000000000E+00  0.00000000000E+00  0.45593999997E+02  0.45594000000E+02  0.51100000000E-03 0.  1.
         11   -1    0    0    0    0 -0.00000000000E+00 -0.00000000000E+00 -0.45593999997E+02  0.45594000000E+02  0.51100000000E-03 0. -1.
    9900012    2    1    2    0    0 -0.21380358400E+02 -0.27192731254E+02  0.28853930244E+02  0.46142315979E+02  0.99999837520E+01 0.  0.
         12    1    1    2    0    0  0.21380358400E+02  0.27192731254E+02 -0.28853930244E+02  0.45045684021E+02  0.00000000000E+00 0. -1.
         11    1    3    3    0    0 -0.25035655098E+01 -0.77201645415E+01  0.85855860161E+01  0.11814443208E+02  0.51100000000E-03 0. -1.
        -11    1    3    3    0    0 -0.15017921802E+02 -0.15236819019E+02  0.18629279631E+02  0.28368092796E+02  0.51100000000E-03 0.  1.
         12    1    3    3    0    0 -0.38588710888E+01 -0.42357476937E+01  0.16390645970E+01  0.59597799756E+01  0.00000000000E+00 0. -1.
</event>
<event>
 7    1  0.1442665E-008  0.4614231E+02  0.7816164E-02  0.1320468E+00
        -11   -1    0    0    0    0  0.00000000000E+00  0.00000000000E+00  0.45593999997E+02  0.45594000000E+02  0.51100000000E-03 0.  1.
         11   -1    0    0    0    0 -0.00000000000E+00 -0.00000000000E+00 -0.45593999997E+02  0.45594000000E+02  0.51100000000E-03 0. -1.
    9900012    2    1    2    0    0  0.88389860071E+01  0.10580767563E+02  0.42883953883E+02  0.46142314119E+02  0.99999667880E+01 0.  0.
         12    1    1    2    0    0 -0.88389860071E+01 -0.10580767563E+02 -0.42883953883E+02  0.45045685881E+02  0.00000000000E+00 0. -1.
         11    1    3    3    0    0  0.27885196402E+01  0.36544027560E+01  0.21750918791E+02  0.22231351057E+02  0.51100000000E-03 0.  1.
        -11    1    3    3    0    0 -0.70760299615E+00 -0.56658156436E+00  0.32882724110E+01  0.34109313067E+01  0.51100000000E-03 0. -1.
        -12    1    3    3    0    0  0.67580693630E+01  0.74929463718E+01  0.17844762681E+02  0.20500031755E+02  0.00000000000E+00 0.  1.
</event>
<event>
 7    1  0.1442665E-008  0.4614232E+02  0.7816164E-02  0.1320468E+00
        -11   -1    0    0    0    0  0.00000000000E+00  0.00000000000E+00  0.45593999997E+02  0.45594000000E+02  0.51100000000E-03 0.  1.
         11   -1    0    0    0    0 -0.00000000000E+00 -0.00000000000E+00 -0.45593999997E+02  0.45594000000E+02  0.51100000000E-03 0. -1.
    9900012    2    1    2    0    0 -0.37016674893E+02  0.99604105012E+01  0.23657335501E+02  0.46142317405E+02  0.99999967498E+01 0.  0.
         12    1    1    2    0    0  0.37016674893E+02 -0.99604105012E+01 -0.23657335501E+02  0.45045682595E+02  0.00000000000E+00 0. -1.
         11    1    3    3    0    0 -0.14413691625E+02  0.93821809430E+00  0.96548359999E+01  0.17373848679E+02  0.51100000000E-03 0. -1.
        -11    1    3    3    0    0 -0.11035198354E+02  0.75311476234E+01  0.87955417971E+01  0.15995478830E+02  0.51100000000E-03 0.  1.
        -12    1    3    3    0    0 -0.11567784913E+02  0.14910447835E+01  0.52069577042E+01  0.12772989896E+02  0.00000000000E+00 0.  1.
</event>
<event>
 7    1  0.1442665E-008  0.4614232E+02  0.7816164E-02  0.1320468E+00
        -11   -1    0    0    0    0  0.00000000000E+00  0.00000000000E+00  0.45593999997E+02  0.45594000000E+02  0.51100000000E-03 0.  1.
         11   -1    0    0    0    0 -0.00000000000E+00 -0.00000000000E+00 -0.45593999997E+02  0.45594000000E+02  0.51100000000E-03 0. -1.
    9900012    2    1    2    0    0  0.24187913569E+02 -0.63987777489E+00  0.37995380025E+02  0.46142317525E+02  0.99999978480E+01 0.  0.
         12    1    1    2    0    0 -0.24187913569E+02  0.63987777489E+00 -0.37995380025E+02  0.45045682475E+02  0.00000000000E+00 0. -1.
         11    1    3    3    0    0  0.38722012686E+01  0.30409908965E+01  0.50969814833E+01  0.70866627406E+01  0.51100000000E-03 0. -1.
        -11    1    3    3    0    0  0.17020766986E+02 -0.14826401395E+01  0.26933492625E+02  0.31895419042E+02  0.51100000000E-03 0.  1.
         12    1    3    3    0    0  0.32949453134E+01 -0.21982285319E+01  0.59649059165E+01  0.71602357426E+01  0.00000000000E+00 0. -1.
</event>
<event>
 7    1  0.1442665E-008  0.4614232E+02  0.7816164E-02  0.1320468E+00
        -11   -1    0    0    0    0  0.00000000000E+00  0.00000000000E+00  0.45593999997E+02  0.45594000000E+02  0.51100000000E-03 0.  1.
         11   -1    0    0    0    0 -0.00000000000E+00 -0.00000000000E+00 -0.45593999997E+02  0.45594000000E+02  0.51100000000E-03 0. -1.
    9900012    2    1    2    0    0 -0.26392764229E+02 -0.35798193507E+02  0.71431664417E+01  0.46142317756E+02  0.99999999567E+01 0.  0.
         12    1    1    2    0    0  0.26392764229E+02  0.35798193507E+02 -0.71431664417E+01  0.45045682244E+02  0.00000000000E+00 0. -1.
         11    1    3    3    0    0 -0.54449865836E+01 -0.56934639717E+01  0.32551746015E+01  0.85240584723E+01  0.51100000000E-03 0. -1.
        -11    1    3    3    0    0 -0.65796799058E+01 -0.69113105286E+01 -0.18951061078E+01  0.97288143320E+01  0.51100000000E-03 0.  1.
        -12    1    3    3    0    0 -0.14368097739E+02 -0.23193419006E+02  0.57830979480E+01  0.27889444952E+02  0.00000000000E+00 0.  1.
</event>
<event>
 7    1  0.1442665E-008  0.4614232E+02  0.7816164E-02  0.1320468E+00
        -11   -1    0    0    0    0  0.00000000000E+00  0.00000000000E+00  0.45593999997E+02  0.45594000000E+02  0.51100000000E-03 0.  1.
         11   -1    0    0    0    0 -0.00000000000E+00 -0.00000000000E+00 -0.45593999997E+02  0.45594000000E+02  0.51100000000E-03 0. -1.
    9900012    2    1    2    0    0  0.43530123137E+02  0.10630967084E+02  0.46069902503E+01  0.46142318290E+02  0.10000004827E+02 0.  0.
         12    1    1    2    0    0 -0.43530123137E+02 -0.10630967084E+02 -0.46069902503E+01  0.45045681710E+02  0.00000000000E+00 0. -1.
         11    1    3    3    0    0  0.31910395006E+01  0.18184368804E+01  0.18945449176E+01  0.41326440069E+01  0.51100000000E-03 0. -1.
        -11    1    3    3    0    0  0.23637544015E+02  0.87897269320E+01  0.14541735724E+01  0.25260787946E+02  0.51100000000E-03 0.  1.
         12    1    3    3    0    0  0.16701539622E+02  0.22803271811E-01  0.12582717603E+01  0.16748886338E+02  0.00000000000E+00 0. -1.
</event>
<event>
 7    1  0.1442665E-008  0.4614232E+02  0.7816164E-02  0.1320468E+00
        -11   -1    0    0    0    0  0.00000000000E+00  0.00000000000E+00  0.45593999997E+02  0.45594000000E+02  0.51100000000E-03 0. -1.
         11   -1    0    0    0    0 -0.00000000000E+00 -0.00000000000E+00 -0.45593999997E+02  0.45594000000E+02  0.51100000000E-03 0.  1.
    9900012    2    1    2    0    0 -0.83293984844E+01  0.24194459267E+02 -0.37072398400E+02  0.46142318059E+02  0.10000002720E+02 0.  0.
         12    1    1    2    0    0  0.83293984844E+01 -0.24194459267E+02  0.37072398400E+02  0.45045681941E+02  0.00000000000E+00 0. -1.
         11    1    3    3    0    0 -0.45620320282E+01  0.14974824702E+02 -0.17826385535E+02  0.23724197196E+02  0.51100000000E-03 0.  1.
        -11    1    3    3    0    0 -0.24730479860E+01  0.94695028319E+01 -0.14511050713E+02  0.17503086679E+02  0.51100000000E-03 0. -1.
         12    1    3    3    0    0 -0.12943184703E+01 -0.24986826703E+00 -0.47349621527E+01  0.49150341851E+01  0.00000000000E+00 0. -1.
</event>
<event>
 7    1  0.1442665E-008  0.4614232E+02  0.7816164E-02  0.1320468E+00
        -11   -1    0    0    0    0  0.00000000000E+00  0.00000000000E+00  0.45593999997E+02  0.45594000000E+02  0.51100000000E-03 0.  1.
         11   -1    0    0    0    0 -0.00000000000E+00 -0.00000000000E+00 -0.45593999997E+02  0.45594000000E+02  0.51100000000E-03 0. -1.
    9900012    2    1    2    0    0  0.33359898524E+01 -0.14286757688E+02  0.42589589618E+02  0.46142318549E+02  0.10000007186E+02 0.  0.
         12    1    1    2    0    0 -0.33359898524E+01  0.14286757688E+02 -0.42589589618E+02  0.45045681451E+02  0.00000000000E+00 0. -1.
         11    1    3    3    0    0 -0.28156816387E+01 -0.72002224752E+01  0.16371065078E+02  0.18104779447E+02  0.51100000000E-03 0. -1.
        -11    1    3    3    0    0  0.39456919269E+01 -0.27665046669E+01  0.16283713060E+02  0.16981794491E+02  0.51100000000E-03 0.  1.
         12    1    3    3    0    0  0.22059795643E+01 -0.43200305455E+01  0.99348114797E+01  0.11055744610E+02  0.00000000000E+00 0. -1.
</event>
<event>
 7    1  0.1442665E-008  0.4614232E+02  0.7816164E-02  0.1320468E+00
        -11   -1    0    0    0    0  0.00000000000E+00  0.00000000000E+00  0.45593999997E+02  0.45594000000E+02  0.51100000000E-03 0.  1.
         11   -1    0    0    0    0 -0.00000000000E+00 -0.00000000000E+00 -0.45593999997E+02  0.45594000000E+02  0.51100000000E-03 0. -1.
    9900012    2    1    2    0    0  0.87090701968E+01  0.29959684476E+02  0.32491273094E+02  0.46142318466E+02  0.10000006431E+02 0.  0.
         12    1    1    2    0    0 -0.87090701968E+01 -0.29959684476E+02 -0.32491273094E+02  0.45045681534E+02  0.00000000000E+00 0. -1.
         11    1    3    3    0    0  0.16143222062E+01  0.74518056560E+01  0.13840368215E+02  0.15801621319E+02  0.51100000000E-03 0. -1.
        -11    1    3    3    0    0  0.60866768966E+01  0.20121800633E+02  0.14838626401E+02  0.25731679504E+02  0.51100000000E-03 0.  1.
        -12    1    3    3    0    0  0.10080710941E+01  0.23860781864E+01  0.38122784781E+01  0.46090176433E+01  0.00000000000E+00 0.  1.
</event>
<event>
 7    1  0.1442665E-008  0.4614232E+02  0.7816164E-02  0.1320468E+00
        -11   -1    0    0    0    0  0.00000000000E+00  0.00000000000E+00  0.45593999997E+02  0.45594000000E+02  0.51100000000E-03 0. -1.
         11   -1    0    0    0    0 -0.00000000000E+00 -0.00000000000E+00 -0.45593999997E+02  0.45594000000E+02  0.51100000000E-03 0.  1.
    9900012    2    1    2    0    0  0.33187167743E+02  0.18718554601E+02 -0.24027922425E+02  0.46142318240E+02  0.10000004368E+02 0.  0.
         12    1    1    2    0    0 -0.33187167743E+02 -0.18718554601E+02  0.24027922425E+02  0.45045681760E+02  0.00000000000E+00 0. -1.
         11    1    3    3    0    0  0.34199361817E+01  0.23907455233E+01 -0.34819639079E+01  0.54346757549E+01  0.51100000000E-03 0. -1.
        -11    1    3    3    0    0  0.18687043327E+02  0.55717312554E+01 -0.92987372117E+01  0.21603617555E+02  0.51100000000E-03 0.  1.
        -12    1    3    3    0    0  0.11080188235E+02  0.10756077823E+02 -0.11247221305E+02  0.19104024930E+02  0.00000000000E+00 0.  1.
</event>
<event>
 7    1  0.1442665E-008  0.4614232E+02  0.7816164E-02  0.1320468E+00
        -11   -1    0    0    0    0  0.00000000000E+00  0.00000000000E+00  0.45593999997E+02  0.45594000000E+02  0.51100000000E-03 0.  1.
         11   -1    0    0    0    0 -0.00000000000E+00 -0.00000000000E+00 -0.45593999997E+02  0.45594000000E+02  0.51100000000E-03 0. -1.
    9900012    2    1    2    0    0 -0.26550425267E+02  0.31920690534E+02  0.17471634630E+02  0.46142316714E+02  0.99999904523E+01 0.  0.
         12    1    1    2    0    0  0.26550425267E+02 -0.31920690534E+02 -0.17471634630E+02  0.45045683286E+02  0.00000000000E+00 0. -1.
         11    1    3    3    0    0 -0.22312769009E+01  0.60244407426E+01  0.54724647311E+01  0.84392152102E+01  0.51100000000E-03 0. -1.
        -11    1    3    3    0    0 -0.17439471044E+02  0.20982779509E+02  0.94198493138E+01  0.28864264196E+02  0.51100000000E-03 0.  1.
        -12    1    3    3    0    0 -0.68796773221E+01  0.49134702828E+01  0.25793205854E+01  0.88388373081E+01  0.00000000000E+00 0.  1.
</event>
<event>
 7    1  0.1442665E-008  0.4614232E+02  0.7816164E-02  0.1320468E+00
        -11   -1    0    0    0    0  0.00000000000E+00  0.00000000000E+00  0.45593999997E+02  0.45594000000E+02  0.51100000000E-03 0.  1.
         11   -1    0    0    0    0 -0.00000000000E+00 -0.00000000000E+00 -0.45593999997E+02  0.45594000000E+02  0.51100000000E-03 0. -1.
    9900012    2    1    2    0    0  0.33247727346E+02  0.13374790069E+02  0.27291337912E+02  0.46142317543E+02  0.99999980072E+01 0.  0.
         12    1    1    2    0    0 -0.33247727346E+02 -0.13374790069E+02 -0.27291337912E+02  0.45045682457E+02  0.00000000000E+00 0. -1.
         11    1    3    3    0    0  0.79149843674E+01  0.49304778626E+01  0.42698660657E+01  0.10256136991E+02  0.51100000000E-03 0. -1.
        -11    1    3    3    0    0  0.23786449846E+01 -0.84165088692E+00  0.88883058379E+00  0.26751351827E+01  0.51100000000E-03 0.  1.
        -12    1    3    3    0    0  0.22954097994E+02  0.92859630933E+01  0.22132641262E+02  0.33211045369E+02  0.00000000000E+00 0.  1.
</event>
<event>
 7    1  0.1442665E-008  0.4614232E+02  0.7816164E-02  0.1320468E+00
        -11   -1    0    0    0    0  0.00000000000E+00  0.00000000000E+00  0.45593999997E+02  0.45594000000E+02  0.51100000000E-03 0.  1.
         11   -1    0    0    0    0 -0.00000000000E+00 -0.00000000000E+00 -0.45593999997E+02  0.45594000000E+02  0.51100000000E-03 0. -1.
    9900012    2    1    2    0    0 -0.11355082464E+02 -0.42769151632E+02  0.84246783784E+01  0.46142318355E+02  0.10000005418E+02 0.  0.
         12    1    1    2    0    0  0.11355082464E+02  0.42769151632E+02 -0.84246783784E+01  0.45045681645E+02  0.00000000000E+00 0. -1.
         11    1    3    3    0    0  0.22003886206E+00 -0.31863230999E+01  0.10204171493E+01  0.33529574136E+01  0.51100000000E-03 0. -1.
        -11    1    3    3    0    0 -0.70577472784E+01 -0.22262372019E+02 -0.16493159351E+00  0.23354918267E+02  0.51100000000E-03 0.  1.
        -12    1    3    3    0    0 -0.45173740478E+01 -0.17320456513E+02  0.75691928226E+01  0.19434442675E+02  0.00000000000E+00 0.  1.
</event>
<event>
 7    1  0.1442665E-008  0.4614232E+02  0.7816164E-02  0.1320468E+00
        -11   -1    0    0    0    0  0.00000000000E+00  0.00000000000E+00  0.45593999997E+02  0.45594000000E+02  0.51100000000E-03 0. -1.
         11   -1    0    0    0    0 -0.00000000000E+00 -0.00000000000E+00 -0.45593999997E+02  0.45594000000E+02  0.51100000000E-03 0.  1.
    9900012    2    1    2    0    0  0.11960900564E+02  0.43401807405E+02  0.15275252540E+01  0.46142319167E+02  0.10000012822E+02 0.  0.
         12    1    1    2    0    0 -0.11960900564E+02 -0.43401807405E+02 -0.15275252540E+01  0.45045680833E+02  0.00000000000E+00 0. -1.
         11    1    3    3    0    0  0.92656523405E+00  0.24038951581E+00  0.74342074413E+00  0.12120168795E+01  0.51100000000E-03 0. -1.
        -11    1    3    3    0    0  0.92388773499E+01  0.34634622644E+02  0.29015736736E+01  0.35962940236E+02  0.51100000000E-03 0.  1.
        -12    1    3    3    0    0  0.17954579802E+01  0.85267952450E+01 -0.21174691637E+01  0.89673620518E+01  0.00000000000E+00 0.  1.
</event>
<event>
 7    1  0.1442665E-008  0.4614232E+02  0.7816164E-02  0.1320468E+00
        -11   -1    0    0    0    0  0.00000000000E+00  0.00000000000E+00  0.45593999997E+02  0.45594000000E+02  0.51100000000E-03 0.  1.
         11   -1    0    0    0    0 -0.00000000000E+00 -0.00000000000E+00 -0.45593999997E+02  0.45594000000E+02  0.51100000000E-03 0. -1.
    9900012    2    1    2    0    0  0.22613185921E+02  0.29650804764E+02  0.25270269624E+02  0.46142323986E+02  0.10000056766E+02 0.  0.
         12    1    1    2    0    0 -0.22613185921E+02 -0.29650804764E+02 -0.25270269624E+02  0.45045676014E+02  0.00000000000E+00 0. -1.
         11    1    3    3    0    0  0.13789590585E+02  0.10416651930E+02  0.11614421698E+02  0.20821965267E+02  0.51100000000E-03 0. -1.
        -11    1    3    3    0    0  0.49719837099E+01  0.13707691715E+02  0.95810994464E+01  0.17447604449E+02  0.51100000000E-03 0.  1.
        -12    1    3    3    0    0  0.38516116254E+01  0.55264611199E+01  0.40747484794E+01  0.78727542698E+01  0.00000000000E+00 0.  1.
</event>
<event>
 7    1  0.1442665E-008  0.4614231E+02  0.7816164E-02  0.1320468E+00
        -11   -1    0    0    0    0  0.00000000000E+00  0.00000000000E+00  0.45593999997E+02  0.45594000000E+02  0.51100000000E-03 0.  1.
         11   -1    0    0    0    0 -0.00000000000E+00 -0.00000000000E+00 -0.45593999997E+02  0.45594000000E+02  0.51100000000E-03 0. -1.
    9900012    2    1    2    0    0  0.96360586337E+01 -0.60979459867E+01  0.43578381352E+02  0.46142313275E+02  0.99999590925E+01 0.  0.
         12    1    1    2    0    0 -0.96360586337E+01  0.60979459867E+01 -0.43578381352E+02  0.45045686725E+02  0.00000000000E+00 0. -1.
         11    1    3    3    0    0  0.60697412291E+01 -0.84415643244E+00  0.14129291809E+02  0.15401014446E+02  0.51100000000E-03 0. -1.
        -11    1    3    3    0    0  0.38701970260E+01 -0.45994352681E+01  0.29410811434E+02  0.30018811757E+02  0.51100000000E-03 0.  1.
         12    1    3    3    0    0 -0.30387962152E+00 -0.65435428608E+00  0.38278108609E-01  0.72248707233E+00  0.00000000000E+00 0. -1.
</event>
<event>
 7    1  0.1442665E-008  0.4614232E+02  0.7816164E-02  0.1320468E+00
        -11   -1    0    0    0    0  0.00000000000E+00  0.00000000000E+00  0.45593999997E+02  0.45594000000E+02  0.51100000000E-03 0. -1.
         11   -1    0    0    0    0 -0.00000000000E+00 -0.00000000000E+00 -0.45593999997E+02  0.45594000000E+02  0.51100000000E-03 0.  1.
    9900012    2    1    2    0    0 -0.38483182735E+02  0.18544258252E+02 -0.14292258534E+02  0.46142317393E+02  0.99999966459E+01 0.  0.
         12    1    1    2    0    0  0.38483182735E+02 -0.18544258252E+02  0.14292258534E+02  0.45045682607E+02  0.00000000000E+00 0. -1.
         11    1    3    3    0    0 -0.34214725172E+01  0.10389141724E+01  0.24622715635E+00  0.35841937611E+01  0.51100000000E-03 0. -1.
        -11    1    3    3    0    0 -0.34947537444E+02  0.16825526973E+02 -0.13059721438E+02  0.40926581284E+02  0.51100000000E-03 0.  1.
        -12    1    3    3    0    0 -0.11417277398E+00  0.67981710694E+00 -0.14787642522E+01  0.16315423485E+01  0.00000000000E+00 0.  1.
</event>
<event>
 7    1  0.1442665E-008  0.4614232E+02  0.7816164E-02  0.1320468E+00
        -11   -1    0    0    0    0  0.00000000000E+00  0.00000000000E+00  0.45593999997E+02  0.45594000000E+02  0.51100000000E-03 0.  1.
         11   -1    0    0    0    0 -0.00000000000E+00 -0.00000000000E+00 -0.45593999997E+02  0.45594000000E+02  0.51100000000E-03 0. -1.
    9900012    2    1    2    0    0  0.36202733895E+01 -0.44214719311E+02  0.78144544101E+01  0.46142317844E+02  0.10000000759E+02 0.  0.
         12    1    1    2    0    0 -0.36202733895E+01  0.44214719311E+02 -0.78144544101E+01  0.45045682156E+02  0.00000000000E+00 0. -1.
         11    1    3    3    0    0  0.10322691725E+01 -0.12482815168E+01  0.17195850524E+01  0.23623630973E+01  0.51100000000E-03 0. -1.
        -11    1    3    3    0    0  0.38677271877E+01 -0.21524573445E+02  0.27664687756E+01  0.22043591480E+02  0.51100000000E-03 0.  1.
         12    1    3    3    0    0 -0.12797229707E+01 -0.21441864349E+02  0.33284005820E+01  0.21736363267E+02  0.00000000000E+00 0. -1.
</event>
<event>
 7    1  0.1442665E-008  0.4614232E+02  0.7816164E-02  0.1320468E+00
        -11   -1    0    0    0    0  0.00000000000E+00  0.00000000000E+00  0.45593999997E+02  0.45594000000E+02  0.51100000000E-03 0.  1.
         11   -1    0    0    0    0 -0.00000000000E+00 -0.00000000000E+00 -0.45593999997E+02  0.45594000000E+02  0.51100000000E-03 0. -1.
    9900012    2    1    2    0    0  0.30572699463E+02 -0.32677744321E+02 -0.51564065805E+01  0.46142318130E+02  0.10000003364E+02 0.  0.
         12    1    1    2    0    0 -0.30572699463E+02  0.32677744321E+02  0.51564065805E+01  0.45045681870E+02  0.00000000000E+00 0. -1.
         11    1    3    3    0    0  0.26441591025E+02 -0.27966273118E+02 -0.63105306713E+01  0.39001191850E+02  0.51100000000E-03 0.  1.
        -11    1    3    3    0    0  0.21678152059E+01 -0.39434969595E+01  0.19276374533E+01  0.48955466956E+01  0.51100000000E-03 0. -1.
         12    1    3    3    0    0  0.19632932315E+01 -0.76797424273E+00 -0.77351336240E+00  0.22455795849E+01  0.00000000000E+00 0. -1.
</event>
<event>
 7    1  0.1442665E-008  0.4614232E+02  0.7816164E-02  0.1320468E+00
        -11   -1    0    0    0    0  0.00000000000E+00  0.00000000000E+00  0.45593999997E+02  0.45594000000E+02  0.51100000000E-03 0.  1.
         11   -1    0    0    0    0 -0.00000000000E+00 -0.00000000000E+00 -0.45593999997E+02  0.45594000000E+02  0.51100000000E-03 0. -1.
    9900012    2    1    2    0    0  0.21609743871E+02 -0.36070657989E+02  0.16156735737E+02  0.46142317547E+02  0.99999980517E+01 0.  0.
         12    1    1    2    0    0 -0.21609743871E+02  0.36070657989E+02 -0.16156735737E+02  0.45045682453E+02  0.00000000000E+00 0. -1.
         11    1    3    3    0    0  0.15012829607E+02 -0.18656969096E+02  0.10315053105E+02  0.26074276011E+02  0.51100000000E-03 0.  1.
        -11    1    3    3    0    0  0.41580350987E+01 -0.56993903095E+01  0.35005714828E+01  0.78756781771E+01  0.51100000000E-03 0. -1.
        -12    1    3    3    0    0  0.24388791656E+01 -0.11714298583E+02  0.23411111495E+01  0.12192363360E+02  0.00000000000E+00 0.  1.
</event>
<event>
 7    1  0.1442665E-008  0.4614232E+02  0.7816164E-02  0.1320468E+00
        -11   -1    0    0    0    0  0.00000000000E+00  0.00000000000E+00  0.45593999997E+02  0.45594000000E+02  0.51100000000E-03 0.  1.
         11   -1    0    0    0    0 -0.00000000000E+00 -0.00000000000E+00 -0.45593999997E+02  0.45594000000E+02  0.51100000000E-03 0. -1.
    9900012    2    1    2    0    0 -0.21029926106E+02 -0.52915861263E-02  0.39835357651E+02  0.46142317197E+02  0.99999948551E+01 0.  0.
         12    1    1    2    0    0  0.21029926106E+02  0.52915861263E-02 -0.39835357651E+02  0.45045682803E+02  0.00000000000E+00 0. -1.
         11    1    3    3    0    0 -0.44964397703E+01  0.75996440410E+00  0.50247886189E+01  0.67855742151E+01  0.51100000000E-03 0. -1.
        -11    1    3    3    0    0 -0.53977170584E+01  0.25986351181E+01  0.17531463016E+02  0.18526749571E+02  0.51100000000E-03 0.  1.
        -12    1    3    3    0    0 -0.11135769277E+02 -0.33638911083E+01  0.17279106016E+02  0.20829993411E+02  0.00000000000E+00 0.  1.
</event>
<event>
 7    1  0.1442665E-008  0.4614232E+02  0.7816164E-02  0.1320468E+00
        -11   -1    0    0    0    0  0.00000000000E+00  0.00000000000E+00  0.45593999997E+02  0.45594000000E+02  0.51100000000E-03 0.  1.
         11   -1    0    0    0    0 -0.00000000000E+00 -0.00000000000E+00 -0.45593999997E+02  0.45594000000E+02  0.51100000000E-03 0. -1.
    9900012    2    1    2    0    0 -0.44237961116E+01  0.11243399511E+02  0.43395039530E+02  0.46142318071E+02  0.10000002826E+02 0.  0.
         12    1    1    2    0    0  0.44237961116E+01 -0.11243399511E+02 -0.43395039530E+02  0.45045681929E+02  0.00000000000E+00 0. -1.
         11    1    3    3    0    0  0.10520734565E+01  0.65040668948E+01  0.20352612466E+02  0.21392488850E+02  0.51100000000E-03 0. -1.
        -11    1    3    3    0    0 -0.61261271684E+01  0.53555497803E+01  0.20685534611E+02  0.22228420770E+02  0.51100000000E-03 0.  1.
         12    1    3    3    0    0  0.65025760035E+00 -0.61621716426E+00  0.23568924535E+01  0.25214084512E+01  0.00000000000E+00 0. -1.
</event>
<event>
 7    1  0.1442665E-008  0.4614232E+02  0.7816164E-02  0.1320468E+00
        -11   -1    0    0    0    0  0.00000000000E+00  0.00000000000E+00  0.45593999997E+02  0.45594000000E+02  0.51100000000E-03 0.  1.
         11   -1    0    0    0    0 -0.00000000000E+00 -0.00000000000E+00 -0.45593999997E+02  0.45594000000E+02  0.51100000000E-03 0. -1.
    9900012    2    1    2    0    0  0.20856944701E+02  0.39757121107E+02  0.36705137839E+01  0.46142317716E+02  0.99999995924E+01 0.  0.
         12    1    1    2    0    0 -0.20856944701E+02 -0.39757121107E+02 -0.36705137839E+01  0.45045682284E+02  0.00000000000E+00 0. -1.
         11    1    3    3    0    0  0.54338408541E+01  0.98345522550E+01  0.24019538984E+01  0.11489753143E+02  0.51100000000E-03 0. -1.
        -11    1    3    3    0    0  0.11928706821E+02  0.28423961187E+02  0.10256854436E+01  0.30842627107E+02  0.51100000000E-03 0.  1.
        -12    1    3    3    0    0  0.34943970257E+01  0.14986076650E+01  0.24287444183E+00  0.38099374669E+01  0.00000000000E+00 0.  1.
</event>
<event>
 7    1  0.1442665E-008  0.4614232E+02  0.7816164E-02  0.1320468E+00
        -11   -1    0    0    0    0  0.00000000000E+00  0.00000000000E+00  0.45593999997E+02  0.45594000000E+02  0.51100000000E-03 0. -1.
         11   -1    0    0    0    0 -0.00000000000E+00 -0.00000000000E+00 -0.45593999997E+02  0.45594000000E+02  0.51100000000E-03 0.  1.
    9900012    2    1    2    0    0 -0.13096168750E+02  0.21429866532E+02 -0.37394713303E+02  0.46142318759E+02  0.10000009098E+02 0.  0.
         12    1    1    2    0    0  0.13096168750E+02 -0.21429866532E+02  0.37394713303E+02  0.45045681241E+02  0.00000000000E+00 0. -1.
         11    1    3    3    0    0 -0.71102054182E+01  0.79643355478E+01 -0.88237157777E+01  0.13850762513E+02  0.51100000000E-03 0. -1.
        -11    1    3    3    0    0 -0.19092813633E+01  0.64363557929E+01 -0.10295924051E+02  0.12291382491E+02  0.51100000000E-03 0.  1.
         12    1    3    3    0    0 -0.40766819683E+01  0.70291751912E+01 -0.18275073474E+02  0.20000173754E+02  0.00000000000E+00 0. -1.
</event>
<event>
 7    1  0.1442665E-008  0.4614232E+02  0.7816164E-02  0.1320468E+00
        -11   -1    0    0    0    0  0.00000000000E+00  0.00000000000E+00  0.45593999997E+02  0.45594000000E+02  0.51100000000E-03 0. -1.
         11   -1    0    0    0    0 -0.00000000000E+00 -0.00000000000E+00 -0.45593999997E+02  0.45594000000E+02  0.51100000000E-03 0.  1.
    9900012    2    1    2    0    0  0.35920661298E+01  0.11292721675E+00 -0.44902092144E+02  0.46142316849E+02  0.99999916787E+01 0.  0.
         12    1    1    2    0    0 -0.35920661298E+01 -0.11292721675E+00  0.44902092144E+02  0.45045683151E+02  0.00000000000E+00 0. -1.
         11    1    3    3    0    0 -0.13437290723E+01 -0.19394934575E+01 -0.11015626100E+02  0.11265489840E+02  0.51100000000E-03 0. -1.
        -11    1    3    3    0    0  0.62444519705E+01  0.21427777552E+01 -0.23564027006E+02  0.24471371966E+02  0.51100000000E-03 0.  1.
        -12    1    3    3    0    0 -0.13086567683E+01 -0.90357080962E-01 -0.10322439038E+02  0.10405455042E+02  0.00000000000E+00 0.  1.
</event>
<event>
 7    1  0.1442665E-008  0.4614232E+02  0.7816164E-02  0.1320468E+00
        -11   -1    0    0    0    0  0.00000000000E+00  0.00000000000E+00  0.45593999997E+02  0.45594000000E+02  0.51100000000E-03 0.  1.
         11   -1    0    0    0    0 -0.00000000000E+00 -0.00000000000E+00 -0.45593999997E+02  0.45594000000E+02  0.51100000000E-03 0. -1.
    9900012    2    1    2    0    0 -0.37407955027E+02  0.16157776119E+02  0.19201157779E+02  0.46142319980E+02  0.10000020234E+02 0.  0.
         12    1    1    2    0    0  0.37407955027E+02 -0.16157776119E+02 -0.19201157779E+02  0.45045680020E+02  0.00000000000E+00 0. -1.
         11    1    3    3    0    0 -0.20006158467E+02  0.33193264806E+01  0.98769619643E+01  0.22557009615E+02  0.51100000000E-03 0. -1.
        -11    1    3    3    0    0 -0.56782830799E+01  0.35652150672E+01  0.32443321353E+01  0.74484460444E+01  0.51100000000E-03 0.  1.
         12    1    3    3    0    0 -0.11723513480E+02  0.92732345713E+01  0.60798636796E+01  0.16136864320E+02  0.00000000000E+00 0. -1.
</event>
<event>
 7    1  0.1442665E-008  0.4614232E+02  0.7816164E-02  0.1320468E+00
        -11   -1    0    0    0    0  0.00000000000E+00  0.00000000000E+00  0.45593999997E+02  0.45594000000E+02  0.51100000000E-03 0.  1.
         11   -1    0    0    0    0 -0.00000000000E+00 -0.00000000000E+00 -0.45593999997E+02  0.45594000000E+02  0.51100000000E-03 0. -1.
    9900012    2    1    2    0    0 -0.32378365931E+02  0.27486808629E+02 -0.15007673626E+02  0.46142317669E+02  0.99999991639E+01 0.  0.
         12    1    1    2    0    0  0.32378365931E+02 -0.27486808629E+02  0.15007673626E+02  0.45045682331E+02  0.00000000000E+00 0. -1.
         11    1    3    3    0    0 -0.17641405100E+02  0.13799600500E+02 -0.10158578133E+02  0.24593593837E+02  0.51100000000E-03 0. -1.
        -11    1    3    3    0    0 -0.23988708360E+01  0.59483231757E+01 -0.10740157308E+01  0.65031253979E+01  0.51100000000E-03 0.  1.
        -12    1    3    3    0    0 -0.12338089995E+02  0.77388849528E+01 -0.37750797617E+01  0.15045598434E+02  0.00000000000E+00 0.  1.
</event>
<event>
 7    1  0.1442665E-008  0.4614232E+02  0.7816164E-02  0.1320468E+00
        -11   -1    0    0    0    0  0.00000000000E+00  0.00000000000E+00  0.45593999997E+02  0.45594000000E+02  0.51100000000E-03 0.  1.
         11   -1    0    0    0    0 -0.00000000000E+00 -0.00000000000E+00 -0.45593999997E+02  0.45594000000E+02  0.51100000000E-03 0. -1.
    9900012    2    1    2    0    0  0.41895039226E+02 -0.13834357421E+02  0.90845914780E+01  0.46142316973E+02  0.99999928165E+01 0.  0.
         12    1    1    2    0    0 -0.41895039226E+02  0.13834357421E+02 -0.90845914780E+01  0.45045683027E+02  0.00000000000E+00 0. -1.
         11    1    3    3    0    0  0.68745863576E+01  0.99569053417E+00 -0.34579748523E+00  0.69549200851E+01  0.51100000000E-03 0. -1.
        -11    1    3    3    0    0  0.26313887354E+02 -0.11148541836E+02  0.73519563533E+01  0.29508675254E+02  0.51100000000E-03 0.  1.
         12    1    3    3    0    0  0.87065655147E+01 -0.36815061184E+01  0.20784326100E+01  0.96787216344E+01  0.00000000000E+00 0. -1.
</event>
<event>
 7    1  0.1442665E-008  0.4614232E+02  0.7816164E-02  0.1320468E+00
        -11   -1    0    0    0    0  0.00000000000E+00  0.00000000000E+00  0.45593999997E+02  0.45594000000E+02  0.51100000000E-03 0. -1.
         11   -1    0    0    0    0 -0.00000000000E+00 -0.00000000000E+00 -0.45593999997E+02  0.45594000000E+02  0.51100000000E-03 0.  1.
    9900012    2    1    2    0    0  0.32723685205E+02 -0.30938241810E+02 -0.10483977020E+01  0.46142317438E+02  0.99999970537E+01 0.  0.
         12    1    1    2    0    0 -0.32723685205E+02  0.30938241810E+02  0.10483977020E+01  0.45045682562E+02  0.00000000000E+00 0. -1.
         11    1    3    3    0    0  0.21058779544E+01 -0.19507492215E+01  0.14493953778E+01  0.32157256889E+01  0.51100000000E-03 0. -1.
        -11    1    3    3    0    0  0.13727016187E+02 -0.10909884034E+02 -0.45073135533E+01  0.18104486151E+02  0.51100000000E-03 0.  1.
        -12    1    3    3    0    0  0.16890791063E+02 -0.18077608555E+02  0.20095204735E+01  0.24822105598E+02  0.00000000000E+00 0.  1.
</event>
<event>
 7    1  0.1442665E-008  0.4614232E+02  0.7816164E-02  0.1320468E+00
        -11   -1    0    0    0    0  0.00000000000E+00  0.00000000000E+00  0.45593999997E+02  0.45594000000E+02  0.51100000000E-03 0.  1.
         11   -1    0    0    0    0 -0.00000000000E+00 -0.00000000000E+00 -0.45593999997E+02  0.45594000000E+02  0.51100000000E-03 0. -1.
    9900012    2    1    2    0    0  0.11757193201E+02  0.43591077729E+01  0.43265227350E+02  0.46142319739E+02  0.10000018034E+02 0.  0.
         12    1    1    2    0    0 -0.11757193201E+02 -0.43591077729E+01 -0.43265227350E+02  0.45045680261E+02  0.00000000000E+00 0. -1.
         11    1    3    3    0    0  0.52546525651E+01 -0.13168967809E+01  0.27043933223E+02  0.27581151447E+02  0.51100000000E-03 0. -1.
        -11    1    3    3    0    0  0.60227242470E+01  0.45362842224E+01  0.12087350846E+02  0.14246232226E+02  0.51100000000E-03 0.  1.
        -12    1    3    3    0    0  0.47981638888E+00  0.11397203314E+01  0.41339432811E+01  0.43149360659E+01  0.00000000000E+00 0.  1.
</event>
<event>
 7    1  0.1442665E-008  0.4614232E+02  0.7816164E-02  0.1320468E+00
        -11   -1    0    0    0    0  0.00000000000E+00  0.00000000000E+00  0.45593999997E+02  0.45594000000E+02  0.51100000000E-03 0.  1.
         11   -1    0    0    0    0 -0.00000000000E+00 -0.00000000000E+00 -0.45593999997E+02  0.45594000000E+02  0.51100000000E-03 0. -1.
    9900012    2    1    2    0    0 -0.20100212519E+02 -0.79381713296E+01  0.39523154718E+02  0.46142324666E+02  0.10000062968E+02 0.  0.
         12    1    1    2    0    0  0.20100212519E+02  0.79381713296E+01 -0.39523154718E+02  0.45045675334E+02  0.00000000000E+00 0. -1.
         11    1    3    3    0    0 -0.45800037681E+01 -0.33745401910E+01  0.39821148411E+01  0.69441482477E+01  0.51100000000E-03 0. -1.
        -11    1    3    3    0    0 -0.81988760572E+01 -0.19824832357E+01  0.14558579516E+02  0.16825696009E+02  0.51100000000E-03 0.  1.
         12    1    3    3    0    0 -0.73213326939E+01 -0.25811479029E+01  0.20982460361E+02  0.22372480410E+02  0.00000000000E+00 0. -1.
</event>
<event>
 7    1  0.1442665E-008  0.4614232E+02  0.7816164E-02  0.1320468E+00
        -11   -1    0    0    0    0  0.00000000000E+00  0.00000000000E+00  0.45593999997E+02  0.45594000000E+02  0.51100000000E-03 0.  1.
         11   -1    0    0    0    0 -0.00000000000E+00 -0.00000000000E+00 -0.45593999997E+02  0.45594000000E+02  0.51100000000E-03 0. -1.
    9900012    2    1    2    0    0  0.33333221377E+02 -0.29814369970E+02  0.53956070599E+01  0.46142324518E+02  0.10000061616E+02 0.  0.
         12    1    1    2    0    0 -0.33333221377E+02  0.29814369970E+02 -0.53956070599E+01  0.45045675482E+02  0.00000000000E+00 0. -1.
         11    1    3    3    0    0  0.15179617216E+02 -0.99466668922E+01  0.46603983755E+01  0.18737029497E+02  0.51100000000E-03 0. -1.
        -11    1    3    3    0    0  0.86513523325E+01 -0.13182754945E+02  0.77522048862E+00  0.15787079913E+02  0.51100000000E-03 0.  1.
         12    1    3    3    0    0  0.95022518285E+01 -0.66849481322E+01 -0.40011804218E-01  0.11618215108E+02  0.00000000000E+00 0. -1.
</event>
<event>
 7    1  0.1442665E-008  0.4614232E+02  0.7816164E-02  0.1320468E+00
        -11   -1    0    0    0    0  0.00000000000E+00  0.00000000000E+00  0.45593999997E+02  0.45594000000E+02  0.51100000000E-03 0.  1.
         11   -1    0    0    0    0 -0.00000000000E+00 -0.00000000000E+00 -0.45593999997E+02  0.45594000000E+02  0.51100000000E-03 0. -1.
    9900012    2    1    2    0    0  0.13990354033E+01  0.41132313731E+02 -0.18310903487E+02  0.46142315196E+02  0.99999766113E+01 0.  0.
         12    1    1    2    0    0 -0.13990354033E+01 -0.41132313731E+02  0.18310903487E+02  0.45045684804E+02  0.00000000000E+00 0. -1.
         11    1    3    3    0    0 -0.19486079887E+01  0.10138518602E+02 -0.48486976174E+01  0.11405985331E+02  0.51100000000E-03 0. -1.
        -11    1    3    3    0    0 -0.66469703410E+00  0.19340292091E+02 -0.57116888959E+01  0.20177019369E+02  0.51100000000E-03 0.  1.
        -12    1    3    3    0    0  0.40123404261E+01  0.11653503039E+02 -0.77505169735E+01  0.14559310496E+02  0.00000000000E+00 0.  1.
</event>
<event>
 7    1  0.1442665E-008  0.4614232E+02  0.7816164E-02  0.1320468E+00
        -11   -1    0    0    0    0  0.00000000000E+00  0.00000000000E+00  0.45593999997E+02  0.45594000000E+02  0.51100000000E-03 0.  1.
         11   -1    0    0    0    0 -0.00000000000E+00 -0.00000000000E+00 -0.45593999997E+02  0.45594000000E+02  0.51100000000E-03 0. -1.
    9900012    2    1    2    0    0 -0.76258824205E+01 -0.42433053333E+02  0.13053558712E+02  0.46142317710E+02  0.99999995370E+01 0.  0.
         12    1    1    2    0    0  0.76258824205E+01  0.42433053333E+02 -0.13053558712E+02  0.45045682290E+02  0.00000000000E+00 0. -1.
         11    1    3    3    0    0 -0.48304708875E+01 -0.31150939332E+02  0.11932077351E+02  0.33705918478E+02  0.51100000000E-03 0. -1.
        -11    1    3    3    0    0  0.55355960997E+00 -0.15483143327E+01  0.13690327800E+01  0.21396159768E+01  0.51100000000E-03 0.  1.
         12    1    3    3    0    0 -0.33489711430E+01 -0.97337996684E+01 -0.24755141907E+00  0.10296783255E+02  0.00000000000E+00 0. -1.
</event>
<event>
 7    1  0.1442665E-008  0.4614232E+02  0.7816164E-02  0.1320468E+00
        -11   -1    0    0    0    0  0.00000000000E+00  0.00000000000E+00  0.45593999997E+02  0.45594000000E+02  0.51100000000E-03 0.  1.
         11   -1    0    0    0    0 -0.00000000000E+00 -0.00000000000E+00 -0.45593999997E+02  0.45594000000E+02  0.51100000000E-03 0. -1.
    9900012    2    1    2    0    0 -0.30795089390E+01  0.28687140801E+02  0.34593035546E+02  0.46142317289E+02  0.99999956908E+01 0.  0.
         12    1    1    2    0    0  0.30795089390E+01 -0.28687140801E+02 -0.34593035546E+02  0.45045682711E+02  0.00000000000E+00 0. -1.
         11    1    3    3    0    0 -0.11682881646E+01  0.40925258805E+00  0.10904590031E+01  0.16496927032E+01  0.51100000000E-03 0. -1.
        -11    1    3    3    0    0 -0.16524224613E+01  0.86173786503E+01  0.15614427964E+02  0.17910892655E+02  0.51100000000E-03 0.  1.
        -12    1    3    3    0    0 -0.25879831306E+00  0.19660509563E+02  0.17888148579E+02  0.26581731930E+02  0.00000000000E+00 0.  1.
</event>
<event>
 7    1  0.1442665E-008  0.4614232E+02  0.7816164E-02  0.1320468E+00
        -11   -1    0    0    0    0  0.00000000000E+00  0.00000000000E+00  0.45593999997E+02  0.45594000000E+02  0.51100000000E-03 0.  1.
         11   -1    0    0    0    0 -0.00000000000E+00 -0.00000000000E+00 -0.45593999997E+02  0.45594000000E+02  0.51100000000E-03 0. -1.
    9900012    2    1    2    0    0 -0.34404221321E+02  0.28818543286E+02  0.38670402194E+01  0.46142324493E+02  0.10000061384E+02 0.  0.
         12    1    1    2    0    0  0.34404221321E+02 -0.28818543286E+02 -0.38670402194E+01  0.45045675507E+02  0.00000000000E+00 0. -1.
         11    1    3    3    0    0 -0.43478813031E+01  0.34573109491E+01  0.22564052331E+01  0.59957014320E+01  0.51100000000E-03 0. -1.
        -11    1    3    3    0    0 -0.16659655465E+02  0.95941717402E+01 -0.12227559118E+01  0.19263628523E+02  0.51100000000E-03 0.  1.
        -12    1    3    3    0    0 -0.13396684553E+02  0.15767060597E+02  0.28333908981E+01  0.20882994537E+02  0.00000000000E+00 0.  1.
</event>
<event>
 7    1  0.1442665E-008  0.4614232E+02  0.7816164E-02  0.1320468E+00
        -11   -1    0    0    0    0  0.00000000000E+00  0.00000000000E+00  0.45593999997E+02  0.45594000000E+02  0.51100000000E-03 0.  1.
         11   -1    0    0    0    0 -0.00000000000E+00 -0.00000000000E+00 -0.45593999997E+02  0.45594000000E+02  0.51100000000E-03 0. -1.
    9900012    2    1    2    0    0  0.74610181733E+01  0.12277864021E+02  0.42693099216E+02  0.46142318100E+02  0.10000003095E+02 0.  0.
         12    1    1    2    0    0 -0.74610181733E+01 -0.12277864021E+02 -0.42693099216E+02  0.45045681900E+02  0.00000000000E+00 0. -1.
         11    1    3    3    0    0  0.90241679934E+01  0.10216258448E+02  0.34483426196E+02  0.37079835856E+02  0.51100000000E-03 0. -1.
        -11    1    3    3    0    0 -0.99166835841E+00  0.24631489021E+01  0.78290101926E+01  0.82670375289E+01  0.51100000000E-03 0.  1.
         12    1    3    3    0    0 -0.57148146166E+00 -0.40154332964E+00  0.38066282775E+00  0.79544471526E+00  0.00000000000E+00 0. -1.
</event>
<event>
 7    1  0.1442665E-008  0.4614231E+02  0.7816164E-02  0.1320468E+00
        -11   -1    0    0    0    0  0.00000000000E+00  0.00000000000E+00  0.45593999997E+02  0.45594000000E+02  0.51100000000E-03 0.  1.
         11   -1    0    0    0    0 -0.00000000000E+00 -0.00000000000E+00 -0.45593999997E+02  0.45594000000E+02  0.51100000000E-03 0. -1.
    9900012    2    1    2    0    0  0.18034612678E+02 -0.27227624946E+02  0.31024554807E+02  0.46142314129E+02  0.99999668786E+01 0.  0.
         12    1    1    2    0    0 -0.18034612678E+02  0.27227624946E+02 -0.31024554807E+02  0.45045685871E+02  0.00000000000E+00 0. -1.
         11    1    3    3    0    0  0.11055939551E+02 -0.93756576558E+01  0.11723512757E+02  0.18643430678E+02  0.51100000000E-03 0. -1.
        -11    1    3    3    0    0  0.48050502137E+01 -0.14234850851E+02  0.17017998307E+02  0.22700919650E+02  0.51100000000E-03 0.  1.
        -12    1    3    3    0    0  0.21736229137E+01 -0.36171164384E+01  0.22830437431E+01  0.47979638007E+01  0.00000000000E+00 0.  1.
</event>
<event>
 7    1  0.1442665E-008  0.4614232E+02  0.7816164E-02  0.1320468E+00
        -11   -1    0    0    0    0  0.00000000000E+00  0.00000000000E+00  0.45593999997E+02  0.45594000000E+02  0.51100000000E-03 0.  1.
         11   -1    0    0    0    0 -0.00000000000E+00 -0.00000000000E+00 -0.45593999997E+02  0.45594000000E+02  0.51100000000E-03 0. -1.
    9900012    2    1    2    0    0 -0.14903198076E+02  0.24330964934E+02  0.34857025587E+02  0.46142318739E+02  0.10000008918E+02 0.  0.
         12    1    1    2    0    0  0.14903198076E+02 -0.24330964934E+02 -0.34857025587E+02  0.45045681261E+02  0.00000000000E+00 0. -1.
         11    1    3    3    0    0 -0.25685217326E+01  0.52813862998E+01  0.12340341434E+02  0.13666542068E+02  0.51100000000E-03 0. -1.
        -11    1    3    3    0    0 -0.11205702985E+02  0.15111173771E+02  0.20765995200E+02  0.28020383813E+02  0.51100000000E-03 0.  1.
        -12    1    3    3    0    0 -0.11289733589E+01  0.39384048629E+01  0.17506889530E+01  0.44553928580E+01  0.00000000000E+00 0.  1.
</event>
<event>
 7    1  0.1442665E-008  0.4614232E+02  0.7816164E-02  0.1320468E+00
        -11   -1    0    0    0    0  0.00000000000E+00  0.00000000000E+00  0.45593999997E+02  0.45594000000E+02  0.51100000000E-03 0.  1.
         11   -1    0    0    0    0 -0.00000000000E+00 -0.00000000000E+00 -0.45593999997E+02  0.45594000000E+02  0.51100000000E-03 0. -1.
    9900012    2    1    2    0    0 -0.43490498711E+02 -0.54588635920E+01  0.10387044003E+02  0.46142319264E+02  0.10000013706E+02 0.  0.
         12    1    1    2    0    0  0.43490498711E+02  0.54588635920E+01 -0.10387044003E+02  0.45045680736E+02  0.00000000000E+00 0. -1.
         11    1    3    3    0    0 -0.21895431240E+02  0.39141092499E-01  0.19788156087E+01  0.21984702697E+02  0.51100000000E-03 0. -1.
        -11    1    3    3    0    0 -0.14292811465E+02 -0.33663417701E+01  0.75241612533E+01  0.16499385422E+02  0.51100000000E-03 0.  1.
        -12    1    3    3    0    0 -0.73022560060E+01 -0.21316629144E+01  0.88406714110E+00  0.76582311448E+01  0.00000000000E+00 0.  1.
</event>
<event>
 7    1  0.1442665E-008  0.4614232E+02  0.7816164E-02  0.1320468E+00
        -11   -1    0    0    0    0  0.00000000000E+00  0.00000000000E+00  0.45593999997E+02  0.45594000000E+02  0.51100000000E-03 0.  1.
         11   -1    0    0    0    0 -0.00000000000E+00 -0.00000000000E+00 -0.45593999997E+02  0.45594000000E+02  0.51100000000E-03 0. -1.
    9900012    2    1    2    0    0 -0.81651254549E+00  0.30186246871E+01  0.44937006738E+02  0.46142319160E+02  0.10000012758E+02 0.  0.
         12    1    1    2    0    0  0.81651254549E+00 -0.30186246871E+01 -0.44937006738E+02  0.45045680840E+02  0.00000000000E+00 0. -1.
         11    1    3    3    0    0 -0.30363160016E+01 -0.11472160730E+01  0.80057982258E+01  0.86387571487E+01  0.51100000000E-03 0. -1.
        -11    1    3    3    0    0  0.15241511312E+00  0.23446570865E+00  0.19921414548E+02  0.19923377284E+02  0.51100000000E-03 0.  1.
         12    1    3    3    0    0  0.20673883430E+01  0.39313750515E+01  0.17009793964E+02  0.17580184728E+02  0.00000000000E+00 0. -1.
</event>
<event>
 7    1  0.1442665E-008  0.4614232E+02  0.7816164E-02  0.1320468E+00
        -11   -1    0    0    0    0  0.00000000000E+00  0.00000000000E+00  0.45593999997E+02  0.45594000000E+02  0.51100000000E-03 0.  1.
         11   -1    0    0    0    0 -0.00000000000E+00 -0.00000000000E+00 -0.45593999997E+02  0.45594000000E+02  0.51100000000E-03 0. -1.
    9900012    2    1    2    0    0  0.32937906412E+02  0.28452230379E+02 -0.11605100199E+02  0.46142318265E+02  0.10000004592E+02 0.  0.
         12    1    1    2    0    0 -0.32937906412E+02 -0.28452230379E+02  0.11605100199E+02  0.45045681735E+02  0.00000000000E+00 0. -1.
         11    1    3    3    0    0  0.25395978476E+02  0.19606654816E+02 -0.50383269880E+01  0.32477090000E+02  0.51100000000E-03 0. -1.
        -11    1    3    3    0    0  0.58434989772E+01  0.67444476054E+01 -0.35195737701E+01  0.95927813267E+01  0.51100000000E-03 0.  1.
         12    1    3    3    0    0  0.16984289595E+01  0.21011279578E+01 -0.30471994411E+01  0.40724469375E+01  0.00000000000E+00 0. -1.
</event>
<event>
 7    1  0.1442665E-008  0.4614232E+02  0.7816164E-02  0.1320468E+00
        -11   -1    0    0    0    0  0.00000000000E+00  0.00000000000E+00  0.45593999997E+02  0.45594000000E+02  0.51100000000E-03 0.  1.
         11   -1    0    0    0    0 -0.00000000000E+00 -0.00000000000E+00 -0.45593999997E+02  0.45594000000E+02  0.51100000000E-03 0. -1.
    9900012    2    1    2    0    0 -0.65163517277E+01  0.31477341319E+02  0.31556737040E+02  0.46142317532E+02  0.99999979106E+01 0.  0.
         12    1    1    2    0    0  0.65163517277E+01 -0.31477341319E+02 -0.31556737040E+02  0.45045682468E+02  0.00000000000E+00 0. -1.
         11    1    3    3    0    0  0.66910309214E+00  0.44226800670E+01  0.38654572585E+01  0.59118151190E+01  0.51100000000E-03 0. -1.
        -11    1    3    3    0    0 -0.77974063802E+01  0.27003863409E+02  0.25486003917E+02  0.37941330778E+02  0.51100000000E-03 0.  1.
        -12    1    3    3    0    0  0.61195156036E+00  0.50797842838E-01  0.22052758652E+01  0.22891716351E+01  0.00000000000E+00 0.  1.
</event>
<event>
 7    1  0.1442665E-008  0.4614232E+02  0.7816164E-02  0.1320468E+00
        -11   -1    0    0    0    0  0.00000000000E+00  0.00000000000E+00  0.45593999997E+02  0.45594000000E+02  0.51100000000E-03 0.  1.
         11   -1    0    0    0    0 -0.00000000000E+00 -0.00000000000E+00 -0.45593999997E+02  0.45594000000E+02  0.51100000000E-03 0. -1.
    9900012    2    1    2    0    0  0.16007490141E+02 -0.24116112821E+02  0.34515023174E+02  0.46142318044E+02  0.10000002579E+02 0.  0.
         12    1    1    2    0    0 -0.16007490141E+02  0.24116112821E+02 -0.34515023174E+02  0.45045681956E+02  0.00000000000E+00 0. -1.
         11    1    3    3    0    0  0.89821893654E+01 -0.54619832115E+01  0.10011720691E+02  0.14517146340E+02  0.51100000000E-03 0. -1.
        -11    1    3    3    0    0  0.38560901606E+01 -0.10822686673E+02  0.15278336960E+02  0.19116159622E+02  0.51100000000E-03 0.  1.
         12    1    3    3    0    0  0.31692106148E+01 -0.78314429360E+01  0.92249655228E+01  0.12509012082E+02  0.00000000000E+00 0. -1.
</event>
<event>
 7    1  0.1442665E-008  0.4614232E+02  0.7816164E-02  0.1320468E+00
        -11   -1    0    0    0    0  0.00000000000E+00  0.00000000000E+00  0.45593999997E+02  0.45594000000E+02  0.51100000000E-03 0.  1.
         11   -1    0    0    0    0 -0.00000000000E+00 -0.00000000000E+00 -0.45593999997E+02  0.45594000000E+02  0.51100000000E-03 0. -1.
    9900012    2    1    2    0    0  0.15886007487E+00 -0.25331130535E+02  0.37248115145E+02  0.46142317714E+02  0.99999995715E+01 0.  0.
         12    1    1    2    0    0 -0.15886007487E+00  0.25331130535E+02 -0.37248115145E+02  0.45045682286E+02  0.00000000000E+00 0. -1.
         11    1    3    3    0    0  0.14530444051E+01 -0.16161402840E+02  0.18239671513E+02  0.24412863351E+02  0.51100000000E-03 0. -1.
        -11    1    3    3    0    0 -0.30351935409E+01 -0.38446152636E+01  0.96552508365E+01  0.10826695495E+02  0.51100000000E-03 0.  1.
        -12    1    3    3    0    0  0.17410092106E+01 -0.53251124312E+01  0.93531927959E+01  0.10902758869E+02  0.00000000000E+00 0.  1.
</event>
<event>
 7    1  0.1442665E-008  0.4614232E+02  0.7816164E-02  0.1320468E+00
        -11   -1    0    0    0    0  0.00000000000E+00  0.00000000000E+00  0.45593999997E+02  0.45594000000E+02  0.51100000000E-03 0. -1.
         11   -1    0    0    0    0 -0.00000000000E+00 -0.00000000000E+00 -0.45593999997E+02  0.45594000000E+02  0.51100000000E-03 0.  1.
    9900012    2    1    2    0    0 -0.95178547082E+01 -0.41313479955E+02 -0.15222363191E+02  0.46142317351E+02  0.99999962560E+01 0.  0.
         12    1    1    2    0    0  0.95178547082E+01  0.41313479955E+02  0.15222363191E+02  0.45045682649E+02  0.00000000000E+00 0. -1.
         11    1    3    3    0    0  0.15964146911E+00 -0.11273008175E+02 -0.12474272672E+01  0.11342939379E+02  0.51100000000E-03 0. -1.
        -11    1    3    3    0    0 -0.79386726882E+01 -0.17797768922E+02 -0.90926330027E+01  0.21504861725E+02  0.51100000000E-03 0.  1.
        -12    1    3    3    0    0 -0.17388234891E+01 -0.12242702858E+02 -0.48823029212E+01  0.13294516246E+02  0.00000000000E+00 0.  1.
</event>
<event>
 7    1  0.1442665E-008  0.4614232E+02  0.7816164E-02  0.1320468E+00
        -11   -1    0    0    0    0  0.00000000000E+00  0.00000000000E+00  0.45593999997E+02  0.45594000000E+02  0.51100000000E-03 0. -1.
         11   -1    0    0    0    0 -0.00000000000E+00 -0.00000000000E+00 -0.45593999997E+02  0.45594000000E+02  0.51100000000E-03 0.  1.
    9900012    2    1    2    0    0 -0.22518695798E+02  0.19152783009E+02 -0.33988127433E+02  0.46142316924E+02  0.99999923650E+01 0.  0.
         12    1    1    2    0    0  0.22518695798E+02 -0.19152783009E+02  0.33988127433E+02  0.45045683076E+02  0.00000000000E+00 0. -1.
         11    1    3    3    0    0 -0.13132883824E+01  0.46862031782E+01 -0.36861418803E+01  0.61051510076E+01  0.51100000000E-03 0. -1.
        -11    1    3    3    0    0 -0.10326307012E+02  0.81634795078E+01 -0.19106427732E+02  0.23201952399E+02  0.51100000000E-03 0.  1.
         12    1    3    3    0    0 -0.10879100403E+02  0.63031003228E+01 -0.11195557821E+02  0.16835213518E+02  0.00000000000E+00 0. -1.
</event>
<event>
 7    1  0.1442665E-008  0.4614232E+02  0.7816164E-02  0.1320468E+00
        -11   -1    0    0    0    0  0.00000000000E+00  0.00000000000E+00  0.45593999997E+02  0.45594000000E+02  0.51100000000E-03 0. -1.
         11   -1    0    0    0    0 -0.00000000000E+00 -0.00000000000E+00 -0.45593999997E+02  0.45594000000E+02  0.51100000000E-03 0.  1.
    9900012    2    1    2    0    0 -0.41332298747E+02 -0.36640356853E+00 -0.17905872430E+02  0.46142318312E+02  0.10000005022E+02 0.  0.
         12    1    1    2    0    0  0.41332298747E+02  0.36640356853E+00  0.17905872430E+02  0.45045681688E+02  0.00000000000E+00 0. -1.
         11    1    3    3    0    0 -0.14732449567E+01 -0.14160270010E+00  0.65663015555E+00  0.16191557829E+01  0.51100000000E-03 0. -1.
        -11    1    3    3    0    0 -0.22701739960E+02  0.19605984601E+01 -0.13570851436E+02  0.26521330142E+02  0.51100000000E-03 0.  1.
         12    1    3    3    0    0 -0.17157313830E+02 -0.21853993286E+01 -0.49916511494E+01  0.18001832387E+02  0.00000000000E+00 0. -1.
</event>
<event>
 7    1  0.1442665E-008  0.4614232E+02  0.7816164E-02  0.1320468E+00
        -11   -1    0    0    0    0  0.00000000000E+00  0.00000000000E+00  0.45593999997E+02  0.45594000000E+02  0.51100000000E-03 0. -1.
         11   -1    0    0    0    0 -0.00000000000E+00 -0.00000000000E+00 -0.45593999997E+02  0.45594000000E+02  0.51100000000E-03 0.  1.
    9900012    2    1    2    0    0  0.40099707956E+02  0.11308622348E+02 -0.17124306112E+02  0.46142318993E+02  0.10000011237E+02 0.  0.
         12    1    1    2    0    0 -0.40099707956E+02 -0.11308622348E+02  0.17124306112E+02  0.45045681007E+02  0.00000000000E+00 0. -1.
         11    1    3    3    0    0  0.22258229753E+02  0.77153915547E+01 -0.86084483664E+01  0.25081097307E+02  0.51100000000E-03 0. -1.
        -11    1    3    3    0    0  0.15446932717E+02  0.30053183461E+01 -0.45321545441E+01  0.16376205110E+02  0.51100000000E-03 0.  1.
         12    1    3    3    0    0  0.23945454858E+01  0.58791244749E+00 -0.39837032014E+01  0.46850165770E+01  0.00000000000E+00 0. -1.
</event>
<event>
 7    1  0.1442665E-008  0.4614232E+02  0.7816164E-02  0.1320468E+00
        -11   -1    0    0    0    0  0.00000000000E+00  0.00000000000E+00  0.45593999997E+02  0.45594000000E+02  0.51100000000E-03 0.  1.
         11   -1    0    0    0    0 -0.00000000000E+00 -0.00000000000E+00 -0.45593999997E+02  0.45594000000E+02  0.51100000000E-03 0. -1.
    9900012    2    1    2    0    0  0.25190490791E+02  0.18524160359E+02  0.32425424678E+02  0.46142317534E+02  0.99999979260E+01 0.  0.
         12    1    1    2    0    0 -0.25190490791E+02 -0.18524160359E+02 -0.32425424678E+02  0.45045682466E+02  0.00000000000E+00 0. -1.
         11    1    3    3    0    0  0.55957603026E+01  0.79614003115E+01  0.12715106365E+02  0.16011569517E+02  0.51100000000E-03 0. -1.
        -11    1    3    3    0    0  0.72072034176E+01  0.63658879353E+01  0.70100100661E+01  0.11899939147E+02  0.51100000000E-03 0.  1.
         12    1    3    3    0    0  0.12387527071E+02  0.41968721117E+01  0.12700308247E+02  0.18230808870E+02  0.00000000000E+00 0. -1.
</event>
<event>
 7    1  0.1442665E-008  0.4614232E+02  0.7816164E-02  0.1320468E+00
        -11   -1    0    0    0    0  0.00000000000E+00  0.00000000000E+00  0.45593999997E+02  0.45594000000E+02  0.51100000000E-03 0.  1.
         11   -1    0    0    0    0 -0.00000000000E+00 -0.00000000000E+00 -0.45593999997E+02  0.45594000000E+02  0.51100000000E-03 0. -1.
    9900012    2    1    2    0    0  0.70283647400E+01 -0.43780564986E+02  0.79358514518E+01  0.46142317413E+02  0.99999968292E+01 0.  0.
         12    1    1    2    0    0 -0.70283647400E+01  0.43780564986E+02 -0.79358514518E+01  0.45045682587E+02  0.00000000000E+00 0. -1.
         11    1    3    3    0    0  0.20364680657E+01 -0.38843640686E+01 -0.11160508635E+01  0.45256000918E+01  0.51100000000E-03 0. -1.
        -11    1    3    3    0    0  0.14449678618E+01 -0.56013622483E+01  0.33079254826E+01  0.66637498766E+01  0.51100000000E-03 0.  1.
        -12    1    3    3    0    0  0.35469288126E+01 -0.34294838669E+02  0.57439768327E+01  0.34952967445E+02  0.00000000000E+00 0.  1.
</event>
<event>
 7    1  0.1442665E-008  0.4614232E+02  0.7816164E-02  0.1320468E+00
        -11   -1    0    0    0    0  0.00000000000E+00  0.00000000000E+00  0.45593999997E+02  0.45594000000E+02  0.51100000000E-03 0.  1.
         11   -1    0    0    0    0 -0.00000000000E+00 -0.00000000000E+00 -0.45593999997E+02  0.45594000000E+02  0.51100000000E-03 0. -1.
    9900012    2    1    2    0    0  0.30411333895E+02  0.14797368840E+02  0.29754029973E+02  0.46142315928E+02  0.99999832848E+01 0.  0.
         12    1    1    2    0    0 -0.30411333895E+02 -0.14797368840E+02 -0.29754029973E+02  0.45045684072E+02  0.00000000000E+00 0. -1.
         11    1    3    3    0    0  0.20461314676E+01 -0.13788033676E+01  0.26594667483E+01  0.36277425978E+01  0.51100000000E-03 0. -1.
        -11    1    3    3    0    0  0.10084799789E+02  0.54224423441E+01  0.79141308289E+01  0.13919034981E+02  0.51100000000E-03 0.  1.
         12    1    3    3    0    0  0.18280402639E+02  0.10753729864E+02  0.19180432396E+02  0.28595538350E+02  0.00000000000E+00 0. -1.
</event>
<event>
 7    1  0.1442665E-008  0.4614232E+02  0.7816164E-02  0.1320468E+00
        -11   -1    0    0    0    0  0.00000000000E+00  0.00000000000E+00  0.45593999997E+02  0.45594000000E+02  0.51100000000E-03 0.  1.
         11   -1    0    0    0    0 -0.00000000000E+00 -0.00000000000E+00 -0.45593999997E+02  0.45594000000E+02  0.51100000000E-03 0. -1.
    9900012    2    1    2    0    0  0.25390958923E+02 -0.36728358417E+02 -0.59531644849E+01  0.46142320136E+02  0.10000021656E+02 0.  0.
         12    1    1    2    0    0 -0.25390958923E+02  0.36728358417E+02  0.59531644849E+01  0.45045679864E+02  0.00000000000E+00 0. -1.
         11    1    3    3    0    0  0.81454620346E+01 -0.18823828506E+02 -0.43280440202E+01  0.20962276515E+02  0.51100000000E-03 0. -1.
        -11    1    3    3    0    0  0.16053504643E+02 -0.15777543668E+02 -0.55053720728E+00  0.22515527686E+02  0.51100000000E-03 0.  1.
        -12    1    3    3    0    0  0.11919922459E+01 -0.21269862420E+01 -0.10745832575E+01  0.26645159345E+01  0.00000000000E+00 0.  1.
</event>
<event>
 7    1  0.1442665E-008  0.4614232E+02  0.7816164E-02  0.1320468E+00
        -11   -1    0    0    0    0  0.00000000000E+00  0.00000000000E+00  0.45593999997E+02  0.45594000000E+02  0.51100000000E-03 0.  1.
         11   -1    0    0    0    0 -0.00000000000E+00 -0.00000000000E+00 -0.45593999997E+02  0.45594000000E+02  0.51100000000E-03 0. -1.
    9900012    2    1    2    0    0 -0.10291170628E+01 -0.34733308779E+02  0.28664467891E+02  0.46142317186E+02  0.99999947583E+01 0.  0.
         12    1    1    2    0    0  0.10291170628E+01  0.34733308779E+02 -0.28664467891E+02  0.45045682814E+02  0.00000000000E+00 0. -1.
         11    1    3    3    0    0  0.14121712038E+01 -0.55746843085E+01  0.29588288155E+01  0.64673024415E+01  0.51100000000E-03 0. -1.
        -11    1    3    3    0    0  0.13929904167E+01 -0.97073140665E+01  0.12351722065E+02  0.15771411063E+02  0.51100000000E-03 0.  1.
        -12    1    3    3    0    0 -0.38342786834E+01 -0.19451310404E+02  0.13353917011E+02  0.23903603682E+02  0.00000000000E+00 0.  1.
</event>
<event>
 7    1  0.1442665E-008  0.4614232E+02  0.7816164E-02  0.1320468E+00
        -11   -1    0    0    0    0  0.00000000000E+00  0.00000000000E+00  0.45593999997E+02  0.45594000000E+02  0.51100000000E-03 0. -1.
         11   -1    0    0    0    0 -0.00000000000E+00 -0.00000000000E+00 -0.45593999997E+02  0.45594000000E+02  0.51100000000E-03 0.  1.
    9900012    2    1    2    0    0  0.40530339005E+02 -0.67557765334E+01 -0.18459810167E+02  0.46142317767E+02  0.10000000055E+02 0.  0.
         12    1    1    2    0    0 -0.40530339005E+02  0.67557765334E+01  0.18459810167E+02  0.45045682233E+02  0.00000000000E+00 0. -1.
         11    1    3    3    0    0  0.65592380861E+01  0.77687431349E+00 -0.83842683101E+00  0.66580851437E+01  0.51100000000E-03 0. -1.
        -11    1    3    3    0    0  0.33412864809E+02 -0.74696925059E+01 -0.18116600112E+02  0.38735346142E+02  0.51100000000E-03 0.  1.
         12    1    3    3    0    0  0.55823610931E+00 -0.62958341010E-01  0.49521677565E+00  0.74888648094E+00  0.00000000000E+00 0. -1.
</event>
<event>
 7    1  0.1442665E-008  0.4614232E+02  0.7816164E-02  0.1320468E+00
        -11   -1    0    0    0    0  0.00000000000E+00  0.00000000000E+00  0.45593999997E+02  0.45594000000E+02  0.51100000000E-03 0.  1.
         11   -1    0    0    0    0 -0.00000000000E+00 -0.00000000000E+00 -0.45593999997E+02  0.45594000000E+02  0.51100000000E-03 0. -1.
    9900012    2    1    2    0    0  0.39511957083E+02 -0.21623612937E+02  0.58163961119E+00  0.46142315483E+02  0.99999792276E+01 0.  0.
         12    1    1    2    0    0 -0.39511957083E+02  0.21623612937E+02 -0.58163961119E+00  0.45045684517E+02  0.00000000000E+00 0. -1.
         11    1    3    3    0    0  0.26075591977E+01 -0.17002693727E+01 -0.21489162644E+01  0.37826078678E+01  0.51100000000E-03 0. -1.
        -11    1    3    3    0    0  0.23010160871E+02 -0.14945621923E+02  0.57331334412E+00  0.27443902901E+02  0.51100000000E-03 0.  1.
         12    1    3    3    0    0  0.13894237014E+02 -0.49777216411E+01  0.21572425315E+01  0.14915804715E+02  0.00000000000E+00 0. -1.
</event>
<event>
 7    1  0.1442665E-008  0.4614232E+02  0.7816164E-02  0.1320468E+00
        -11   -1    0    0    0    0  0.00000000000E+00  0.00000000000E+00  0.45593999997E+02  0.45594000000E+02  0.51100000000E-03 0.  1.
         11   -1    0    0    0    0 -0.00000000000E+00 -0.00000000000E+00 -0.45593999997E+02  0.45594000000E+02  0.51100000000E-03 0. -1.
    9900012    2    1    2    0    0  0.14937566715E+02  0.21228478343E+02  0.36814864657E+02  0.46142318167E+02  0.10000003699E+02 0.  0.
         12    1    1    2    0    0 -0.14937566715E+02 -0.21228478343E+02 -0.36814864657E+02  0.45045681833E+02  0.00000000000E+00 0. -1.
         11    1    3    3    0    0  0.75580868052E+01  0.31927129207E+01  0.12348580422E+02  0.14825839965E+02  0.51100000000E-03 0. -1.
        -11    1    3    3    0    0  0.48923562041E+01  0.11733007343E+02  0.17105542288E+02  0.21311925952E+02  0.51100000000E-03 0.  1.
         12    1    3    3    0    0  0.24871237059E+01  0.63027580789E+01  0.73607419463E+01  0.10004552250E+02  0.00000000000E+00 0. -1.
</event>
<event>
 7    1  0.1442665E-008  0.4614232E+02  0.7816164E-02  0.1320468E+00
        -11   -1    0    0    0    0  0.00000000000E+00  0.00000000000E+00  0.45593999997E+02  0.45594000000E+02  0.51100000000E-03 0.  1.
         11   -1    0    0    0    0 -0.00000000000E+00 -0.00000000000E+00 -0.45593999997E+02  0.45594000000E+02  0.51100000000E-03 0. -1.
    9900012    2    1    2    0    0  0.20915764566E+02  0.39252402753E+02 -0.71339440390E+01  0.46142317778E+02  0.10000000154E+02 0.  0.
         12    1    1    2    0    0 -0.20915764566E+02 -0.39252402753E+02  0.71339440390E+01  0.45045682222E+02  0.00000000000E+00 0. -1.
         11    1    3    3    0    0  0.67570480796E+01  0.94788508939E+01  0.16615489400E+01  0.11758701381E+02  0.51100000000E-03 0. -1.
        -11    1    3    3    0    0  0.14257344686E+02  0.27848459750E+02 -0.79595927080E+01  0.32282560374E+02  0.51100000000E-03 0.  1.
        -12    1    3    3    0    0 -0.98628199365E-01  0.19250921095E+01 -0.83590027096E+00  0.21010560237E+01  0.00000000000E+00 0.  1.
</event>
<event>
 7    1  0.1442665E-008  0.4614232E+02  0.7816164E-02  0.1320468E+00
        -11   -1    0    0    0    0  0.00000000000E+00  0.00000000000E+00  0.45593999997E+02  0.45594000000E+02  0.51100000000E-03 0.  1.
         11   -1    0    0    0    0 -0.00000000000E+00 -0.00000000000E+00 -0.45593999997E+02  0.45594000000E+02  0.51100000000E-03 0. -1.
    9900012    2    1    2    0    0  0.38346736147E+02  0.18061350584E+02  0.15245619892E+02  0.46142317811E+02  0.10000000452E+02 0.  0.
         12    1    1    2    0    0 -0.38346736147E+02 -0.18061350584E+02 -0.15245619892E+02  0.45045682189E+02  0.00000000000E+00 0. -1.
         11    1    3    3    0    0  0.17143789965E+02  0.11062116033E+02  0.11091109684E+02  0.23222675552E+02  0.51100000000E-03 0. -1.
        -11    1    3    3    0    0  0.10712797301E+02  0.19976816809E+01  0.25051595668E+01  0.11181707509E+02  0.51100000000E-03 0.  1.
         12    1    3    3    0    0  0.10490148881E+02  0.50015528700E+01  0.16493506409E+01  0.11737934750E+02  0.00000000000E+00 0. -1.
</event>
<event>
 7    1  0.1442665E-008  0.4614232E+02  0.7816164E-02  0.1320468E+00
        -11   -1    0    0    0    0  0.00000000000E+00  0.00000000000E+00  0.45593999997E+02  0.45594000000E+02  0.51100000000E-03 0.  1.
         11   -1    0    0    0    0 -0.00000000000E+00 -0.00000000000E+00 -0.45593999997E+02  0.45594000000E+02  0.51100000000E-03 0. -1.
    9900012    2    1    2    0    0  0.39749952406E+02 -0.94212592827E+01  0.18981428204E+02  0.46142318083E+02  0.10000002933E+02 0.  0.
         12    1    1    2    0    0 -0.39749952406E+02  0.94212592827E+01 -0.18981428204E+02  0.45045681917E+02  0.00000000000E+00 0. -1.
         11    1    3    3    0    0  0.59151222914E+01  0.15221329764E+01  0.21863522492E+01  0.64873489916E+01  0.51100000000E-03 0. -1.
        -11    1    3    3    0    0  0.17487583697E+02 -0.30161316015E+01  0.87428444850E+01  0.19782567158E+02  0.51100000000E-03 0.  1.
         12    1    3    3    0    0  0.16347246417E+02 -0.79272606576E+01  0.80522314702E+01  0.19872401934E+02  0.00000000000E+00 0. -1.
</event>
<event>
 7    1  0.1442665E-008  0.4614232E+02  0.7816164E-02  0.1320468E+00
        -11   -1    0    0    0    0  0.00000000000E+00  0.00000000000E+00  0.45593999997E+02  0.45594000000E+02  0.51100000000E-03 0.  1.
         11   -1    0    0    0    0 -0.00000000000E+00 -0.00000000000E+00 -0.45593999997E+02  0.45594000000E+02  0.51100000000E-03 0. -1.
    9900012    2    1    2    0    0  0.28218474905E+02 -0.11383284637E+02  0.33215238064E+02  0.46142317246E+02  0.99999953052E+01 0.  0.
         12    1    1    2    0    0 -0.28218474905E+02  0.11383284637E+02 -0.33215238064E+02  0.45045682754E+02  0.00000000000E+00 0. -1.
         11    1    3    3    0    0  0.96993872682E+01 -0.35413554841E+01  0.75096169951E+01  0.12767680279E+02  0.51100000000E-03 0. -1.
        -11    1    3    3    0    0  0.66244357732E+01 -0.62760560566E+01  0.13175696902E+02  0.16027196200E+02  0.51100000000E-03 0.  1.
        -12    1    3    3    0    0  0.11894651863E+02 -0.15658730968E+01  0.12529924168E+02  0.17347440767E+02  0.00000000000E+00 0.  1.
</event>
<event>
 7    1  0.1442665E-008  0.4614232E+02  0.7816164E-02  0.1320468E+00
        -11   -1    0    0    0    0  0.00000000000E+00  0.00000000000E+00  0.45593999997E+02  0.45594000000E+02  0.51100000000E-03 0.  1.
         11   -1    0    0    0    0 -0.00000000000E+00 -0.00000000000E+00 -0.45593999997E+02  0.45594000000E+02  0.51100000000E-03 0. -1.
    9900012    2    1    2    0    0  0.29620986610E+02  0.91970314505E+01  0.32666882874E+02  0.46142317944E+02  0.10000001666E+02 0.  0.
         12    1    1    2    0    0 -0.29620986610E+02 -0.91970314505E+01 -0.32666882874E+02  0.45045682056E+02  0.00000000000E+00 0. -1.
         11    1    3    3    0    0  0.97219416395E+01  0.59484679531E+01  0.15669499301E+02  0.19376109744E+02  0.51100000000E-03 0. -1.
        -11    1    3    3    0    0  0.10783403700E+02 -0.54965660117E+00  0.91350877992E+01  0.14143328713E+02  0.51100000000E-03 0.  1.
         12    1    3    3    0    0  0.91156412703E+01  0.37982200986E+01  0.78622957739E+01  0.12622879486E+02  0.00000000000E+00 0. -1.
</event>
<event>
 7    1  0.1442665E-008  0.4614232E+02  0.7816164E-02  0.1320468E+00
        -11   -1    0    0    0    0  0.00000000000E+00  0.00000000000E+00  0.45593999997E+02  0.45594000000E+02  0.51100000000E-03 0. -1.
         11   -1    0    0    0    0 -0.00000000000E+00 -0.00000000000E+00 -0.45593999997E+02  0.45594000000E+02  0.51100000000E-03 0.  1.
    9900012    2    1    2    0    0 -0.27605028019E+02 -0.27762653949E+02  0.22278037442E+02  0.46142317871E+02  0.10000001003E+02 0.  0.
         12    1    1    2    0    0  0.27605028019E+02  0.27762653949E+02 -0.22278037442E+02  0.45045682129E+02  0.00000000000E+00 0. -1.
         11    1    3    3    0    0 -0.34151783457E+01 -0.68670338289E+01  0.25341273159E+01  0.80772147585E+01  0.51100000000E-03 0. -1.
        -11    1    3    3    0    0 -0.23777075012E+02 -0.19051852712E+02  0.19464694965E+02  0.36155175815E+02  0.51100000000E-03 0.  1.
        -12    1    3    3    0    0 -0.41277466142E+00 -0.18437674078E+01  0.27921516034E+00  0.19099272973E+01  0.00000000000E+00 0.  1.
</event>
<event>
 7    1  0.1442665E-008  0.4614232E+02  0.7816164E-02  0.1320468E+00
        -11   -1    0    0    0    0  0.00000000000E+00  0.00000000000E+00  0.45593999997E+02  0.45594000000E+02  0.51100000000E-03 0.  1.
         11   -1    0    0    0    0 -0.00000000000E+00 -0.00000000000E+00 -0.45593999997E+02  0.45594000000E+02  0.51100000000E-03 0. -1.
    9900012    2    1    2    0    0 -0.10448302616E+02  0.43545621975E+02  0.48708599540E+01  0.46142317660E+02  0.99999990810E+01 0.  0.
         12    1    1    2    0    0  0.10448302616E+02 -0.43545621975E+02 -0.48708599540E+01  0.45045682340E+02  0.00000000000E+00 0. -1.
         11    1    3    3    0    0 -0.10855034389E+01  0.15756325768E+02  0.14516683396E+01  0.15860247812E+02  0.51100000000E-03 0. -1.
        -11    1    3    3    0    0 -0.54372412116E+01  0.23954839616E+02  0.33704907732E+01  0.24794316715E+02  0.51100000000E-03 0.  1.
        -12    1    3    3    0    0 -0.39255579654E+01  0.38344565911E+01  0.48700841203E-01  0.54877531341E+01  0.00000000000E+00 0.  1.
</event>
<event>
 7    1  0.1442665E-008  0.4614232E+02  0.7816164E-02  0.1320468E+00
        -11   -1    0    0    0    0  0.00000000000E+00  0.00000000000E+00  0.45593999997E+02  0.45594000000E+02  0.51100000000E-03 0. -1.
         11   -1    0    0    0    0 -0.00000000000E+00 -0.00000000000E+00 -0.45593999997E+02  0.45594000000E+02  0.51100000000E-03 0.  1.
    9900012    2    1    2    0    0 -0.33180029500E+02  0.26526290469E+02  0.14985165121E+02  0.46142316329E+02  0.99999869421E+01 0.  0.
         12    1    1    2    0    0  0.33180029500E+02 -0.26526290469E+02 -0.14985165121E+02  0.45045683671E+02  0.00000000000E+00 0. -1.
         11    1    3    3    0    0  0.10742151726E+00  0.47850699890E+00 -0.35564522095E+00  0.60579874106E+00  0.51100000000E-03 0. -1.
        -11    1    3    3    0    0 -0.30860236020E+02  0.25214242246E+02  0.12632480544E+02  0.41805403289E+02  0.51100000000E-03 0.  1.
        -12    1    3    3    0    0 -0.24272149971E+01  0.83354122473E+00  0.27083297979E+01  0.37311142987E+01  0.00000000000E+00 0.  1.
</event>
<event>
 7    1  0.1442665E-008  0.4614232E+02  0.7816164E-02  0.1320468E+00
        -11   -1    0    0    0    0  0.00000000000E+00  0.00000000000E+00  0.45593999997E+02  0.45594000000E+02  0.51100000000E-03 0.  1.
         11   -1    0    0    0    0 -0.00000000000E+00 -0.00000000000E+00 -0.45593999997E+02  0.45594000000E+02  0.51100000000E-03 0. -1.
    9900012    2    1    2    0    0 -0.42521945596E+01  0.30275159710E+02  0.33082429954E+02  0.46142316237E+02  0.99999861009E+01 0.  0.
         12    1    1    2    0    0  0.42521945596E+01 -0.30275159710E+02 -0.33082429954E+02  0.45045683763E+02  0.00000000000E+00 0. -1.
         11    1    3    3    0    0 -0.34360700456E+00  0.25421548782E+01  0.71378951695E+01  0.75848641986E+01  0.51100000000E-03 0. -1.
        -11    1    3    3    0    0  0.76766689415E+00  0.12228959088E+01  0.23670088802E+01  0.27726374022E+01  0.51100000000E-03 0.  1.
         12    1    3    3    0    0 -0.46762544491E+01  0.26510108923E+02  0.23577525904E+02  0.35784814636E+02  0.00000000000E+00 0. -1.
</event>
<event>
 7    1  0.1442665E-008  0.4614232E+02  0.7816164E-02  0.1320468E+00
        -11   -1    0    0    0    0  0.00000000000E+00  0.00000000000E+00  0.45593999997E+02  0.45594000000E+02  0.51100000000E-03 0. -1.
         11   -1    0    0    0    0 -0.00000000000E+00 -0.00000000000E+00 -0.45593999997E+02  0.45594000000E+02  0.51100000000E-03 0.  1.
    9900012    2    1    2    0    0  0.17077205764E+02  0.22549159638E+02 -0.35057353110E+02  0.46142316919E+02  0.99999923254E+01 0.  0.
         12    1    1    2    0    0 -0.17077205764E+02 -0.22549159638E+02  0.35057353110E+02  0.45045683081E+02  0.00000000000E+00 0. -1.
         11    1    3    3    0    0  0.19535238833E+01  0.38471754493E+01 -0.90258768367E+01  0.10004172501E+02  0.51100000000E-03 0. -1.
        -11    1    3    3    0    0  0.93152785504E+01  0.11780762796E+02 -0.20933091887E+02  0.25763445475E+02  0.51100000000E-03 0.  1.
         12    1    3    3    0    0  0.58084033299E+01  0.69212213927E+01 -0.50983843866E+01  0.10374698943E+02  0.00000000000E+00 0. -1.
</event>
<event>
 7    1  0.1442665E-008  0.4614232E+02  0.7816164E-02  0.1320468E+00
        -11   -1    0    0    0    0  0.00000000000E+00  0.00000000000E+00  0.45593999997E+02  0.45594000000E+02  0.51100000000E-03 0.  1.
         11   -1    0    0    0    0 -0.00000000000E+00 -0.00000000000E+00 -0.45593999997E+02  0.45594000000E+02  0.51100000000E-03 0. -1.
    9900012    2    1    2    0    0 -0.88152009709E+01  0.42807788092E+02 -0.10904081047E+02  0.46142317932E+02  0.10000001558E+02 0.  0.
         12    1    1    2    0    0  0.88152009709E+01 -0.42807788092E+02  0.10904081047E+02  0.45045682068E+02  0.00000000000E+00 0. -1.
         11    1    3    3    0    0 -0.19095156402E+01  0.26550571180E+01 -0.49197117180E+00  0.33072064004E+01  0.51100000000E-03 0. -1.
        -11    1    3    3    0    0 -0.74584526391E+01  0.37749548274E+02 -0.11469122199E+02  0.40152181447E+02  0.51100000000E-03 0.  1.
        -12    1    3    3    0    0  0.55276730844E+00  0.24031827002E+01  0.10570123237E+01  0.26829300849E+01  0.00000000000E+00 0.  1.
</event>
<event>
 7    1  0.1442665E-008  0.4614232E+02  0.7816164E-02  0.1320468E+00
        -11   -1    0    0    0    0  0.00000000000E+00  0.00000000000E+00  0.45593999997E+02  0.45594000000E+02  0.51100000000E-03 0.  1.
         11   -1    0    0    0    0 -0.00000000000E+00 -0.00000000000E+00 -0.45593999997E+02  0.45594000000E+02  0.51100000000E-03 0. -1.
    9900012    2    1    2    0    0  0.21285665542E+02  0.43479571588E+01  0.39460476612E+02  0.46142317594E+02  0.99999984765E+01 0.  0.
         12    1    1    2    0    0 -0.21285665542E+02 -0.43479571588E+01 -0.39460476612E+02  0.45045682406E+02  0.00000000000E+00 0. -1.
         11    1    3    3    0    0  0.46520350849E+01 -0.11677476138E+01  0.44850198408E+01  0.65666177103E+01  0.51100000000E-03 0. -1.
        -11    1    3    3    0    0  0.14124588787E+02  0.36089471918E+01  0.32316108370E+02  0.35452212465E+02  0.51100000000E-03 0.  1.
        -12    1    3    3    0    0  0.25090416701E+01  0.19067575808E+01  0.26593484004E+01  0.41234874183E+01  0.00000000000E+00 0.  1.
</event>
<event>
 7    1  0.1442665E-008  0.4614232E+02  0.7816164E-02  0.1320468E+00
        -11   -1    0    0    0    0  0.00000000000E+00  0.00000000000E+00  0.45593999997E+02  0.45594000000E+02  0.51100000000E-03 0. -1.
         11   -1    0    0    0    0 -0.00000000000E+00 -0.00000000000E+00 -0.45593999997E+02  0.45594000000E+02  0.51100000000E-03 0.  1.
    9900012    2    1    2    0    0 -0.26604473298E+02  0.36202591024E+02 -0.32692372926E+01  0.46142317534E+02  0.99999979328E+01 0.  0.
         12    1    1    2    0    0  0.26604473298E+02 -0.36202591024E+02  0.32692372926E+01  0.45045682466E+02  0.00000000000E+00 0. -1.
         11    1    3    3    0    0 -0.12467384773E+02  0.24210712037E+02 -0.30434859926E+01  0.27401771250E+02  0.51100000000E-03 0. -1.
        -11    1    3    3    0    0 -0.52916356212E+01  0.61002185020E+01  0.47516759130E+00  0.80894905785E+01  0.51100000000E-03 0.  1.
         12    1    3    3    0    0 -0.88454529041E+01  0.58916604850E+01 -0.70091889131E+00  0.10651055705E+02  0.00000000000E+00 0. -1.
</event>
<event>
 7    1  0.1442665E-008  0.4614232E+02  0.7816164E-02  0.1320468E+00
        -11   -1    0    0    0    0  0.00000000000E+00  0.00000000000E+00  0.45593999997E+02  0.45594000000E+02  0.51100000000E-03 0.  1.
         11   -1    0    0    0    0 -0.00000000000E+00 -0.00000000000E+00 -0.45593999997E+02  0.45594000000E+02  0.51100000000E-03 0. -1.
    9900012    2    1    2    0    0 -0.15381678004E+02 -0.42327430824E+02  0.95187546696E+00  0.46142317795E+02  0.10000000312E+02 0.  0.
         12    1    1    2    0    0  0.15381678004E+02  0.42327430824E+02 -0.95187546696E+00  0.45045682205E+02  0.00000000000E+00 0. -1.
         11    1    3    3    0    0 -0.50700158779E+01 -0.10222637580E+02  0.17418974779E+01  0.11543031975E+02  0.51100000000E-03 0. -1.
        -11    1    3    3    0    0  0.54990529388E+00 -0.31870749211E+01  0.16160800803E+01  0.36154608934E+01  0.51100000000E-03 0.  1.
        -12    1    3    3    0    0 -0.10861567420E+02 -0.28917718323E+02 -0.24061020912E+01  0.30983824927E+02  0.00000000000E+00 0.  1.
</event>
<event>
 7    1  0.1442665E-008  0.4614232E+02  0.7816164E-02  0.1320468E+00
        -11   -1    0    0    0    0  0.00000000000E+00  0.00000000000E+00  0.45593999997E+02  0.45594000000E+02  0.51100000000E-03 0.  1.
         11   -1    0    0    0    0 -0.00000000000E+00 -0.00000000000E+00 -0.45593999997E+02  0.45594000000E+02  0.51100000000E-03 0. -1.
    9900012    2    1    2    0    0 -0.12367486349E+01  0.29126036371E+02  0.34340321157E+02  0.46142320973E+02  0.10000029288E+02 0.  0.
         12    1    1    2    0    0  0.12367486349E+01 -0.29126036371E+02 -0.34340321157E+02  0.45045679027E+02  0.00000000000E+00 0. -1.
         11    1    3    3    0    0 -0.34091762079E+01  0.50035908725E+01  0.88741621118E+01  0.10742865422E+02  0.51100000000E-03 0. -1.
        -11    1    3    3    0    0  0.32639731524E+01  0.14970501045E+02  0.16976196866E+02  0.22868333621E+02  0.51100000000E-03 0.  1.
         12    1    3    3    0    0 -0.10915455794E+01  0.91519444529E+01  0.84899621788E+01  0.12531121930E+02  0.00000000000E+00 0. -1.
</event>
<event>
 7    1  0.1442665E-008  0.4614232E+02  0.7816164E-02  0.1320468E+00
        -11   -1    0    0    0    0  0.00000000000E+00  0.00000000000E+00  0.45593999997E+02  0.45594000000E+02  0.51100000000E-03 0. -1.
         11   -1    0    0    0    0 -0.00000000000E+00 -0.00000000000E+00 -0.45593999997E+02  0.45594000000E+02  0.51100000000E-03 0.  1.
    9900012    2    1    2    0    0 -0.29929666156E+02 -0.26396643828E+02  0.20893677046E+02  0.46142318053E+02  0.10000002659E+02 0.  0.
         12    1    1    2    0    0  0.29929666156E+02  0.26396643828E+02 -0.20893677046E+02  0.45045681947E+02  0.00000000000E+00 0. -1.
         11    1    3    3    0    0 -0.55704082166E+01 -0.18584707319E+01  0.14964825947E+01  0.60599357735E+01  0.51100000000E-03 0. -1.
        -11    1    3    3    0    0 -0.11354268889E+02 -0.14857790361E+02  0.84498302106E+01  0.20520063043E+02  0.51100000000E-03 0.  1.
         12    1    3    3    0    0 -0.13004989050E+02 -0.96803827346E+01  0.10947364241E+02  0.19562319237E+02  0.00000000000E+00 0. -1.
</event>
<event>
 7    1  0.1442665E-008  0.4614232E+02  0.7816164E-02  0.1320468E+00
        -11   -1    0    0    0    0  0.00000000000E+00  0.00000000000E+00  0.45593999997E+02  0.45594000000E+02  0.51100000000E-03 0. -1.
         11   -1    0    0    0    0 -0.00000000000E+00 -0.00000000000E+00 -0.45593999997E+02  0.45594000000E+02  0.51100000000E-03 0.  1.
    9900012    2    1    2    0    0 -0.41157642615E+02 -0.18280898931E+02 -0.98518954403E+00  0.46142318634E+02  0.10000007957E+02 0.  0.
         12    1    1    2    0    0  0.41157642615E+02  0.18280898931E+02  0.98518954403E+00  0.45045681366E+02  0.00000000000E+00 0. -1.
         11    1    3    3    0    0 -0.24792899515E+01 -0.45052139019E-01 -0.56035001027E+00  0.25422235846E+01  0.51100000000E-03 0. -1.
        -11    1    3    3    0    0 -0.40002400756E+01 -0.40686433490E+01  0.20380357725E+01  0.60588257473E+01  0.51100000000E-03 0.  1.
        -12    1    3    3    0    0 -0.34678112588E+02 -0.14167203443E+02 -0.24628753063E+01  0.37541269302E+02  0.00000000000E+00 0.  1.
</event>
<event>
 7    1  0.1442665E-008  0.4614232E+02  0.7816164E-02  0.1320468E+00
        -11   -1    0    0    0    0  0.00000000000E+00  0.00000000000E+00  0.45593999997E+02  0.45594000000E+02  0.51100000000E-03 0.  1.
         11   -1    0    0    0    0 -0.00000000000E+00 -0.00000000000E+00 -0.45593999997E+02  0.45594000000E+02  0.51100000000E-03 0. -1.
    9900012    2    1    2    0    0  0.35151550945E+02 -0.27757819170E+02 -0.47943109074E+01  0.46142317898E+02  0.10000001250E+02 0.  0.
         12    1    1    2    0    0 -0.35151550945E+02  0.27757819170E+02  0.47943109074E+01  0.45045682102E+02  0.00000000000E+00 0. -1.
         11    1    3    3    0    0  0.17362131530E+02 -0.82516411896E+01 -0.29032352029E+01  0.19441244005E+02  0.51100000000E-03 0. -1.
        -11    1    3    3    0    0  0.15614751327E+02 -0.15586531349E+02 -0.23861923146E+01  0.22191312095E+02  0.51100000000E-03 0.  1.
         12    1    3    3    0    0  0.21746680893E+01 -0.39196466317E+01  0.49511661011E+00  0.45097617979E+01  0.00000000000E+00 0. -1.
</event>
<event>
 7    1  0.1442665E-008  0.4614232E+02  0.7816164E-02  0.1320468E+00
        -11   -1    0    0    0    0  0.00000000000E+00  0.00000000000E+00  0.45593999997E+02  0.45594000000E+02  0.51100000000E-03 0.  1.
         11   -1    0    0    0    0 -0.00000000000E+00 -0.00000000000E+00 -0.45593999997E+02  0.45594000000E+02  0.51100000000E-03 0. -1.
    9900012    2    1    2    0    0  0.20929653221E+02  0.33996527607E+01  0.39742990965E+02  0.46142319256E+02  0.10000013634E+02 0.  0.
         12    1    1    2    0    0 -0.20929653221E+02 -0.33996527607E+01 -0.39742990965E+02  0.45045680744E+02  0.00000000000E+00 0. -1.
         11    1    3    3    0    0  0.17432361246E+02  0.25681713521E+01  0.35906058688E+02  0.39996597024E+02  0.51100000000E-03 0.  1.
        -11    1    3    3    0    0  0.43851217792E+00  0.14985931685E+01  0.19200572481E+01  0.24748120155E+01  0.51100000000E-03 0. -1.
        -12    1    3    3    0    0  0.30587797971E+01 -0.66711175991E+00  0.19168750288E+01  0.36709102173E+01  0.00000000000E+00 0.  1.
</event>
<event>
 7    1  0.1442665E-008  0.4614232E+02  0.7816164E-02  0.1320468E+00
        -11   -1    0    0    0    0  0.00000000000E+00  0.00000000000E+00  0.45593999997E+02  0.45594000000E+02  0.51100000000E-03 0.  1.
         11   -1    0    0    0    0 -0.00000000000E+00 -0.00000000000E+00 -0.45593999997E+02  0.45594000000E+02  0.51100000000E-03 0. -1.
    9900012    2    1    2    0    0 -0.18757322453E+02  0.35783291383E+02  0.19920651848E+02  0.46142318100E+02  0.10000003091E+02 0.  0.
         12    1    1    2    0    0  0.18757322453E+02 -0.35783291383E+02 -0.19920651848E+02  0.45045681900E+02  0.00000000000E+00 0. -1.
         11    1    3    3    0    0 -0.32318351693E-01 -0.34905261911E-01 -0.31996817522E+00  0.32348531256E+00  0.51100000000E-03 0. -1.
        -11    1    3    3    0    0  0.51463246649E-01  0.19832408004E+00 -0.48910327256E+00  0.53028594063E+00  0.51100000000E-03 0.  1.
        -12    1    3    3    0    0 -0.18776467348E+02  0.35619872565E+02  0.20729723296E+02  0.45288546847E+02  0.00000000000E+00 0.  1.
</event>
<event>
 7    1  0.1442665E-008  0.4614232E+02  0.7816164E-02  0.1320468E+00
        -11   -1    0    0    0    0  0.00000000000E+00  0.00000000000E+00  0.45593999997E+02  0.45594000000E+02  0.51100000000E-03 0.  1.
         11   -1    0    0    0    0 -0.00000000000E+00 -0.00000000000E+00 -0.45593999997E+02  0.45594000000E+02  0.51100000000E-03 0. -1.
    9900012    2    1    2    0    0  0.29816702926E+02 -0.11602952137E+02  0.31708818589E+02  0.46142318210E+02  0.10000004090E+02 0.  0.
         12    1    1    2    0    0 -0.29816702926E+02  0.11602952137E+02 -0.31708818589E+02  0.45045681790E+02  0.00000000000E+00 0. -1.
         11    1    3    3    0    0  0.64885778566E+01 -0.30755307245E+01  0.39439457466E+01  0.81923891601E+01  0.51100000000E-03 0. -1.
        -11    1    3    3    0    0  0.17760324895E+02 -0.95810866535E+01  0.20978964018E+02  0.29109161674E+02  0.51100000000E-03 0.  1.
        -12    1    3    3    0    0  0.55678001743E+01  0.10536652405E+01  0.67859088245E+01  0.88407673759E+01  0.00000000000E+00 0.  1.
</event>
<event>
 7    1  0.1442665E-008  0.4614232E+02  0.7816164E-02  0.1320468E+00
        -11   -1    0    0    0    0  0.00000000000E+00  0.00000000000E+00  0.45593999997E+02  0.45594000000E+02  0.51100000000E-03 0.  1.
         11   -1    0    0    0    0 -0.00000000000E+00 -0.00000000000E+00 -0.45593999997E+02  0.45594000000E+02  0.51100000000E-03 0. -1.
    9900012    2    1    2    0    0 -0.39996326687E+02  0.20405161116E+02 -0.36106624537E+01  0.46142316167E+02  0.99999854667E+01 0.  0.
         12    1    1    2    0    0  0.39996326687E+02 -0.20405161116E+02  0.36106624537E+01  0.45045683833E+02  0.00000000000E+00 0. -1.
         11    1    3    3    0    0 -0.18504798761E+01  0.73404885514E+00  0.14907195369E+01  0.24870360859E+01  0.51100000000E-03 0. -1.
        -11    1    3    3    0    0 -0.31700577111E+02  0.15681475866E+02 -0.18742762807E+01  0.35416778317E+02  0.51100000000E-03 0.  1.
        -12    1    3    3    0    0 -0.64452696997E+01  0.39896363945E+01 -0.32271057099E+01  0.82385017645E+01  0.00000000000E+00 0.  1.
</event>
<event>
 7    1  0.1442665E-008  0.4614232E+02  0.7816164E-02  0.1320468E+00
        -11   -1    0    0    0    0  0.00000000000E+00  0.00000000000E+00  0.45593999997E+02  0.45594000000E+02  0.51100000000E-03 0.  1.
         11   -1    0    0    0    0 -0.00000000000E+00 -0.00000000000E+00 -0.45593999997E+02  0.45594000000E+02  0.51100000000E-03 0. -1.
    9900012    2    1    2    0    0  0.42431178028E+02 -0.15107465939E+02 -0.68750199289E+00  0.46142322572E+02  0.10000043870E+02 0.  0.
         12    1    1    2    0    0 -0.42431178028E+02  0.15107465939E+02  0.68750199289E+00  0.45045677428E+02  0.00000000000E+00 0. -1.
         11    1    3    3    0    0  0.20173063097E+02 -0.85379567564E+01 -0.13956751269E+01  0.21949876756E+02  0.51100000000E-03 0.  1.
        -11    1    3    3    0    0  0.17061422403E+02 -0.79116864745E+01  0.81413847738E+00  0.18824179637E+02  0.51100000000E-03 0. -1.
         12    1    3    3    0    0  0.51966925278E+01  0.13421772916E+01 -0.10596534335E+00  0.53682661786E+01  0.00000000000E+00 0. -1.
</event>
<event>
 7    1  0.1442665E-008  0.4614232E+02  0.7816164E-02  0.1320468E+00
        -11   -1    0    0    0    0  0.00000000000E+00  0.00000000000E+00  0.45593999997E+02  0.45594000000E+02  0.51100000000E-03 0.  1.
         11   -1    0    0    0    0 -0.00000000000E+00 -0.00000000000E+00 -0.45593999997E+02  0.45594000000E+02  0.51100000000E-03 0. -1.
    9900012    2    1    2    0    0 -0.37867709894E+02 -0.13590249014E+01  0.24357816900E+02  0.46142316018E+02  0.99999841013E+01 0.  0.
         12    1    1    2    0    0  0.37867709894E+02  0.13590249014E+01 -0.24357816900E+02  0.45045683982E+02  0.00000000000E+00 0. -1.
         11    1    3    3    0    0 -0.30587793575E+02 -0.29670153337E+01  0.15181737867E+02  0.34276835628E+02  0.51100000000E-03 0. -1.
        -11    1    3    3    0    0 -0.35254448530E+01  0.12898741354E+01  0.46576639077E+01  0.59821710135E+01  0.51100000000E-03 0.  1.
         12    1    3    3    0    0 -0.37544714668E+01  0.31811629695E+00  0.45184151248E+01  0.58833093760E+01  0.00000000000E+00 0. -1.
</event>
<event>
 7    1  0.1442665E-008  0.4614232E+02  0.7816164E-02  0.1320468E+00
        -11   -1    0    0    0    0  0.00000000000E+00  0.00000000000E+00  0.45593999997E+02  0.45594000000E+02  0.51100000000E-03 0.  1.
         11   -1    0    0    0    0 -0.00000000000E+00 -0.00000000000E+00 -0.45593999997E+02  0.45594000000E+02  0.51100000000E-03 0. -1.
    9900012    2    1    2    0    0 -0.21582243352E+02 -0.38856619515E+02  0.73132372311E+01  0.46142317110E+02  0.99999940603E+01 0.  0.
         12    1    1    2    0    0  0.21582243352E+02  0.38856619515E+02 -0.73132372311E+01  0.45045682890E+02  0.00000000000E+00 0. -1.
         11    1    3    3    0    0  0.41096949491E+00 -0.11813545507E+01  0.11523331198E+01  0.17006958518E+01  0.51100000000E-03 0. -1.
        -11    1    3    3    0    0 -0.12423386966E+02 -0.20606442586E+02  0.62993404182E+01  0.24872629731E+02  0.51100000000E-03 0.  1.
        -12    1    3    3    0    0 -0.95698258808E+01 -0.17068822379E+02 -0.13843630700E+00  0.19568991527E+02  0.00000000000E+00 0.  1.
</event>
<event>
 7    1  0.1442665E-008  0.4614232E+02  0.7816164E-02  0.1320468E+00
        -11   -1    0    0    0    0  0.00000000000E+00  0.00000000000E+00  0.45593999997E+02  0.45594000000E+02  0.51100000000E-03 0. -1.
         11   -1    0    0    0    0 -0.00000000000E+00 -0.00000000000E+00 -0.45593999997E+02  0.45594000000E+02  0.51100000000E-03 0.  1.
    9900012    2    1    2    0    0 -0.15154652741E+02  0.37548190431E+02 -0.19737865704E+02  0.46142318221E+02  0.10000004197E+02 0.  0.
         12    1    1    2    0    0  0.15154652741E+02 -0.37548190431E+02  0.19737865704E+02  0.45045681779E+02  0.00000000000E+00 0. -1.
         11    1    3    3    0    0 -0.21419330213E+01  0.58010275714E+01 -0.19251207792E+01  0.64765645390E+01  0.51100000000E-03 0. -1.
        -11    1    3    3    0    0 -0.62190544399E+01  0.18287524594E+02 -0.14693408681E+02  0.24269455141E+02  0.51100000000E-03 0.  1.
        -12    1    3    3    0    0 -0.67936652800E+01  0.13459638266E+02 -0.31193362439E+01  0.15396298542E+02  0.00000000000E+00 0.  1.
</event>
<event>
 7    1  0.1442665E-008  0.4614232E+02  0.7816164E-02  0.1320468E+00
        -11   -1    0    0    0    0  0.00000000000E+00  0.00000000000E+00  0.45593999997E+02  0.45594000000E+02  0.51100000000E-03 0.  1.
         11   -1    0    0    0    0 -0.00000000000E+00 -0.00000000000E+00 -0.45593999997E+02  0.45594000000E+02  0.51100000000E-03 0. -1.
    9900012    2    1    2    0    0  0.72152995937E-02 -0.17090965658E+02  0.41677478841E+02  0.46142318722E+02  0.10000008766E+02 0.  0.
         12    1    1    2    0    0 -0.72152995937E-02  0.17090965658E+02 -0.41677478841E+02  0.45045681278E+02  0.00000000000E+00 0. -1.
         11    1    3    3    0    0  0.32109549754E+01 -0.61564115020E+01  0.14575189063E+02  0.16144589524E+02  0.51100000000E-03 0. -1.
        -11    1    3    3    0    0  0.10378530434E+01 -0.69680412537E+01  0.14403330293E+02  0.16033922216E+02  0.51100000000E-03 0.  1.
         12    1    3    3    0    0 -0.42415927192E+01 -0.39665129025E+01  0.12698959486E+02  0.13963806982E+02  0.00000000000E+00 0. -1.
</event>
<event>
 7    1  0.1442665E-008  0.4614232E+02  0.7816164E-02  0.1320468E+00
        -11   -1    0    0    0    0  0.00000000000E+00  0.00000000000E+00  0.45593999997E+02  0.45594000000E+02  0.51100000000E-03 0. -1.
         11   -1    0    0    0    0 -0.00000000000E+00 -0.00000000000E+00 -0.45593999997E+02  0.45594000000E+02  0.51100000000E-03 0.  1.
    9900012    2    1    2    0    0 -0.44812722178E+02  0.36455337559E+01 -0.27646415805E+01  0.46142320646E+02  0.10000026310E+02 0.  0.
         12    1    1    2    0    0  0.44812722178E+02 -0.36455337559E+01  0.27646415805E+01  0.45045679354E+02  0.00000000000E+00 0. -1.
         11    1    3    3    0    0 -0.10112099601E+02  0.27055486214E+01 -0.17145042665E+01  0.10607265285E+02  0.51100000000E-03 0. -1.
        -11    1    3    3    0    0 -0.25854907697E+02  0.24158081906E+01  0.20451352253E+01  0.26047935802E+02  0.51100000000E-03 0.  1.
         12    1    3    3    0    0 -0.88457148800E+01 -0.14758230561E+01 -0.30952725392E+01  0.94871195588E+01  0.00000000000E+00 0. -1.
</event>
<event>
 7    1  0.1453925E-008  0.4614232E+02  0.7816164E-02  0.1320468E+00
        -11   -1    0    0    0    0  0.00000000000E+00  0.00000000000E+00  0.45593999997E+02  0.45594000000E+02  0.51100000000E-03 0. -1.
         11   -1    0    0    0    0 -0.00000000000E+00 -0.00000000000E+00 -0.45593999997E+02  0.45594000000E+02  0.51100000000E-03 0.  1.
    9900012    2    1    2    0    0  0.35692177592E+02  0.22043885405E+02  0.16408808595E+02  0.46142318470E+02  0.10000006467E+02 0.  0.
         12    1    1    2    0    0 -0.35692177592E+02 -0.22043885405E+02 -0.16408808595E+02  0.45045681530E+02  0.00000000000E+00 0. -1.
         11    1    3    3    0    0  0.12017052364E+01  0.40969405309E+00  0.26643642040E+01  0.29514033213E+01  0.51100000000E-03 0. -1.
        -11    1    3    3    0    0  0.32644424917E+02  0.19336641587E+02  0.12147361971E+02  0.39838707172E+02  0.51100000000E-03 0.  1.
        -12    1    3    3    0    0  0.18460474385E+01  0.22975497649E+01  0.15970824194E+01  0.33522079771E+01  0.00000000000E+00 0.  1.
</event>
<event>
 7    1  0.1442665E-008  0.4614232E+02  0.7816164E-02  0.1320468E+00
        -11   -1    0    0    0    0  0.00000000000E+00  0.00000000000E+00  0.45593999997E+02  0.45594000000E+02  0.51100000000E-03 0. -1.
         11   -1    0    0    0    0 -0.00000000000E+00 -0.00000000000E+00 -0.45593999997E+02  0.45594000000E+02  0.51100000000E-03 0.  1.
    9900012    2    1    2    0    0  0.38651414012E+02 -0.33659264692E+01 -0.22887819275E+02  0.46142317219E+02  0.99999950524E+01 0.  0.
         12    1    1    2    0    0 -0.38651414012E+02  0.33659264692E+01  0.22887819275E+02  0.45045682781E+02  0.00000000000E+00 0. -1.
         11    1    3    3    0    0  0.13931912991E+02  0.26692138266E+01 -0.61468872178E+01  0.15459855264E+02  0.51100000000E-03 0. -1.
        -11    1    3    3    0    0  0.16861539808E+02 -0.39224002417E+01 -0.13375440631E+02  0.21876909303E+02  0.51100000000E-03 0.  1.
         12    1    3    3    0    0  0.78579612127E+01 -0.21127400540E+01 -0.33654914265E+01  0.88055526515E+01  0.00000000000E+00 0. -1.
</event>
<event>
 7    1  0.1442665E-008  0.4614232E+02  0.7816164E-02  0.1320468E+00
        -11   -1    0    0    0    0  0.00000000000E+00  0.00000000000E+00  0.45593999997E+02  0.45594000000E+02  0.51100000000E-03 0.  1.
         11   -1    0    0    0    0 -0.00000000000E+00 -0.00000000000E+00 -0.45593999997E+02  0.45594000000E+02  0.51100000000E-03 0. -1.
    9900012    2    1    2    0    0  0.13190564817E+02  0.22087927208E+02  0.36976289811E+02  0.46142317225E+02  0.99999951082E+01 0.  0.
         12    1    1    2    0    0 -0.13190564817E+02 -0.22087927208E+02 -0.36976289811E+02  0.45045682775E+02  0.00000000000E+00 0. -1.
         11    1    3    3    0    0 -0.59811394780E+00  0.14569675000E+01  0.38365715678E+00  0.16210143941E+01  0.51100000000E-03 0. -1.
        -11    1    3    3    0    0  0.80551667973E+01  0.74234256991E+01  0.15277451760E+02  0.18798763092E+02  0.51100000000E-03 0.  1.
        -12    1    3    3    0    0  0.57335119680E+01  0.13207534008E+02  0.21315180894E+02  0.25722539739E+02  0.00000000000E+00 0.  1.
</event>
<event>
 7    1  0.1442665E-008  0.4614232E+02  0.7816164E-02  0.1320468E+00
        -11   -1    0    0    0    0  0.00000000000E+00  0.00000000000E+00  0.45593999997E+02  0.45594000000E+02  0.51100000000E-03 0.  1.
         11   -1    0    0    0    0 -0.00000000000E+00 -0.00000000000E+00 -0.45593999997E+02  0.45594000000E+02  0.51100000000E-03 0. -1.
    9900012    2    1    2    0    0  0.22768940972E+02 -0.32737171124E+02  0.20951511199E+02  0.46142324651E+02  0.10000062826E+02 0.  0.
         12    1    1    2    0    0 -0.22768940972E+02  0.32737171124E+02 -0.20951511199E+02  0.45045675349E+02  0.00000000000E+00 0. -1.
         11    1    3    3    0    0  0.12540893457E+01 -0.52589655635E+01  0.20350208525E+01  0.57767438074E+01  0.51100000000E-03 0. -1.
        -11    1    3    3    0    0  0.12886984771E+02 -0.10661492674E+02  0.97406448950E+01  0.19355153468E+02  0.51100000000E-03 0.  1.
        -12    1    3    3    0    0  0.86278668547E+01 -0.16816712886E+02  0.91758454511E+01  0.21010427375E+02  0.00000000000E+00 0.  1.
</event>
<event>
 7    1  0.1442665E-008  0.4614232E+02  0.7816164E-02  0.1320468E+00
        -11   -1    0    0    0    0  0.00000000000E+00  0.00000000000E+00  0.45593999997E+02  0.45594000000E+02  0.51100000000E-03 0.  1.
         11   -1    0    0    0    0 -0.00000000000E+00 -0.00000000000E+00 -0.45593999997E+02  0.45594000000E+02  0.51100000000E-03 0. -1.
    9900012    2    1    2    0    0 -0.40887564766E+02  0.42440824773E+01  0.18420323005E+02  0.46142317764E+02  0.10000000023E+02 0.  0.
         12    1    1    2    0    0  0.40887564766E+02 -0.42440824773E+01 -0.18420323005E+02  0.45045682236E+02  0.00000000000E+00 0. -1.
         11    1    3    3    0    0 -0.10779759834E+02  0.35544528653E+01  0.71435621175E+01  0.13411481545E+02  0.51100000000E-03 0. -1.
        -11    1    3    3    0    0 -0.26414299871E+02  0.13481475218E+01  0.76985818422E+01  0.27546340992E+02  0.51100000000E-03 0.  1.
         12    1    3    3    0    0 -0.36935050606E+01 -0.65851790980E+00  0.35781790452E+01  0.51844952261E+01  0.00000000000E+00 0. -1.
</event>
<event>
 7    1  0.1442665E-008  0.4614232E+02  0.7816164E-02  0.1320468E+00
        -11   -1    0    0    0    0  0.00000000000E+00  0.00000000000E+00  0.45593999997E+02  0.45594000000E+02  0.51100000000E-03 0. -1.
         11   -1    0    0    0    0 -0.00000000000E+00 -0.00000000000E+00 -0.45593999997E+02  0.45594000000E+02  0.51100000000E-03 0.  1.
    9900012    2    1    2    0    0 -0.15953859569E+02  0.31611185751E+02 -0.27844582255E+02  0.46142318068E+02  0.10000002798E+02 0.  0.
         12    1    1    2    0    0  0.15953859569E+02 -0.31611185751E+02  0.27844582255E+02  0.45045681932E+02  0.00000000000E+00 0. -1.
         11    1    3    3    0    0  0.48113362818E+00 -0.23711907113E+00 -0.56076430232E-01  0.53931423976E+00  0.51100000000E-03 0. -1.
        -11    1    3    3    0    0 -0.11490676206E+02  0.22487585145E+02 -0.22242369271E+02  0.33651896178E+02  0.51100000000E-03 0.  1.
         12    1    3    3    0    0 -0.49443169919E+01  0.93607196778E+01 -0.55461365538E+01  0.11951107651E+02  0.00000000000E+00 0. -1.
</event>
<event>
 7    1  0.1442665E-008  0.4614232E+02  0.7816164E-02  0.1320468E+00
        -11   -1    0    0    0    0  0.00000000000E+00  0.00000000000E+00  0.45593999997E+02  0.45594000000E+02  0.51100000000E-03 0.  1.
         11   -1    0    0    0    0 -0.00000000000E+00 -0.00000000000E+00 -0.45593999997E+02  0.45594000000E+02  0.51100000000E-03 0. -1.
    9900012    2    1    2    0    0  0.10927003886E+02 -0.28137434401E+02  0.33436487444E+02  0.46142319616E+02  0.10000016918E+02 0.  0.
         12    1    1    2    0    0 -0.10927003886E+02  0.28137434401E+02 -0.33436487444E+02  0.45045680384E+02  0.00000000000E+00 0. -1.
         11    1    3    3    0    0  0.41581295783E+00 -0.13998701757E-01  0.10491088516E+01  0.11285947117E+01  0.51100000000E-03 0. -1.
        -11    1    3    3    0    0  0.96332502505E+01 -0.25790343663E+02  0.24894566690E+02  0.37117122566E+02  0.51100000000E-03 0.  1.
        -12    1    3    3    0    0  0.87794067821E+00 -0.23330920362E+01  0.74928119024E+01  0.78966023382E+01  0.00000000000E+00 0.  1.
</event>
<event>
 7    1  0.1442665E-008  0.4614231E+02  0.7816164E-02  0.1320468E+00
        -11   -1    0    0    0    0  0.00000000000E+00  0.00000000000E+00  0.45593999997E+02  0.45594000000E+02  0.51100000000E-03 0.  1.
         11   -1    0    0    0    0 -0.00000000000E+00 -0.00000000000E+00 -0.45593999997E+02  0.45594000000E+02  0.51100000000E-03 0. -1.
    9900012    2    1    2    0    0  0.40148588548E+02 -0.17727550368E+02  0.10145882451E+02  0.46142310582E+02  0.99999345321E+01 0.  0.
         12    1    1    2    0    0 -0.40148588548E+02  0.17727550368E+02 -0.10145882451E+02  0.45045689418E+02  0.00000000000E+00 0. -1.
         11    1    3    3    0    0 -0.39437429396E+00 -0.23649939143E+00  0.25195965906E+00  0.52435386601E+00  0.51100000000E-03 0.  1.
        -11    1    3    3    0    0  0.31256543273E+02 -0.15525587017E+02  0.62769906139E+01  0.35460061492E+02  0.51100000000E-03 0. -1.
        -12    1    3    3    0    0  0.92864195690E+01 -0.19654639596E+01  0.36169321785E+01  0.10157895224E+02  0.00000000000E+00 0.  1.
</event>
<event>
 7    1  0.1442665E-008  0.4614232E+02  0.7816164E-02  0.1320468E+00
        -11   -1    0    0    0    0  0.00000000000E+00  0.00000000000E+00  0.45593999997E+02  0.45594000000E+02  0.51100000000E-03 0.  1.
         11   -1    0    0    0    0 -0.00000000000E+00 -0.00000000000E+00 -0.45593999997E+02  0.45594000000E+02  0.51100000000E-03 0. -1.
    9900012    2    1    2    0    0  0.41100570156E+02  0.55251392409E+01  0.17587763717E+02  0.46142318039E+02  0.10000002532E+02 0.  0.
         12    1    1    2    0    0 -0.41100570156E+02 -0.55251392409E+01 -0.17587763717E+02  0.45045681961E+02  0.00000000000E+00 0. -1.
         11    1    3    3    0    0  0.17568661757E+02  0.19423596344E+01  0.41579294158E+01  0.18158166597E+02  0.51100000000E-03 0. -1.
        -11    1    3    3    0    0  0.61836921384E+01  0.24087293351E+01  0.64293108223E+01  0.92399168494E+01  0.51100000000E-03 0.  1.
        -12    1    3    3    0    0  0.17348216261E+02  0.11740502714E+01  0.70005234789E+01  0.18744234592E+02  0.00000000000E+00 0.  1.
</event>
<event>
 7    1  0.1442665E-008  0.4614232E+02  0.7816164E-02  0.1320468E+00
        -11   -1    0    0    0    0  0.00000000000E+00  0.00000000000E+00  0.45593999997E+02  0.45594000000E+02  0.51100000000E-03 0.  1.
         11   -1    0    0    0    0 -0.00000000000E+00 -0.00000000000E+00 -0.45593999997E+02  0.45594000000E+02  0.51100000000E-03 0. -1.
    9900012    2    1    2    0    0 -0.30842061496E+02 -0.21344224523E+02  0.24946036087E+02  0.46142318805E+02  0.10000009521E+02 0.  0.
         12    1    1    2    0    0  0.30842061496E+02  0.21344224523E+02 -0.24946036087E+02  0.45045681195E+02  0.00000000000E+00 0. -1.
         11    1    3    3    0    0 -0.19119947774E+01  0.29034705695E+00  0.12338632925E+01  0.22940018152E+01  0.51100000000E-03 0. -1.
        -11    1    3    3    0    0 -0.16956730759E+02 -0.16458495397E+02  0.13008858035E+02  0.26974861935E+02  0.51100000000E-03 0.  1.
        -12    1    3    3    0    0 -0.11973335959E+02 -0.51760761837E+01  0.10703314759E+02  0.16873455055E+02  0.00000000000E+00 0.  1.
</event>
<event>
 7    1  0.1442665E-008  0.4614232E+02  0.7816164E-02  0.1320468E+00
        -11   -1    0    0    0    0  0.00000000000E+00  0.00000000000E+00  0.45593999997E+02  0.45594000000E+02  0.51100000000E-03 0.  1.
         11   -1    0    0    0    0 -0.00000000000E+00 -0.00000000000E+00 -0.45593999997E+02  0.45594000000E+02  0.51100000000E-03 0. -1.
    9900012    2    1    2    0    0  0.36775996572E+02  0.76979050428E+00  0.26000904261E+02  0.46142317369E+02  0.99999964257E+01 0.  0.
         12    1    1    2    0    0 -0.36775996572E+02 -0.76979050428E+00 -0.26000904261E+02  0.45045682631E+02  0.00000000000E+00 0. -1.
         11    1    3    3    0    0  0.81480675387E+01 -0.27812337178E+01  0.53085259154E+01  0.10114678110E+02  0.51100000000E-03 0. -1.
        -11    1    3    3    0    0  0.20600400733E+02  0.38989724410E+01  0.17750160494E+02  0.27470833520E+02  0.51100000000E-03 0.  1.
        -12    1    3    3    0    0  0.80275283001E+01 -0.34794821889E+00  0.29422178514E+01  0.85568057391E+01  0.00000000000E+00 0.  1.
</event>
<event>
 7    1  0.1442665E-008  0.4614232E+02  0.7816164E-02  0.1320468E+00
        -11   -1    0    0    0    0  0.00000000000E+00  0.00000000000E+00  0.45593999997E+02  0.45594000000E+02  0.51100000000E-03 0.  1.
         11   -1    0    0    0    0 -0.00000000000E+00 -0.00000000000E+00 -0.45593999997E+02  0.45594000000E+02  0.51100000000E-03 0. -1.
    9900012    2    1    2    0    0  0.10946986953E+02 -0.14986549417E+02  0.41044856836E+02  0.46142318082E+02  0.10000002927E+02 0.  0.
         12    1    1    2    0    0 -0.10946986953E+02  0.14986549417E+02 -0.41044856836E+02  0.45045681918E+02  0.00000000000E+00 0. -1.
         11    1    3    3    0    0  0.17283382450E+01 -0.62770821052E+00  0.66758859168E+01  0.69244944741E+01  0.51100000000E-03 0. -1.
        -11    1    3    3    0    0 -0.49270150990E+00 -0.22948580642E+01  0.12558862726E+01  0.26620253386E+01  0.51100000000E-03 0.  1.
        -12    1    3    3    0    0  0.97113502175E+01 -0.12063983142E+02  0.33113084647E+02  0.36555798269E+02  0.00000000000E+00 0.  1.
</event>
<event>
 7    1  0.1442665E-008  0.4614232E+02  0.7816164E-02  0.1320468E+00
        -11   -1    0    0    0    0  0.00000000000E+00  0.00000000000E+00  0.45593999997E+02  0.45594000000E+02  0.51100000000E-03 0.  1.
         11   -1    0    0    0    0 -0.00000000000E+00 -0.00000000000E+00 -0.45593999997E+02  0.45594000000E+02  0.51100000000E-03 0. -1.
    9900012    2    1    2    0    0  0.41947073246E+01  0.22042702681E+02  0.39059405997E+02  0.46142317544E+02  0.99999980244E+01 0.  0.
         12    1    1    2    0    0 -0.41947073246E+01 -0.22042702681E+02 -0.39059405997E+02  0.45045682456E+02  0.00000000000E+00 0. -1.
         11    1    3    3    0    0  0.62254657193E+01  0.16207228255E+02  0.22296762391E+02  0.28259092068E+02  0.51100000000E-03 0. -1.
        -11    1    3    3    0    0 -0.16669375805E+01  0.38684381423E+01  0.11985551216E+02  0.12704209254E+02  0.51100000000E-03 0.  1.
         12    1    3    3    0    0 -0.36382081420E+00  0.19670362840E+01  0.47770923901E+01  0.51790162223E+01  0.00000000000E+00 0. -1.
</event>
<event>
 7    1  0.1442665E-008  0.4614231E+02  0.7816164E-02  0.1320468E+00
        -11   -1    0    0    0    0  0.00000000000E+00  0.00000000000E+00  0.45593999997E+02  0.45594000000E+02  0.51100000000E-03 0.  1.
         11   -1    0    0    0    0 -0.00000000000E+00 -0.00000000000E+00 -0.45593999997E+02  0.45594000000E+02  0.51100000000E-03 0. -1.
    9900012    2    1    2    0    0  0.83251262241E+01  0.20962326125E+01  0.44220046769E+02  0.46142307042E+02  0.99999022538E+01 0.  0.
         12    1    1    2    0    0 -0.83251262241E+01 -0.20962326125E+01 -0.44220046769E+02  0.45045692958E+02  0.00000000000E+00 0. -1.
         11    1    3    3    0    0 -0.13811034660E+01 -0.11624168409E+01  0.23999651095E+01  0.30030804990E+01  0.51100000000E-03 0. -1.
        -11    1    3    3    0    0  0.21491347548E+01  0.10024874373E+01  0.58045871242E+01  0.62703264030E+01  0.51100000000E-03 0.  1.
         12    1    3    3    0    0  0.75570949353E+01  0.22561620161E+01  0.36015494535E+02  0.36868900140E+02  0.00000000000E+00 0. -1.
</event>
<event>
 7    1  0.1442665E-008  0.4614232E+02  0.7816164E-02  0.1320468E+00
        -11   -1    0    0    0    0  0.00000000000E+00  0.00000000000E+00  0.45593999997E+02  0.45594000000E+02  0.51100000000E-03 0.  1.
         11   -1    0    0    0    0 -0.00000000000E+00 -0.00000000000E+00 -0.45593999997E+02  0.45594000000E+02  0.51100000000E-03 0. -1.
    9900012    2    1    2    0    0 -0.32130777312E+02  0.31432948655E+02  0.29489550762E+01  0.46142318210E+02  0.10000004096E+02 0.  0.
         12    1    1    2    0    0  0.32130777312E+02 -0.31432948655E+02 -0.29489550762E+01  0.45045681790E+02  0.00000000000E+00 0. -1.
         11    1    3    3    0    0 -0.48475228851E+01  0.80645875312E+01  0.34616872460E+01  0.10025932825E+02  0.51100000000E-03 0. -1.
        -11    1    3    3    0    0 -0.25875977619E+02  0.21475167394E+02  0.28008201258E+00  0.33627778376E+02  0.51100000000E-03 0.  1.
        -12    1    3    3    0    0 -0.14072768084E+01  0.18931937305E+01 -0.79281418234E+00  0.24886070089E+01  0.00000000000E+00 0.  1.
</event>
<event>
 7    1  0.1442665E-008  0.4614232E+02  0.7816164E-02  0.1320468E+00
        -11   -1    0    0    0    0  0.00000000000E+00  0.00000000000E+00  0.45593999997E+02  0.45594000000E+02  0.51100000000E-03 0.  1.
         11   -1    0    0    0    0 -0.00000000000E+00 -0.00000000000E+00 -0.45593999997E+02  0.45594000000E+02  0.51100000000E-03 0. -1.
    9900012    2    1    2    0    0 -0.38556179963E+02 -0.23106703403E+02 -0.29350966293E+01  0.46142317103E+02  0.99999939947E+01 0.  0.
         12    1    1    2    0    0  0.38556179963E+02  0.23106703403E+02  0.29350966293E+01  0.45045682897E+02  0.00000000000E+00 0. -1.
         11    1    3    3    0    0 -0.25362462666E+01  0.34773599443E+00 -0.83488201386E+00  0.26926740770E+01  0.51100000000E-03 0. -1.
        -11    1    3    3    0    0 -0.22135568422E+02 -0.10872063522E+02 -0.11981154458E+01  0.24690496866E+02  0.51100000000E-03 0.  1.
         12    1    3    3    0    0 -0.13884365274E+02 -0.12582375875E+02 -0.90209916965E+00  0.18759146160E+02  0.00000000000E+00 0. -1.
</event>
<event>
 7    1  0.1442665E-008  0.4614232E+02  0.7816164E-02  0.1320468E+00
        -11   -1    0    0    0    0  0.00000000000E+00  0.00000000000E+00  0.45593999997E+02  0.45594000000E+02  0.51100000000E-03 0. -1.
         11   -1    0    0    0    0 -0.00000000000E+00 -0.00000000000E+00 -0.45593999997E+02  0.45594000000E+02  0.51100000000E-03 0.  1.
    9900012    2    1    2    0    0  0.44016595196E+02 -0.86795076381E+01 -0.40396775427E+01  0.46142317631E+02  0.99999988095E+01 0.  0.
         12    1    1    2    0    0 -0.44016595196E+02  0.86795076381E+01  0.40396775427E+01  0.45045682369E+02  0.00000000000E+00 0. -1.
         11    1    3    3    0    0  0.70130095957E+01 -0.33494848245E+01  0.14257973430E+01  0.79015346929E+01  0.51100000000E-03 0. -1.
        -11    1    3    3    0    0  0.25878327570E+02 -0.27793338117E+01 -0.63565839202E+01  0.26792138654E+02  0.51100000000E-03 0.  1.
        -12    1    3    3    0    0  0.11125258030E+02 -0.25506890019E+01  0.89110903452E+00  0.11448644284E+02  0.00000000000E+00 0.  1.
</event>
<event>
 7    1  0.1442665E-008  0.4614232E+02  0.7816164E-02  0.1320468E+00
        -11   -1    0    0    0    0  0.00000000000E+00  0.00000000000E+00  0.45593999997E+02  0.45594000000E+02  0.51100000000E-03 0.  1.
         11   -1    0    0    0    0 -0.00000000000E+00 -0.00000000000E+00 -0.45593999997E+02  0.45594000000E+02  0.51100000000E-03 0. -1.
    9900012    2    1    2    0    0 -0.11063799922E+02 -0.36571192705E+02  0.23859036566E+02  0.46142318404E+02  0.10000005865E+02 0.  0.
         12    1    1    2    0    0  0.11063799922E+02  0.36571192705E+02 -0.23859036566E+02  0.45045681596E+02  0.00000000000E+00 0. -1.
         11    1    3    3    0    0 -0.56937343740E+01 -0.10397493703E+02  0.32399998106E+01  0.12289185712E+02  0.51100000000E-03 0. -1.
        -11    1    3    3    0    0 -0.32521756958E+01 -0.14630243569E+02  0.13177335086E+02  0.19956523592E+02  0.51100000000E-03 0.  1.
         12    1    3    3    0    0 -0.21178898517E+01 -0.11543455433E+02  0.74417016701E+01  0.13896609101E+02  0.00000000000E+00 0. -1.
</event>
<event>
 7    1  0.1442665E-008  0.4614232E+02  0.7816164E-02  0.1320468E+00
        -11   -1    0    0    0    0  0.00000000000E+00  0.00000000000E+00  0.45593999997E+02  0.45594000000E+02  0.51100000000E-03 0.  1.
         11   -1    0    0    0    0 -0.00000000000E+00 -0.00000000000E+00 -0.45593999997E+02  0.45594000000E+02  0.51100000000E-03 0. -1.
    9900012    2    1    2    0    0  0.25393515523E+02  0.35121271518E+02  0.12279216012E+02  0.46142317748E+02  0.99999998817E+01 0.  0.
         12    1    1    2    0    0 -0.25393515523E+02 -0.35121271518E+02 -0.12279216012E+02  0.45045682252E+02  0.00000000000E+00 0. -1.
         11    1    3    3    0    0  0.60002497129E+01  0.11070313451E+02  0.72564183076E+01  0.14533081003E+02  0.51100000000E-03 0. -1.
        -11    1    3    3    0    0  0.76099056748E+01  0.12119170630E+02  0.88968983611E+00  0.14337939511E+02  0.51100000000E-03 0.  1.
         12    1    3    3    0    0  0.11783360135E+02  0.11931787437E+02  0.41331078686E+01  0.17271297235E+02  0.00000000000E+00 0. -1.
</event>
<event>
 7    1  0.1442665E-008  0.4614232E+02  0.7816164E-02  0.1320468E+00
        -11   -1    0    0    0    0  0.00000000000E+00  0.00000000000E+00  0.45593999997E+02  0.45594000000E+02  0.51100000000E-03 0.  1.
         11   -1    0    0    0    0 -0.00000000000E+00 -0.00000000000E+00 -0.45593999997E+02  0.45594000000E+02  0.51100000000E-03 0. -1.
    9900012    2    1    2    0    0 -0.26065568647E+02 -0.25250237066E+02  0.26685672586E+02  0.46142318052E+02  0.10000002654E+02 0.  0.
         12    1    1    2    0    0  0.26065568647E+02  0.25250237066E+02 -0.26685672586E+02  0.45045681948E+02  0.00000000000E+00 0. -1.
         11    1    3    3    0    0 -0.41730711580E+01 -0.11068587991E+01  0.36456630135E+01  0.56507095448E+01  0.51100000000E-03 0. -1.
        -11    1    3    3    0    0 -0.16452361742E+02 -0.19877904107E+02  0.14839789216E+02  0.29766266525E+02  0.51100000000E-03 0.  1.
        -12    1    3    3    0    0 -0.54401357473E+01 -0.42654741603E+01  0.82002203560E+01  0.10725341983E+02  0.00000000000E+00 0.  1.
</event>
<event>
 7    1  0.1442665E-008  0.4614232E+02  0.7816164E-02  0.1320468E+00
        -11   -1    0    0    0    0  0.00000000000E+00  0.00000000000E+00  0.45593999997E+02  0.45594000000E+02  0.51100000000E-03 0.  1.
         11   -1    0    0    0    0 -0.00000000000E+00 -0.00000000000E+00 -0.45593999997E+02  0.45594000000E+02  0.51100000000E-03 0. -1.
    9900012    2    1    2    0    0 -0.17705376008E+02  0.74539067193E+01  0.40743986630E+02  0.46142317505E+02  0.99999976656E+01 0.  0.
         12    1    1    2    0    0  0.17705376008E+02 -0.74539067193E+01 -0.40743986630E+02  0.45045682495E+02  0.00000000000E+00 0. -1.
         11    1    3    3    0    0 -0.11245702133E+01  0.28583796772E+01  0.82733771029E+01  0.88251777031E+01  0.51100000000E-03 0. -1.
        -11    1    3    3    0    0 -0.10636001231E+02  0.37462540417E+01  0.14493566020E+02  0.18363616141E+02  0.51100000000E-03 0.  1.
        -12    1    3    3    0    0 -0.59448045633E+01  0.84927300037E+00  0.17977043507E+02  0.18953523661E+02  0.00000000000E+00 0.  1.
</event>
<event>
 7    1  0.1442665E-008  0.4614232E+02  0.7816164E-02  0.1320468E+00
        -11   -1    0    0    0    0  0.00000000000E+00  0.00000000000E+00  0.45593999997E+02  0.45594000000E+02  0.51100000000E-03 0.  1.
         11   -1    0    0    0    0 -0.00000000000E+00 -0.00000000000E+00 -0.45593999997E+02  0.45594000000E+02  0.51100000000E-03 0. -1.
    9900012    2    1    2    0    0  0.35457202129E+02  0.20184611779E+02  0.19091406617E+02  0.46142317165E+02  0.99999945637E+01 0.  0.
         12    1    1    2    0    0 -0.35457202129E+02 -0.20184611779E+02 -0.19091406617E+02  0.45045682835E+02  0.00000000000E+00 0. -1.
         11    1    3    3    0    0  0.76641418224E+01  0.31081787545E+01  0.42025217509E+00  0.82810903386E+01  0.51100000000E-03 0. -1.
        -11    1    3    3    0    0  0.22213692177E+02  0.11690543843E+02  0.13117605355E+02  0.28322932510E+02  0.51100000000E-03 0.  1.
         12    1    3    3    0    0  0.55793681295E+01  0.53858891823E+01  0.55535490865E+01  0.95382943163E+01  0.00000000000E+00 0. -1.
</event>
<event>
 7    1  0.1442665E-008  0.4614232E+02  0.7816164E-02  0.1320468E+00
        -11   -1    0    0    0    0  0.00000000000E+00  0.00000000000E+00  0.45593999997E+02  0.45594000000E+02  0.51100000000E-03 0.  1.
         11   -1    0    0    0    0 -0.00000000000E+00 -0.00000000000E+00 -0.45593999997E+02  0.45594000000E+02  0.51100000000E-03 0. -1.
    9900012    2    1    2    0    0  0.12779461658E+02  0.40607138905E+02  0.14726137669E+02  0.46142317621E+02  0.99999987203E+01 0.  0.
         12    1    1    2    0    0 -0.12779461658E+02 -0.40607138905E+02 -0.14726137669E+02  0.45045682379E+02  0.00000000000E+00 0. -1.
         11    1    3    3    0    0  0.32477079385E+01  0.39098591888E+01  0.40260394698E-01  0.50829348697E+01  0.51100000000E-03 0. -1.
        -11    1    3    3    0    0  0.82577442384E+01  0.34271552463E+02  0.14981146737E+02  0.38303582155E+02  0.51100000000E-03 0.  1.
        -12    1    3    3    0    0  0.12740094814E+01  0.24257272537E+01 -0.29526946201E+00  0.27558005957E+01  0.00000000000E+00 0.  1.
</event>
<event>
 7    1  0.1442665E-008  0.4614232E+02  0.7816164E-02  0.1320468E+00
        -11   -1    0    0    0    0  0.00000000000E+00  0.00000000000E+00  0.45593999997E+02  0.45594000000E+02  0.51100000000E-03 0. -1.
         11   -1    0    0    0    0 -0.00000000000E+00 -0.00000000000E+00 -0.45593999997E+02  0.45594000000E+02  0.51100000000E-03 0.  1.
    9900012    2    1    2    0    0 -0.41656041935E+02  0.10669868616E+02  0.13417954948E+02  0.46142318287E+02  0.10000004795E+02 0.  0.
         12    1    1    2    0    0  0.41656041935E+02 -0.10669868616E+02 -0.13417954948E+02  0.45045681713E+02  0.00000000000E+00 0. -1.
         11    1    3    3    0    0 -0.39947488557E+01 -0.56386103366E+00  0.27303927305E+01  0.48714476708E+01  0.51100000000E-03 0. -1.
        -11    1    3    3    0    0 -0.66523566969E+01  0.46661073105E+01  0.29376309864E+01  0.86403751729E+01  0.51100000000E-03 0.  1.
         12    1    3    3    0    0 -0.31008936383E+02  0.65676223389E+01  0.77499312314E+01  0.32630495443E+02  0.00000000000E+00 0. -1.
</event>
<event>
 7    1  0.1442665E-008  0.4614232E+02  0.7816164E-02  0.1320468E+00
        -11   -1    0    0    0    0  0.00000000000E+00  0.00000000000E+00  0.45593999997E+02  0.45594000000E+02  0.51100000000E-03 0.  1.
         11   -1    0    0    0    0 -0.00000000000E+00 -0.00000000000E+00 -0.45593999997E+02  0.45594000000E+02  0.51100000000E-03 0. -1.
    9900012    2    1    2    0    0  0.19853926589E+02  0.36212834247E+02  0.17987932774E+02  0.46142317736E+02  0.99999997696E+01 0.  0.
         12    1    1    2    0    0 -0.19853926589E+02 -0.36212834247E+02 -0.17987932774E+02  0.45045682264E+02  0.00000000000E+00 0. -1.
         11    1    3    3    0    0  0.60236816465E+01  0.81717109612E+01  0.69684707459E+01  0.12313455462E+02  0.51100000000E-03 0. -1.
        -11    1    3    3    0    0  0.93576573964E+01  0.17230213387E+02  0.34890414490E+01  0.19915306069E+02  0.51100000000E-03 0.  1.
        -12    1    3    3    0    0  0.44725875459E+01  0.10810909898E+02  0.75304205789E+01  0.13913556205E+02  0.00000000000E+00 0.  1.
</event>
<event>
 7    1  0.1442665E-008  0.4614232E+02  0.7816164E-02  0.1320468E+00
        -11   -1    0    0    0    0  0.00000000000E+00  0.00000000000E+00  0.45593999997E+02  0.45594000000E+02  0.51100000000E-03 0.  1.
         11   -1    0    0    0    0 -0.00000000000E+00 -0.00000000000E+00 -0.45593999997E+02  0.45594000000E+02  0.51100000000E-03 0. -1.
    9900012    2    1    2    0    0  0.63914105371E+00  0.11926521140E+02  0.43433432957E+02  0.46142317563E+02  0.99999981906E+01 0.  0.
         12    1    1    2    0    0 -0.63914105371E+00 -0.11926521140E+02 -0.43433432957E+02  0.45045682437E+02  0.00000000000E+00 0. -1.
         11    1    3    3    0    0 -0.32111439016E+01  0.57693202387E+01  0.20051739607E+02  0.21110868355E+02  0.51100000000E-03 0.  1.
        -11    1    3    3    0    0 -0.69996865284E+00  0.15540751447E+00  0.65789588485E+01  0.66179156388E+01  0.51100000000E-03 0. -1.
        -12    1    3    3    0    0  0.45502536081E+01  0.60017933870E+01  0.16802734501E+02  0.18413533569E+02  0.00000000000E+00 0.  1.
</event>
<event>
 7    1  0.1442665E-008  0.4614232E+02  0.7816164E-02  0.1320468E+00
        -11   -1    0    0    0    0  0.00000000000E+00  0.00000000000E+00  0.45593999997E+02  0.45594000000E+02  0.51100000000E-03 0.  1.
         11   -1    0    0    0    0 -0.00000000000E+00 -0.00000000000E+00 -0.45593999997E+02  0.45594000000E+02  0.51100000000E-03 0. -1.
    9900012    2    1    2    0    0  0.43050069451E+02 -0.29407990093E+01  0.12928910879E+02  0.46142317465E+02  0.99999973016E+01 0.  0.
         12    1    1    2    0    0 -0.43050069451E+02  0.29407990093E+01 -0.12928910879E+02  0.45045682535E+02  0.00000000000E+00 0. -1.
         11    1    3    3    0    0  0.20315616776E+02 -0.32049736175E+01  0.10879316421E+02  0.23267051101E+02  0.51100000000E-03 0. -1.
        -11    1    3    3    0    0  0.84014598046E+01 -0.47843267101E+00  0.34452570675E+00  0.84221210448E+01  0.51100000000E-03 0.  1.
         12    1    3    3    0    0  0.14332992870E+02  0.74260727924E+00  0.17050687507E+01  0.14453145319E+02  0.00000000000E+00 0. -1.
</event>
<event>
 7    1  0.1442665E-008  0.4614232E+02  0.7816164E-02  0.1320468E+00
        -11   -1    0    0    0    0  0.00000000000E+00  0.00000000000E+00  0.45593999997E+02  0.45594000000E+02  0.51100000000E-03 0.  1.
         11   -1    0    0    0    0 -0.00000000000E+00 -0.00000000000E+00 -0.45593999997E+02  0.45594000000E+02  0.51100000000E-03 0. -1.
    9900012    2    1    2    0    0 -0.89344380258E+01 -0.44042841953E+02  0.30850242607E+01  0.46142317800E+02  0.10000000357E+02 0.  0.
         12    1    1    2    0    0  0.89344380258E+01  0.44042841953E+02 -0.30850242607E+01  0.45045682200E+02  0.00000000000E+00 0. -1.
         11    1    3    3    0    0 -0.81834276498E+01 -0.20544799602E+02 -0.12856578890E+00  0.22115013186E+02  0.51100000000E-03 0. -1.
        -11    1    3    3    0    0  0.16076134426E+00 -0.11871536897E+02  0.34465894631E+01  0.12362775243E+02  0.51100000000E-03 0.  1.
         12    1    3    3    0    0 -0.91177172025E+00 -0.11626505454E+02 -0.23299941345E+00  0.11664529372E+02  0.00000000000E+00 0. -1.
</event>
<event>
 7    1  0.1442665E-008  0.4614232E+02  0.7816164E-02  0.1320468E+00
        -11   -1    0    0    0    0  0.00000000000E+00  0.00000000000E+00  0.45593999997E+02  0.45594000000E+02  0.51100000000E-03 0. -1.
         11   -1    0    0    0    0 -0.00000000000E+00 -0.00000000000E+00 -0.45593999997E+02  0.45594000000E+02  0.51100000000E-03 0.  1.
    9900012    2    1    2    0    0  0.34906221774E+02 -0.19271700597E+02 -0.20958782527E+02  0.46142319548E+02  0.10000016290E+02 0.  0.
         12    1    1    2    0    0 -0.34906221774E+02  0.19271700597E+02  0.20958782527E+02  0.45045680452E+02  0.00000000000E+00 0. -1.
         11    1    3    3    0    0  0.89048552938E+01 -0.14398598525E+01 -0.23185784424E+01  0.93137237694E+01  0.51100000000E-03 0. -1.
        -11    1    3    3    0    0  0.99473365555E+01 -0.53509131544E+01 -0.82922486279E+01  0.14012250487E+02  0.51100000000E-03 0.  1.
         12    1    3    3    0    0  0.16054029925E+02 -0.12480927590E+02 -0.10347955456E+02  0.22816345291E+02  0.00000000000E+00 0. -1.
</event>
<event>
 7    1  0.1442665E-008  0.4614233E+02  0.7816164E-02  0.1320468E+00
        -11   -1    0    0    0    0  0.00000000000E+00  0.00000000000E+00  0.45593999997E+02  0.45594000000E+02  0.51100000000E-03 0.  1.
         11   -1    0    0    0    0 -0.00000000000E+00 -0.00000000000E+00 -0.45593999997E+02  0.45594000000E+02  0.51100000000E-03 0. -1.
    9900012    2    1    2    0    0 -0.38466663136E+02  0.14347623148E+02  0.18535751865E+02  0.46142328065E+02  0.10000093960E+02 0.  0.
         12    1    1    2    0    0  0.38466663136E+02 -0.14347623148E+02 -0.18535751865E+02  0.45045671935E+02  0.00000000000E+00 0. -1.
         11    1    3    3    0    0 -0.18239829432E+02  0.10125457055E+02  0.11338091676E+02  0.23743811434E+02  0.51100000000E-03 0. -1.
        -11    1    3    3    0    0 -0.12903428640E+02  0.50021004903E+01  0.49644160668E+01  0.14702547641E+02  0.51100000000E-03 0.  1.
         12    1    3    3    0    0 -0.73234050639E+01 -0.77993439696E+00  0.22332441230E+01  0.76959689908E+01  0.00000000000E+00 0. -1.
</event>
<event>
 7    1  0.1442665E-008  0.4614232E+02  0.7816164E-02  0.1320468E+00
        -11   -1    0    0    0    0  0.00000000000E+00  0.00000000000E+00  0.45593999997E+02  0.45594000000E+02  0.51100000000E-03 0.  1.
         11   -1    0    0    0    0 -0.00000000000E+00 -0.00000000000E+00 -0.45593999997E+02  0.45594000000E+02  0.51100000000E-03 0. -1.
    9900012    2    1    2    0    0  0.14451252905E+02  0.12237035404E+02  0.40872107272E+02  0.46142324305E+02  0.10000059671E+02 0.  0.
         12    1    1    2    0    0 -0.14451252905E+02 -0.12237035404E+02 -0.40872107272E+02  0.45045675695E+02  0.00000000000E+00 0. -1.
         11    1    3    3    0    0 -0.14625496600E+00  0.25136529869E+00 -0.15471572604E+00  0.32941196923E+00  0.51100000000E-03 0. -1.
        -11    1    3    3    0    0  0.11179069041E+02  0.12000866211E+02  0.37350641216E+02  0.40792925538E+02  0.51100000000E-03 0.  1.
        -12    1    3    3    0    0  0.34184388303E+01 -0.15196106018E-01  0.36761817821E+01  0.50199867981E+01  0.00000000000E+00 0.  1.
</event>
<event>
 7    1  0.1442665E-008  0.4614232E+02  0.7816164E-02  0.1320468E+00
        -11   -1    0    0    0    0  0.00000000000E+00  0.00000000000E+00  0.45593999997E+02  0.45594000000E+02  0.51100000000E-03 0. -1.
         11   -1    0    0    0    0 -0.00000000000E+00 -0.00000000000E+00 -0.45593999997E+02  0.45594000000E+02  0.51100000000E-03 0.  1.
    9900012    2    1    2    0    0 -0.29712499264E+02 -0.18240231554E+02 -0.28523230789E+02  0.46142319249E+02  0.10000013565E+02 0.  0.
         12    1    1    2    0    0  0.29712499264E+02  0.18240231554E+02  0.28523230789E+02  0.45045680751E+02  0.00000000000E+00 0. -1.
         11    1    3    3    0    0 -0.16453365128E+02 -0.68312689048E+01 -0.14071162353E+02  0.22701917741E+02  0.51100000000E-03 0. -1.
        -11    1    3    3    0    0 -0.13387355541E+02 -0.92077253600E+01 -0.12834054147E+02  0.20705468862E+02  0.51100000000E-03 0.  1.
         12    1    3    3    0    0  0.12822140550E+00 -0.22012372896E+01 -0.16180142894E+01  0.27349326454E+01  0.00000000000E+00 0. -1.
</event>
<event>
 7    1  0.1442665E-008  0.4614232E+02  0.7816164E-02  0.1320468E+00
        -11   -1    0    0    0    0  0.00000000000E+00  0.00000000000E+00  0.45593999997E+02  0.45594000000E+02  0.51100000000E-03 0.  1.
         11   -1    0    0    0    0 -0.00000000000E+00 -0.00000000000E+00 -0.45593999997E+02  0.45594000000E+02  0.51100000000E-03 0. -1.
    9900012    2    1    2    0    0 -0.11716367299E+02 -0.43490535473E+02  0.64307746748E+00  0.46142317776E+02  0.10000000133E+02 0.  0.
         12    1    1    2    0    0  0.11716367299E+02  0.43490535473E+02 -0.64307746748E+00  0.45045682224E+02  0.00000000000E+00 0. -1.
         11    1    3    3    0    0 -0.71474012667E+01 -0.23329296694E+02 -0.25730339672E+01  0.24534912536E+02  0.51100000000E-03 0. -1.
        -11    1    3    3    0    0 -0.25018156152E+01 -0.16268926914E+02  0.57659654601E+00  0.16470261933E+02  0.51100000000E-03 0.  1.
         12    1    3    3    0    0 -0.20671504168E+01 -0.38923118652E+01  0.26395148887E+01  0.51371433063E+01  0.00000000000E+00 0. -1.
</event>
<event>
 7    1  0.1442665E-008  0.4614232E+02  0.7816164E-02  0.1320468E+00
        -11   -1    0    0    0    0  0.00000000000E+00  0.00000000000E+00  0.45593999997E+02  0.45594000000E+02  0.51100000000E-03 0. -1.
         11   -1    0    0    0    0 -0.00000000000E+00 -0.00000000000E+00 -0.45593999997E+02  0.45594000000E+02  0.51100000000E-03 0.  1.
    9900012    2    1    2    0    0 -0.27708666728E+02 -0.14462866752E+02 -0.32437151399E+02  0.46142317439E+02  0.99999970629E+01 0.  0.
         12    1    1    2    0    0  0.27708666728E+02  0.14462866752E+02  0.32437151399E+02  0.45045682561E+02  0.00000000000E+00 0. -1.
         11    1    3    3    0    0 -0.72047252149E+00  0.16162594489E+00  0.44196327173E+00  0.86054366244E+00  0.51100000000E-03 0. -1.
        -11    1    3    3    0    0 -0.23143923921E+02 -0.11192489523E+02 -0.29446955176E+02  0.39090103678E+02  0.51100000000E-03 0.  1.
         12    1    3    3    0    0 -0.38442702857E+01 -0.34320031732E+01 -0.34321594945E+01  0.61916700983E+01  0.00000000000E+00 0. -1.
</event>
<event>
 7    1  0.1442665E-008  0.4614232E+02  0.7816164E-02  0.1320468E+00
        -11   -1    0    0    0    0  0.00000000000E+00  0.00000000000E+00  0.45593999997E+02  0.45594000000E+02  0.51100000000E-03 0. -1.
         11   -1    0    0    0    0 -0.00000000000E+00 -0.00000000000E+00 -0.45593999997E+02  0.45594000000E+02  0.51100000000E-03 0.  1.
    9900012    2    1    2    0    0  0.34509340853E+02 -0.19943724019E+02  0.20987298342E+02  0.46142318458E+02  0.10000006354E+02 0.  0.
         12    1    1    2    0    0 -0.34509340853E+02  0.19943724019E+02 -0.20987298342E+02  0.45045681542E+02  0.00000000000E+00 0. -1.
         11    1    3    3    0    0  0.18359656552E+00 -0.96444498386E+00  0.18808165269E+01  0.21216344866E+01  0.51100000000E-03 0. -1.
        -11    1    3    3    0    0  0.27499375149E+02 -0.14703587351E+02  0.12471403863E+02  0.33584922646E+02  0.51100000000E-03 0.  1.
        -12    1    3    3    0    0  0.68263691383E+01 -0.42756916850E+01  0.66350779531E+01  0.10435761325E+02  0.00000000000E+00 0.  1.
</event>
<event>
 7    1  0.1442665E-008  0.4614232E+02  0.7816164E-02  0.1320468E+00
        -11   -1    0    0    0    0  0.00000000000E+00  0.00000000000E+00  0.45593999997E+02  0.45594000000E+02  0.51100000000E-03 0.  1.
         11   -1    0    0    0    0 -0.00000000000E+00 -0.00000000000E+00 -0.45593999997E+02  0.45594000000E+02  0.51100000000E-03 0. -1.
    9900012    2    1    2    0    0  0.40171170817E+02  0.11435129296E+02  0.16870916018E+02  0.46142323692E+02  0.10000054079E+02 0.  0.
         12    1    1    2    0    0 -0.40171170817E+02 -0.11435129296E+02 -0.16870916018E+02  0.45045676308E+02  0.00000000000E+00 0. -1.
         11    1    3    3    0    0  0.20737582142E+02  0.79005304823E+01  0.12857492021E+02  0.25647237596E+02  0.51100000000E-03 0.  1.
        -11    1    3    3    0    0  0.15882606017E+02  0.34871940381E+01  0.19230614002E+01  0.16374243847E+02  0.51100000000E-03 0. -1.
         12    1    3    3    0    0  0.35509826580E+01  0.47404775228E-01  0.20903625968E+01  0.41208422484E+01  0.00000000000E+00 0. -1.
</event>
<event>
 7    1  0.1442665E-008  0.4614232E+02  0.7816164E-02  0.1320468E+00
        -11   -1    0    0    0    0  0.00000000000E+00  0.00000000000E+00  0.45593999997E+02  0.45594000000E+02  0.51100000000E-03 0.  1.
         11   -1    0    0    0    0 -0.00000000000E+00 -0.00000000000E+00 -0.45593999997E+02  0.45594000000E+02  0.51100000000E-03 0. -1.
    9900012    2    1    2    0    0 -0.19645076288E+02  0.11669691063E+02  0.38820133939E+02  0.46142317511E+02  0.99999977182E+01 0.  0.
         12    1    1    2    0    0  0.19645076288E+02 -0.11669691063E+02 -0.38820133939E+02  0.45045682489E+02  0.00000000000E+00 0. -1.
         11    1    3    3    0    0 -0.26178571778E+01 -0.30151654962E+00  0.86858603543E+01  0.90767978268E+01  0.51100000000E-03 0. -1.
        -11    1    3    3    0    0 -0.10288517936E+02  0.99742962630E+01  0.17606284443E+02  0.22700692488E+02  0.51100000000E-03 0.  1.
        -12    1    3    3    0    0 -0.67387011744E+01  0.19969113493E+01  0.12527989141E+02  0.14364827196E+02  0.00000000000E+00 0.  1.
</event>
<event>
 7    1  0.1442665E-008  0.4614232E+02  0.7816164E-02  0.1320468E+00
        -11   -1    0    0    0    0  0.00000000000E+00  0.00000000000E+00  0.45593999997E+02  0.45594000000E+02  0.51100000000E-03 0. -1.
         11   -1    0    0    0    0 -0.00000000000E+00 -0.00000000000E+00 -0.45593999997E+02  0.45594000000E+02  0.51100000000E-03 0.  1.
    9900012    2    1    2    0    0 -0.56984218399E+01 -0.35915557487E+02 -0.26584096912E+02  0.46142317746E+02  0.99999998650E+01 0.  0.
         12    1    1    2    0    0  0.56984218399E+01  0.35915557487E+02  0.26584096912E+02  0.45045682254E+02  0.00000000000E+00 0. -1.
         11    1    3    3    0    0 -0.59711843692E+00 -0.23124857423E+02 -0.12263812263E+02  0.26182373322E+02  0.51100000000E-03 0. -1.
        -11    1    3    3    0    0 -0.19774060885E+01 -0.73882166220E+01 -0.74174066892E+01  0.10654285614E+02  0.51100000000E-03 0.  1.
         12    1    3    3    0    0 -0.31238973144E+01 -0.54024834419E+01 -0.69028779597E+01  0.93056588105E+01  0.00000000000E+00 0. -1.
</event>
<event>
 7    1  0.1442665E-008  0.4614232E+02  0.7816164E-02  0.1320468E+00
        -11   -1    0    0    0    0  0.00000000000E+00  0.00000000000E+00  0.45593999997E+02  0.45594000000E+02  0.51100000000E-03 0.  1.
         11   -1    0    0    0    0 -0.00000000000E+00 -0.00000000000E+00 -0.45593999997E+02  0.45594000000E+02  0.51100000000E-03 0. -1.
    9900012    2    1    2    0    0 -0.23103061758E+02  0.13851008507E+02  0.36104179434E+02  0.46142315724E+02  0.99999814261E+01 0.  0.
         12    1    1    2    0    0  0.23103061758E+02 -0.13851008507E+02 -0.36104179434E+02  0.45045684276E+02  0.00000000000E+00 0. -1.
         11    1    3    3    0    0 -0.14186755679E+02  0.82224995645E+01  0.15430948982E+02  0.22516387866E+02  0.51100000000E-03 0. -1.
        -11    1    3    3    0    0 -0.68168483224E+01  0.19471214820E+01  0.14467878092E+02  0.16111492788E+02  0.51100000000E-03 0.  1.
        -12    1    3    3    0    0 -0.20994577564E+01  0.36813874611E+01  0.62053523603E+01  0.75144350702E+01  0.00000000000E+00 0.  1.
</event>
<event>
 7    1  0.1442665E-008  0.4614232E+02  0.7816164E-02  0.1320468E+00
        -11   -1    0    0    0    0  0.00000000000E+00  0.00000000000E+00  0.45593999997E+02  0.45594000000E+02  0.51100000000E-03 0.  1.
         11   -1    0    0    0    0 -0.00000000000E+00 -0.00000000000E+00 -0.45593999997E+02  0.45594000000E+02  0.51100000000E-03 0. -1.
    9900012    2    1    2    0    0 -0.12028009082E+02 -0.41394331105E+02  0.13074776431E+02  0.46142318422E+02  0.10000006028E+02 0.  0.
         12    1    1    2    0    0  0.12028009082E+02  0.41394331105E+02 -0.13074776431E+02  0.45045681578E+02  0.00000000000E+00 0. -1.
         11    1    3    3    0    0 -0.23396145121E+01 -0.39851024936E+01  0.12087752971E+01  0.47766071567E+01  0.51100000000E-03 0.  1.
        -11    1    3    3    0    0 -0.97694443789E+00 -0.11149165256E+02  0.71996629546E+01  0.13307646421E+02  0.51100000000E-03 0. -1.
        -12    1    3    3    0    0 -0.87114501322E+01 -0.26260063355E+02  0.46663381788E+01  0.28058064845E+02  0.00000000000E+00 0.  1.
</event>
<event>
 7    1  0.1442665E-008  0.4614232E+02  0.7816164E-02  0.1320468E+00
        -11   -1    0    0    0    0  0.00000000000E+00  0.00000000000E+00  0.45593999997E+02  0.45594000000E+02  0.51100000000E-03 0.  1.
         11   -1    0    0    0    0 -0.00000000000E+00 -0.00000000000E+00 -0.45593999997E+02  0.45594000000E+02  0.51100000000E-03 0. -1.
    9900012    2    1    2    0    0  0.37514439196E+02 -0.19333132716E+02 -0.15748345192E+02  0.46142317131E+02  0.99999942556E+01 0.  0.
         12    1    1    2    0    0 -0.37514439196E+02  0.19333132716E+02  0.15748345192E+02  0.45045682869E+02  0.00000000000E+00 0. -1.
         11    1    3    3    0    0  0.48057512449E+01 -0.15066946073E+01 -0.22112441526E+01  0.55004522206E+01  0.51100000000E-03 0. -1.
        -11    1    3    3    0    0  0.30314686419E+02 -0.17735946057E+02 -0.14581416590E+02  0.38028432853E+02  0.51100000000E-03 0.  1.
        -12    1    3    3    0    0  0.23940015323E+01 -0.90492052231E-01  0.10443155513E+01  0.26134320574E+01  0.00000000000E+00 0.  1.
</event>
<event>
 7    1  0.1442665E-008  0.4614232E+02  0.7816164E-02  0.1320468E+00
        -11   -1    0    0    0    0  0.00000000000E+00  0.00000000000E+00  0.45593999997E+02  0.45594000000E+02  0.51100000000E-03 0. -1.
         11   -1    0    0    0    0 -0.00000000000E+00 -0.00000000000E+00 -0.45593999997E+02  0.45594000000E+02  0.51100000000E-03 0.  1.
    9900012    2    1    2    0    0  0.30349859408E+02 -0.74875972831E+01 -0.32433554389E+02  0.46142317305E+02  0.99999958410E+01 0.  0.
         12    1    1    2    0    0 -0.30349859408E+02  0.74875972831E+01  0.32433554389E+02  0.45045682695E+02  0.00000000000E+00 0. -1.
         11    1    3    3    0    0  0.15052984422E+02 -0.57178011764E+01 -0.14263085274E+02  0.21510955165E+02  0.51100000000E-03 0. -1.
        -11    1    3    3    0    0  0.14327627656E+02 -0.17358111089E+01 -0.18623299829E+02  0.23561011252E+02  0.51100000000E-03 0.  1.
         12    1    3    3    0    0  0.96924733071E+00 -0.33984997872E-01  0.45283071435E+00  0.10703508883E+01  0.00000000000E+00 0. -1.
</event>
<event>
 7    1  0.1442665E-008  0.4614232E+02  0.7816164E-02  0.1320468E+00
        -11   -1    0    0    0    0  0.00000000000E+00  0.00000000000E+00  0.45593999997E+02  0.45594000000E+02  0.51100000000E-03 0.  1.
         11   -1    0    0    0    0 -0.00000000000E+00 -0.00000000000E+00 -0.45593999997E+02  0.45594000000E+02  0.51100000000E-03 0. -1.
    9900012    2    1    2    0    0 -0.26474431602E+02  0.49811745947E+01  0.36102712521E+02  0.46142317850E+02  0.10000000814E+02 0.  0.
         12    1    1    2    0    0  0.26474431602E+02 -0.49811745947E+01 -0.36102712521E+02  0.45045682150E+02  0.00000000000E+00 0. -1.
         11    1    3    3    0    0  0.60532579264E+00  0.25699495884E+00  0.53340054987E+00  0.84674797421E+00  0.51100000000E-03 0. -1.
        -11    1    3    3    0    0 -0.20266245378E+02  0.12734767434E+01  0.27503880099E+02  0.34187802876E+02  0.51100000000E-03 0.  1.
        -12    1    3    3    0    0 -0.68135120164E+01  0.34507028925E+01  0.80654318723E+01  0.11107767000E+02  0.00000000000E+00 0.  1.
</event>
<event>
 7    1  0.1442665E-008  0.4614232E+02  0.7816164E-02  0.1320468E+00
        -11   -1    0    0    0    0  0.00000000000E+00  0.00000000000E+00  0.45593999997E+02  0.45594000000E+02  0.51100000000E-03 0.  1.
         11   -1    0    0    0    0 -0.00000000000E+00 -0.00000000000E+00 -0.45593999997E+02  0.45594000000E+02  0.51100000000E-03 0. -1.
    9900012    2    1    2    0    0  0.10224047640E+02  0.10174188351E+02  0.42673975260E+02  0.46142318484E+02  0.10000006592E+02 0.  0.
         12    1    1    2    0    0 -0.10224047640E+02 -0.10174188351E+02 -0.42673975260E+02  0.45045681516E+02  0.00000000000E+00 0. -1.
         11    1    3    3    0    0  0.41218316326E+01 -0.12524105294E+01  0.11616905151E+02  0.12389935984E+02  0.51100000000E-03 0. -1.
        -11    1    3    3    0    0  0.44915397693E+01  0.88222825719E+01  0.26229263291E+02  0.28035350048E+02  0.51100000000E-03 0.  1.
         12    1    3    3    0    0  0.16106762386E+01  0.26043163089E+01  0.48278068180E+01  0.57170324517E+01  0.00000000000E+00 0. -1.
</event>
<event>
 7    1  0.1442665E-008  0.4614232E+02  0.7816164E-02  0.1320468E+00
        -11   -1    0    0    0    0  0.00000000000E+00  0.00000000000E+00  0.45593999997E+02  0.45594000000E+02  0.51100000000E-03 0. -1.
         11   -1    0    0    0    0 -0.00000000000E+00 -0.00000000000E+00 -0.45593999997E+02  0.45594000000E+02  0.51100000000E-03 0.  1.
    9900012    2    1    2    0    0  0.39844588140E+02  0.88317677879E+01 -0.19066257268E+02  0.46142317715E+02  0.99999995818E+01 0.  0.
         12    1    1    2    0    0 -0.39844588140E+02 -0.88317677879E+01  0.19066257268E+02  0.45045682285E+02  0.00000000000E+00 0. -1.
         11    1    3    3    0    0  0.17587963754E+01  0.12210777191E+01  0.44974115689E+00  0.21878443398E+01  0.51100000000E-03 0. -1.
        -11    1    3    3    0    0  0.32724828338E+02  0.55417778883E+01 -0.14111875729E+02  0.36066199256E+02  0.51100000000E-03 0.  1.
        -12    1    3    3    0    0  0.53609634262E+01  0.20689121805E+01 -0.54041226962E+01  0.78882741195E+01  0.00000000000E+00 0.  1.
</event>
<event>
 7    1  0.1442665E-008  0.4614232E+02  0.7816164E-02  0.1320468E+00
        -11   -1    0    0    0    0  0.00000000000E+00  0.00000000000E+00  0.45593999997E+02  0.45594000000E+02  0.51100000000E-03 0. -1.
         11   -1    0    0    0    0 -0.00000000000E+00 -0.00000000000E+00 -0.45593999997E+02  0.45594000000E+02  0.51100000000E-03 0.  1.
    9900012    2    1    2    0    0 -0.90294534646E+01 -0.22282924449E+02 -0.38092699196E+02  0.46142317810E+02  0.10000000450E+02 0.  0.
         12    1    1    2    0    0  0.90294534646E+01  0.22282924449E+02  0.38092699196E+02  0.45045682190E+02  0.00000000000E+00 0. -1.
         11    1    3    3    0    0 -0.55459858915E+01 -0.99758347134E+01 -0.17482994814E+02  0.20878945032E+02  0.51100000000E-03 0. -1.
        -11    1    3    3    0    0 -0.34241422074E+01 -0.12524055994E+02 -0.21071076681E+02  0.24750090932E+02  0.51100000000E-03 0.  1.
         12    1    3    3    0    0 -0.59325365670E-01  0.21696625799E+00  0.46137229833E+00  0.51328184635E+00  0.00000000000E+00 0. -1.
</event>
<event>
 7    1  0.1442665E-008  0.4614232E+02  0.7816164E-02  0.1320468E+00
        -11   -1    0    0    0    0  0.00000000000E+00  0.00000000000E+00  0.45593999997E+02  0.45594000000E+02  0.51100000000E-03 0.  1.
         11   -1    0    0    0    0 -0.00000000000E+00 -0.00000000000E+00 -0.45593999997E+02  0.45594000000E+02  0.51100000000E-03 0. -1.
    9900012    2    1    2    0    0  0.29343722431E+02 -0.15678374918E+02  0.30368536237E+02  0.46142317861E+02  0.10000000910E+02 0.  0.
         12    1    1    2    0    0 -0.29343722431E+02  0.15678374918E+02 -0.30368536237E+02  0.45045682139E+02  0.00000000000E+00 0. -1.
         11    1    3    3    0    0  0.10652125075E+02 -0.10184595456E+01  0.91028328359E+01  0.14048722161E+02  0.51100000000E-03 0. -1.
        -11    1    3    3    0    0  0.18097714427E+02 -0.14820139398E+02  0.20952362433E+02  0.31403268796E+02  0.51100000000E-03 0.  1.
        -12    1    3    3    0    0  0.59388292955E+00  0.16022402590E+00  0.31334096789E+00  0.69032690419E+00  0.00000000000E+00 0.  1.
</event>
<event>
 7    1  0.1442665E-008  0.4614233E+02  0.7816164E-02  0.1320468E+00
        -11   -1    0    0    0    0  0.00000000000E+00  0.00000000000E+00  0.45593999997E+02  0.45594000000E+02  0.51100000000E-03 0. -1.
         11   -1    0    0    0    0 -0.00000000000E+00 -0.00000000000E+00 -0.45593999997E+02  0.45594000000E+02  0.51100000000E-03 0.  1.
    9900012    2    1    2    0    0 -0.21260638766E+02  0.27552654528E+01 -0.39616998613E+02  0.46142325096E+02  0.10000066883E+02 0.  0.
         12    1    1    2    0    0  0.21260638766E+02 -0.27552654528E+01  0.39616998613E+02  0.45045674904E+02  0.00000000000E+00 0. -1.
         11    1    3    3    0    0 -0.63905603665E+01 -0.16824261450E+01 -0.10371723388E+02  0.12298067564E+02  0.51100000000E-03 0. -1.
        -11    1    3    3    0    0 -0.14909904973E+02  0.26220432625E+01 -0.27020392065E+02  0.30972277359E+02  0.51100000000E-03 0.  1.
        -12    1    3    3    0    0  0.39826573252E-01  0.18156483353E+01 -0.22248831605E+01  0.28719801725E+01  0.00000000000E+00 0.  1.
</event>
<event>
 7    1  0.1442665E-008  0.4614232E+02  0.7816164E-02  0.1320468E+00
        -11   -1    0    0    0    0  0.00000000000E+00  0.00000000000E+00  0.45593999997E+02  0.45594000000E+02  0.51100000000E-03 0.  1.
         11   -1    0    0    0    0 -0.00000000000E+00 -0.00000000000E+00 -0.45593999997E+02  0.45594000000E+02  0.51100000000E-03 0. -1.
    9900012    2    1    2    0    0 -0.25747697640E+00  0.11817594571E+02  0.43467132445E+02  0.46142318311E+02  0.10000005017E+02 0.  0.
         12    1    1    2    0    0  0.25747697640E+00 -0.11817594571E+02 -0.43467132445E+02  0.45045681689E+02  0.00000000000E+00 0. -1.
         11    1    3    3    0    0 -0.24800920935E+01  0.75100279525E+01  0.17762534809E+02  0.19443739860E+02  0.51100000000E-03 0. -1.
        -11    1    3    3    0    0  0.19198963125E+00  0.47217533805E+01  0.21471624305E+02  0.21985505806E+02  0.51100000000E-03 0.  1.
         12    1    3    3    0    0  0.20306254858E+01 -0.41418676237E+00  0.42329733310E+01  0.47130726452E+01  0.00000000000E+00 0. -1.
</event>
<event>
 7    1  0.1442665E-008  0.4614232E+02  0.7816164E-02  0.1320468E+00
        -11   -1    0    0    0    0  0.00000000000E+00  0.00000000000E+00  0.45593999997E+02  0.45594000000E+02  0.51100000000E-03 0.  1.
         11   -1    0    0    0    0 -0.00000000000E+00 -0.00000000000E+00 -0.45593999997E+02  0.45594000000E+02  0.51100000000E-03 0. -1.
    9900012    2    1    2    0    0  0.38053251869E+02 -0.19243270166E+02 -0.14517568302E+02  0.46142320808E+02  0.10000027783E+02 0.  0.
         12    1    1    2    0    0 -0.38053251869E+02  0.19243270166E+02  0.14517568302E+02  0.45045679192E+02  0.00000000000E+00 0. -1.
         11    1    3    3    0    0  0.12253189149E+02 -0.29927654573E+01 -0.32964603381E+01  0.13037021916E+02  0.51100000000E-03 0. -1.
        -11    1    3    3    0    0  0.63560635934E+01 -0.71450993492E+01 -0.21764951688E+01  0.98076052425E+01  0.51100000000E-03 0.  1.
        -12    1    3    3    0    0  0.19443999126E+02 -0.91054053595E+01 -0.90446127953E+01  0.23297693650E+02  0.00000000000E+00 0.  1.
</event>
<event>
 7    1  0.1442665E-008  0.4614232E+02  0.7816164E-02  0.1320468E+00
        -11   -1    0    0    0    0  0.00000000000E+00  0.00000000000E+00  0.45593999997E+02  0.45594000000E+02  0.51100000000E-03 0.  1.
         11   -1    0    0    0    0 -0.00000000000E+00 -0.00000000000E+00 -0.45593999997E+02  0.45594000000E+02  0.51100000000E-03 0. -1.
    9900012    2    1    2    0    0  0.12382329486E+02 -0.99826384530E+01  0.42144257162E+02  0.46142316902E+02  0.99999921693E+01 0.  0.
         12    1    1    2    0    0 -0.12382329486E+02  0.99826384530E+01 -0.42144257162E+02  0.45045683098E+02  0.00000000000E+00 0. -1.
         11    1    3    3    0    0 -0.10786924616E+01 -0.31201915001E+01  0.71326752521E+01  0.78596583219E+01  0.51100000000E-03 0. -1.
        -11    1    3    3    0    0  0.12393491370E+02 -0.51776709911E+01  0.29273979301E+02  0.32208271757E+02  0.51100000000E-03 0.  1.
        -12    1    3    3    0    0  0.10675305777E+01 -0.16847759619E+01  0.57376026095E+01  0.60743868234E+01  0.00000000000E+00 0.  1.
</event>
<event>
 7    1  0.1442665E-008  0.4614232E+02  0.7816164E-02  0.1320468E+00
        -11   -1    0    0    0    0  0.00000000000E+00  0.00000000000E+00  0.45593999997E+02  0.45594000000E+02  0.51100000000E-03 0.  1.
         11   -1    0    0    0    0 -0.00000000000E+00 -0.00000000000E+00 -0.45593999997E+02  0.45594000000E+02  0.51100000000E-03 0. -1.
    9900012    2    1    2    0    0  0.28380944943E+02  0.17136773713E+02  0.30495351829E+02  0.46142317273E+02  0.99999955514E+01 0.  0.
         12    1    1    2    0    0 -0.28380944943E+02 -0.17136773713E+02 -0.30495351829E+02  0.45045682727E+02  0.00000000000E+00 0. -1.
         11    1    3    3    0    0  0.11323093215E+02  0.10313531909E+02  0.17511805503E+02  0.23264666613E+02  0.51100000000E-03 0.  1.
        -11    1    3    3    0    0  0.22814166751E+01  0.12143149050E+01  0.27919635187E+00  0.25994948736E+01  0.51100000000E-03 0. -1.
        -12    1    3    3    0    0  0.14776435053E+02  0.56089268998E+01  0.12704349973E+02  0.20278155786E+02  0.00000000000E+00 0.  1.
</event>
<event>
 7    1  0.1442665E-008  0.4614232E+02  0.7816164E-02  0.1320468E+00
        -11   -1    0    0    0    0  0.00000000000E+00  0.00000000000E+00  0.45593999997E+02  0.45594000000E+02  0.51100000000E-03 0.  1.
         11   -1    0    0    0    0 -0.00000000000E+00 -0.00000000000E+00 -0.45593999997E+02  0.45594000000E+02  0.51100000000E-03 0. -1.
    9900012    2    1    2    0    0 -0.68200160171E+01  0.13355594723E+02  0.42476216166E+02  0.46142317980E+02  0.10000001993E+02 0.  0.
         12    1    1    2    0    0  0.68200160171E+01 -0.13355594723E+02 -0.42476216166E+02  0.45045682020E+02  0.00000000000E+00 0. -1.
         11    1    3    3    0    0  0.62194446925E+00 -0.90597606507E+00  0.52187106161E+01  0.53331555676E+01  0.51100000000E-03 0. -1.
        -11    1    3    3    0    0 -0.66378015829E+01  0.99149739226E+01  0.23444680535E+02  0.26306276121E+02  0.51100000000E-03 0.  1.
         12    1    3    3    0    0 -0.80415890342E+00  0.43465968650E+01  0.13812825016E+02  0.14502886291E+02  0.00000000000E+00 0. -1.
</event>
<event>
 7    1  0.1442665E-008  0.4614232E+02  0.7816164E-02  0.1320468E+00
        -11   -1    0    0    0    0  0.00000000000E+00  0.00000000000E+00  0.45593999997E+02  0.45594000000E+02  0.51100000000E-03 0.  1.
         11   -1    0    0    0    0 -0.00000000000E+00 -0.00000000000E+00 -0.45593999997E+02  0.45594000000E+02  0.51100000000E-03 0. -1.
    9900012    2    1    2    0    0  0.10815240266E+02 -0.34615872075E+02 -0.26718635951E+02  0.46142317315E+02  0.99999959322E+01 0.  0.
         12    1    1    2    0    0 -0.10815240266E+02  0.34615872075E+02  0.26718635951E+02  0.45045682685E+02  0.00000000000E+00 0. -1.
         11    1    3    3    0    0  0.25692831592E+01 -0.10100209867E+01 -0.14164968897E+01  0.31028731920E+01  0.51100000000E-03 0. -1.
        -11    1    3    3    0    0  0.78572483530E+01 -0.31470738304E+02 -0.24748023557E+02  0.40799612637E+02  0.51100000000E-03 0.  1.
        -12    1    3    3    0    0  0.38870875393E+00 -0.21351127838E+01 -0.55411550412E+00  0.22398314863E+01  0.00000000000E+00 0.  1.
</event>
<event>
 7    1  0.1442665E-008  0.4614232E+02  0.7816164E-02  0.1320468E+00
        -11   -1    0    0    0    0  0.00000000000E+00  0.00000000000E+00  0.45593999997E+02  0.45594000000E+02  0.51100000000E-03 0.  1.
         11   -1    0    0    0    0 -0.00000000000E+00 -0.00000000000E+00 -0.45593999997E+02  0.45594000000E+02  0.51100000000E-03 0. -1.
    9900012    2    1    2    0    0 -0.83167767145E+01  0.42916563289E+02  0.10867993848E+02  0.46142317968E+02  0.10000001883E+02 0.  0.
         12    1    1    2    0    0  0.83167767145E+01 -0.42916563289E+02 -0.10867993848E+02  0.45045682032E+02  0.00000000000E+00 0. -1.
         11    1    3    3    0    0 -0.17400712093E+01  0.77987392986E+01  0.40021948562E+01  0.89367637537E+01  0.51100000000E-03 0.  1.
        -11    1    3    3    0    0 -0.29357226318E+01  0.58599836910E+01  0.37669856744E+01  0.75596334278E+01  0.51100000000E-03 0. -1.
        -12    1    3    3    0    0 -0.36409828734E+01  0.29257840300E+02  0.30988133174E+01  0.29645920786E+02  0.00000000000E+00 0.  1.
</event>
<event>
 7    1  0.1442665E-008  0.4614232E+02  0.7816164E-02  0.1320468E+00
        -11   -1    0    0    0    0  0.00000000000E+00  0.00000000000E+00  0.45593999997E+02  0.45594000000E+02  0.51100000000E-03 0.  1.
         11   -1    0    0    0    0 -0.00000000000E+00 -0.00000000000E+00 -0.45593999997E+02  0.45594000000E+02  0.51100000000E-03 0. -1.
    9900012    2    1    2    0    0 -0.40555200177E+02  0.19495493167E+02  0.20772772378E+01  0.46142316567E+02  0.99999891116E+01 0.  0.
         12    1    1    2    0    0  0.40555200177E+02 -0.19495493167E+02 -0.20772772378E+01  0.45045683433E+02  0.00000000000E+00 0. -1.
         11    1    3    3    0    0 -0.96528776967E+01  0.23838335863E+01 -0.68186565531E+00  0.99662255357E+01  0.51100000000E-03 0. -1.
        -11    1    3    3    0    0 -0.15010145265E+02  0.64497669162E+01 -0.19909497758E+01  0.16458062931E+02  0.51100000000E-03 0.  1.
        -12    1    3    3    0    0 -0.15892177215E+02  0.10661892664E+02  0.47500926689E+01  0.19718028101E+02  0.00000000000E+00 0.  1.
</event>
<event>
 7    1  0.1442665E-008  0.4614233E+02  0.7816164E-02  0.1320468E+00
        -11   -1    0    0    0    0  0.00000000000E+00  0.00000000000E+00  0.45593999997E+02  0.45594000000E+02  0.51100000000E-03 0. -1.
         11   -1    0    0    0    0 -0.00000000000E+00 -0.00000000000E+00 -0.45593999997E+02  0.45594000000E+02  0.51100000000E-03 0.  1.
    9900012    2    1    2    0    0 -0.28799386006E+01 -0.44258805760E+02 -0.78725247629E+01  0.46142327846E+02  0.10000091961E+02 0.  0.
         12    1    1    2    0    0  0.28799386006E+01  0.44258805760E+02  0.78725247629E+01  0.45045672154E+02  0.00000000000E+00 0. -1.
         11    1    3    3    0    0  0.10115657780E+00  0.31992529603E+00  0.91350321111E-01  0.34774989657E+00  0.51100000000E-03 0. -1.
        -11    1    3    3    0    0 -0.26438063230E+01 -0.44596570367E+02 -0.81450501512E+01  0.45411294219E+02  0.51100000000E-03 0.  1.
        -12    1    3    3    0    0 -0.33728885542E+00  0.17839311215E-01  0.18117506718E+00  0.38328373039E+00  0.00000000000E+00 0.  1.
</event>
<event>
 7    1  0.1442665E-008  0.4614232E+02  0.7816164E-02  0.1320468E+00
        -11   -1    0    0    0    0  0.00000000000E+00  0.00000000000E+00  0.45593999997E+02  0.45594000000E+02  0.51100000000E-03 0.  1.
         11   -1    0    0    0    0 -0.00000000000E+00 -0.00000000000E+00 -0.45593999997E+02  0.45594000000E+02  0.51100000000E-03 0. -1.
    9900012    2    1    2    0    0  0.26116397025E+02  0.11338050058E+02  0.34906960196E+02  0.46142318266E+02  0.10000004607E+02 0.  0.
         12    1    1    2    0    0 -0.26116397025E+02 -0.11338050058E+02 -0.34906960196E+02  0.45045681734E+02  0.00000000000E+00 0. -1.
         11    1    3    3    0    0  0.94235653169E+00 -0.94405734822E+00  0.26906017599E+01  0.30031014304E+01  0.51100000000E-03 0. -1.
        -11    1    3    3    0    0  0.24880885575E+02  0.11673623666E+02  0.32352553255E+02  0.42450202107E+02  0.51100000000E-03 0.  1.
        -12    1    3    3    0    0  0.29315491800E+00  0.60848374040E+00 -0.13619481880E+00  0.68901472912E+00  0.00000000000E+00 0.  1.
</event>
<event>
 7    1  0.1442665E-008  0.4614232E+02  0.7816164E-02  0.1320468E+00
        -11   -1    0    0    0    0  0.00000000000E+00  0.00000000000E+00  0.45593999997E+02  0.45594000000E+02  0.51100000000E-03 0. -1.
         11   -1    0    0    0    0 -0.00000000000E+00 -0.00000000000E+00 -0.45593999997E+02  0.45594000000E+02  0.51100000000E-03 0.  1.
    9900012    2    1    2    0    0 -0.44331892361E+01  0.36154040801E+02 -0.26501805099E+02  0.46142317559E+02  0.99999981609E+01 0.  0.
         12    1    1    2    0    0  0.44331892361E+01 -0.36154040801E+02  0.26501805099E+02  0.45045682441E+02  0.00000000000E+00 0. -1.
         11    1    3    3    0    0 -0.22142636700E+01  0.18257171725E+02 -0.19034405787E+02  0.26467638485E+02  0.51100000000E-03 0. -1.
        -11    1    3    3    0    0 -0.24477307537E+01  0.10784707278E+02 -0.40120009605E+01  0.11764244509E+02  0.51100000000E-03 0.  1.
        -12    1    3    3    0    0  0.22880518765E+00  0.71121617974E+01 -0.34553983516E+01  0.79104345654E+01  0.00000000000E+00 0.  1.
</event>
<event>
 7    1  0.1442665E-008  0.4614232E+02  0.7816164E-02  0.1320468E+00
        -11   -1    0    0    0    0  0.00000000000E+00  0.00000000000E+00  0.45593999997E+02  0.45594000000E+02  0.51100000000E-03 0. -1.
         11   -1    0    0    0    0 -0.00000000000E+00 -0.00000000000E+00 -0.45593999997E+02  0.45594000000E+02  0.51100000000E-03 0.  1.
    9900012    2    1    2    0    0  0.26360255194E+02  0.11399040550E+02 -0.34703203079E+02  0.46142317817E+02  0.10000000511E+02 0.  0.
         12    1    1    2    0    0 -0.26360255194E+02 -0.11399040550E+02  0.34703203079E+02  0.45045682183E+02  0.00000000000E+00 0. -1.
         11    1    3    3    0    0  0.10367866705E+02  0.30370923300E+01 -0.14870198360E+02  0.18380407758E+02  0.51100000000E-03 0.  1.
        -11    1    3    3    0    0  0.12275336589E+02  0.25660522840E+01 -0.12767283676E+02  0.17896146105E+02  0.51100000000E-03 0. -1.
         12    1    3    3    0    0  0.37170519010E+01  0.57958959361E+01 -0.70657210424E+01  0.98657639535E+01  0.00000000000E+00 0. -1.
</event>
<event>
 7    1  0.1442665E-008  0.4614232E+02  0.7816164E-02  0.1320468E+00
        -11   -1    0    0    0    0  0.00000000000E+00  0.00000000000E+00  0.45593999997E+02  0.45594000000E+02  0.51100000000E-03 0.  1.
         11   -1    0    0    0    0 -0.00000000000E+00 -0.00000000000E+00 -0.45593999997E+02  0.45594000000E+02  0.51100000000E-03 0. -1.
    9900012    2    1    2    0    0 -0.14782421038E+01 -0.58242866213E+01  0.44643094954E+02  0.46142318282E+02  0.10000004748E+02 0.  0.
         12    1    1    2    0    0  0.14782421038E+01  0.58242866213E+01 -0.44643094954E+02  0.45045681718E+02  0.00000000000E+00 0. -1.
         11    1    3    3    0    0 -0.35770749180E+00 -0.34060401179E+01  0.41151108732E+01  0.53538025453E+01  0.51100000000E-03 0. -1.
        -11    1    3    3    0    0 -0.24608061486E+01 -0.18977142669E+01  0.30515930320E+02  0.30673749199E+02  0.51100000000E-03 0.  1.
        -12    1    3    3    0    0  0.13402715366E+01 -0.52053223650E+00  0.10012053761E+02  0.10114766538E+02  0.00000000000E+00 0.  1.
</event>
<event>
 7    1  0.1442665E-008  0.4614232E+02  0.7816164E-02  0.1320468E+00
        -11   -1    0    0    0    0  0.00000000000E+00  0.00000000000E+00  0.45593999997E+02  0.45594000000E+02  0.51100000000E-03 0.  1.
         11   -1    0    0    0    0 -0.00000000000E+00 -0.00000000000E+00 -0.45593999997E+02  0.45594000000E+02  0.51100000000E-03 0. -1.
    9900012    2    1    2    0    0  0.40330002845E+02 -0.57231553489E+01  0.19231483959E+02  0.46142316390E+02  0.99999874970E+01 0.  0.
         12    1    1    2    0    0 -0.40330002845E+02  0.57231553489E+01 -0.19231483959E+02  0.45045683610E+02  0.00000000000E+00 0. -1.
         11    1    3    3    0    0  0.20583314635E+02 -0.10801130908E+01  0.74268520818E+01  0.21908847933E+02  0.51100000000E-03 0. -1.
        -11    1    3    3    0    0  0.46468497524E+01 -0.23432027604E+01  0.49410032980E+00  0.52276139102E+01  0.51100000000E-03 0.  1.
        -12    1    3    3    0    0  0.15099838457E+02 -0.22998394977E+01  0.11310531547E+02  0.19005854546E+02  0.00000000000E+00 0.  1.
</event>
<event>
 7    1  0.1442665E-008  0.4614232E+02  0.7816164E-02  0.1320468E+00
        -11   -1    0    0    0    0  0.00000000000E+00  0.00000000000E+00  0.45593999997E+02  0.45594000000E+02  0.51100000000E-03 0. -1.
         11   -1    0    0    0    0 -0.00000000000E+00 -0.00000000000E+00 -0.45593999997E+02  0.45594000000E+02  0.51100000000E-03 0.  1.
    9900012    2    1    2    0    0 -0.11582332820E+02 -0.42629939807E+02 -0.88119878425E+01  0.46142319505E+02  0.10000015906E+02 0.  0.
         12    1    1    2    0    0  0.11582332820E+02  0.42629939807E+02  0.88119878425E+01  0.45045680495E+02  0.00000000000E+00 0. -1.
         11    1    3    3    0    0 -0.53142566210E+01 -0.15282889870E+02 -0.32370539167E+00  0.16183721193E+02  0.51100000000E-03 0. -1.
        -11    1    3    3    0    0 -0.44239854335E+00 -0.54032138099E+01 -0.41890105856E+01  0.68511492389E+01  0.51100000000E-03 0.  1.
        -12    1    3    3    0    0 -0.58256776559E+01 -0.21943836127E+02 -0.42992718653E+01  0.23107449074E+02  0.00000000000E+00 0.  1.
</event>
<event>
 7    1  0.1442665E-008  0.4614232E+02  0.7816164E-02  0.1320468E+00
        -11   -1    0    0    0    0  0.00000000000E+00  0.00000000000E+00  0.45593999997E+02  0.45594000000E+02  0.51100000000E-03 0.  1.
         11   -1    0    0    0    0 -0.00000000000E+00 -0.00000000000E+00 -0.45593999997E+02  0.45594000000E+02  0.51100000000E-03 0. -1.
    9900012    2    1    2    0    0 -0.39371028514E+02  0.19848361193E+02  0.92237880451E+01  0.46142316586E+02  0.99999892883E+01 0.  0.
         12    1    1    2    0    0  0.39371028514E+02 -0.19848361193E+02 -0.92237880451E+01  0.45045683414E+02  0.00000000000E+00 0. -1.
         11    1    3    3    0    0 -0.13082535110E+02  0.54950745095E+01  0.47499120986E+01  0.14963630374E+02  0.51100000000E-03 0.  1.
        -11    1    3    3    0    0 -0.13434477491E+02  0.96044737801E+01  0.55778690163E+01  0.17431113707E+02  0.51100000000E-03 0. -1.
         12    1    3    3    0    0 -0.12854015914E+02  0.47488129036E+01 -0.11039930698E+01  0.13747572506E+02  0.00000000000E+00 0. -1.
</event>
<event>
 7    1  0.1442665E-008  0.4614232E+02  0.7816164E-02  0.1320468E+00
        -11   -1    0    0    0    0  0.00000000000E+00  0.00000000000E+00  0.45593999997E+02  0.45594000000E+02  0.51100000000E-03 0.  1.
         11   -1    0    0    0    0 -0.00000000000E+00 -0.00000000000E+00 -0.45593999997E+02  0.45594000000E+02  0.51100000000E-03 0. -1.
    9900012    2    1    2    0    0 -0.14948695229E+02 -0.15832622985E+02  0.39433208014E+02  0.46142319476E+02  0.10000015640E+02 0.  0.
         12    1    1    2    0    0  0.14948695229E+02  0.15832622985E+02 -0.39433208014E+02  0.45045680524E+02  0.00000000000E+00 0. -1.
         11    1    3    3    0    0 -0.18458105945E+01 -0.64535016261E+01  0.14218702524E+02  0.15723428434E+02  0.51100000000E-03 0. -1.
        -11    1    3    3    0    0 -0.95072996890E+01 -0.39233463915E+01  0.13104746241E+02  0.16658804536E+02  0.51100000000E-03 0.  1.
         12    1    3    3    0    0 -0.35955849450E+01 -0.54557749670E+01  0.12109759249E+02  0.13760086506E+02  0.00000000000E+00 0. -1.
</event>
<event>
 7    1  0.1442665E-008  0.4614232E+02  0.7816164E-02  0.1320468E+00
        -11   -1    0    0    0    0  0.00000000000E+00  0.00000000000E+00  0.45593999997E+02  0.45594000000E+02  0.51100000000E-03 0. -1.
         11   -1    0    0    0    0 -0.00000000000E+00 -0.00000000000E+00 -0.45593999997E+02  0.45594000000E+02  0.51100000000E-03 0.  1.
    9900012    2    1    2    0    0  0.41056341773E+02  0.10886113010E+02 -0.14999428326E+02  0.46142317562E+02  0.99999981801E+01 0.  0.
         12    1    1    2    0    0 -0.41056341773E+02 -0.10886113010E+02  0.14999428326E+02  0.45045682438E+02  0.00000000000E+00 0. -1.
         11    1    3    3    0    0  0.94412260032E+01  0.52808004011E+01 -0.29391268113E+01  0.11209909366E+02  0.51100000000E-03 0. -1.
        -11    1    3    3    0    0  0.26521999295E+02  0.48290385878E+01 -0.12590496655E+02  0.29753263125E+02  0.51100000000E-03 0.  1.
        -12    1    3    3    0    0  0.50931164744E+01  0.77627402059E+00  0.53019513970E+00  0.51791450707E+01  0.00000000000E+00 0.  1.
</event>
<event>
 7    1  0.1442665E-008  0.4614232E+02  0.7816164E-02  0.1320468E+00
        -11   -1    0    0    0    0  0.00000000000E+00  0.00000000000E+00  0.45593999997E+02  0.45594000000E+02  0.51100000000E-03 0.  1.
         11   -1    0    0    0    0 -0.00000000000E+00 -0.00000000000E+00 -0.45593999997E+02  0.45594000000E+02  0.51100000000E-03 0. -1.
    9900012    2    1    2    0    0 -0.33354846381E+02 -0.17551502403E+02  0.24668044876E+02  0.46142318168E+02  0.10000003708E+02 0.  0.
         12    1    1    2    0    0  0.33354846381E+02  0.17551502403E+02 -0.24668044876E+02  0.45045681832E+02  0.00000000000E+00 0. -1.
         11    1    3    3    0    0 -0.14353064603E+01 -0.20122702068E+01  0.89770811324E+00  0.26296798546E+01  0.51100000000E-03 0. -1.
        -11    1    3    3    0    0 -0.18859664768E+02 -0.13538430376E+02  0.15803689033E+02  0.28084384265E+02  0.51100000000E-03 0.  1.
        -12    1    3    3    0    0 -0.13059875153E+02 -0.20008018204E+01  0.79666477301E+01  0.15428254048E+02  0.00000000000E+00 0.  1.
</event>
<event>
 7    1  0.1442665E-008  0.4614232E+02  0.7816164E-02  0.1320468E+00
        -11   -1    0    0    0    0  0.00000000000E+00  0.00000000000E+00  0.45593999997E+02  0.45594000000E+02  0.51100000000E-03 0.  1.
         11   -1    0    0    0    0 -0.00000000000E+00 -0.00000000000E+00 -0.45593999997E+02  0.45594000000E+02  0.51100000000E-03 0. -1.
    9900012    2    1    2    0    0 -0.42962551165E+02  0.96050958733E-01  0.13539699466E+02  0.46142317743E+02  0.99999998365E+01 0.  0.
         12    1    1    2    0    0  0.42962551165E+02 -0.96050958733E-01 -0.13539699466E+02  0.45045682257E+02  0.00000000000E+00 0. -1.
         11    1    3    3    0    0 -0.32375477653E+02 -0.54244464315E+00  0.12739972524E+02  0.34796159266E+02  0.51100000000E-03 0. -1.
        -11    1    3    3    0    0 -0.70359186073E+01  0.13797882731E+01  0.21341489655E+01  0.74808126828E+01  0.51100000000E-03 0.  1.
         12    1    3    3    0    0 -0.35511549040E+01 -0.74129267119E+00 -0.13344220235E+01  0.38653457948E+01  0.00000000000E+00 0. -1.
</event>
<event>
 7    1  0.1442665E-008  0.4614232E+02  0.7816164E-02  0.1320468E+00
        -11   -1    0    0    0    0  0.00000000000E+00  0.00000000000E+00  0.45593999997E+02  0.45594000000E+02  0.51100000000E-03 0.  1.
         11   -1    0    0    0    0 -0.00000000000E+00 -0.00000000000E+00 -0.45593999997E+02  0.45594000000E+02  0.51100000000E-03 0. -1.
    9900012    2    1    2    0    0 -0.10267420311E+02  0.22584989563E+02  0.37598029368E+02  0.46142317790E+02  0.10000000266E+02 0.  0.
         12    1    1    2    0    0  0.10267420311E+02 -0.22584989563E+02 -0.37598029368E+02  0.45045682210E+02  0.00000000000E+00 0. -1.
         11    1    3    3    0    0 -0.15177021816E+01  0.75030290209E+01  0.13539906645E+02  0.15554032808E+02  0.51100000000E-03 0.  1.
        -11    1    3    3    0    0 -0.36336598057E+01  0.42126619977E+01  0.29399031816E+01  0.62922997123E+01  0.51100000000E-03 0. -1.
         12    1    3    3    0    0 -0.51160583236E+01  0.10869298544E+02  0.21118219542E+02  0.24295985270E+02  0.00000000000E+00 0. -1.
</event>
<event>
 7    1  0.1442665E-008  0.4614232E+02  0.7816164E-02  0.1320468E+00
        -11   -1    0    0    0    0  0.00000000000E+00  0.00000000000E+00  0.45593999997E+02  0.45594000000E+02  0.51100000000E-03 0.  1.
         11   -1    0    0    0    0 -0.00000000000E+00 -0.00000000000E+00 -0.45593999997E+02  0.45594000000E+02  0.51100000000E-03 0. -1.
    9900012    2    1    2    0    0  0.37972566688E+02 -0.24096588193E+01  0.24112056984E+02  0.46142316872E+02  0.99999918897E+01 0.  0.
         12    1    1    2    0    0 -0.37972566688E+02  0.24096588193E+01 -0.24112056984E+02  0.45045683128E+02  0.00000000000E+00 0. -1.
         11    1    3    3    0    0  0.64173337984E+01 -0.48946557125E+00  0.75336112484E+01  0.99084331924E+01  0.51100000000E-03 0. -1.
        -11    1    3    3    0    0  0.14921862114E+02  0.21359644351E+01  0.84610939150E+01  0.17286249551E+02  0.51100000000E-03 0.  1.
         12    1    3    3    0    0  0.16633370775E+02 -0.40561576831E+01  0.81173518210E+01  0.18947634129E+02  0.00000000000E+00 0. -1.
</event>
<event>
 7    1  0.1442665E-008  0.4614232E+02  0.7816164E-02  0.1320468E+00
        -11   -1    0    0    0    0  0.00000000000E+00  0.00000000000E+00  0.45593999997E+02  0.45594000000E+02  0.51100000000E-03 0. -1.
         11   -1    0    0    0    0 -0.00000000000E+00 -0.00000000000E+00 -0.45593999997E+02  0.45594000000E+02  0.51100000000E-03 0.  1.
    9900012    2    1    2    0    0 -0.32723678690E+02  0.26573004348E+02 -0.15879224039E+02  0.46142318041E+02  0.10000002550E+02 0.  0.
         12    1    1    2    0    0  0.32723678690E+02 -0.26573004348E+02  0.15879224039E+02  0.45045681959E+02  0.00000000000E+00 0. -1.
         11    1    3    3    0    0 -0.16305283429E+02  0.81480592094E+01 -0.51630091450E+01  0.18944914892E+02  0.51100000000E-03 0. -1.
        -11    1    3    3    0    0 -0.15188285713E+02  0.18165451484E+02 -0.97302847159E+01  0.25599728347E+02  0.51100000000E-03 0.  1.
         12    1    3    3    0    0 -0.12301095487E+01  0.25949365516E+00 -0.98593017765E+00  0.15976748023E+01  0.00000000000E+00 0. -1.
</event>
<event>
 7    1  0.1442665E-008  0.4614232E+02  0.7816164E-02  0.1320468E+00
        -11   -1    0    0    0    0  0.00000000000E+00  0.00000000000E+00  0.45593999997E+02  0.45594000000E+02  0.51100000000E-03 0.  1.
         11   -1    0    0    0    0 -0.00000000000E+00 -0.00000000000E+00 -0.45593999997E+02  0.45594000000E+02  0.51100000000E-03 0. -1.
    9900012    2    1    2    0    0  0.15941345088E+02  0.41313908688E+02 -0.82551830426E+01  0.46142316729E+02  0.99999905868E+01 0.  0.
         12    1    1    2    0    0 -0.15941345088E+02 -0.41313908688E+02  0.82551830426E+01  0.45045683271E+02  0.00000000000E+00 0. -1.
         11    1    3    3    0    0  0.83472285746E+01  0.11858054059E+02 -0.62725029431E+00  0.14514927287E+02  0.51100000000E-03 0. -1.
        -11    1    3    3    0    0  0.53648534885E+01  0.26226378139E+02 -0.66807479113E+01  0.27590522941E+02  0.51100000000E-03 0.  1.
         12    1    3    3    0    0  0.22292630246E+01  0.32294764905E+01 -0.94718483707E+00  0.40368665015E+01  0.00000000000E+00 0. -1.
</event>
<event>
 7    1  0.1442665E-008  0.4614232E+02  0.7816164E-02  0.1320468E+00
        -11   -1    0    0    0    0  0.00000000000E+00  0.00000000000E+00  0.45593999997E+02  0.45594000000E+02  0.51100000000E-03 0. -1.
         11   -1    0    0    0    0 -0.00000000000E+00 -0.00000000000E+00 -0.45593999997E+02  0.45594000000E+02  0.51100000000E-03 0.  1.
    9900012    2    1    2    0    0 -0.34998953572E+02 -0.28050658135E+02  0.41650136853E+01  0.46142317499E+02  0.99999976141E+01 0.  0.
         12    1    1    2    0    0  0.34998953572E+02  0.28050658135E+02 -0.41650136853E+01  0.45045682501E+02  0.00000000000E+00 0. -1.
         11    1    3    3    0    0 -0.35875472274E+01 -0.14626677209E+01  0.30762590045E+01  0.49470457543E+01  0.51100000000E-03 0. -1.
        -11    1    3    3    0    0 -0.25954726246E+02 -0.22369707903E+02  0.13783241696E+01  0.34292148139E+02  0.51100000000E-03 0.  1.
         12    1    3    3    0    0 -0.54566800983E+01 -0.42182825112E+01 -0.28956948885E+00  0.69031236067E+01  0.00000000000E+00 0. -1.
</event>
<event>
 7    1  0.1442665E-008  0.4614232E+02  0.7816164E-02  0.1320468E+00
        -11   -1    0    0    0    0  0.00000000000E+00  0.00000000000E+00  0.45593999997E+02  0.45594000000E+02  0.51100000000E-03 0.  1.
         11   -1    0    0    0    0 -0.00000000000E+00 -0.00000000000E+00 -0.45593999997E+02  0.45594000000E+02  0.51100000000E-03 0. -1.
    9900012    2    1    2    0    0 -0.29924634113E+02  0.35697777608E+01  0.33479637516E+02  0.46142321314E+02  0.10000032398E+02 0.  0.
         12    1    1    2    0    0  0.29924634113E+02 -0.35697777608E+01 -0.33479637516E+02  0.45045678686E+02  0.00000000000E+00 0. -1.
         11    1    3    3    0    0 -0.12748198454E+02  0.40535692244E+01  0.15484088465E+02  0.20462281963E+02  0.51100000000E-03 0. -1.
        -11    1    3    3    0    0 -0.16588071269E+02  0.10576620523E+01  0.15794245967E+02  0.22929041920E+02  0.51100000000E-03 0.  1.
         12    1    3    3    0    0 -0.58836439051E+00 -0.15414535159E+01  0.22013030845E+01  0.27509974314E+01  0.00000000000E+00 0. -1.
</event>
<event>
 7    1  0.1442665E-008  0.4614232E+02  0.7816164E-02  0.1320468E+00
        -11   -1    0    0    0    0  0.00000000000E+00  0.00000000000E+00  0.45593999997E+02  0.45594000000E+02  0.51100000000E-03 0.  1.
         11   -1    0    0    0    0 -0.00000000000E+00 -0.00000000000E+00 -0.45593999997E+02  0.45594000000E+02  0.51100000000E-03 0. -1.
    9900012    2    1    2    0    0  0.33567993276E+02 -0.29852563810E+02  0.33358462921E+01  0.46142316421E+02  0.99999877807E+01 0.  0.
         12    1    1    2    0    0 -0.33567993276E+02  0.29852563810E+02 -0.33358462921E+01  0.45045683579E+02  0.00000000000E+00 0. -1.
         11    1    3    3    0    0  0.25375352418E+02 -0.21859039066E+02  0.13448932129E+01  0.33519171190E+02  0.51100000000E-03 0. -1.
        -11    1    3    3    0    0  0.79342733077E+01 -0.84625320502E+01  0.11920525591E+01  0.11661394907E+02  0.51100000000E-03 0.  1.
         12    1    3    3    0    0  0.25836755000E+00  0.46900730625E+00  0.79890052013E+00  0.96175032377E+00  0.00000000000E+00 0. -1.
</event>
<event>
 7    1  0.1442665E-008  0.4614232E+02  0.7816164E-02  0.1320468E+00
        -11   -1    0    0    0    0  0.00000000000E+00  0.00000000000E+00  0.45593999997E+02  0.45594000000E+02  0.51100000000E-03 0.  1.
         11   -1    0    0    0    0 -0.00000000000E+00 -0.00000000000E+00 -0.45593999997E+02  0.45594000000E+02  0.51100000000E-03 0. -1.
    9900012    2    1    2    0    0 -0.13925394592E+01 -0.16947551448E+02  0.41712764977E+02  0.46142318429E+02  0.10000006089E+02 0.  0.
         12    1    1    2    0    0  0.13925394592E+01  0.16947551448E+02 -0.41712764977E+02  0.45045681571E+02  0.00000000000E+00 0. -1.
         11    1    3    3    0    0 -0.94704520698E-01  0.65745671130E+00  0.13317687727E+01  0.14882293501E+01  0.51100000000E-03 0. -1.
        -11    1    3    3    0    0  0.38332370315E+00 -0.11084383218E+02  0.16802921925E+02  0.20133272805E+02  0.51100000000E-03 0.  1.
        -12    1    3    3    0    0 -0.16811586417E+01 -0.65206249408E+01  0.23578074279E+02  0.24520816273E+02  0.00000000000E+00 0.  1.
</event>
<event>
 7    1  0.1442665E-008  0.4614232E+02  0.7816164E-02  0.1320468E+00
        -11   -1    0    0    0    0  0.00000000000E+00  0.00000000000E+00  0.45593999997E+02  0.45594000000E+02  0.51100000000E-03 0.  1.
         11   -1    0    0    0    0 -0.00000000000E+00 -0.00000000000E+00 -0.45593999997E+02  0.45594000000E+02  0.51100000000E-03 0. -1.
    9900012    2    1    2    0    0  0.19351289727E+02  0.30271990685E+02  0.27170713343E+02  0.46142317657E+02  0.99999990527E+01 0.  0.
         12    1    1    2    0    0 -0.19351289727E+02 -0.30271990685E+02 -0.27170713343E+02  0.45045682343E+02  0.00000000000E+00 0. -1.
         11    1    3    3    0    0  0.10987264613E+02  0.14423958721E+02  0.99652691937E+01  0.20690025598E+02  0.51100000000E-03 0. -1.
        -11    1    3    3    0    0  0.28805818410E+01  0.89811710417E+01  0.58689629717E+01  0.11108731325E+02  0.51100000000E-03 0.  1.
         12    1    3    3    0    0  0.54834432730E+01  0.68668609221E+01  0.11336481178E+02  0.14343560735E+02  0.00000000000E+00 0. -1.
</event>
<event>
 7    1  0.2005762E-008  0.4614232E+02  0.7816164E-02  0.1320468E+00
        -11   -1    0    0    0    0  0.00000000000E+00  0.00000000000E+00  0.45593999997E+02  0.45594000000E+02  0.51100000000E-03 0. -1.
         11   -1    0    0    0    0 -0.00000000000E+00 -0.00000000000E+00 -0.45593999997E+02  0.45594000000E+02  0.51100000000E-03 0.  1.
    9900012    2    1    2    0    0  0.43440266647E+02  0.23461050807E+01 -0.11685572565E+02  0.46142316726E+02  0.99999905640E+01 0.  0.
         12    1    1    2    0    0 -0.43440266647E+02 -0.23461050807E+01  0.11685572565E+02  0.45045683274E+02  0.00000000000E+00 0. -1.
         11    1    3    3    0    0  0.27709807568E+01  0.25947810371E+01 -0.50294135038E+00  0.38293828809E+01  0.51100000000E-03 0. -1.
        -11    1    3    3    0    0  0.27615575148E+02  0.13144160492E+01 -0.81079001686E+01  0.28811208335E+02  0.51100000000E-03 0.  1.
         12    1    3    3    0    0  0.13053710742E+02 -0.15630920055E+01 -0.30747310458E+01  0.13501725510E+02  0.00000000000E+00 0. -1.
</event>
<event>
 7    1  0.1442665E-008  0.4614232E+02  0.7816164E-02  0.1320468E+00
        -11   -1    0    0    0    0  0.00000000000E+00  0.00000000000E+00  0.45593999997E+02  0.45594000000E+02  0.51100000000E-03 0.  1.
         11   -1    0    0    0    0 -0.00000000000E+00 -0.00000000000E+00 -0.45593999997E+02  0.45594000000E+02  0.51100000000E-03 0. -1.
    9900012    2    1    2    0    0  0.36629858877E+02  0.23446514307E+02  0.11731492882E+02  0.46142317413E+02  0.99999968244E+01 0.  0.
         12    1    1    2    0    0 -0.36629858877E+02 -0.23446514307E+02 -0.11731492882E+02  0.45045682587E+02  0.00000000000E+00 0. -1.
         11    1    3    3    0    0  0.74396396047E+00 -0.61566633321E+00 -0.62382742453E+00  0.11496470437E+01  0.51100000000E-03 0. -1.
        -11    1    3    3    0    0  0.34196878484E+02  0.22336329060E+02  0.11784121743E+02  0.42511217572E+02  0.51100000000E-03 0.  1.
        -12    1    3    3    0    0  0.16890164329E+01  0.17258515804E+01  0.57119856338E+00  0.24814527976E+01  0.00000000000E+00 0.  1.
</event>
<event>
 7    1  0.1442665E-008  0.4614232E+02  0.7816164E-02  0.1320468E+00
        -11   -1    0    0    0    0  0.00000000000E+00  0.00000000000E+00  0.45593999997E+02  0.45594000000E+02  0.51100000000E-03 0. -1.
         11   -1    0    0    0    0 -0.00000000000E+00 -0.00000000000E+00 -0.45593999997E+02  0.45594000000E+02  0.51100000000E-03 0.  1.
    9900012    2    1    2    0    0  0.24143490318E+02  0.37144970709E+02  0.81520857522E+01  0.46142317900E+02  0.10000001271E+02 0.  0.
         12    1    1    2    0    0 -0.24143490318E+02 -0.37144970709E+02 -0.81520857522E+01  0.45045682100E+02  0.00000000000E+00 0. -1.
         11    1    3    3    0    0  0.30705286442E+01  0.12325838218E+02  0.86296559555E+00  0.12731816202E+02  0.51100000000E-03 0. -1.
        -11    1    3    3    0    0  0.10010528835E+02  0.10750451289E+02  0.38545322630E+01  0.15186846602E+02  0.51100000000E-03 0.  1.
         12    1    3    3    0    0  0.11062432838E+02  0.14068681202E+02  0.34345878937E+01  0.18223655096E+02  0.00000000000E+00 0. -1.
</event>
<event>
 7    1  0.1442665E-008  0.4614232E+02  0.7816164E-02  0.1320468E+00
        -11   -1    0    0    0    0  0.00000000000E+00  0.00000000000E+00  0.45593999997E+02  0.45594000000E+02  0.51100000000E-03 0.  1.
         11   -1    0    0    0    0 -0.00000000000E+00 -0.00000000000E+00 -0.45593999997E+02  0.45594000000E+02  0.51100000000E-03 0. -1.
    9900012    2    1    2    0    0 -0.35423081823E+02  0.12716713648E+02  0.24750838941E+02  0.46142316964E+02  0.99999927310E+01 0.  0.
         12    1    1    2    0    0  0.35423081823E+02 -0.12716713648E+02 -0.24750838941E+02  0.45045683036E+02  0.00000000000E+00 0. -1.
         11    1    3    3    0    0  0.59717786674E+00  0.14435736483E+00  0.58950123489E-01  0.61719999311E+00  0.51100000000E-03 0. -1.
        -11    1    3    3    0    0 -0.27680451371E+02  0.98923544646E+01  0.20321725473E+02  0.35735676731E+02  0.51100000000E-03 0.  1.
        -12    1    3    3    0    0 -0.83398083196E+01  0.26800018185E+01  0.43701633448E+01  0.97894402401E+01  0.00000000000E+00 0.  1.
</event>
<event>
 7    1  0.1442665E-008  0.4614232E+02  0.7816164E-02  0.1320468E+00
        -11   -1    0    0    0    0  0.00000000000E+00  0.00000000000E+00  0.45593999997E+02  0.45594000000E+02  0.51100000000E-03 0.  1.
         11   -1    0    0    0    0 -0.00000000000E+00 -0.00000000000E+00 -0.45593999997E+02  0.45594000000E+02  0.51100000000E-03 0. -1.
    9900012    2    1    2    0    0  0.21288537657E+02  0.34922943639E+01  0.39543843220E+02  0.46142317719E+02  0.99999996204E+01 0.  0.
         12    1    1    2    0    0 -0.21288537657E+02 -0.34922943639E+01 -0.39543843220E+02  0.45045682281E+02  0.00000000000E+00 0. -1.
         11    1    3    3    0    0  0.34559647647E+01 -0.21013462485E+01  0.48971624282E+01  0.63514997143E+01  0.51100000000E-03 0. -1.
        -11    1    3    3    0    0  0.85874265378E+01  0.36479231800E+01  0.22820962301E+02  0.24654564662E+02  0.51100000000E-03 0.  1.
         12    1    3    3    0    0  0.92451463543E+01  0.19457174325E+01  0.11825718491E+02  0.15136253343E+02  0.00000000000E+00 0. -1.
</event>
<event>
 7    1  0.1442665E-008  0.4614232E+02  0.7816164E-02  0.1320468E+00
        -11   -1    0    0    0    0  0.00000000000E+00  0.00000000000E+00  0.45593999997E+02  0.45594000000E+02  0.51100000000E-03 0.  1.
         11   -1    0    0    0    0 -0.00000000000E+00 -0.00000000000E+00 -0.45593999997E+02  0.45594000000E+02  0.51100000000E-03 0. -1.
    9900012    2    1    2    0    0 -0.26000259150E+02 -0.25535562935E+01  0.36695766146E+02  0.46142318979E+02  0.10000011108E+02 0.  0.
         12    1    1    2    0    0  0.26000259150E+02  0.25535562935E+01 -0.36695766146E+02  0.45045681021E+02  0.00000000000E+00 0. -1.
         11    1    3    3    0    0 -0.13302896604E+01 -0.64858499150E+00  0.49538892124E+01  0.51702370992E+01  0.51100000000E-03 0. -1.
        -11    1    3    3    0    0 -0.58664721721E+01 -0.18794894362E+01  0.36267028475E+01  0.71484928545E+01  0.51100000000E-03 0.  1.
        -12    1    3    3    0    0 -0.18803497317E+02 -0.25481865834E-01  0.28115174086E+02  0.33823589025E+02  0.00000000000E+00 0.  1.
</event>
<event>
 7    1  0.1442665E-008  0.4614232E+02  0.7816164E-02  0.1320468E+00
        -11   -1    0    0    0    0  0.00000000000E+00  0.00000000000E+00  0.45593999997E+02  0.45594000000E+02  0.51100000000E-03 0.  1.
         11   -1    0    0    0    0 -0.00000000000E+00 -0.00000000000E+00 -0.45593999997E+02  0.45594000000E+02  0.51100000000E-03 0. -1.
    9900012    2    1    2    0    0 -0.21810152181E+02 -0.29583160999E+02  0.26043559611E+02  0.46142321517E+02  0.10000034245E+02 0.  0.
         12    1    1    2    0    0  0.21810152181E+02  0.29583160999E+02 -0.26043559611E+02  0.45045678483E+02  0.00000000000E+00 0. -1.
         11    1    3    3    0    0  0.46185311701E+00 -0.28942131713E+01  0.34716939883E+01  0.45433949412E+01  0.51100000000E-03 0. -1.
        -11    1    3    3    0    0 -0.14813567359E+02 -0.18072460277E+02  0.17105830510E+02  0.28959714019E+02  0.51100000000E-03 0.  1.
         12    1    3    3    0    0 -0.74584379389E+01 -0.86164875502E+01  0.54660351128E+01  0.12639212556E+02  0.00000000000E+00 0. -1.
</event>
<event>
 7    1  0.1442665E-008  0.4614232E+02  0.7816164E-02  0.1320468E+00
        -11   -1    0    0    0    0  0.00000000000E+00  0.00000000000E+00  0.45593999997E+02  0.45594000000E+02  0.51100000000E-03 0. -1.
         11   -1    0    0    0    0 -0.00000000000E+00 -0.00000000000E+00 -0.45593999997E+02  0.45594000000E+02  0.51100000000E-03 0.  1.
    9900012    2    1    2    0    0 -0.32228779893E+02 -0.14504368246E+02 -0.27929241668E+02  0.46142317724E+02  0.99999996584E+01 0.  0.
         12    1    1    2    0    0  0.32228779893E+02  0.14504368246E+02  0.27929241668E+02  0.45045682276E+02  0.00000000000E+00 0. -1.
         11    1    3    3    0    0 -0.30307521812E+01  0.75066581833E+00 -0.38215193456E+00  0.31456316245E+01  0.51100000000E-03 0. -1.
        -11    1    3    3    0    0 -0.24509220455E+02 -0.11933652421E+02 -0.23085950596E+02  0.35722192858E+02  0.51100000000E-03 0.  1.
         12    1    3    3    0    0 -0.46888072566E+01 -0.33213816430E+01 -0.44611391372E+01  0.72744932408E+01  0.00000000000E+00 0. -1.
</event>
<event>
 7    1  0.1442665E-008  0.4614232E+02  0.7816164E-02  0.1320468E+00
        -11   -1    0    0    0    0  0.00000000000E+00  0.00000000000E+00  0.45593999997E+02  0.45594000000E+02  0.51100000000E-03 0.  1.
         11   -1    0    0    0    0 -0.00000000000E+00 -0.00000000000E+00 -0.45593999997E+02  0.45594000000E+02  0.51100000000E-03 0. -1.
    9900012    2    1    2    0    0  0.50745164181E+01  0.34996038989E+02  0.27904119903E+02  0.46142319082E+02  0.10000012046E+02 0.  0.
         12    1    1    2    0    0 -0.50745164181E+01 -0.34996038989E+02 -0.27904119903E+02  0.45045680918E+02  0.00000000000E+00 0. -1.
         11    1    3    3    0    0 -0.16842832458E+01  0.14017650545E+02  0.10212928806E+02  0.17425132766E+02  0.51100000000E-03 0. -1.
        -11    1    3    3    0    0  0.60579902904E+01  0.19949833835E+02  0.14796358463E+02  0.25566136596E+02  0.51100000000E-03 0.  1.
         12    1    3    3    0    0  0.70080937347E+00  0.10285546091E+01  0.28948326346E+01  0.31510497210E+01  0.00000000000E+00 0. -1.
</event>
<event>
 7    1  0.1442665E-008  0.4614232E+02  0.7816164E-02  0.1320468E+00
        -11   -1    0    0    0    0  0.00000000000E+00  0.00000000000E+00  0.45593999997E+02  0.45594000000E+02  0.51100000000E-03 0.  1.
         11   -1    0    0    0    0 -0.00000000000E+00 -0.00000000000E+00 -0.45593999997E+02  0.45594000000E+02  0.51100000000E-03 0. -1.
    9900012    2    1    2    0    0 -0.69311860852E+01 -0.36226384175E+02  0.25859641786E+02  0.46142319583E+02  0.10000016614E+02 0.  0.
         12    1    1    2    0    0  0.69311860852E+01  0.36226384175E+02 -0.25859641786E+02  0.45045680417E+02  0.00000000000E+00 0. -1.
         11    1    3    3    0    0 -0.32622751657E+01 -0.30685006382E+01  0.25126072524E+01  0.51353024146E+01  0.51100000000E-03 0. -1.
        -11    1    3    3    0    0  0.10767427291E+01 -0.10904671753E+02  0.77015137819E+01  0.13393451973E+02  0.51100000000E-03 0.  1.
         12    1    3    3    0    0 -0.47456536486E+01 -0.22253211784E+02  0.15645520751E+02  0.27613565196E+02  0.00000000000E+00 0. -1.
</event>
<event>
 7    1  0.1442665E-008  0.4614232E+02  0.7816164E-02  0.1320468E+00
        -11   -1    0    0    0    0  0.00000000000E+00  0.00000000000E+00  0.45593999997E+02  0.45594000000E+02  0.51100000000E-03 0.  1.
         11   -1    0    0    0    0 -0.00000000000E+00 -0.00000000000E+00 -0.45593999997E+02  0.45594000000E+02  0.51100000000E-03 0. -1.
    9900012    2    1    2    0    0 -0.24893911924E+02  0.10341255847E+02  0.36089681473E+02  0.46142317274E+02  0.99999955610E+01 0.  0.
         12    1    1    2    0    0  0.24893911924E+02 -0.10341255847E+02 -0.36089681473E+02  0.45045682726E+02  0.00000000000E+00 0. -1.
         11    1    3    3    0    0 -0.13258553540E+02  0.80257563821E+01  0.19409796892E+02  0.24838321665E+02  0.51100000000E-03 0. -1.
        -11    1    3    3    0    0 -0.75868807915E+01  0.99202224084E+00  0.14773854142E+02  0.16637657129E+02  0.51100000000E-03 0.  1.
        -12    1    3    3    0    0 -0.40484775921E+01  0.13234772246E+01  0.19060304395E+01  0.46663384804E+01  0.00000000000E+00 0.  1.
</event>
<event>
 7    1  0.1442665E-008  0.4614232E+02  0.7816164E-02  0.1320468E+00
        -11   -1    0    0    0    0  0.00000000000E+00  0.00000000000E+00  0.45593999997E+02  0.45594000000E+02  0.51100000000E-03 0. -1.
         11   -1    0    0    0    0 -0.00000000000E+00 -0.00000000000E+00 -0.45593999997E+02  0.45594000000E+02  0.51100000000E-03 0.  1.
    9900012    2    1    2    0    0  0.23114929583E+01 -0.32226469297E+02 -0.31388292823E+02  0.46142320413E+02  0.10000024186E+02 0.  0.
         12    1    1    2    0    0 -0.23114929583E+01  0.32226469297E+02  0.31388292823E+02  0.45045679587E+02  0.00000000000E+00 0. -1.
         11    1    3    3    0    0  0.16364456570E+00 -0.92018674953E-01 -0.52778638179E+00  0.56018363627E+00  0.51100000000E-03 0. -1.
        -11    1    3    3    0    0  0.55654225636E+01 -0.13780286649E+02 -0.14357846737E+02  0.20664413653E+02  0.51100000000E-03 0.  1.
        -12    1    3    3    0    0 -0.34175741710E+01 -0.18354163973E+02 -0.16502659704E+02  0.24917723124E+02  0.00000000000E+00 0.  1.
</event>
<event>
 7    1  0.1442665E-008  0.4614232E+02  0.7816164E-02  0.1320468E+00
        -11   -1    0    0    0    0  0.00000000000E+00  0.00000000000E+00  0.45593999997E+02  0.45594000000E+02  0.51100000000E-03 0. -1.
         11   -1    0    0    0    0 -0.00000000000E+00 -0.00000000000E+00 -0.45593999997E+02  0.45594000000E+02  0.51100000000E-03 0.  1.
    9900012    2    1    2    0    0  0.11255331119E+02  0.21066532494E+02 -0.38192043765E+02  0.46142317889E+02  0.10000001165E+02 0.  0.
         12    1    1    2    0    0 -0.11255331119E+02 -0.21066532494E+02  0.38192043765E+02  0.45045682111E+02  0.00000000000E+00 0. -1.
         11    1    3    3    0    0 -0.57065700093E+00  0.74283258119E+01 -0.82239865286E+01  0.11096829658E+02  0.51100000000E-03 0. -1.
        -11    1    3    3    0    0  0.46533531184E+01  0.44815310591E+01 -0.12279706415E+02  0.13875482182E+02  0.51100000000E-03 0.  1.
         12    1    3    3    0    0  0.71726350014E+01  0.91566756234E+01 -0.17688350821E+02  0.21170006049E+02  0.00000000000E+00 0. -1.
</event>
<event>
 7    1  0.1442665E-008  0.4614232E+02  0.7816164E-02  0.1320468E+00
        -11   -1    0    0    0    0  0.00000000000E+00  0.00000000000E+00  0.45593999997E+02  0.45594000000E+02  0.51100000000E-03 0.  1.
         11   -1    0    0    0    0 -0.00000000000E+00 -0.00000000000E+00 -0.45593999997E+02  0.45594000000E+02  0.51100000000E-03 0. -1.
    9900012    2    1    2    0    0  0.15756594359E+02  0.22954496999E+02  0.35410934023E+02  0.46142318224E+02  0.10000004222E+02 0.  0.
         12    1    1    2    0    0 -0.15756594359E+02 -0.22954496999E+02 -0.35410934023E+02  0.45045681776E+02  0.00000000000E+00 0. -1.
         11    1    3    3    0    0  0.20860930879E+01  0.10180755982E+02  0.15187929887E+02  0.18403064724E+02  0.51100000000E-03 0. -1.
        -11    1    3    3    0    0  0.25246713918E+01  0.42960897108E+01  0.53575364586E+01  0.73166624636E+01  0.51100000000E-03 0.  1.
         12    1    3    3    0    0  0.11145829879E+02  0.84776513061E+01  0.14865467678E+02  0.20422591036E+02  0.00000000000E+00 0. -1.
</event>
<event>
 7    1  0.1442665E-008  0.4614232E+02  0.7816164E-02  0.1320468E+00
        -11   -1    0    0    0    0  0.00000000000E+00  0.00000000000E+00  0.45593999997E+02  0.45594000000E+02  0.51100000000E-03 0.  1.
         11   -1    0    0    0    0 -0.00000000000E+00 -0.00000000000E+00 -0.45593999997E+02  0.45594000000E+02  0.51100000000E-03 0. -1.
    9900012    2    1    2    0    0  0.36192776327E+02  0.16100964536E+02  0.21446569654E+02  0.46142317996E+02  0.10000002144E+02 0.  0.
         12    1    1    2    0    0 -0.36192776327E+02 -0.16100964536E+02 -0.21446569654E+02  0.45045682004E+02  0.00000000000E+00 0. -1.
         11    1    3    3    0    0  0.85702920129E+01  0.39991189837E+01  0.18668785825E+01  0.96399218740E+01  0.51100000000E-03 0. -1.
        -11    1    3    3    0    0  0.27327718666E+02  0.11467515236E+02  0.19935730299E+02  0.35717523094E+02  0.51100000000E-03 0.  1.
        -12    1    3    3    0    0  0.29476564862E+00  0.63433031678E+00 -0.35603922799E+00  0.78487302812E+00  0.00000000000E+00 0.  1.
</event>
<event>
 7    1  0.1442665E-008  0.4614232E+02  0.7816164E-02  0.1320468E+00
        -11   -1    0    0    0    0  0.00000000000E+00  0.00000000000E+00  0.45593999997E+02  0.45594000000E+02  0.51100000000E-03 0.  1.
         11   -1    0    0    0    0 -0.00000000000E+00 -0.00000000000E+00 -0.45593999997E+02  0.45594000000E+02  0.51100000000E-03 0. -1.
    9900012    2    1    2    0    0 -0.24598241090E+02  0.30170544538E+01  0.37615654072E+02  0.46142317481E+02  0.99999974487E+01 0.  0.
         12    1    1    2    0    0  0.24598241090E+02 -0.30170544538E+01 -0.37615654072E+02  0.45045682519E+02  0.00000000000E+00 0. -1.
         11    1    3    3    0    0 -0.67692542347E+01  0.49093669824E+00  0.52304991981E+01  0.85686605639E+01  0.51100000000E-03 0. -1.
        -11    1    3    3    0    0 -0.79990936512E+01  0.14217114309E+01  0.86881965271E+01  0.11895020882E+02  0.51100000000E-03 0.  1.
         12    1    3    3    0    0 -0.98298932039E+01  0.11044063247E+01  0.23696958347E+02  0.25678636035E+02  0.00000000000E+00 0. -1.
</event>
<event>
 7    1  0.1442665E-008  0.4614232E+02  0.7816164E-02  0.1320468E+00
        -11   -1    0    0    0    0  0.00000000000E+00  0.00000000000E+00  0.45593999997E+02  0.45594000000E+02  0.51100000000E-03 0. -1.
         11   -1    0    0    0    0 -0.00000000000E+00 -0.00000000000E+00 -0.45593999997E+02  0.45594000000E+02  0.51100000000E-03 0.  1.
    9900012    2    1    2    0    0 -0.41997339940E+02  0.11320075099E+02 -0.11712933723E+02  0.46142317868E+02  0.10000000977E+02 0.  0.
         12    1    1    2    0    0  0.41997339940E+02 -0.11320075099E+02  0.11712933723E+02  0.45045682132E+02  0.00000000000E+00 0. -1.
         11    1    3    3    0    0 -0.26830259233E+02  0.43467988749E+01 -0.89851136065E+01  0.28626731175E+02  0.51100000000E-03 0. -1.
        -11    1    3    3    0    0 -0.11270031446E+02  0.48630752893E+01  0.69869437818E-01  0.12274689082E+02  0.51100000000E-03 0.  1.
        -12    1    3    3    0    0 -0.38970492616E+01  0.21102009344E+01 -0.27976895547E+01  0.52408976116E+01  0.00000000000E+00 0.  1.
</event>
<event>
 7    1  0.1442665E-008  0.4614232E+02  0.7816164E-02  0.1320468E+00
        -11   -1    0    0    0    0  0.00000000000E+00  0.00000000000E+00  0.45593999997E+02  0.45594000000E+02  0.51100000000E-03 0. -1.
         11   -1    0    0    0    0 -0.00000000000E+00 -0.00000000000E+00 -0.45593999997E+02  0.45594000000E+02  0.51100000000E-03 0.  1.
    9900012    2    1    2    0    0 -0.26028013802E+01 -0.32678783046E+02  0.30893946556E+02  0.46142319073E+02  0.10000011960E+02 0.  0.
         12    1    1    2    0    0  0.26028013802E+01  0.32678783046E+02 -0.30893946556E+02  0.45045680927E+02  0.00000000000E+00 0. -1.
         11    1    3    3    0    0 -0.62810847475E+01 -0.22729308318E+02  0.21923040357E+02  0.32197720121E+02  0.51100000000E-03 0. -1.
        -11    1    3    3    0    0  0.80622200823E+00 -0.23029813040E+01  0.14321272975E+01  0.28292588553E+01  0.51100000000E-03 0.  1.
         12    1    3    3    0    0  0.28720613591E+01 -0.76464934243E+01  0.75387789012E+01  0.11115340096E+02  0.00000000000E+00 0. -1.
</event>
<event>
 7    1  0.1442665E-008  0.4614231E+02  0.7816164E-02  0.1320468E+00
        -11   -1    0    0    0    0  0.00000000000E+00  0.00000000000E+00  0.45593999997E+02  0.45594000000E+02  0.51100000000E-03 0. -1.
         11   -1    0    0    0    0 -0.00000000000E+00 -0.00000000000E+00 -0.45593999997E+02  0.45594000000E+02  0.51100000000E-03 0.  1.
    9900012    2    1    2    0    0 -0.22047923871E+02  0.30468673873E+02  0.24792396771E+02  0.46142312390E+02  0.99999510258E+01 0.  0.
         12    1    1    2    0    0  0.22047923871E+02 -0.30468673873E+02 -0.24792396771E+02  0.45045687610E+02  0.00000000000E+00 0. -1.
         11    1    3    3    0    0 -0.93171662299E+01  0.15268746667E+02  0.87296139061E+01  0.19903526585E+02  0.51100000000E-03 0. -1.
        -11    1    3    3    0    0 -0.79400835087E+01  0.56774918909E+01  0.53716815322E+01  0.11141535040E+02  0.51100000000E-03 0.  1.
         12    1    3    3    0    0 -0.47906741326E+01  0.95224353152E+01  0.10691101332E+02  0.15097250765E+02  0.00000000000E+00 0. -1.
</event>
<event>
 7    1  0.1442665E-008  0.4614232E+02  0.7816164E-02  0.1320468E+00
        -11   -1    0    0    0    0  0.00000000000E+00  0.00000000000E+00  0.45593999997E+02  0.45594000000E+02  0.51100000000E-03 0. -1.
         11   -1    0    0    0    0 -0.00000000000E+00 -0.00000000000E+00 -0.45593999997E+02  0.45594000000E+02  0.51100000000E-03 0.  1.
    9900012    2    1    2    0    0  0.36178605234E+01  0.26317960807E+02 -0.36378421198E+02  0.46142317581E+02  0.99999983536E+01 0.  0.
         12    1    1    2    0    0 -0.36178605234E+01 -0.26317960807E+02  0.36378421198E+02  0.45045682419E+02  0.00000000000E+00 0. -1.
         11    1    3    3    0    0  0.48249184857E+01  0.15099077269E+02 -0.26030899687E+02  0.30477363920E+02  0.51100000000E-03 0. -1.
        -11    1    3    3    0    0  0.96372869111E+00  0.51326387165E+01 -0.55208247135E+01  0.75994907042E+01  0.51100000000E-03 0.  1.
         12    1    3    3    0    0 -0.21707866535E+01  0.60862448214E+01 -0.48266967972E+01  0.80654629559E+01  0.00000000000E+00 0. -1.
</event>
<event>
 7    1  0.1442665E-008  0.4614232E+02  0.7816164E-02  0.1320468E+00
        -11   -1    0    0    0    0  0.00000000000E+00  0.00000000000E+00  0.45593999997E+02  0.45594000000E+02  0.51100000000E-03 0.  1.
         11   -1    0    0    0    0 -0.00000000000E+00 -0.00000000000E+00 -0.45593999997E+02  0.45594000000E+02  0.51100000000E-03 0. -1.
    9900012    2    1    2    0    0 -0.11682407072E+02  0.74302403244E+01  0.42865212540E+02  0.46142317051E+02  0.99999935210E+01 0.  0.
         12    1    1    2    0    0  0.11682407072E+02 -0.74302403244E+01 -0.42865212540E+02  0.45045682949E+02  0.00000000000E+00 0. -1.
         11    1    3    3    0    0 -0.73517254233E+01  0.35902086548E+01  0.35479374054E+02  0.36410485418E+02  0.51100000000E-03 0. -1.
        -11    1    3    3    0    0 -0.19234477054E+01  0.27434376695E+01  0.56472550333E+01  0.65663986320E+01  0.51100000000E-03 0.  1.
         12    1    3    3    0    0 -0.24072339429E+01  0.10965940001E+01  0.17385834533E+01  0.31654330005E+01  0.00000000000E+00 0. -1.
</event>
<event>
 7    1  0.1442665E-008  0.4614232E+02  0.7816164E-02  0.1320468E+00
        -11   -1    0    0    0    0  0.00000000000E+00  0.00000000000E+00  0.45593999997E+02  0.45594000000E+02  0.51100000000E-03 0.  1.
         11   -1    0    0    0    0 -0.00000000000E+00 -0.00000000000E+00 -0.45593999997E+02  0.45594000000E+02  0.51100000000E-03 0. -1.
    9900012    2    1    2    0    0 -0.22325875201E+02  0.39105412458E+02 -0.11980763347E+01  0.46142319031E+02  0.10000011583E+02 0.  0.
         12    1    1    2    0    0  0.22325875201E+02 -0.39105412458E+02  0.11980763347E+01  0.45045680969E+02  0.00000000000E+00 0. -1.
         11    1    3    3    0    0 -0.68323122259E+01  0.17092688151E+02 -0.17318603400E+01  0.18488910705E+02  0.51100000000E-03 0. -1.
        -11    1    3    3    0    0 -0.14882678334E+02  0.21644759113E+02 -0.64513194470E+00  0.26275576244E+02  0.51100000000E-03 0.  1.
        -12    1    3    3    0    0 -0.61088464156E+00  0.36796519431E+00  0.11789159501E+01  0.13778320822E+01  0.00000000000E+00 0.  1.
</event>
<event>
 7    1  0.1442665E-008  0.4614232E+02  0.7816164E-02  0.1320468E+00
        -11   -1    0    0    0    0  0.00000000000E+00  0.00000000000E+00  0.45593999997E+02  0.45594000000E+02  0.51100000000E-03 0. -1.
         11   -1    0    0    0    0 -0.00000000000E+00 -0.00000000000E+00 -0.45593999997E+02  0.45594000000E+02  0.51100000000E-03 0.  1.
    9900012    2    1    2    0    0  0.39231439944E+02 -0.70937030050E+01 -0.20968713914E+02  0.46142318014E+02  0.10000002306E+02 0.  0.
         12    1    1    2    0    0 -0.39231439944E+02  0.70937030050E+01  0.20968713914E+02  0.45045681986E+02  0.00000000000E+00 0. -1.
         11    1    3    3    0    0  0.50134981921E+00 -0.16401417227E+01 -0.11463953871E+01  0.20629200558E+01  0.51100000000E-03 0. -1.
        -11    1    3    3    0    0  0.21990149877E+02 -0.10427993788E+01 -0.10050600345E+02  0.24200592755E+02  0.51100000000E-03 0.  1.
         12    1    3    3    0    0  0.16739940247E+02 -0.44107619034E+01 -0.97717181827E+01  0.19878805203E+02  0.00000000000E+00 0. -1.
</event>
<event>
 7    1  0.1442665E-008  0.4614232E+02  0.7816164E-02  0.1320468E+00
        -11   -1    0    0    0    0  0.00000000000E+00  0.00000000000E+00  0.45593999997E+02  0.45594000000E+02  0.51100000000E-03 0. -1.
         11   -1    0    0    0    0 -0.00000000000E+00 -0.00000000000E+00 -0.45593999997E+02  0.45594000000E+02  0.51100000000E-03 0.  1.
    9900012    2    1    2    0    0 -0.38712062073E+02  0.22985280179E+02 -0.14719322027E+01  0.46142318306E+02  0.10000004970E+02 0.  0.
         12    1    1    2    0    0  0.38712062073E+02 -0.22985280179E+02  0.14719322027E+01  0.45045681694E+02  0.00000000000E+00 0. -1.
         11    1    3    3    0    0 -0.28769371375E+00  0.91067704364E-01  0.21533680775E+00  0.37071714500E+00  0.51100000000E-03 0. -1.
        -11    1    3    3    0    0 -0.29422703364E+02  0.19711671374E+02 -0.47778271097E+01  0.35736159471E+02  0.51100000000E-03 0.  1.
        -12    1    3    3    0    0 -0.90016649956E+01  0.31825411003E+01  0.30905580993E+01  0.10035441690E+02  0.00000000000E+00 0.  1.
</event>
<event>
 7    1  0.1442665E-008  0.4614232E+02  0.7816164E-02  0.1320468E+00
        -11   -1    0    0    0    0  0.00000000000E+00  0.00000000000E+00  0.45593999997E+02  0.45594000000E+02  0.51100000000E-03 0.  1.
         11   -1    0    0    0    0 -0.00000000000E+00 -0.00000000000E+00 -0.45593999997E+02  0.45594000000E+02  0.51100000000E-03 0. -1.
    9900012    2    1    2    0    0  0.32465571363E+02  0.67131594866E+01  0.30496456007E+02  0.46142315820E+02  0.99999823016E+01 0.  0.
         12    1    1    2    0    0 -0.32465571363E+02 -0.67131594866E+01 -0.30496456007E+02  0.45045684180E+02  0.00000000000E+00 0. -1.
         11    1    3    3    0    0  0.12846822995E+02  0.53155559652E+01  0.89164925182E+01  0.16516653274E+02  0.51100000000E-03 0. -1.
        -11    1    3    3    0    0  0.16242481608E+02  0.24581795194E+01  0.15471374692E+02  0.22565998547E+02  0.51100000000E-03 0.  1.
         12    1    3    3    0    0  0.33762667607E+01 -0.10605759980E+01  0.61085887971E+01  0.70596639990E+01  0.00000000000E+00 0. -1.
</event>
<event>
 7    1  0.1442665E-008  0.4614232E+02  0.7816164E-02  0.1320468E+00
        -11   -1    0    0    0    0  0.00000000000E+00  0.00000000000E+00  0.45593999997E+02  0.45594000000E+02  0.51100000000E-03 0. -1.
         11   -1    0    0    0    0 -0.00000000000E+00 -0.00000000000E+00 -0.45593999997E+02  0.45594000000E+02  0.51100000000E-03 0.  1.
    9900012    2    1    2    0    0  0.18010400483E+02 -0.32962978763E+02 -0.24863246315E+02  0.46142317501E+02  0.99999976244E+01 0.  0.
         12    1    1    2    0    0 -0.18010400483E+02  0.32962978763E+02  0.24863246315E+02  0.45045682499E+02  0.00000000000E+00 0. -1.
         11    1    3    3    0    0  0.31201854428E+01 -0.14672925469E+02 -0.11769283947E+02  0.19066891302E+02  0.51100000000E-03 0. -1.
        -11    1    3    3    0    0  0.13705113502E+02 -0.16572824978E+02 -0.11152184377E+02  0.24225191031E+02  0.51100000000E-03 0.  1.
        -12    1    3    3    0    0  0.11851015389E+01 -0.17172283157E+01 -0.19417779910E+01  0.28502351679E+01  0.00000000000E+00 0.  1.
</event>
<event>
 7    1  0.1442665E-008  0.4614232E+02  0.7816164E-02  0.1320468E+00
        -11   -1    0    0    0    0  0.00000000000E+00  0.00000000000E+00  0.45593999997E+02  0.45594000000E+02  0.51100000000E-03 0. -1.
         11   -1    0    0    0    0 -0.00000000000E+00 -0.00000000000E+00 -0.45593999997E+02  0.45594000000E+02  0.51100000000E-03 0.  1.
    9900012    2    1    2    0    0 -0.22903280378E+02 -0.34959189631E+02  0.16805007227E+02  0.46142318080E+02  0.10000002907E+02 0.  0.
         12    1    1    2    0    0  0.22903280378E+02  0.34959189631E+02 -0.16805007227E+02  0.45045681920E+02  0.00000000000E+00 0. -1.
         11    1    3    3    0    0 -0.10577020125E+02 -0.21162681385E+02  0.11013499974E+02  0.26096544217E+02  0.51100000000E-03 0. -1.
        -11    1    3    3    0    0 -0.93122303714E+01 -0.10117567141E+02  0.65477260609E+01  0.15230085889E+02  0.51100000000E-03 0.  1.
        -12    1    3    3    0    0 -0.30140298815E+01 -0.36789411051E+01 -0.75621880760E+00  0.48156879744E+01  0.00000000000E+00 0.  1.
</event>
<event>
 7    1  0.1442665E-008  0.4614232E+02  0.7816164E-02  0.1320468E+00
        -11   -1    0    0    0    0  0.00000000000E+00  0.00000000000E+00  0.45593999997E+02  0.45594000000E+02  0.51100000000E-03 0.  1.
         11   -1    0    0    0    0 -0.00000000000E+00 -0.00000000000E+00 -0.45593999997E+02  0.45594000000E+02  0.51100000000E-03 0. -1.
    9900012    2    1    2    0    0  0.32013521898E+02 -0.12065007236E+02  0.29303302027E+02  0.46142317703E+02  0.99999994682E+01 0.  0.
         12    1    1    2    0    0 -0.32013521898E+02  0.12065007236E+02 -0.29303302027E+02  0.45045682297E+02  0.00000000000E+00 0. -1.
         11    1    3    3    0    0  0.40201160268E+01 -0.23223938279E+01  0.31632904367E+01  0.56179402461E+01  0.51100000000E-03 0. -1.
        -11    1    3    3    0    0  0.28436032173E+02 -0.93954253868E+01  0.26382891886E+02  0.39911639011E+02  0.51100000000E-03 0.  1.
        -12    1    3    3    0    0 -0.44262630205E+00 -0.34718802124E+00 -0.24288029575E+00  0.61273844617E+00  0.00000000000E+00 0.  1.
</event>
<event>
 7    1  0.1442665E-008  0.4614232E+02  0.7816164E-02  0.1320468E+00
        -11   -1    0    0    0    0  0.00000000000E+00  0.00000000000E+00  0.45593999997E+02  0.45594000000E+02  0.51100000000E-03 0. -1.
         11   -1    0    0    0    0 -0.00000000000E+00 -0.00000000000E+00 -0.45593999997E+02  0.45594000000E+02  0.51100000000E-03 0.  1.
    9900012    2    1    2    0    0  0.10078418428E+02 -0.43544280538E+02 -0.56066597959E+01  0.46142317414E+02  0.99999968380E+01 0.  0.
         12    1    1    2    0    0 -0.10078418428E+02  0.43544280538E+02  0.56066597959E+01  0.45045682586E+02  0.00000000000E+00 0. -1.
         11    1    3    3    0    0  0.83241566158E+01 -0.32920879448E+02 -0.43225451915E+01  0.34230984272E+02  0.51100000000E-03 0.  1.
        -11    1    3    3    0    0  0.17731072076E+01 -0.15137187481E+01  0.97286281060E+00  0.25262058363E+01  0.51100000000E-03 0. -1.
         12    1    3    3    0    0 -0.18845395407E-01 -0.91096823411E+01 -0.22569774149E+01  0.93851273064E+01  0.00000000000E+00 0. -1.
</event>
<event>
 7    1  0.1442665E-008  0.4614232E+02  0.7816164E-02  0.1320468E+00
        -11   -1    0    0    0    0  0.00000000000E+00  0.00000000000E+00  0.45593999997E+02  0.45594000000E+02  0.51100000000E-03 0.  1.
         11   -1    0    0    0    0 -0.00000000000E+00 -0.00000000000E+00 -0.45593999997E+02  0.45594000000E+02  0.51100000000E-03 0. -1.
    9900012    2    1    2    0    0  0.15352631548E+02  0.26818166924E+01  0.42263672596E+02  0.46142318104E+02  0.10000003124E+02 0.  0.
         12    1    1    2    0    0 -0.15352631548E+02 -0.26818166924E+01 -0.42263672596E+02  0.45045681896E+02  0.00000000000E+00 0. -1.
         11    1    3    3    0    0 -0.87191477561E-01  0.70389677283E+00  0.12177930826E+02  0.12198568460E+02  0.51100000000E-03 0. -1.
        -11    1    3    3    0    0  0.99703052556E+01  0.21875990161E+01  0.20658966718E+02  0.23043122237E+02  0.51100000000E-03 0.  1.
         12    1    3    3    0    0  0.54695177700E+01 -0.20967909661E+00  0.94267750522E+01  0.10900627406E+02  0.00000000000E+00 0. -1.
</event>
<event>
 7    1  0.1442665E-008  0.4614232E+02  0.7816164E-02  0.1320468E+00
        -11   -1    0    0    0    0  0.00000000000E+00  0.00000000000E+00  0.45593999997E+02  0.45594000000E+02  0.51100000000E-03 0.  1.
         11   -1    0    0    0    0 -0.00000000000E+00 -0.00000000000E+00 -0.45593999997E+02  0.45594000000E+02  0.51100000000E-03 0. -1.
    9900012    2    1    2    0    0  0.12396090806E+02 -0.35047751333E+02  0.25438269386E+02  0.46142317742E+02  0.99999998216E+01 0.  0.
         12    1    1    2    0    0 -0.12396090806E+02  0.35047751333E+02 -0.25438269386E+02  0.45045682258E+02  0.00000000000E+00 0. -1.
         11    1    3    3    0    0  0.20874993115E+01 -0.15541328201E+02  0.79298645379E+01  0.17571946036E+02  0.51100000000E-03 0. -1.
        -11    1    3    3    0    0  0.10487244034E+01 -0.25722736177E+01  0.45433371031E+00  0.28147528880E+01  0.51100000000E-03 0.  1.
         12    1    3    3    0    0  0.92598670914E+01 -0.16934149514E+02  0.17054071138E+02  0.25755618818E+02  0.00000000000E+00 0. -1.
</event>
<event>
 7    1  0.1442665E-008  0.4614232E+02  0.7816164E-02  0.1320468E+00
        -11   -1    0    0    0    0  0.00000000000E+00  0.00000000000E+00  0.45593999997E+02  0.45594000000E+02  0.51100000000E-03 0. -1.
         11   -1    0    0    0    0 -0.00000000000E+00 -0.00000000000E+00 -0.45593999997E+02  0.45594000000E+02  0.51100000000E-03 0.  1.
    9900012    2    1    2    0    0 -0.21003965941E+02  0.23367225970E+02  0.32278780269E+02  0.46142317738E+02  0.99999997859E+01 0.  0.
         12    1    1    2    0    0  0.21003965941E+02 -0.23367225970E+02 -0.32278780269E+02  0.45045682262E+02  0.00000000000E+00 0. -1.
         11    1    3    3    0    0 -0.28407398534E+01  0.67895375847E+01  0.74857143077E+01  0.10497787504E+02  0.51100000000E-03 0. -1.
        -11    1    3    3    0    0 -0.39545665223E+01  0.68184525058E+01  0.47259367628E+01  0.91904499073E+01  0.51100000000E-03 0.  1.
        -12    1    3    3    0    0 -0.14208659566E+02  0.97592358798E+01  0.20067129199E+02  0.26454080326E+02  0.00000000000E+00 0.  1.
</event>
<event>
 7    1  0.1442665E-008  0.4614232E+02  0.7816164E-02  0.1320468E+00
        -11   -1    0    0    0    0  0.00000000000E+00  0.00000000000E+00  0.45593999997E+02  0.45594000000E+02  0.51100000000E-03 0.  1.
         11   -1    0    0    0    0 -0.00000000000E+00 -0.00000000000E+00 -0.45593999997E+02  0.45594000000E+02  0.51100000000E-03 0. -1.
    9900012    2    1    2    0    0 -0.18776128700E+02  0.21819416551E+02  0.34647995555E+02  0.46142317148E+02  0.99999944113E+01 0.  0.
         12    1    1    2    0    0  0.18776128700E+02 -0.21819416551E+02 -0.34647995555E+02  0.45045682852E+02  0.00000000000E+00 0. -1.
         11    1    3    3    0    0 -0.14958985200E+02  0.20004251209E+02  0.29592424645E+02  0.38725352177E+02  0.51100000000E-03 0.  1.
        -11    1    3    3    0    0 -0.40011139975E+00  0.66254717002E-01 -0.51275255360E+00  0.65375397672E+00  0.51100000000E-03 0. -1.
        -12    1    3    3    0    0 -0.34170321009E+01  0.17489106248E+01  0.55683234643E+01  0.67632109944E+01  0.00000000000E+00 0.  1.
</event>
<event>
 7    1  0.1442665E-008  0.4614232E+02  0.7816164E-02  0.1320468E+00
        -11   -1    0    0    0    0  0.00000000000E+00  0.00000000000E+00  0.45593999997E+02  0.45594000000E+02  0.51100000000E-03 0.  1.
         11   -1    0    0    0    0 -0.00000000000E+00 -0.00000000000E+00 -0.45593999997E+02  0.45594000000E+02  0.51100000000E-03 0. -1.
    9900012    2    1    2    0    0 -0.38891334875E+02  0.79989625532E+01  0.21274261928E+02  0.46142317068E+02  0.99999936782E+01 0.  0.
         12    1    1    2    0    0  0.38891334875E+02 -0.79989625532E+01 -0.21274261928E+02  0.45045682932E+02  0.00000000000E+00 0. -1.
         11    1    3    3    0    0 -0.79673510547E+01  0.48812340342E+01  0.65632543860E+01  0.11418469115E+02  0.51100000000E-03 0. -1.
        -11    1    3    3    0    0 -0.29507680246E+02  0.27197852554E+01  0.15017881202E+02  0.33221035225E+02  0.51100000000E-03 0.  1.
        -12    1    3    3    0    0 -0.14163035734E+01  0.39794326357E+00 -0.30687366003E+00  0.15028127283E+01  0.00000000000E+00 0.  1.
</event>
<event>
 7    1  0.1442665E-008  0.4614232E+02  0.7816164E-02  0.1320468E+00
        -11   -1    0    0    0    0  0.00000000000E+00  0.00000000000E+00  0.45593999997E+02  0.45594000000E+02  0.51100000000E-03 0.  1.
         11   -1    0    0    0    0 -0.00000000000E+00 -0.00000000000E+00 -0.45593999997E+02  0.45594000000E+02  0.51100000000E-03 0. -1.
    9900012    2    1    2    0    0 -0.15688763386E+02 -0.36457492312E+01  0.42067621186E+02  0.46142317229E+02  0.99999951465E+01 0.  0.
         12    1    1    2    0    0  0.15688763386E+02  0.36457492312E+01 -0.42067621186E+02  0.45045682771E+02  0.00000000000E+00 0. -1.
         11    1    3    3    0    0 -0.11722055472E+02 -0.35562692551E+01  0.20702695364E+02  0.24055253711E+02  0.51100000000E-03 0. -1.
        -11    1    3    3    0    0 -0.46339179862E+01  0.51753807699E-01  0.15369034289E+02  0.16052510383E+02  0.51100000000E-03 0.  1.
         12    1    3    3    0    0  0.66721007159E+00 -0.14123378373E+00  0.59958915333E+01  0.60345531351E+01  0.00000000000E+00 0. -1.
</event>
<event>
 7    1  0.1442665E-008  0.4614232E+02  0.7816164E-02  0.1320468E+00
        -11   -1    0    0    0    0  0.00000000000E+00  0.00000000000E+00  0.45593999997E+02  0.45594000000E+02  0.51100000000E-03 0.  1.
         11   -1    0    0    0    0 -0.00000000000E+00 -0.00000000000E+00 -0.45593999997E+02  0.45594000000E+02  0.51100000000E-03 0. -1.
    9900012    2    1    2    0    0 -0.16946701612E+02  0.65031428207E+00  0.41731281714E+02  0.46142317879E+02  0.10000001079E+02 0.  0.
         12    1    1    2    0    0  0.16946701612E+02 -0.65031428207E+00 -0.41731281714E+02  0.45045682121E+02  0.00000000000E+00 0. -1.
         11    1    3    3    0    0 -0.31731123807E+01  0.93119105534E+00  0.43028336378E+01  0.54267980005E+01  0.51100000000E-03 0.  1.
        -11    1    3    3    0    0 -0.26335925149E+01 -0.27093506554E+01  0.16027591537E+02  0.16466939036E+02  0.51100000000E-03 0. -1.
        -12    1    3    3    0    0 -0.11139996716E+02  0.24284738821E+01  0.21400856540E+02  0.24248580843E+02  0.00000000000E+00 0.  1.
</event>
<event>
 7    1  0.1442665E-008  0.4614232E+02  0.7816164E-02  0.1320468E+00
        -11   -1    0    0    0    0  0.00000000000E+00  0.00000000000E+00  0.45593999997E+02  0.45594000000E+02  0.51100000000E-03 0.  1.
         11   -1    0    0    0    0 -0.00000000000E+00 -0.00000000000E+00 -0.45593999997E+02  0.45594000000E+02  0.51100000000E-03 0. -1.
    9900012    2    1    2    0    0 -0.10083803656E+02 -0.34671639582E+02  0.26931538923E+02  0.46142317895E+02  0.10000001223E+02 0.  0.
         12    1    1    2    0    0  0.10083803656E+02  0.34671639582E+02 -0.26931538923E+02  0.45045682105E+02  0.00000000000E+00 0. -1.
         11    1    3    3    0    0  0.42204015214E-01 -0.12129345797E+01 -0.39513628084E+00  0.12763715819E+01  0.51100000000E-03 0. -1.
        -11    1    3    3    0    0 -0.27767129053E+01 -0.19940543128E+02  0.14148919963E+02  0.24607464949E+02  0.51100000000E-03 0.  1.
         12    1    3    3    0    0 -0.73492947655E+01 -0.13518161874E+02  0.13177755241E+02  0.20258481365E+02  0.00000000000E+00 0. -1.
</event>
<event>
 7    1  0.1442665E-008  0.4614232E+02  0.7816164E-02  0.1320468E+00
        -11   -1    0    0    0    0  0.00000000000E+00  0.00000000000E+00  0.45593999997E+02  0.45594000000E+02  0.51100000000E-03 0.  1.
         11   -1    0    0    0    0 -0.00000000000E+00 -0.00000000000E+00 -0.45593999997E+02  0.45594000000E+02  0.51100000000E-03 0. -1.
    9900012    2    1    2    0    0  0.17032339229E+01  0.37976695206E+02  0.24165741884E+02  0.46142318017E+02  0.10000002330E+02 0.  0.
         12    1    1    2    0    0 -0.17032339229E+01 -0.37976695206E+02 -0.24165741884E+02  0.45045681983E+02  0.00000000000E+00 0. -1.
         11    1    3    3    0    0  0.62496948220E+00  0.25121522325E+00 -0.22551221784E+00  0.71031821292E+00  0.51100000000E-03 0. -1.
        -11    1    3    3    0    0  0.18187507591E+01  0.27734048303E+02  0.14481114980E+02  0.31339878445E+02  0.51100000000E-03 0.  1.
         12    1    3    3    0    0 -0.74048631836E+00  0.99914316797E+01  0.99101391212E+01  0.14092121359E+02  0.00000000000E+00 0. -1.
</event>
<event>
 7    1  0.1442665E-008  0.4614233E+02  0.7816164E-02  0.1320468E+00
        -11   -1    0    0    0    0  0.00000000000E+00  0.00000000000E+00  0.45593999997E+02  0.45594000000E+02  0.51100000000E-03 0. -1.
         11   -1    0    0    0    0 -0.00000000000E+00 -0.00000000000E+00 -0.45593999997E+02  0.45594000000E+02  0.51100000000E-03 0.  1.
    9900012    2    1    2    0    0  0.10750590128E+02 -0.30237123336E+02 -0.31610978909E+02  0.46142325365E+02  0.10000069334E+02 0.  0.
         12    1    1    2    0    0 -0.10750590128E+02  0.30237123336E+02  0.31610978909E+02  0.45045674635E+02  0.00000000000E+00 0. -1.
         11    1    3    3    0    0  0.36028413618E+01 -0.45160788062E+01 -0.10756953932E+02  0.12210138894E+02  0.51100000000E-03 0. -1.
        -11    1    3    3    0    0  0.64806850560E+01 -0.23866801946E+02 -0.19897745745E+02  0.31741830444E+02  0.51100000000E-03 0.  1.
         12    1    3    3    0    0  0.66706371000E+00 -0.18542425839E+01 -0.95627923305E+00  0.21903560269E+01  0.00000000000E+00 0. -1.
</event>
<event>
 7    1  0.1442665E-008  0.4614232E+02  0.7816164E-02  0.1320468E+00
        -11   -1    0    0    0    0  0.00000000000E+00  0.00000000000E+00  0.45593999997E+02  0.45594000000E+02  0.51100000000E-03 0.  1.
         11   -1    0    0    0    0 -0.00000000000E+00 -0.00000000000E+00 -0.45593999997E+02  0.45594000000E+02  0.51100000000E-03 0. -1.
    9900012    2    1    2    0    0  0.61710554859E+01 -0.41923386619E+02  0.15279436733E+02  0.46142318095E+02  0.10000003046E+02 0.  0.
         12    1    1    2    0    0 -0.61710554859E+01  0.41923386619E+02 -0.15279436733E+02  0.45045681905E+02  0.00000000000E+00 0. -1.
         11    1    3    3    0    0 -0.16875676712E+01 -0.11928726006E+02  0.36905856799E+01  0.12600111574E+02  0.51100000000E-03 0.  1.
        -11    1    3    3    0    0 -0.17364306014E+00  0.23122123374E-01  0.53152847845E+00  0.55965107831E+00  0.51100000000E-03 0. -1.
        -12    1    3    3    0    0  0.80322662172E+01 -0.30017782736E+02  0.11057322575E+02  0.32982555442E+02  0.00000000000E+00 0.  1.
</event>
<event>
 7    1  0.1442665E-008  0.4614232E+02  0.7816164E-02  0.1320468E+00
        -11   -1    0    0    0    0  0.00000000000E+00  0.00000000000E+00  0.45593999997E+02  0.45594000000E+02  0.51100000000E-03 0.  1.
         11   -1    0    0    0    0 -0.00000000000E+00 -0.00000000000E+00 -0.45593999997E+02  0.45594000000E+02  0.51100000000E-03 0. -1.
    9900012    2    1    2    0    0 -0.38900084826E+02 -0.67557706562E+01  0.21685396848E+02  0.46142317931E+02  0.10000001545E+02 0.  0.
         12    1    1    2    0    0  0.38900084826E+02  0.67557706562E+01 -0.21685396848E+02  0.45045682069E+02  0.00000000000E+00 0. -1.
         11    1    3    3    0    0 -0.65555860852E+01  0.19946595595E+01  0.22240159862E+01  0.72042087037E+01  0.51100000000E-03 0. -1.
        -11    1    3    3    0    0 -0.21590519642E+01 -0.14683936208E+01  0.21814945330E+01  0.34024408692E+01  0.51100000000E-03 0.  1.
         12    1    3    3    0    0 -0.30185446777E+02 -0.72820365950E+01  0.17279886329E+02  0.35535668358E+02  0.00000000000E+00 0. -1.
</event>
<event>
 7    1  0.1442665E-008  0.4614232E+02  0.7816164E-02  0.1320468E+00
        -11   -1    0    0    0    0  0.00000000000E+00  0.00000000000E+00  0.45593999997E+02  0.45594000000E+02  0.51100000000E-03 0.  1.
         11   -1    0    0    0    0 -0.00000000000E+00 -0.00000000000E+00 -0.45593999997E+02  0.45594000000E+02  0.51100000000E-03 0. -1.
    9900012    2    1    2    0    0 -0.73045220097E+01 -0.36659055842E+02  0.25137044542E+02  0.46142318461E+02  0.10000006381E+02 0.  0.
         12    1    1    2    0    0  0.73045220097E+01  0.36659055842E+02 -0.25137044542E+02  0.45045681539E+02  0.00000000000E+00 0. -1.
         11    1    3    3    0    0  0.67447734605E+00 -0.18055067062E+01  0.10186540661E+01  0.21800070009E+01  0.51100000000E-03 0. -1.
        -11    1    3    3    0    0 -0.54295011156E+01 -0.27264807902E+02  0.22569575313E+02  0.35808308566E+02  0.51100000000E-03 0.  1.
        -12    1    3    3    0    0 -0.25494982402E+01 -0.75887412331E+01  0.15488151636E+01  0.81540028937E+01  0.00000000000E+00 0.  1.
</event>
<event>
 7    1  0.1442665E-008  0.4614232E+02  0.7816164E-02  0.1320468E+00
        -11   -1    0    0    0    0  0.00000000000E+00  0.00000000000E+00  0.45593999997E+02  0.45594000000E+02  0.51100000000E-03 0.  1.
         11   -1    0    0    0    0 -0.00000000000E+00 -0.00000000000E+00 -0.45593999997E+02  0.45594000000E+02  0.51100000000E-03 0. -1.
    9900012    2    1    2    0    0  0.33436841046E+02 -0.21007661409E+02  0.21674162313E+02  0.46142317754E+02  0.99999999374E+01 0.  0.
         12    1    1    2    0    0 -0.33436841046E+02  0.21007661409E+02 -0.21674162313E+02  0.45045682246E+02  0.00000000000E+00 0. -1.
         11    1    3    3    0    0  0.97895341211E+01 -0.57148355004E+01  0.77373543201E+01  0.13724466301E+02  0.51100000000E-03 0. -1.
        -11    1    3    3    0    0  0.76754887209E+01 -0.64287455767E+01  0.90807689466E+01  0.13516740055E+02  0.51100000000E-03 0.  1.
         12    1    3    3    0    0  0.15971818204E+02 -0.88640803314E+01  0.48560390463E+01  0.18901111398E+02  0.00000000000E+00 0. -1.
</event>
<event>
 7    1  0.1442665E-008  0.4614232E+02  0.7816164E-02  0.1320468E+00
        -11   -1    0    0    0    0  0.00000000000E+00  0.00000000000E+00  0.45593999997E+02  0.45594000000E+02  0.51100000000E-03 0. -1.
         11   -1    0    0    0    0 -0.00000000000E+00 -0.00000000000E+00 -0.45593999997E+02  0.45594000000E+02  0.51100000000E-03 0.  1.
    9900012    2    1    2    0    0  0.18963254119E+02 -0.38888547193E+02  0.12537510840E+02  0.46142319990E+02  0.10000020321E+02 0.  0.
         12    1    1    2    0    0 -0.18963254119E+02  0.38888547193E+02 -0.12537510840E+02  0.45045680010E+02  0.00000000000E+00 0. -1.
         11    1    3    3    0    0  0.12067370390E+01 -0.52067552360E+01  0.16959908829E+01  0.56073968742E+01  0.51100000000E-03 0. -1.
        -11    1    3    3    0    0  0.94823822037E+01 -0.26120275428E+02  0.87445907332E+01  0.29131636206E+02  0.51100000000E-03 0.  1.
        -12    1    3    3    0    0  0.82741348764E+01 -0.75615165289E+01  0.20969292238E+01  0.11403286909E+02  0.00000000000E+00 0.  1.
</event>
<event>
 7    1  0.1442665E-008  0.4614232E+02  0.7816164E-02  0.1320468E+00
        -11   -1    0    0    0    0  0.00000000000E+00  0.00000000000E+00  0.45593999997E+02  0.45594000000E+02  0.51100000000E-03 0.  1.
         11   -1    0    0    0    0 -0.00000000000E+00 -0.00000000000E+00 -0.45593999997E+02  0.45594000000E+02  0.51100000000E-03 0. -1.
    9900012    2    1    2    0    0  0.26498432936E+02 -0.16752565393E+01  0.36388735785E+02  0.46142317360E+02  0.99999963419E+01 0.  0.
         12    1    1    2    0    0 -0.26498432936E+02  0.16752565393E+01 -0.36388735785E+02  0.45045682640E+02  0.00000000000E+00 0. -1.
         11    1    3    3    0    0  0.12287702369E+01 -0.10671311610E+01  0.28107340362E+00  0.16515591812E+01  0.51100000000E-03 0. -1.
        -11    1    3    3    0    0  0.21988342886E+02 -0.18619613772E+01  0.27966815668E+02  0.35624386337E+02  0.51100000000E-03 0.  1.
         12    1    3    3    0    0  0.32813198124E+01  0.12538359989E+01  0.81408467129E+01  0.88663718412E+01  0.00000000000E+00 0. -1.
</event>
<event>
 7    1  0.1442665E-008  0.4614232E+02  0.7816164E-02  0.1320468E+00
        -11   -1    0    0    0    0  0.00000000000E+00  0.00000000000E+00  0.45593999997E+02  0.45594000000E+02  0.51100000000E-03 0.  1.
         11   -1    0    0    0    0 -0.00000000000E+00 -0.00000000000E+00 -0.45593999997E+02  0.45594000000E+02  0.51100000000E-03 0. -1.
    9900012    2    1    2    0    0 -0.17185759335E+02  0.32055023956E+01  0.41514911545E+02  0.46142318186E+02  0.10000003870E+02 0.  0.
         12    1    1    2    0    0  0.17185759335E+02 -0.32055023956E+01 -0.41514911545E+02  0.45045681814E+02  0.00000000000E+00 0. -1.
         11    1    3    3    0    0  0.70037156472E-01  0.20802102281E+01  0.39236726357E+01  0.44415523198E+01  0.51100000000E-03 0. -1.
        -11    1    3    3    0    0 -0.88836584025E+01  0.29331229804E+00  0.25213499780E+02  0.26734359729E+02  0.51100000000E-03 0.  1.
         12    1    3    3    0    0 -0.83721380889E+01  0.83197986943E+00  0.12377739129E+02  0.14966406136E+02  0.00000000000E+00 0. -1.
</event>
<event>
 7    1  0.1442665E-008  0.4614232E+02  0.7816164E-02  0.1320468E+00
        -11   -1    0    0    0    0  0.00000000000E+00  0.00000000000E+00  0.45593999997E+02  0.45594000000E+02  0.51100000000E-03 0. -1.
         11   -1    0    0    0    0 -0.00000000000E+00 -0.00000000000E+00 -0.45593999997E+02  0.45594000000E+02  0.51100000000E-03 0.  1.
    9900012    2    1    2    0    0 -0.59029173713E+01 -0.13956247152E+02 -0.42420421932E+02  0.46142318021E+02  0.10000002372E+02 0.  0.
         12    1    1    2    0    0  0.59029173713E+01  0.13956247152E+02  0.42420421932E+02  0.45045681979E+02  0.00000000000E+00 0. -1.
         11    1    3    3    0    0 -0.93222519926E+00 -0.22596023072E+01 -0.11768016700E+01  0.27128783314E+01  0.51100000000E-03 0. -1.
        -11    1    3    3    0    0 -0.29959215782E+01 -0.36064612976E+01 -0.21429782748E+02  0.21936674727E+02  0.51100000000E-03 0.  1.
         12    1    3    3    0    0 -0.19747705938E+01 -0.80901835474E+01 -0.19813837514E+02  0.21492764963E+02  0.00000000000E+00 0. -1.
</event>
<event>
 7    1  0.1442665E-008  0.4614232E+02  0.7816164E-02  0.1320468E+00
        -11   -1    0    0    0    0  0.00000000000E+00  0.00000000000E+00  0.45593999997E+02  0.45594000000E+02  0.51100000000E-03 0.  1.
         11   -1    0    0    0    0 -0.00000000000E+00 -0.00000000000E+00 -0.45593999997E+02  0.45594000000E+02  0.51100000000E-03 0. -1.
    9900012    2    1    2    0    0  0.31500024316E+02  0.72330550659E+00  0.32192216513E+02  0.46142317557E+02  0.99999981363E+01 0.  0.
         12    1    1    2    0    0 -0.31500024316E+02 -0.72330550659E+00 -0.32192216513E+02  0.45045682443E+02  0.00000000000E+00 0. -1.
         11    1    3    3    0    0  0.89528435368E+01 -0.34918214842E+01  0.10792116333E+02  0.14450467116E+02  0.51100000000E-03 0.  1.
        -11    1    3    3    0    0  0.51972655225E+01  0.16850272559E+00  0.26825477041E+01  0.58511558282E+01  0.51100000000E-03 0. -1.
         12    1    3    3    0    0  0.17349915256E+02  0.40466242652E+01  0.18717552476E+02  0.25840694612E+02  0.00000000000E+00 0. -1.
</event>
<event>
 7    1  0.1442665E-008  0.4614232E+02  0.7816164E-02  0.1320468E+00
        -11   -1    0    0    0    0  0.00000000000E+00  0.00000000000E+00  0.45593999997E+02  0.45594000000E+02  0.51100000000E-03 0.  1.
         11   -1    0    0    0    0 -0.00000000000E+00 -0.00000000000E+00 -0.45593999997E+02  0.45594000000E+02  0.51100000000E-03 0. -1.
    9900012    2    1    2    0    0 -0.21626842548E+02  0.82385814781E+01  0.38646072793E+02  0.46142317791E+02  0.10000000270E+02 0.  0.
         12    1    1    2    0    0  0.21626842548E+02 -0.82385814781E+01 -0.38646072793E+02  0.45045682209E+02  0.00000000000E+00 0. -1.
         11    1    3    3    0    0 -0.12461317423E+02  0.83453239415E+01  0.23616959829E+02  0.27976591205E+02  0.51100000000E-03 0. -1.
        -11    1    3    3    0    0 -0.90559604360E+01 -0.11501651044E+01  0.13845436146E+02  0.16584010417E+02  0.51100000000E-03 0.  1.
         12    1    3    3    0    0 -0.10956468918E+00  0.10434226411E+01  0.11836768176E+01  0.15817161685E+01  0.00000000000E+00 0. -1.
</event>
<event>
 7    1  0.1442665E-008  0.4614232E+02  0.7816164E-02  0.1320468E+00
        -11   -1    0    0    0    0  0.00000000000E+00  0.00000000000E+00  0.45593999997E+02  0.45594000000E+02  0.51100000000E-03 0.  1.
         11   -1    0    0    0    0 -0.00000000000E+00 -0.00000000000E+00 -0.45593999997E+02  0.45594000000E+02  0.51100000000E-03 0. -1.
    9900012    2    1    2    0    0 -0.20673053337E+02 -0.11212124449E+02  0.38419091876E+02  0.46142317749E+02  0.99999998871E+01 0.  0.
         12    1    1    2    0    0  0.20673053337E+02  0.11212124449E+02 -0.38419091876E+02  0.45045682251E+02  0.00000000000E+00 0. -1.
         11    1    3    3    0    0 -0.91993040781E+00 -0.19305026661E+01  0.45923079509E+01  0.50658074456E+01  0.51100000000E-03 0. -1.
        -11    1    3    3    0    0 -0.18276545351E+02 -0.55884095487E+01  0.25687202614E+02  0.32017101831E+02  0.51100000000E-03 0.  1.
        -12    1    3    3    0    0 -0.14765775777E+01 -0.36932122339E+01  0.81395813110E+01  0.90594084722E+01  0.00000000000E+00 0.  1.
</event>
<event>
 7    1  0.1442665E-008  0.4614232E+02  0.7816164E-02  0.1320468E+00
        -11   -1    0    0    0    0  0.00000000000E+00  0.00000000000E+00  0.45593999997E+02  0.45594000000E+02  0.51100000000E-03 0. -1.
         11   -1    0    0    0    0 -0.00000000000E+00 -0.00000000000E+00 -0.45593999997E+02  0.45594000000E+02  0.51100000000E-03 0.  1.
    9900012    2    1    2    0    0 -0.11016922816E+01  0.41210670156E+02  0.18154348302E+02  0.46142318488E+02  0.10000006632E+02 0.  0.
         12    1    1    2    0    0  0.11016922816E+01 -0.41210670156E+02 -0.18154348302E+02  0.45045681512E+02  0.00000000000E+00 0. -1.
         11    1    3    3    0    0 -0.12389305848E+01  0.67576912335E+01 -0.59009739073E+00  0.68956185359E+01  0.51100000000E-03 0. -1.
        -11    1    3    3    0    0 -0.15864451410E-01  0.26779016328E+01  0.18919949023E+01  0.32788799623E+01  0.51100000000E-03 0.  1.
         12    1    3    3    0    0  0.15310275460E+00  0.31775077289E+02  0.16852450790E+02  0.35967819990E+02  0.00000000000E+00 0. -1.
</event>
<event>
 7    1  0.1442665E-008  0.4614232E+02  0.7816164E-02  0.1320468E+00
        -11   -1    0    0    0    0  0.00000000000E+00  0.00000000000E+00  0.45593999997E+02  0.45594000000E+02  0.51100000000E-03 0.  1.
         11   -1    0    0    0    0 -0.00000000000E+00 -0.00000000000E+00 -0.45593999997E+02  0.45594000000E+02  0.51100000000E-03 0. -1.
    9900012    2    1    2    0    0  0.36093798938E+01 -0.10230715712E+02  0.43719770361E+02  0.46142317770E+02  0.10000000079E+02 0.  0.
         12    1    1    2    0    0 -0.36093798938E+01  0.10230715712E+02 -0.43719770361E+02  0.45045682230E+02  0.00000000000E+00 0. -1.
         11    1    3    3    0    0 -0.25935976230E+01 -0.72109011148E+00  0.78826695443E+01  0.83296577952E+01  0.51100000000E-03 0. -1.
        -11    1    3    3    0    0  0.56676200510E+01 -0.70109769040E+01  0.22611669515E+02  0.24342623374E+02  0.51100000000E-03 0.  1.
        -12    1    3    3    0    0  0.53535746575E+00 -0.24986486962E+01  0.13225431301E+02  0.13470036601E+02  0.00000000000E+00 0.  1.
</event>
<event>
 7    1  0.1442665E-008  0.4614232E+02  0.7816164E-02  0.1320468E+00
        -11   -1    0    0    0    0  0.00000000000E+00  0.00000000000E+00  0.45593999997E+02  0.45594000000E+02  0.51100000000E-03 0.  1.
         11   -1    0    0    0    0 -0.00000000000E+00 -0.00000000000E+00 -0.45593999997E+02  0.45594000000E+02  0.51100000000E-03 0. -1.
    9900012    2    1    2    0    0  0.25838073142E+02 -0.18812757046E+02  0.31742519194E+02  0.46142319007E+02  0.10000011358E+02 0.  0.
         12    1    1    2    0    0 -0.25838073142E+02  0.18812757046E+02 -0.31742519194E+02  0.45045680993E+02  0.00000000000E+00 0. -1.
         11    1    3    3    0    0  0.43070565136E+01 -0.14909124942E+01  0.39102379924E+01  0.60052907752E+01  0.51100000000E-03 0.  1.
        -11    1    3    3    0    0  0.12931802537E+02 -0.79216087186E+01  0.97923594363E+01  0.18051972334E+02  0.51100000000E-03 0. -1.
        -12    1    3    3    0    0  0.85992140916E+01 -0.94002358333E+01  0.18039921765E+02  0.22085055898E+02  0.00000000000E+00 0.  1.
</event>
<event>
 7    1  0.1442665E-008  0.4614232E+02  0.7816164E-02  0.1320468E+00
        -11   -1    0    0    0    0  0.00000000000E+00  0.00000000000E+00  0.45593999997E+02  0.45594000000E+02  0.51100000000E-03 0.  1.
         11   -1    0    0    0    0 -0.00000000000E+00 -0.00000000000E+00 -0.45593999997E+02  0.45594000000E+02  0.51100000000E-03 0. -1.
    9900012    2    1    2    0    0 -0.14632833929E+02 -0.31960865341E+02  0.28169073761E+02  0.46142318091E+02  0.10000003007E+02 0.  0.
         12    1    1    2    0    0  0.14632833929E+02  0.31960865341E+02 -0.28169073761E+02  0.45045681909E+02  0.00000000000E+00 0. -1.
         11    1    3    3    0    0 -0.53770810527E+01 -0.80510097299E+01  0.11385588948E+02  0.14945346910E+02  0.51100000000E-03 0. -1.
        -11    1    3    3    0    0 -0.55254927484E+01 -0.16512597098E+02  0.14346347528E+02  0.22561352368E+02  0.51100000000E-03 0.  1.
         12    1    3    3    0    0 -0.37302601276E+01 -0.73972585131E+01  0.24371372850E+01  0.86356188125E+01  0.00000000000E+00 0. -1.
</event>
<event>
 7    1  0.1442665E-008  0.4614232E+02  0.7816164E-02  0.1320468E+00
        -11   -1    0    0    0    0  0.00000000000E+00  0.00000000000E+00  0.45593999997E+02  0.45594000000E+02  0.51100000000E-03 0.  1.
         11   -1    0    0    0    0 -0.00000000000E+00 -0.00000000000E+00 -0.45593999997E+02  0.45594000000E+02  0.51100000000E-03 0. -1.
    9900012    2    1    2    0    0  0.36310797852E+02  0.18187200024E+02  0.19490130823E+02  0.46142317800E+02  0.10000000351E+02 0.  0.
         12    1    1    2    0    0 -0.36310797852E+02 -0.18187200024E+02 -0.19490130823E+02  0.45045682200E+02  0.00000000000E+00 0. -1.
         11    1    3    3    0    0  0.29189631505E+01  0.26851250584E+01  0.23079630099E+00  0.39728465421E+01  0.51100000000E-03 0. -1.
        -11    1    3    3    0    0  0.74164317920E+01  0.62551321325E+01  0.29770919911E+01  0.10148557312E+02  0.51100000000E-03 0.  1.
        -12    1    3    3    0    0  0.25975402910E+02  0.92469428335E+01  0.16282242531E+02  0.32020913946E+02  0.00000000000E+00 0.  1.
</event>
<event>
 7    1  0.1442665E-008  0.4614232E+02  0.7816164E-02  0.1320468E+00
        -11   -1    0    0    0    0  0.00000000000E+00  0.00000000000E+00  0.45593999997E+02  0.45594000000E+02  0.51100000000E-03 0.  1.
         11   -1    0    0    0    0 -0.00000000000E+00 -0.00000000000E+00 -0.45593999997E+02  0.45594000000E+02  0.51100000000E-03 0. -1.
    9900012    2    1    2    0    0 -0.99186723023E+01 -0.35181722597E+02  0.26324511290E+02  0.46142316969E+02  0.99999927762E+01 0.  0.
         12    1    1    2    0    0  0.99186723023E+01  0.35181722597E+02 -0.26324511290E+02  0.45045683031E+02  0.00000000000E+00 0. -1.
         11    1    3    3    0    0 -0.11635985212E+01 -0.21444743388E+02  0.15691745268E+02  0.26598155017E+02  0.51100000000E-03 0. -1.
        -11    1    3    3    0    0 -0.73191286298E+01 -0.10005685282E+02  0.78587780269E+01  0.14678003073E+02  0.51100000000E-03 0.  1.
        -12    1    3    3    0    0 -0.14359451513E+01 -0.37312939261E+01  0.27739879947E+01  0.48661588789E+01  0.00000000000E+00 0.  1.
</event>
<event>
 7    1  0.1442665E-008  0.4614232E+02  0.7816164E-02  0.1320468E+00
        -11   -1    0    0    0    0  0.00000000000E+00  0.00000000000E+00  0.45593999997E+02  0.45594000000E+02  0.51100000000E-03 0. -1.
         11   -1    0    0    0    0 -0.00000000000E+00 -0.00000000000E+00 -0.45593999997E+02  0.45594000000E+02  0.51100000000E-03 0.  1.
    9900012    2    1    2    0    0  0.30834683113E+02 -0.31212928290E+02 -0.10202393543E+02  0.46142318641E+02  0.10000008023E+02 0.  0.
         12    1    1    2    0    0 -0.30834683113E+02  0.31212928290E+02  0.10202393543E+02  0.45045681359E+02  0.00000000000E+00 0. -1.
         11    1    3    3    0    0  0.20195453873E+01 -0.30175116460E+01 -0.31811912101E+01  0.48274131667E+01  0.51100000000E-03 0. -1.
        -11    1    3    3    0    0  0.12472410744E+02 -0.14238331545E+02 -0.57636702673E+01  0.19786637162E+02  0.51100000000E-03 0.  1.
         12    1    3    3    0    0  0.16342726981E+02 -0.13957085098E+02 -0.12575320657E+01  0.21528268312E+02  0.00000000000E+00 0. -1.
</event>
<event>
 7    1  0.1442665E-008  0.4614232E+02  0.7816164E-02  0.1320468E+00
        -11   -1    0    0    0    0  0.00000000000E+00  0.00000000000E+00  0.45593999997E+02  0.45594000000E+02  0.51100000000E-03 0.  1.
         11   -1    0    0    0    0 -0.00000000000E+00 -0.00000000000E+00 -0.45593999997E+02  0.45594000000E+02  0.51100000000E-03 0. -1.
    9900012    2    1    2    0    0 -0.25771722552E+02 -0.24281878753E+02  0.27844605736E+02  0.46142318879E+02  0.10000010190E+02 0.  0.
         12    1    1    2    0    0  0.25771722552E+02  0.24281878753E+02 -0.27844605736E+02  0.45045681121E+02  0.00000000000E+00 0. -1.
         11    1    3    3    0    0 -0.44771881440E+01 -0.17733154857E+01  0.55614835303E+01  0.73566269993E+01  0.51100000000E-03 0.  1.
        -11    1    3    3    0    0 -0.12041001619E+02 -0.17033846887E+02  0.12986682749E+02  0.24572171025E+02  0.51100000000E-03 0. -1.
         12    1    3    3    0    0 -0.92535327887E+01 -0.54747163806E+01  0.92964394565E+01  0.14213520855E+02  0.00000000000E+00 0. -1.
</event>
<event>
 7    1  0.1442665E-008  0.4614232E+02  0.7816164E-02  0.1320468E+00
        -11   -1    0    0    0    0  0.00000000000E+00  0.00000000000E+00  0.45593999997E+02  0.45594000000E+02  0.51100000000E-03 0.  1.
         11   -1    0    0    0    0 -0.00000000000E+00 -0.00000000000E+00 -0.45593999997E+02  0.45594000000E+02  0.51100000000E-03 0. -1.
    9900012    2    1    2    0    0 -0.27892199261E+02 -0.34967541152E+02  0.53300876485E+01  0.46142317097E+02  0.99999939478E+01 0.  0.
         12    1    1    2    0    0  0.27892199261E+02  0.34967541152E+02 -0.53300876485E+01  0.45045682903E+02  0.00000000000E+00 0. -1.
         11    1    3    3    0    0  0.14455766903E+00  0.18491490592E+00 -0.33800046746E-01  0.23713529132E+00  0.51100000000E-03 0. -1.
        -11    1    3    3    0    0 -0.12691669375E+02 -0.16904542927E+02 -0.12096770025E+01  0.21173222755E+02  0.51100000000E-03 0.  1.
        -12    1    3    3    0    0 -0.15345087555E+02 -0.18247913130E+02  0.65735646977E+01  0.24731959052E+02  0.00000000000E+00 0.  1.
</event>
<event>
 7    1  0.1442665E-008  0.4614232E+02  0.7816164E-02  0.1320468E+00
        -11   -1    0    0    0    0  0.00000000000E+00  0.00000000000E+00  0.45593999997E+02  0.45594000000E+02  0.51100000000E-03 0. -1.
         11   -1    0    0    0    0 -0.00000000000E+00 -0.00000000000E+00 -0.45593999997E+02  0.45594000000E+02  0.51100000000E-03 0.  1.
    9900012    2    1    2    0    0  0.43691553798E+02 -0.10774184255E+02 -0.20195521383E+01  0.46142317516E+02  0.99999977629E+01 0.  0.
         12    1    1    2    0    0 -0.43691553798E+02  0.10774184255E+02  0.20195521383E+01  0.45045682484E+02  0.00000000000E+00 0. -1.
         11    1    3    3    0    0  0.22766361516E+02 -0.32378261018E+01  0.31020168085E+01  0.23203733387E+02  0.51100000000E-03 0. -1.
        -11    1    3    3    0    0  0.13876569285E+02 -0.38804321980E+01 -0.29685597531E+01  0.14711535488E+02  0.51100000000E-03 0.  1.
         12    1    3    3    0    0  0.70486229969E+01 -0.36559259557E+01 -0.21530091936E+01  0.82270486405E+01  0.00000000000E+00 0. -1.
</event>
<event>
 7    1  0.1442665E-008  0.4614232E+02  0.7816164E-02  0.1320468E+00
        -11   -1    0    0    0    0  0.00000000000E+00  0.00000000000E+00  0.45593999997E+02  0.45594000000E+02  0.51100000000E-03 0.  1.
         11   -1    0    0    0    0 -0.00000000000E+00 -0.00000000000E+00 -0.45593999997E+02  0.45594000000E+02  0.51100000000E-03 0. -1.
    9900012    2    1    2    0    0  0.23888427140E+02  0.38143146849E+02  0.18859230814E+01  0.46142319756E+02  0.10000018193E+02 0.  0.
         12    1    1    2    0    0 -0.23888427140E+02 -0.38143146849E+02 -0.18859230814E+01  0.45045680244E+02  0.00000000000E+00 0. -1.
         11    1    3    3    0    0  0.66257817114E+01  0.15180412516E+02 -0.10838763452E+01  0.16598816091E+02  0.51100000000E-03 0.  1.
        -11    1    3    3    0    0  0.28617601854E+01  0.57129932083E+01 -0.16575154694E+01  0.66011605456E+01  0.51100000000E-03 0. -1.
         12    1    3    3    0    0  0.14400885244E+02  0.17249741125E+02  0.46273148960E+01  0.22942343119E+02  0.00000000000E+00 0. -1.
</event>
<event>
 7    1  0.1442665E-008  0.4614232E+02  0.7816164E-02  0.1320468E+00
        -11   -1    0    0    0    0  0.00000000000E+00  0.00000000000E+00  0.45593999997E+02  0.45594000000E+02  0.51100000000E-03 0.  1.
         11   -1    0    0    0    0 -0.00000000000E+00 -0.00000000000E+00 -0.45593999997E+02  0.45594000000E+02  0.51100000000E-03 0. -1.
    9900012    2    1    2    0    0  0.29498876200E+02 -0.26370815911E+02  0.21529276652E+02  0.46142318941E+02  0.10000010763E+02 0.  0.
         12    1    1    2    0    0 -0.29498876200E+02  0.26370815911E+02 -0.21529276652E+02  0.45045681059E+02  0.00000000000E+00 0. -1.
         11    1    3    3    0    0  0.11867341078E+01 -0.20025194671E+01  0.19622780604E+01  0.30444962648E+01  0.51100000000E-03 0. -1.
        -11    1    3    3    0    0  0.69596863008E+01 -0.10879844360E+02  0.44352743424E+01  0.13655764551E+02  0.51100000000E-03 0.  1.
        -12    1    3    3    0    0  0.21352455791E+02 -0.13488452083E+02  0.15131724250E+02  0.29442058126E+02  0.00000000000E+00 0.  1.
</event>
<event>
 7    1  0.1442665E-008  0.4614232E+02  0.7816164E-02  0.1320468E+00
        -11   -1    0    0    0    0  0.00000000000E+00  0.00000000000E+00  0.45593999997E+02  0.45594000000E+02  0.51100000000E-03 0.  1.
         11   -1    0    0    0    0 -0.00000000000E+00 -0.00000000000E+00 -0.45593999997E+02  0.45594000000E+02  0.51100000000E-03 0. -1.
    9900012    2    1    2    0    0  0.17802582364E+02 -0.31595402306E+02  0.26719134360E+02  0.46142317336E+02  0.99999961233E+01 0.  0.
         12    1    1    2    0    0 -0.17802582364E+02  0.31595402306E+02 -0.26719134360E+02  0.45045682664E+02  0.00000000000E+00 0. -1.
         11    1    3    3    0    0  0.49353469470E+01 -0.15593693531E+02  0.11930220128E+02  0.20244779080E+02  0.51100000000E-03 0. -1.
        -11    1    3    3    0    0  0.57171885027E+01 -0.10112139487E+02  0.10619902060E+02  0.15739248057E+02  0.51100000000E-03 0.  1.
         12    1    3    3    0    0  0.71500469140E+01 -0.58895692888E+01  0.41690121716E+01  0.10158290199E+02  0.00000000000E+00 0. -1.
</event>
<event>
 7    1  0.1442665E-008  0.4614232E+02  0.7816164E-02  0.1320468E+00
        -11   -1    0    0    0    0  0.00000000000E+00  0.00000000000E+00  0.45593999997E+02  0.45594000000E+02  0.51100000000E-03 0.  1.
         11   -1    0    0    0    0 -0.00000000000E+00 -0.00000000000E+00 -0.45593999997E+02  0.45594000000E+02  0.51100000000E-03 0. -1.
    9900012    2    1    2    0    0 -0.16602702818E+02 -0.20476608641E+02  0.36526323358E+02  0.46142317184E+02  0.99999947364E+01 0.  0.
         12    1    1    2    0    0  0.16602702818E+02  0.20476608641E+02 -0.36526323358E+02  0.45045682816E+02  0.00000000000E+00 0. -1.
         11    1    3    3    0    0 -0.55165944698E+01 -0.63957507139E+01  0.76250881455E+01  0.11378945963E+02  0.51100000000E-03 0. -1.
        -11    1    3    3    0    0 -0.68819974181E+01 -0.57582691619E+01  0.19777611465E+02  0.21718044749E+02  0.51100000000E-03 0.  1.
        -12    1    3    3    0    0 -0.42041109300E+01 -0.83225887655E+01  0.91236237480E+01  0.13045326472E+02  0.00000000000E+00 0.  1.
</event>
<event>
 7    1  0.1442665E-008  0.4614232E+02  0.7816164E-02  0.1320468E+00
        -11   -1    0    0    0    0  0.00000000000E+00  0.00000000000E+00  0.45593999997E+02  0.45594000000E+02  0.51100000000E-03 0. -1.
         11   -1    0    0    0    0 -0.00000000000E+00 -0.00000000000E+00 -0.45593999997E+02  0.45594000000E+02  0.51100000000E-03 0.  1.
    9900012    2    1    2    0    0 -0.28438908026E+02  0.34883969872E+02  0.18575894267E+01  0.46142317829E+02  0.10000000618E+02 0.  0.
         12    1    1    2    0    0  0.28438908026E+02 -0.34883969872E+02 -0.18575894267E+01  0.45045682171E+02  0.00000000000E+00 0. -1.
         11    1    3    3    0    0 -0.96790818736E+01  0.14608083899E+02 -0.13226150539E+01  0.17573561163E+02  0.51100000000E-03 0. -1.
        -11    1    3    3    0    0 -0.16094168102E+02  0.19311959653E+02  0.43310579507E+01  0.25509451106E+02  0.51100000000E-03 0.  1.
         12    1    3    3    0    0 -0.26656580509E+01  0.96392632090E+00 -0.11508534700E+01  0.30593055594E+01  0.00000000000E+00 0. -1.
</event>
<event>
 7    1  0.1442665E-008  0.4614232E+02  0.7816164E-02  0.1320468E+00
        -11   -1    0    0    0    0  0.00000000000E+00  0.00000000000E+00  0.45593999997E+02  0.45594000000E+02  0.51100000000E-03 0.  1.
         11   -1    0    0    0    0 -0.00000000000E+00 -0.00000000000E+00 -0.45593999997E+02  0.45594000000E+02  0.51100000000E-03 0. -1.
    9900012    2    1    2    0    0 -0.28921665956E+02  0.31897846343E+02  0.13235488667E+02  0.46142317374E+02  0.99999964660E+01 0.  0.
         12    1    1    2    0    0  0.28921665956E+02 -0.31897846343E+02 -0.13235488667E+02  0.45045682626E+02  0.00000000000E+00 0. -1.
         11    1    3    3    0    0 -0.12497736548E+02  0.14489236642E+02  0.27050886139E+01  0.19324826052E+02  0.51100000000E-03 0. -1.
        -11    1    3    3    0    0 -0.73767559343E+01  0.11333015839E+02  0.76879065586E+01  0.15554989027E+02  0.51100000000E-03 0.  1.
         12    1    3    3    0    0 -0.90471734744E+01  0.60755938619E+01  0.28424934942E+01  0.11262502294E+02  0.00000000000E+00 0. -1.
</event>
<event>
 7    1  0.1442665E-008  0.4614232E+02  0.7816164E-02  0.1320468E+00
        -11   -1    0    0    0    0  0.00000000000E+00  0.00000000000E+00  0.45593999997E+02  0.45594000000E+02  0.51100000000E-03 0.  1.
         11   -1    0    0    0    0 -0.00000000000E+00 -0.00000000000E+00 -0.45593999997E+02  0.45594000000E+02  0.51100000000E-03 0. -1.
    9900012    2    1    2    0    0 -0.18035893773E+02 -0.12767030745E+02  0.39253317530E+02  0.46142317906E+02  0.10000001321E+02 0.  0.
         12    1    1    2    0    0  0.18035893773E+02  0.12767030745E+02 -0.39253317530E+02  0.45045682094E+02  0.00000000000E+00 0. -1.
         11    1    3    3    0    0 -0.82727122574E+01 -0.46408453033E+01  0.86889382555E+01  0.12863625519E+02  0.51100000000E-03 0. -1.
        -11    1    3    3    0    0 -0.42791859474E+01 -0.15666076260E+01  0.91922499621E+01  0.10259783207E+02  0.51100000000E-03 0.  1.
         12    1    3    3    0    0 -0.54839955677E+01 -0.65595778161E+01  0.21372129312E+02  0.23018909180E+02  0.00000000000E+00 0. -1.
</event>
<event>
 7    1  0.1442665E-008  0.4614232E+02  0.7816164E-02  0.1320468E+00
        -11   -1    0    0    0    0  0.00000000000E+00  0.00000000000E+00  0.45593999997E+02  0.45594000000E+02  0.51100000000E-03 0.  1.
         11   -1    0    0    0    0 -0.00000000000E+00 -0.00000000000E+00 -0.45593999997E+02  0.45594000000E+02  0.51100000000E-03 0. -1.
    9900012    2    1    2    0    0 -0.35563629049E+02 -0.12447892820E+02  0.24685859537E+02  0.46142318654E+02  0.10000008145E+02 0.  0.
         12    1    1    2    0    0  0.35563629049E+02  0.12447892820E+02 -0.24685859537E+02  0.45045681346E+02  0.00000000000E+00 0. -1.
         11    1    3    3    0    0 -0.15004798288E+01 -0.18909189279E+01  0.18434764146E+00  0.24209499008E+01  0.51100000000E-03 0. -1.
        -11    1    3    3    0    0 -0.13167635544E+02 -0.12348603264E+01  0.10596268717E+02  0.16946752398E+02  0.51100000000E-03 0.  1.
        -12    1    3    3    0    0 -0.20895513677E+02 -0.93221135654E+01  0.13905243179E+02  0.26774616356E+02  0.00000000000E+00 0.  1.
</event>
<event>
 7    1  0.1442665E-008  0.4614232E+02  0.7816164E-02  0.1320468E+00
        -11   -1    0    0    0    0  0.00000000000E+00  0.00000000000E+00  0.45593999997E+02  0.45594000000E+02  0.51100000000E-03 0.  1.
         11   -1    0    0    0    0 -0.00000000000E+00 -0.00000000000E+00 -0.45593999997E+02  0.45594000000E+02  0.51100000000E-03 0. -1.
    9900012    2    1    2    0    0  0.12422936366E+01 -0.40780998619E+02  0.19091367536E+02  0.46142318117E+02  0.10000003250E+02 0.  0.
         12    1    1    2    0    0 -0.12422936366E+01  0.40780998619E+02 -0.19091367536E+02  0.45045681883E+02  0.00000000000E+00 0. -1.
         11    1    3    3    0    0 -0.15587163426E+01 -0.25459989108E+02  0.93392218620E+01  0.27163609982E+02  0.51100000000E-03 0. -1.
        -11    1    3    3    0    0  0.55149004358E+00 -0.12635849942E+02  0.66000817972E+01  0.14266391450E+02  0.51100000000E-03 0.  1.
         12    1    3    3    0    0  0.22495199356E+01 -0.26851595691E+01  0.31520638772E+01  0.47123166849E+01  0.00000000000E+00 0. -1.
</event>
<event>
 7    1  0.1442665E-008  0.4614232E+02  0.7816164E-02  0.1320468E+00
        -11   -1    0    0    0    0  0.00000000000E+00  0.00000000000E+00  0.45593999997E+02  0.45594000000E+02  0.51100000000E-03 0.  1.
         11   -1    0    0    0    0 -0.00000000000E+00 -0.00000000000E+00 -0.45593999997E+02  0.45594000000E+02  0.51100000000E-03 0. -1.
    9900012    2    1    2    0    0 -0.69195475209E+01  0.24053756172E+02  0.37451972172E+02  0.46142317150E+02  0.99999944291E+01 0.  0.
         12    1    1    2    0    0  0.69195475209E+01 -0.24053756172E+02 -0.37451972172E+02  0.45045682850E+02  0.00000000000E+00 0. -1.
         11    1    3    3    0    0 -0.31219347988E+01  0.21026806533E+01  0.58482723689E+01  0.69548567763E+01  0.51100000000E-03 0. -1.
        -11    1    3    3    0    0 -0.17406715833E+01  0.74009355066E+01  0.60764454588E+01  0.97327783088E+01  0.51100000000E-03 0.  1.
        -12    1    3    3    0    0 -0.20569411388E+01  0.14550140012E+02  0.25527254344E+02  0.29454682065E+02  0.00000000000E+00 0.  1.
</event>
<event>
 7    1  0.1442665E-008  0.4614232E+02  0.7816164E-02  0.1320468E+00
        -11   -1    0    0    0    0  0.00000000000E+00  0.00000000000E+00  0.45593999997E+02  0.45594000000E+02  0.51100000000E-03 0. -1.
         11   -1    0    0    0    0 -0.00000000000E+00 -0.00000000000E+00 -0.45593999997E+02  0.45594000000E+02  0.51100000000E-03 0.  1.
    9900012    2    1    2    0    0  0.38127749189E+02 -0.17069348092E+02  0.16853058971E+02  0.46142317641E+02  0.99999989041E+01 0.  0.
         12    1    1    2    0    0 -0.38127749189E+02  0.17069348092E+02 -0.16853058971E+02  0.45045682359E+02  0.00000000000E+00 0. -1.
         11    1    3    3    0    0  0.43524854448E+01 -0.47614755446E+01  0.18112890217E+01  0.67004885710E+01  0.51100000000E-03 0. -1.
        -11    1    3    3    0    0  0.27909848773E+02 -0.12072347366E+02  0.14012617406E+02  0.33482154595E+02  0.51100000000E-03 0.  1.
        -12    1    3    3    0    0  0.58654149712E+01 -0.23552518144E+00  0.10291525434E+01  0.59596744754E+01  0.00000000000E+00 0.  1.
</event>
<event>
 7    1  0.1442665E-008  0.4614232E+02  0.7816164E-02  0.1320468E+00
        -11   -1    0    0    0    0  0.00000000000E+00  0.00000000000E+00  0.45593999997E+02  0.45594000000E+02  0.51100000000E-03 0.  1.
         11   -1    0    0    0    0 -0.00000000000E+00 -0.00000000000E+00 -0.45593999997E+02  0.45594000000E+02  0.51100000000E-03 0. -1.
    9900012    2    1    2    0    0  0.15340676940E+02 -0.20531182543E+02  0.37043861799E+02  0.46142317381E+02  0.99999965383E+01 0.  0.
         12    1    1    2    0    0 -0.15340676940E+02  0.20531182543E+02 -0.37043861799E+02  0.45045682619E+02  0.00000000000E+00 0. -1.
         11    1    3    3    0    0  0.94357197316E+01 -0.13242463145E+02  0.21440995227E+02  0.26909327632E+02  0.51100000000E-03 0.  1.
        -11    1    3    3    0    0 -0.50192072964E+00 -0.15280445101E+01  0.65129833630E+01  0.67086360008E+01  0.51100000000E-03 0. -1.
        -12    1    3    3    0    0  0.64068779385E+01 -0.57606748881E+01  0.90898832085E+01  0.12524353749E+02  0.00000000000E+00 0.  1.
</event>
<event>
 7    1  0.1442665E-008  0.4614231E+02  0.7816164E-02  0.1320468E+00
        -11   -1    0    0    0    0  0.00000000000E+00  0.00000000000E+00  0.45593999997E+02  0.45594000000E+02  0.51100000000E-03 0. -1.
         11   -1    0    0    0    0 -0.00000000000E+00 -0.00000000000E+00 -0.45593999997E+02  0.45594000000E+02  0.51100000000E-03 0.  1.
    9900012    2    1    2    0    0  0.10704115213E+02  0.41261080638E+02 -0.14562262923E+02  0.46142308094E+02  0.99999118451E+01 0.  0.
         12    1    1    2    0    0 -0.10704115213E+02 -0.41261080638E+02  0.14562262923E+02  0.45045691906E+02  0.00000000000E+00 0. -1.
         11    1    3    3    0    0  0.19671039855E+01  0.49697030062E+01 -0.87674246952E+00  0.54162831977E+01  0.51100000000E-03 0. -1.
        -11    1    3    3    0    0  0.54751960749E+01  0.11583094374E+02 -0.81859401010E+01  0.15203797648E+02  0.51100000000E-03 0.  1.
        -12    1    3    3    0    0  0.32618151522E+01  0.24708283258E+02 -0.54995803525E+01  0.25522227248E+02  0.00000000000E+00 0.  1.
</event>
<event>
 7    1  0.1442665E-008  0.4614232E+02  0.7816164E-02  0.1320468E+00
        -11   -1    0    0    0    0  0.00000000000E+00  0.00000000000E+00  0.45593999997E+02  0.45594000000E+02  0.51100000000E-03 0.  1.
         11   -1    0    0    0    0 -0.00000000000E+00 -0.00000000000E+00 -0.45593999997E+02  0.45594000000E+02  0.51100000000E-03 0. -1.
    9900012    2    1    2    0    0 -0.60969118742E+01  0.19242340420E+02  0.40270004587E+02  0.46142320199E+02  0.10000022235E+02 0.  0.
         12    1    1    2    0    0  0.60969118742E+01 -0.19242340420E+02 -0.40270004587E+02  0.45045679801E+02  0.00000000000E+00 0. -1.
         11    1    3    3    0    0  0.48238881201E+00 -0.73202566545E+00  0.12361783104E+01  0.15154859343E+01  0.51100000000E-03 0. -1.
        -11    1    3    3    0    0 -0.52224256351E+01  0.19281287516E+02  0.34781462826E+02  0.40109748620E+02  0.51100000000E-03 0.  1.
        -12    1    3    3    0    0 -0.13568750511E+01  0.69307856956E+00  0.42523634505E+01  0.45170856448E+01  0.00000000000E+00 0.  1.
</event>
<event>
 7    1  0.1442665E-008  0.4614232E+02  0.7816164E-02  0.1320468E+00
        -11   -1    0    0    0    0  0.00000000000E+00  0.00000000000E+00  0.45593999997E+02  0.45594000000E+02  0.51100000000E-03 0.  1.
         11   -1    0    0    0    0 -0.00000000000E+00 -0.00000000000E+00 -0.45593999997E+02  0.45594000000E+02  0.51100000000E-03 0. -1.
    9900012    2    1    2    0    0  0.14982372378E+02 -0.17963905515E+02  0.38495975198E+02  0.46142317744E+02  0.99999998430E+01 0.  0.
         12    1    1    2    0    0 -0.14982372378E+02  0.17963905515E+02 -0.38495975198E+02  0.45045682256E+02  0.00000000000E+00 0. -1.
         11    1    3    3    0    0  0.21971168762E+01  0.22159313928E+00  0.22882498036E+01  0.31800178477E+01  0.51100000000E-03 0. -1.
        -11    1    3    3    0    0  0.96972135996E+01 -0.12707738138E+02  0.20172291829E+02  0.25737985898E+02  0.51100000000E-03 0.  1.
         12    1    3    3    0    0  0.30880419021E+01 -0.54777605164E+01  0.16035433566E+02  0.17224313998E+02  0.00000000000E+00 0. -1.
</event>
<event>
 7    1  0.1442665E-008  0.4614232E+02  0.7816164E-02  0.1320468E+00
        -11   -1    0    0    0    0  0.00000000000E+00  0.00000000000E+00  0.45593999997E+02  0.45594000000E+02  0.51100000000E-03 0.  1.
         11   -1    0    0    0    0 -0.00000000000E+00 -0.00000000000E+00 -0.45593999997E+02  0.45594000000E+02  0.51100000000E-03 0. -1.
    9900012    2    1    2    0    0 -0.32725758148E+02 -0.29514250031E+02  0.93299206658E+01  0.46142316290E+02  0.99999865889E+01 0.  0.
         12    1    1    2    0    0  0.32725758148E+02  0.29514250031E+02 -0.93299206658E+01  0.45045683710E+02  0.00000000000E+00 0. -1.
         11    1    3    3    0    0 -0.11836724106E+01 -0.25059381255E+01 -0.25458666026E+00  0.27830955594E+01  0.51100000000E-03 0. -1.
        -11    1    3    3    0    0 -0.25359814804E+02 -0.25289046734E+02  0.73207892385E+01  0.36554754095E+02  0.51100000000E-03 0.  1.
         12    1    3    3    0    0 -0.61822709330E+01 -0.17192651715E+01  0.22637180875E+01  0.68044666358E+01  0.00000000000E+00 0. -1.
</event>
<event>
 7    1  0.1442665E-008  0.4614232E+02  0.7816164E-02  0.1320468E+00
        -11   -1    0    0    0    0  0.00000000000E+00  0.00000000000E+00  0.45593999997E+02  0.45594000000E+02  0.51100000000E-03 0.  1.
         11   -1    0    0    0    0 -0.00000000000E+00 -0.00000000000E+00 -0.45593999997E+02  0.45594000000E+02  0.51100000000E-03 0. -1.
    9900012    2    1    2    0    0  0.17741168154E+02 -0.35637809308E+02  0.21078685610E+02  0.46142317779E+02  0.10000000164E+02 0.  0.
         12    1    1    2    0    0 -0.17741168154E+02  0.35637809308E+02 -0.21078685610E+02  0.45045682221E+02  0.00000000000E+00 0. -1.
         11    1    3    3    0    0  0.28901020621E+01 -0.13464046372E+02  0.52302385077E+01  0.14730533926E+02  0.51100000000E-03 0. -1.
        -11    1    3    3    0    0  0.99718585914E+01 -0.18459508780E+02  0.12576393820E+02  0.24461339087E+02  0.51100000000E-03 0.  1.
        -12    1    3    3    0    0  0.48792075001E+01 -0.37142541563E+01  0.32720532819E+01  0.69504447661E+01  0.00000000000E+00 0.  1.
</event>
<event>
 7    1  0.1442665E-008  0.4614232E+02  0.7816164E-02  0.1320468E+00
        -11   -1    0    0    0    0  0.00000000000E+00  0.00000000000E+00  0.45593999997E+02  0.45594000000E+02  0.51100000000E-03 0.  1.
         11   -1    0    0    0    0 -0.00000000000E+00 -0.00000000000E+00 -0.45593999997E+02  0.45594000000E+02  0.51100000000E-03 0. -1.
    9900012    2    1    2    0    0  0.25550735846E+02 -0.19704267695E+02  0.31432709313E+02  0.46142317827E+02  0.10000000602E+02 0.  0.
         12    1    1    2    0    0 -0.25550735846E+02  0.19704267695E+02 -0.31432709313E+02  0.45045682173E+02  0.00000000000E+00 0. -1.
         11    1    3    3    0    0  0.13308395617E+02 -0.56112632916E+01  0.94693177967E+01  0.17270427019E+02  0.51100000000E-03 0. -1.
        -11    1    3    3    0    0  0.84421754257E+01 -0.10818847917E+02  0.15938332675E+02  0.21032076571E+02  0.51100000000E-03 0.  1.
         12    1    3    3    0    0  0.38001648028E+01 -0.32741564862E+01  0.60250588417E+01  0.78398142370E+01  0.00000000000E+00 0. -1.
</event>
<event>
 7    1  0.1442665E-008  0.4614232E+02  0.7816164E-02  0.1320468E+00
        -11   -1    0    0    0    0  0.00000000000E+00  0.00000000000E+00  0.45593999997E+02  0.45594000000E+02  0.51100000000E-03 0. -1.
         11   -1    0    0    0    0 -0.00000000000E+00 -0.00000000000E+00 -0.45593999997E+02  0.45594000000E+02  0.51100000000E-03 0.  1.
    9900012    2    1    2    0    0 -0.26140593136E+02  0.12659902393E+01 -0.36663062580E+02  0.46142317649E+02  0.99999989757E+01 0.  0.
         12    1    1    2    0    0  0.26140593136E+02 -0.12659902393E+01  0.36663062580E+02  0.45045682351E+02  0.00000000000E+00 0. -1.
         11    1    3    3    0    0 -0.57069798691E+01 -0.22728463651E+01 -0.13010761273E+02  0.14388028322E+02  0.51100000000E-03 0. -1.
        -11    1    3    3    0    0 -0.13267652097E+02  0.25983160108E+01 -0.12190811159E+02  0.18204332321E+02  0.51100000000E-03 0.  1.
        -12    1    3    3    0    0 -0.71659611692E+01  0.94052059353E+00 -0.11461490147E+02  0.13549957006E+02  0.00000000000E+00 0.  1.
</event>
<event>
 7    1  0.1442665E-008  0.4614232E+02  0.7816164E-02  0.1320468E+00
        -11   -1    0    0    0    0  0.00000000000E+00  0.00000000000E+00  0.45593999997E+02  0.45594000000E+02  0.51100000000E-03 0.  1.
         11   -1    0    0    0    0 -0.00000000000E+00 -0.00000000000E+00 -0.45593999997E+02  0.45594000000E+02  0.51100000000E-03 0. -1.
    9900012    2    1    2    0    0  0.96862828180E+01  0.10855506387E+02  0.42631531189E+02  0.46142317129E+02  0.99999942369E+01 0.  0.
         12    1    1    2    0    0 -0.96862828180E+01 -0.10855506387E+02 -0.42631531189E+02  0.45045682871E+02  0.00000000000E+00 0. -1.
         11    1    3    3    0    0  0.51479140575E+01 -0.14471884258E+00  0.17381544208E+02  0.18128431868E+02  0.51100000000E-03 0. -1.
        -11    1    3    3    0    0  0.36806658938E+01  0.99932385598E+01  0.23655584285E+02  0.25942220153E+02  0.51100000000E-03 0.  1.
        -12    1    3    3    0    0  0.85770286673E+00  0.10069866702E+01  0.15944026964E+01  0.20716651080E+01  0.00000000000E+00 0.  1.
</event>
<event>
 7    1  0.1442665E-008  0.4614233E+02  0.7816164E-02  0.1320468E+00
        -11   -1    0    0    0    0  0.00000000000E+00  0.00000000000E+00  0.45593999997E+02  0.45594000000E+02  0.51100000000E-03 0. -1.
         11   -1    0    0    0    0 -0.00000000000E+00 -0.00000000000E+00 -0.45593999997E+02  0.45594000000E+02  0.51100000000E-03 0.  1.
    9900012    2    1    2    0    0 -0.44854689838E+02  0.29241126525E+01  0.29358276813E+01  0.46142326296E+02  0.10000077830E+02 0.  0.
         12    1    1    2    0    0  0.44854689838E+02 -0.29241126525E+01 -0.29358276813E+01  0.45045673704E+02  0.00000000000E+00 0. -1.
         11    1    3    3    0    0 -0.41350863075E+01  0.60398338317E+00 -0.16077357987E+01  0.44775606481E+01  0.51100000000E-03 0. -1.
        -11    1    3    3    0    0 -0.38700153830E+02  0.31143401148E+01  0.28827460400E+01  0.38932136414E+02  0.51100000000E-03 0.  1.
         12    1    3    3    0    0 -0.20194497006E+01 -0.79421084548E+00  0.16608174400E+01  0.27326292338E+01  0.00000000000E+00 0. -1.
</event>
<event>
 7    1  0.1442665E-008  0.4614232E+02  0.7816164E-02  0.1320468E+00
        -11   -1    0    0    0    0  0.00000000000E+00  0.00000000000E+00  0.45593999997E+02  0.45594000000E+02  0.51100000000E-03 0.  1.
         11   -1    0    0    0    0 -0.00000000000E+00 -0.00000000000E+00 -0.45593999997E+02  0.45594000000E+02  0.51100000000E-03 0. -1.
    9900012    2    1    2    0    0 -0.36132905113E+02  0.18137311640E+02  0.19863645117E+02  0.46142319821E+02  0.10000018786E+02 0.  0.
         12    1    1    2    0    0  0.36132905113E+02 -0.18137311640E+02 -0.19863645117E+02  0.45045680179E+02  0.00000000000E+00 0. -1.
         11    1    3    3    0    0 -0.27434004054E+01  0.19525649615E+01 -0.28822113569E+00  0.33796194161E+01  0.51100000000E-03 0. -1.
        -11    1    3    3    0    0 -0.33176867995E+02  0.16680894871E+02  0.20087050398E+02  0.42219029093E+02  0.51100000000E-03 0.  1.
        -12    1    3    3    0    0 -0.21263671252E+00 -0.49614819216E+00  0.64815854963E-01  0.54367131169E+00  0.00000000000E+00 0.  1.
</event>
<event>
 7    1  0.1442665E-008  0.4614232E+02  0.7816164E-02  0.1320468E+00
        -11   -1    0    0    0    0  0.00000000000E+00  0.00000000000E+00  0.45593999997E+02  0.45594000000E+02  0.51100000000E-03 0. -1.
         11   -1    0    0    0    0 -0.00000000000E+00 -0.00000000000E+00 -0.45593999997E+02  0.45594000000E+02  0.51100000000E-03 0.  1.
    9900012    2    1    2    0    0 -0.14172057414E+02  0.42645154545E+02 -0.31075761954E+01  0.46142318217E+02  0.10000004158E+02 0.  0.
         12    1    1    2    0    0  0.14172057414E+02 -0.42645154545E+02  0.31075761954E+01  0.45045681783E+02  0.00000000000E+00 0. -1.
         11    1    3    3    0    0 -0.30533265759E+01  0.12990904137E+02  0.15220120895E+01  0.13431415210E+02  0.51100000000E-03 0. -1.
        -11    1    3    3    0    0 -0.88553258933E+01  0.15526037160E+02 -0.43693918140E+01  0.18400168794E+02  0.51100000000E-03 0.  1.
        -12    1    3    3    0    0 -0.22634049445E+01  0.14128213248E+02 -0.26019647086E+00  0.14310734213E+02  0.00000000000E+00 0.  1.
</event>
<event>
 7    1  0.1442665E-008  0.4614232E+02  0.7816164E-02  0.1320468E+00
        -11   -1    0    0    0    0  0.00000000000E+00  0.00000000000E+00  0.45593999997E+02  0.45594000000E+02  0.51100000000E-03 0.  1.
         11   -1    0    0    0    0 -0.00000000000E+00 -0.00000000000E+00 -0.45593999997E+02  0.45594000000E+02  0.51100000000E-03 0. -1.
    9900012    2    1    2    0    0 -0.34404386445E+02  0.28359368736E+02  0.64185131582E+01  0.46142324148E+02  0.10000058244E+02 0.  0.
         12    1    1    2    0    0  0.34404386445E+02 -0.28359368736E+02 -0.64185131582E+01  0.45045675852E+02  0.00000000000E+00 0. -1.
         11    1    3    3    0    0 -0.16503913371E+02  0.18118058024E+02  0.33882494971E+00  0.24510364864E+02  0.51100000000E-03 0. -1.
        -11    1    3    3    0    0 -0.11672947187E+02  0.79110575924E+01  0.38225887967E+01  0.14610089446E+02  0.51100000000E-03 0.  1.
         12    1    3    3    0    0 -0.62275258874E+01  0.23302531187E+01  0.22570994118E+01  0.70218698386E+01  0.00000000000E+00 0. -1.
</event>
<event>
 7    1  0.1442665E-008  0.4614233E+02  0.7816164E-02  0.1320468E+00
        -11   -1    0    0    0    0  0.00000000000E+00  0.00000000000E+00  0.45593999997E+02  0.45594000000E+02  0.51100000000E-03 0.  1.
         11   -1    0    0    0    0 -0.00000000000E+00 -0.00000000000E+00 -0.45593999997E+02  0.45594000000E+02  0.51100000000E-03 0. -1.
    9900012    2    1    2    0    0  0.15694194999E+02  0.91338460477E+01  0.41223507077E+02  0.46142329442E+02  0.10000106519E+02 0.  0.
         12    1    1    2    0    0 -0.15694194999E+02 -0.91338460477E+01 -0.41223507077E+02  0.45045670558E+02  0.00000000000E+00 0. -1.
         11    1    3    3    0    0  0.75314731594E+01  0.59270966952E+01  0.21287071385E+02  0.23345084527E+02  0.51100000000E-03 0.  1.
        -11    1    3    3    0    0  0.20689164266E+01  0.22193384801E+01  0.13662858710E+02  0.13995698870E+02  0.51100000000E-03 0. -1.
         12    1    3    3    0    0  0.60938054130E+01  0.98741087238E+00  0.62735769824E+01  0.88015460458E+01  0.00000000000E+00 0. -1.
</event>
<event>
 7    1  0.1442665E-008  0.4614232E+02  0.7816164E-02  0.1320468E+00
        -11   -1    0    0    0    0  0.00000000000E+00  0.00000000000E+00  0.45593999997E+02  0.45594000000E+02  0.51100000000E-03 0.  1.
         11   -1    0    0    0    0 -0.00000000000E+00 -0.00000000000E+00 -0.45593999997E+02  0.45594000000E+02  0.51100000000E-03 0. -1.
    9900012    2    1    2    0    0 -0.10774581025E+02 -0.41529235124E+01  0.43540500700E+02  0.46142316842E+02  0.99999916176E+01 0.  0.
         12    1    1    2    0    0  0.10774581025E+02  0.41529235124E+01 -0.43540500700E+02  0.45045683158E+02  0.00000000000E+00 0. -1.
         11    1    3    3    0    0 -0.79135705979E+01 -0.48092875619E+01  0.29930734715E+02  0.31330539850E+02  0.51100000000E-03 0. -1.
        -11    1    3    3    0    0 -0.37242553484E+00 -0.11725918218E+01  0.99379761431E+01  0.10013842541E+02  0.51100000000E-03 0.  1.
         12    1    3    3    0    0 -0.24885848925E+01  0.18289558714E+01  0.36717898418E+01  0.47979344502E+01  0.00000000000E+00 0. -1.
</event>
<event>
 7    1  0.1442665E-008  0.4614232E+02  0.7816164E-02  0.1320468E+00
        -11   -1    0    0    0    0  0.00000000000E+00  0.00000000000E+00  0.45593999997E+02  0.45594000000E+02  0.51100000000E-03 0.  1.
         11   -1    0    0    0    0 -0.00000000000E+00 -0.00000000000E+00 -0.45593999997E+02  0.45594000000E+02  0.51100000000E-03 0. -1.
    9900012    2    1    2    0    0  0.32490942962E+01 -0.43802767670E+02 -0.99937244623E+01  0.46142316545E+02  0.99999889125E+01 0.  0.
         12    1    1    2    0    0 -0.32490942962E+01  0.43802767670E+02  0.99937244623E+01  0.45045683455E+02  0.00000000000E+00 0. -1.
         11    1    3    3    0    0  0.75705220114E-01 -0.18821881406E+01  0.15730352347E+01  0.24541400913E+01  0.51100000000E-03 0. -1.
        -11    1    3    3    0    0  0.23317492140E+01 -0.30107622522E+02 -0.95714690278E+01  0.31678368139E+02  0.51100000000E-03 0.  1.
         12    1    3    3    0    0  0.84163986208E+00 -0.11812957007E+02 -0.19952906693E+01  0.12009808315E+02  0.00000000000E+00 0. -1.
</event>
<event>
 7    1  0.1442665E-008  0.4614232E+02  0.7816164E-02  0.1320468E+00
        -11   -1    0    0    0    0  0.00000000000E+00  0.00000000000E+00  0.45593999997E+02  0.45594000000E+02  0.51100000000E-03 0.  1.
         11   -1    0    0    0    0 -0.00000000000E+00 -0.00000000000E+00 -0.45593999997E+02  0.45594000000E+02  0.51100000000E-03 0. -1.
    9900012    2    1    2    0    0  0.42671868549E+02 -0.12976548237E+02 -0.63114252982E+01  0.46142320308E+02  0.10000023224E+02 0.  0.
         12    1    1    2    0    0 -0.42671868549E+02  0.12976548237E+02  0.63114252982E+01  0.45045679692E+02  0.00000000000E+00 0. -1.
         11    1    3    3    0    0  0.14744272843E+02 -0.63932911342E+01  0.15852499153E+01  0.16148708021E+02  0.51100000000E-03 0. -1.
        -11    1    3    3    0    0  0.20168079548E+02 -0.61824577921E+01 -0.48290055906E+01  0.21640090394E+02  0.51100000000E-03 0.  1.
        -12    1    3    3    0    0  0.77595161591E+01 -0.40079931017E+00 -0.30676696228E+01  0.83535218935E+01  0.00000000000E+00 0.  1.
</event>
<event>
 7    1  0.1442665E-008  0.4614232E+02  0.7816164E-02  0.1320468E+00
        -11   -1    0    0    0    0  0.00000000000E+00  0.00000000000E+00  0.45593999997E+02  0.45594000000E+02  0.51100000000E-03 0. -1.
         11   -1    0    0    0    0 -0.00000000000E+00 -0.00000000000E+00 -0.45593999997E+02  0.45594000000E+02  0.51100000000E-03 0.  1.
    9900012    2    1    2    0    0  0.32409397708E+02  0.29758265906E+02  0.96534946857E+01  0.46142318640E+02  0.10000008014E+02 0.  0.
         12    1    1    2    0    0 -0.32409397708E+02 -0.29758265906E+02 -0.96534946857E+01  0.45045681360E+02  0.00000000000E+00 0. -1.
         11    1    3    3    0    0  0.23038599549E+01  0.65457189270E+00 -0.91582082959E+00  0.25641690871E+01  0.51100000000E-03 0. -1.
        -11    1    3    3    0    0  0.21716914497E+02  0.23867781608E+02  0.94622207146E+01  0.33627800928E+02  0.51100000000E-03 0.  1.
        -12    1    3    3    0    0  0.83886232563E+01  0.52359124055E+01  0.11070948007E+01  0.99503486247E+01  0.00000000000E+00 0.  1.
</event>
<event>
 7    1  0.1442665E-008  0.4614232E+02  0.7816164E-02  0.1320468E+00
        -11   -1    0    0    0    0  0.00000000000E+00  0.00000000000E+00  0.45593999997E+02  0.45594000000E+02  0.51100000000E-03 0.  1.
         11   -1    0    0    0    0 -0.00000000000E+00 -0.00000000000E+00 -0.45593999997E+02  0.45594000000E+02  0.51100000000E-03 0. -1.
    9900012    2    1    2    0    0  0.24707440349E+02 -0.16143609729E+02  0.34029985119E+02  0.46142316179E+02  0.99999855761E+01 0.  0.
         12    1    1    2    0    0 -0.24707440349E+02  0.16143609729E+02 -0.34029985119E+02  0.45045683821E+02  0.00000000000E+00 0. -1.
         11    1    3    3    0    0  0.77091069144E+01 -0.36864967615E+01  0.46189166697E+01  0.97136491213E+01  0.51100000000E-03 0. -1.
        -11    1    3    3    0    0  0.73424474106E+01 -0.66510431921E+01  0.16918822219E+02  0.19605980084E+02  0.51100000000E-03 0.  1.
        -12    1    3    3    0    0  0.96558860237E+01 -0.58060697751E+01  0.12492246231E+02  0.16822686974E+02  0.00000000000E+00 0.  1.
</event>
<event>
 7    1  0.1442665E-008  0.4614232E+02  0.7816164E-02  0.1320468E+00
        -11   -1    0    0    0    0  0.00000000000E+00  0.00000000000E+00  0.45593999997E+02  0.45594000000E+02  0.51100000000E-03 0.  1.
         11   -1    0    0    0    0 -0.00000000000E+00 -0.00000000000E+00 -0.45593999997E+02  0.45594000000E+02  0.51100000000E-03 0. -1.
    9900012    2    1    2    0    0  0.28957449804E+02 -0.10642540733E+02  0.32822490669E+02  0.46142318008E+02  0.10000002249E+02 0.  0.
         12    1    1    2    0    0 -0.28957449804E+02  0.10642540733E+02 -0.32822490669E+02  0.45045681992E+02  0.00000000000E+00 0. -1.
         11    1    3    3    0    0  0.73519002918E+00 -0.18873305555E+01  0.42742762737E+01  0.47299005200E+01  0.51100000000E-03 0. -1.
        -11    1    3    3    0    0  0.16348156404E+02 -0.49358737586E+01  0.19960587332E+02  0.26268804968E+02  0.51100000000E-03 0.  1.
        -12    1    3    3    0    0  0.11874103372E+02 -0.38193364193E+01  0.85876270632E+01  0.15143612520E+02  0.00000000000E+00 0.  1.
</event>
<event>
 7    1  0.1442665E-008  0.4614232E+02  0.7816164E-02  0.1320468E+00
        -11   -1    0    0    0    0  0.00000000000E+00  0.00000000000E+00  0.45593999997E+02  0.45594000000E+02  0.51100000000E-03 0. -1.
         11   -1    0    0    0    0 -0.00000000000E+00 -0.00000000000E+00 -0.45593999997E+02  0.45594000000E+02  0.51100000000E-03 0.  1.
    9900012    2    1    2    0    0 -0.38218887871E+02 -0.16933410878E+02 -0.16783614743E+02  0.46142317433E+02  0.99999970123E+01 0.  0.
         12    1    1    2    0    0  0.38218887871E+02  0.16933410878E+02  0.16783614743E+02  0.45045682567E+02  0.00000000000E+00 0. -1.
         11    1    3    3    0    0 -0.54708746046E+01  0.57007383392E+00 -0.42059338033E+01  0.69242568218E+01  0.51100000000E-03 0. -1.
        -11    1    3    3    0    0 -0.14980120263E+02 -0.85781997928E+01 -0.57498316436E+01  0.18194781641E+02  0.51100000000E-03 0.  1.
        -12    1    3    3    0    0 -0.17767893003E+02 -0.89252849194E+01 -0.68278492964E+01  0.21023278971E+02  0.00000000000E+00 0.  1.
</event>
<event>
 7    1  0.1442665E-008  0.4614232E+02  0.7816164E-02  0.1320468E+00
        -11   -1    0    0    0    0  0.00000000000E+00  0.00000000000E+00  0.45593999997E+02  0.45594000000E+02  0.51100000000E-03 0.  1.
         11   -1    0    0    0    0 -0.00000000000E+00 -0.00000000000E+00 -0.45593999997E+02  0.45594000000E+02  0.51100000000E-03 0. -1.
    9900012    2    1    2    0    0  0.10489696195E+02  0.37687411881E+02  0.22332461082E+02  0.46142316982E+02  0.99999928944E+01 0.  0.
         12    1    1    2    0    0 -0.10489696195E+02 -0.37687411881E+02 -0.22332461082E+02  0.45045683018E+02  0.00000000000E+00 0. -1.
         11    1    3    3    0    0  0.16274195619E+01  0.28835382829E+01  0.48352606364E+01  0.58602929229E+01  0.51100000000E-03 0. -1.
        -11    1    3    3    0    0  0.88292579136E+01  0.29538115814E+02  0.13426862092E+02  0.33626428699E+02  0.51100000000E-03 0.  1.
         12    1    3    3    0    0  0.33018719331E-01  0.52657577842E+01  0.40703383539E+01  0.66555953597E+01  0.00000000000E+00 0. -1.
</event>
<event>
 7    1  0.1442665E-008  0.4614232E+02  0.7816164E-02  0.1320468E+00
        -11   -1    0    0    0    0  0.00000000000E+00  0.00000000000E+00  0.45593999997E+02  0.45594000000E+02  0.51100000000E-03 0.  1.
         11   -1    0    0    0    0 -0.00000000000E+00 -0.00000000000E+00 -0.45593999997E+02  0.45594000000E+02  0.51100000000E-03 0. -1.
    9900012    2    1    2    0    0  0.19667072089E+02 -0.25758421099E+02  0.31286152573E+02  0.46142319576E+02  0.10000016546E+02 0.  0.
         12    1    1    2    0    0 -0.19667072089E+02  0.25758421099E+02 -0.31286152573E+02  0.45045680424E+02  0.00000000000E+00 0. -1.
         11    1    3    3    0    0  0.43866824421E+00  0.37663050492E+00  0.93516571262E+00  0.10994614759E+01  0.51100000000E-03 0. -1.
        -11    1    3    3    0    0  0.18101236065E+01 -0.33522467502E+01  0.73555189169E+01  0.82835840397E+01  0.51100000000E-03 0.  1.
        -12    1    3    3    0    0  0.17418280239E+02 -0.22782804854E+02  0.22995467943E+02  0.36759274060E+02  0.00000000000E+00 0.  1.
</event>
<event>
 7    1  0.1442665E-008  0.4614232E+02  0.7816164E-02  0.1320468E+00
        -11   -1    0    0    0    0  0.00000000000E+00  0.00000000000E+00  0.45593999997E+02  0.45594000000E+02  0.51100000000E-03 0.  1.
         11   -1    0    0    0    0 -0.00000000000E+00 -0.00000000000E+00 -0.45593999997E+02  0.45594000000E+02  0.51100000000E-03 0. -1.
    9900012    2    1    2    0    0  0.97756545461E+01 -0.30411546505E+02  0.31759845285E+02  0.46142319240E+02  0.10000013482E+02 0.  0.
         12    1    1    2    0    0 -0.97756545461E+01  0.30411546505E+02 -0.31759845285E+02  0.45045680760E+02  0.00000000000E+00 0. -1.
         11    1    3    3    0    0  0.21236137227E+00  0.71607031167E+00  0.27754409674E+00  0.79679673094E+00  0.51100000000E-03 0. -1.
        -11    1    3    3    0    0  0.43356844364E+01 -0.17770999176E+02  0.17581108726E+02  0.25371282103E+02  0.51100000000E-03 0.  1.
         12    1    3    3    0    0  0.52276087374E+01 -0.13356617641E+02  0.13901192462E+02  0.19974240406E+02  0.00000000000E+00 0. -1.
</event>
<event>
 7    1  0.1442665E-008  0.4614232E+02  0.7816164E-02  0.1320468E+00
        -11   -1    0    0    0    0  0.00000000000E+00  0.00000000000E+00  0.45593999997E+02  0.45594000000E+02  0.51100000000E-03 0.  1.
         11   -1    0    0    0    0 -0.00000000000E+00 -0.00000000000E+00 -0.45593999997E+02  0.45594000000E+02  0.51100000000E-03 0. -1.
    9900012    2    1    2    0    0  0.25472637418E+02  0.27934236181E+02  0.24493605754E+02  0.46142317289E+02  0.99999956984E+01 0.  0.
         12    1    1    2    0    0 -0.25472637418E+02 -0.27934236181E+02 -0.24493605754E+02  0.45045682711E+02  0.00000000000E+00 0. -1.
         11    1    3    3    0    0  0.24479453002E+01  0.24275240456E+01  0.56376573653E+01  0.66082138293E+01  0.51100000000E-03 0. -1.
        -11    1    3    3    0    0  0.20126530810E+02  0.24272372570E+02  0.16410082486E+02  0.35545971925E+02  0.51100000000E-03 0.  1.
        -12    1    3    3    0    0  0.28981613078E+01  0.12343395653E+01  0.24458659024E+01  0.39881315351E+01  0.00000000000E+00 0.  1.
</event>
<event>
 7    1  0.1442665E-008  0.4614232E+02  0.7816164E-02  0.1320468E+00
        -11   -1    0    0    0    0  0.00000000000E+00  0.00000000000E+00  0.45593999997E+02  0.45594000000E+02  0.51100000000E-03 0.  1.
         11   -1    0    0    0    0 -0.00000000000E+00 -0.00000000000E+00 -0.45593999997E+02  0.45594000000E+02  0.51100000000E-03 0. -1.
    9900012    2    1    2    0    0  0.77005867310E+01 -0.83494182254E+01  0.43590154904E+02  0.46142318461E+02  0.10000006386E+02 0.  0.
         12    1    1    2    0    0 -0.77005867310E+01  0.83494182254E+01 -0.43590154904E+02  0.45045681539E+02  0.00000000000E+00 0. -1.
         11    1    3    3    0    0 -0.14856524933E+01 -0.43368983869E+01  0.11714343457E+02  0.12579415481E+02  0.51100000000E-03 0. -1.
        -11    1    3    3    0    0  0.39306687098E+01 -0.11925463867E+01  0.17943006709E+02  0.18407167447E+02  0.51100000000E-03 0.  1.
         12    1    3    3    0    0  0.52555705144E+01 -0.28199734518E+01  0.13932804738E+02  0.15155735534E+02  0.00000000000E+00 0. -1.
</event>
<event>
 7    1  0.1442665E-008  0.4614232E+02  0.7816164E-02  0.1320468E+00
        -11   -1    0    0    0    0  0.00000000000E+00  0.00000000000E+00  0.45593999997E+02  0.45594000000E+02  0.51100000000E-03 0. -1.
         11   -1    0    0    0    0 -0.00000000000E+00 -0.00000000000E+00 -0.45593999997E+02  0.45594000000E+02  0.51100000000E-03 0.  1.
    9900012    2    1    2    0    0  0.10651951627E+02 -0.31523874314E+02 -0.30362720757E+02  0.46142317221E+02  0.99999950715E+01 0.  0.
         12    1    1    2    0    0 -0.10651951627E+02  0.31523874314E+02  0.30362720757E+02  0.45045682779E+02  0.00000000000E+00 0. -1.
         11    1    3    3    0    0  0.90375115733E+00 -0.57869474153E+01 -0.90290271299E+01  0.10762381601E+02  0.51100000000E-03 0. -1.
        -11    1    3    3    0    0  0.27156463545E+01 -0.87240915794E+01 -0.10887826166E+02  0.14213700007E+02  0.51100000000E-03 0.  1.
         12    1    3    3    0    0  0.70325541154E+01 -0.17012835320E+02 -0.10445867462E+02  0.21166235613E+02  0.00000000000E+00 0. -1.
</event>
<event>
 7    1  0.1442665E-008  0.4614232E+02  0.7816164E-02  0.1320468E+00
        -11   -1    0    0    0    0  0.00000000000E+00  0.00000000000E+00  0.45593999997E+02  0.45594000000E+02  0.51100000000E-03 0.  1.
         11   -1    0    0    0    0 -0.00000000000E+00 -0.00000000000E+00 -0.45593999997E+02  0.45594000000E+02  0.51100000000E-03 0. -1.
    9900012    2    1    2    0    0  0.10278378898E+02 -0.34991662132E+02  0.26439592329E+02  0.46142317255E+02  0.99999953811E+01 0.  0.
         12    1    1    2    0    0 -0.10278378898E+02  0.34991662132E+02 -0.26439592329E+02  0.45045682745E+02  0.00000000000E+00 0. -1.
         11    1    3    3    0    0  0.15503029455E+01 -0.14086153492E+02  0.76759809534E+01  0.16116570457E+02  0.51100000000E-03 0. -1.
        -11    1    3    3    0    0  0.56794710958E+01 -0.18966326276E+02  0.16394466960E+02  0.25705183747E+02  0.51100000000E-03 0.  1.
         12    1    3    3    0    0  0.30486048569E+01 -0.19391823635E+01  0.23691444156E+01  0.43205630506E+01  0.00000000000E+00 0. -1.
</event>
<event>
 7    1  0.1442665E-008  0.4614232E+02  0.7816164E-02  0.1320468E+00
        -11   -1    0    0    0    0  0.00000000000E+00  0.00000000000E+00  0.45593999997E+02  0.45594000000E+02  0.51100000000E-03 0.  1.
         11   -1    0    0    0    0 -0.00000000000E+00 -0.00000000000E+00 -0.45593999997E+02  0.45594000000E+02  0.51100000000E-03 0. -1.
    9900012    2    1    2    0    0  0.20588087961E+02 -0.32754972756E+02  0.23072839435E+02  0.46142317346E+02  0.99999962158E+01 0.  0.
         12    1    1    2    0    0 -0.20588087961E+02  0.32754972756E+02 -0.23072839435E+02  0.45045682654E+02  0.00000000000E+00 0. -1.
         11    1    3    3    0    0  0.24214517153E+00 -0.24271863087E+01  0.13996368420E+01  0.28122679836E+01  0.51100000000E-03 0. -1.
        -11    1    3    3    0    0  0.32950924605E+01 -0.79412519873E+00  0.14883714444E+01  0.37018264374E+01  0.51100000000E-03 0.  1.
        -12    1    3    3    0    0  0.17050850329E+02 -0.29533661249E+02  0.20184831148E+02  0.39628222925E+02  0.00000000000E+00 0.  1.
</event>
<event>
 7    1  0.1442665E-008  0.4614232E+02  0.7816164E-02  0.1320468E+00
        -11   -1    0    0    0    0  0.00000000000E+00  0.00000000000E+00  0.45593999997E+02  0.45594000000E+02  0.51100000000E-03 0. -1.
         11   -1    0    0    0    0 -0.00000000000E+00 -0.00000000000E+00 -0.45593999997E+02  0.45594000000E+02  0.51100000000E-03 0.  1.
    9900012    2    1    2    0    0 -0.20087549292E+00  0.42455605480E+02 -0.15053064561E+02  0.46142317184E+02  0.99999947372E+01 0.  0.
         12    1    1    2    0    0  0.20087549292E+00 -0.42455605480E+02  0.15053064561E+02  0.45045682816E+02  0.00000000000E+00 0. -1.
         11    1    3    3    0    0 -0.20884178114E+01  0.20314454152E+02 -0.99435220748E+01  0.22713700006E+02  0.51100000000E-03 0. -1.
        -11    1    3    3    0    0  0.67555985799E+00  0.10995284916E+02 -0.52794126185E+01  0.12215763151E+02  0.51100000000E-03 0.  1.
         12    1    3    3    0    0  0.12119824604E+01  0.11145866412E+02  0.16987013198E+00  0.11212854026E+02  0.00000000000E+00 0. -1.
</event>
<event>
 7    1  0.1442665E-008  0.4614232E+02  0.7816164E-02  0.1320468E+00
        -11   -1    0    0    0    0  0.00000000000E+00  0.00000000000E+00  0.45593999997E+02  0.45594000000E+02  0.51100000000E-03 0.  1.
         11   -1    0    0    0    0 -0.00000000000E+00 -0.00000000000E+00 -0.45593999997E+02  0.45594000000E+02  0.51100000000E-03 0. -1.
    9900012    2    1    2    0    0 -0.28358367196E+02 -0.31844884807E+01  0.34853625804E+02  0.46142321089E+02  0.10000030345E+02 0.  0.
         12    1    1    2    0    0  0.28358367196E+02  0.31844884807E+01 -0.34853625804E+02  0.45045678911E+02  0.00000000000E+00 0. -1.
         11    1    3    3    0    0 -0.18252971980E+02  0.19535377013E+01  0.18806337445E+02  0.26280517956E+02  0.51100000000E-03 0.  1.
        -11    1    3    3    0    0 -0.49809922645E+01 -0.35596276443E+01  0.10445280994E+02  0.12107234540E+02  0.51100000000E-03 0. -1.
        -12    1    3    3    0    0 -0.51244029508E+01 -0.15783985377E+01  0.56020073648E+01  0.77545685929E+01  0.00000000000E+00 0.  1.
</event>
<event>
 7    1  0.1442665E-008  0.4614232E+02  0.7816164E-02  0.1320468E+00
        -11   -1    0    0    0    0  0.00000000000E+00  0.00000000000E+00  0.45593999997E+02  0.45594000000E+02  0.51100000000E-03 0. -1.
         11   -1    0    0    0    0 -0.00000000000E+00 -0.00000000000E+00 -0.45593999997E+02  0.45594000000E+02  0.51100000000E-03 0.  1.
    9900012    2    1    2    0    0  0.62114285917E+00  0.44754265756E+02  0.50777331555E+01  0.46142317678E+02  0.99999992463E+01 0.  0.
         12    1    1    2    0    0 -0.62114285917E+00 -0.44754265756E+02 -0.50777331555E+01  0.45045682322E+02  0.00000000000E+00 0. -1.
         11    1    3    3    0    0  0.40134061650E+01  0.18778532045E+02  0.10506615882E+00  0.19202909518E+02  0.51100000000E-03 0. -1.
        -11    1    3    3    0    0 -0.26659680948E-01  0.12303326882E+02  0.34429011550E+01  0.12775998267E+02  0.51100000000E-03 0.  1.
         12    1    3    3    0    0 -0.33656036249E+01  0.13672406829E+02  0.15297658417E+01  0.14163409893E+02  0.00000000000E+00 0. -1.
</event>
<event>
 7    1  0.1442665E-008  0.4614232E+02  0.7816164E-02  0.1320468E+00
        -11   -1    0    0    0    0  0.00000000000E+00  0.00000000000E+00  0.45593999997E+02  0.45594000000E+02  0.51100000000E-03 0.  1.
         11   -1    0    0    0    0 -0.00000000000E+00 -0.00000000000E+00 -0.45593999997E+02  0.45594000000E+02  0.51100000000E-03 0. -1.
    9900012    2    1    2    0    0  0.23175217769E+02 -0.32203431574E+02  0.21329834644E+02  0.46142316858E+02  0.99999917657E+01 0.  0.
         12    1    1    2    0    0 -0.23175217769E+02  0.32203431574E+02 -0.21329834644E+02  0.45045683142E+02  0.00000000000E+00 0. -1.
         11    1    3    3    0    0  0.96762568529E+01 -0.62747354921E+01  0.54629183821E+01  0.12761102213E+02  0.51100000000E-03 0. -1.
        -11    1    3    3    0    0  0.83827819637E+01 -0.17811088067E+02  0.94340445108E+01  0.21829042299E+02  0.51100000000E-03 0.  1.
         12    1    3    3    0    0  0.51161789520E+01 -0.81176080148E+01  0.64328717514E+01  0.11552172346E+02  0.00000000000E+00 0. -1.
</event>
<event>
 7    1  0.1442665E-008  0.4614232E+02  0.7816164E-02  0.1320468E+00
        -11   -1    0    0    0    0  0.00000000000E+00  0.00000000000E+00  0.45593999997E+02  0.45594000000E+02  0.51100000000E-03 0.  1.
         11   -1    0    0    0    0 -0.00000000000E+00 -0.00000000000E+00 -0.45593999997E+02  0.45594000000E+02  0.51100000000E-03 0. -1.
    9900012    2    1    2    0    0  0.23145283430E+02 -0.17321537056E+02  0.34545240173E+02  0.46142318635E+02  0.10000007971E+02 0.  0.
         12    1    1    2    0    0 -0.23145283430E+02  0.17321537056E+02 -0.34545240173E+02  0.45045681365E+02  0.00000000000E+00 0. -1.
         11    1    3    3    0    0  0.71859494410E+00  0.27155516659E+00  0.24275076402E+01  0.25461568110E+01  0.51100000000E-03 0. -1.
        -11    1    3    3    0    0  0.20791897402E+00 -0.27016400618E+01  0.24767274822E+01  0.36710037599E+01  0.51100000000E-03 0.  1.
        -12    1    3    3    0    0  0.22218769511E+02 -0.14891452161E+02  0.29641005050E+02  0.39925158064E+02  0.00000000000E+00 0.  1.
</event>
<event>
 7    1  0.1442665E-008  0.4614232E+02  0.7816164E-02  0.1320468E+00
        -11   -1    0    0    0    0  0.00000000000E+00  0.00000000000E+00  0.45593999997E+02  0.45594000000E+02  0.51100000000E-03 0. -1.
         11   -1    0    0    0    0 -0.00000000000E+00 -0.00000000000E+00 -0.45593999997E+02  0.45594000000E+02  0.51100000000E-03 0.  1.
    9900012    2    1    2    0    0 -0.24088028798E+02 -0.37065628604E+02  0.86613863753E+01  0.46142316865E+02  0.99999918285E+01 0.  0.
         12    1    1    2    0    0  0.24088028798E+02  0.37065628604E+02 -0.86613863753E+01  0.45045683135E+02  0.00000000000E+00 0. -1.
         11    1    3    3    0    0 -0.18774014046E+02 -0.30694294165E+02  0.37502756879E+01  0.36175514726E+02  0.51100000000E-03 0.  1.
        -11    1    3    3    0    0 -0.25319953056E+01 -0.39411208477E+01  0.40055602068E+01  0.61634362652E+01  0.51100000000E-03 0. -1.
        -12    1    3    3    0    0 -0.27820194463E+01 -0.24302135909E+01  0.90555048054E+00  0.38033658738E+01  0.00000000000E+00 0.  1.
</event>
<event>
 7    1  0.1442665E-008  0.4614232E+02  0.7816164E-02  0.1320468E+00
        -11   -1    0    0    0    0  0.00000000000E+00  0.00000000000E+00  0.45593999997E+02  0.45594000000E+02  0.51100000000E-03 0.  1.
         11   -1    0    0    0    0 -0.00000000000E+00 -0.00000000000E+00 -0.45593999997E+02  0.45594000000E+02  0.51100000000E-03 0. -1.
    9900012    2    1    2    0    0  0.25833460027E+02  0.13388436146E+02  0.34387435237E+02  0.46142316726E+02  0.99999905644E+01 0.  0.
         12    1    1    2    0    0 -0.25833460027E+02 -0.13388436146E+02 -0.34387435237E+02  0.45045683274E+02  0.00000000000E+00 0. -1.
         11    1    3    3    0    0 -0.24639891528E+00  0.86577304287E+00  0.43069498603E+01  0.44000105394E+01  0.51100000000E-03 0. -1.
        -11    1    3    3    0    0  0.17626729546E+02  0.88330325914E+01  0.20703275504E+02  0.28589328011E+02  0.51100000000E-03 0.  1.
         12    1    3    3    0    0  0.84531293971E+01  0.36896305114E+01  0.93772098724E+01  0.13152978176E+02  0.00000000000E+00 0. -1.
</event>
<event>
 7    1  0.1442665E-008  0.4614232E+02  0.7816164E-02  0.1320468E+00
        -11   -1    0    0    0    0  0.00000000000E+00  0.00000000000E+00  0.45593999997E+02  0.45594000000E+02  0.51100000000E-03 0. -1.
         11   -1    0    0    0    0 -0.00000000000E+00 -0.00000000000E+00 -0.45593999997E+02  0.45594000000E+02  0.51100000000E-03 0.  1.
    9900012    2    1    2    0    0 -0.38615564229E+02  0.17299054756E+02 -0.15449742148E+02  0.46142316204E+02  0.99999858034E+01 0.  0.
         12    1    1    2    0    0  0.38615564229E+02 -0.17299054756E+02  0.15449742148E+02  0.45045683796E+02  0.00000000000E+00 0. -1.
         11    1    3    3    0    0 -0.11864307740E+02  0.42285376206E+01 -0.58798996304E+00  0.12609046793E+02  0.51100000000E-03 0. -1.
        -11    1    3    3    0    0 -0.24288078904E+02  0.10947959327E+02 -0.12071961920E+02  0.29248946222E+02  0.51100000000E-03 0.  1.
        -12    1    3    3    0    0 -0.24631775851E+01  0.21225578081E+01 -0.27897902653E+01  0.42843231891E+01  0.00000000000E+00 0.  1.
</event>
<event>
 7    1  0.1442665E-008  0.4614232E+02  0.7816164E-02  0.1320468E+00
        -11   -1    0    0    0    0  0.00000000000E+00  0.00000000000E+00  0.45593999997E+02  0.45594000000E+02  0.51100000000E-03 0.  1.
         11   -1    0    0    0    0 -0.00000000000E+00 -0.00000000000E+00 -0.45593999997E+02  0.45594000000E+02  0.51100000000E-03 0. -1.
    9900012    2    1    2    0    0 -0.39364292223E+02  0.19889315460E+02  0.91641203883E+01  0.46142317918E+02  0.10000001433E+02 0.  0.
         12    1    1    2    0    0  0.39364292223E+02 -0.19889315460E+02 -0.91641203883E+01  0.45045682082E+02  0.00000000000E+00 0. -1.
         11    1    3    3    0    0 -0.68329224825E+01  0.78028629696E+01  0.26095359188E+01  0.10695007160E+02  0.51100000000E-03 0. -1.
        -11    1    3    3    0    0 -0.10794260498E+02  0.30072097336E+01  0.31948307072E+01  0.11651880260E+02  0.51100000000E-03 0.  1.
        -12    1    3    3    0    0 -0.21737109243E+02  0.90792427569E+01  0.33597537624E+01  0.23795430498E+02  0.00000000000E+00 0.  1.
</event>
<event>
 7    1  0.1442665E-008  0.4614232E+02  0.7816164E-02  0.1320468E+00
        -11   -1    0    0    0    0  0.00000000000E+00  0.00000000000E+00  0.45593999997E+02  0.45594000000E+02  0.51100000000E-03 0. -1.
         11   -1    0    0    0    0 -0.00000000000E+00 -0.00000000000E+00 -0.45593999997E+02  0.45594000000E+02  0.51100000000E-03 0.  1.
    9900012    2    1    2    0    0 -0.20956714699E+01  0.24135139174E+02 -0.37976527160E+02  0.46142318775E+02  0.10000009248E+02 0.  0.
         12    1    1    2    0    0  0.20956714699E+01 -0.24135139174E+02  0.37976527160E+02  0.45045681225E+02  0.00000000000E+00 0. -1.
         11    1    3    3    0    0  0.16116055584E+01  0.62613519236E+01 -0.14595161722E+02  0.15963099522E+02  0.51100000000E-03 0. -1.
        -11    1    3    3    0    0 -0.25263598989E+01  0.93487357473E+01 -0.16615753292E+02  0.19231864500E+02  0.51100000000E-03 0.  1.
         12    1    3    3    0    0 -0.11809171294E+01  0.85250515028E+01 -0.67656121458E+01  0.10947354754E+02  0.00000000000E+00 0. -1.
</event>
<event>
 7    1  0.1442665E-008  0.4614232E+02  0.7816164E-02  0.1320468E+00
        -11   -1    0    0    0    0  0.00000000000E+00  0.00000000000E+00  0.45593999997E+02  0.45594000000E+02  0.51100000000E-03 0. -1.
         11   -1    0    0    0    0 -0.00000000000E+00 -0.00000000000E+00 -0.45593999997E+02  0.45594000000E+02  0.51100000000E-03 0.  1.
    9900012    2    1    2    0    0 -0.35400692089E+02 -0.25973757149E+02 -0.10063220637E+02  0.46142317960E+02  0.10000001817E+02 0.  0.
         12    1    1    2    0    0  0.35400692089E+02  0.25973757149E+02  0.10063220637E+02  0.45045682040E+02  0.00000000000E+00 0. -1.
         11    1    3    3    0    0  0.29151685525E+00 -0.12718397376E+01 -0.26410148702E+00  0.13312806810E+01  0.51100000000E-03 0. -1.
        -11    1    3    3    0    0 -0.31977293219E+02 -0.22152615264E+02 -0.10396066560E+02  0.40266162529E+02  0.51100000000E-03 0.  1.
        -12    1    3    3    0    0 -0.37149157252E+01 -0.25493021480E+01  0.59694740976E+00  0.45448747504E+01  0.00000000000E+00 0.  1.
</event>
<event>
 7    1  0.1442665E-008  0.4614232E+02  0.7816164E-02  0.1320468E+00
        -11   -1    0    0    0    0  0.00000000000E+00  0.00000000000E+00  0.45593999997E+02  0.45594000000E+02  0.51100000000E-03 0.  1.
         11   -1    0    0    0    0 -0.00000000000E+00 -0.00000000000E+00 -0.45593999997E+02  0.45594000000E+02  0.51100000000E-03 0. -1.
    9900012    2    1    2    0    0 -0.31703848753E+02 -0.28147340132E+02  0.15221916056E+02  0.46142317514E+02  0.99999977463E+01 0.  0.
         12    1    1    2    0    0  0.31703848753E+02  0.28147340132E+02 -0.15221916056E+02  0.45045682486E+02  0.00000000000E+00 0. -1.
         11    1    3    3    0    0 -0.19214637692E+02 -0.11323142773E+02  0.68734305970E+01  0.23337950046E+02  0.51100000000E-03 0. -1.
        -11    1    3    3    0    0  0.63062108486E-02 -0.34803385437E+00  0.65361972920E+00  0.74053112265E+00  0.51100000000E-03 0.  1.
         12    1    3    3    0    0 -0.12495517272E+02 -0.16476163504E+02  0.76948657294E+01  0.22063836346E+02  0.00000000000E+00 0. -1.
</event>
<event>
 7    1  0.1442665E-008  0.4614232E+02  0.7816164E-02  0.1320468E+00
        -11   -1    0    0    0    0  0.00000000000E+00  0.00000000000E+00  0.45593999997E+02  0.45594000000E+02  0.51100000000E-03 0.  1.
         11   -1    0    0    0    0 -0.00000000000E+00 -0.00000000000E+00 -0.45593999997E+02  0.45594000000E+02  0.51100000000E-03 0. -1.
    9900012    2    1    2    0    0  0.23629996671E+02 -0.23296351098E+02  0.30463368152E+02  0.46142317451E+02  0.99999971689E+01 0.  0.
         12    1    1    2    0    0 -0.23629996671E+02  0.23296351098E+02 -0.30463368152E+02  0.45045682549E+02  0.00000000000E+00 0. -1.
         11    1    3    3    0    0  0.15405939191E+02 -0.17833930937E+02  0.17105575018E+02  0.29120315107E+02  0.51100000000E-03 0. -1.
        -11    1    3    3    0    0  0.75871904484E+01 -0.33786126215E+01  0.11308477290E+02  0.14030756966E+02  0.51100000000E-03 0.  1.
        -12    1    3    3    0    0  0.63686703199E+00 -0.20838075397E+01  0.20493158448E+01  0.29912453779E+01  0.00000000000E+00 0.  1.
</event>
<event>
 7    1  0.1442665E-008  0.4614232E+02  0.7816164E-02  0.1320468E+00
        -11   -1    0    0    0    0  0.00000000000E+00  0.00000000000E+00  0.45593999997E+02  0.45594000000E+02  0.51100000000E-03 0.  1.
         11   -1    0    0    0    0 -0.00000000000E+00 -0.00000000000E+00 -0.45593999997E+02  0.45594000000E+02  0.51100000000E-03 0. -1.
    9900012    2    1    2    0    0 -0.41957969890E+02 -0.16366126822E+02  0.89001950360E+00  0.46142317863E+02  0.10000000932E+02 0.  0.
         12    1    1    2    0    0  0.41957969890E+02  0.16366126822E+02 -0.89001950360E+00  0.45045682137E+02  0.00000000000E+00 0. -1.
         11    1    3    3    0    0 -0.13757090800E+02 -0.67276514151E+01 -0.47121603378E+00  0.15321256008E+02  0.51100000000E-03 0. -1.
        -11    1    3    3    0    0 -0.11051413326E+02  0.12494874786E+00  0.75308095032E+00  0.11077747057E+02  0.51100000000E-03 0.  1.
        -12    1    3    3    0    0 -0.17149465764E+02 -0.97634241548E+01  0.60815458706E+00  0.19743314798E+02  0.00000000000E+00 0.  1.
</event>
<event>
 7    1  0.1442665E-008  0.4614232E+02  0.7816164E-02  0.1320468E+00
        -11   -1    0    0    0    0  0.00000000000E+00  0.00000000000E+00  0.45593999997E+02  0.45594000000E+02  0.51100000000E-03 0.  1.
         11   -1    0    0    0    0 -0.00000000000E+00 -0.00000000000E+00 -0.45593999997E+02  0.45594000000E+02  0.51100000000E-03 0. -1.
    9900012    2    1    2    0    0 -0.32127893903E+02 -0.73882188137E+01  0.30697332671E+02  0.46142316777E+02  0.99999910261E+01 0.  0.
         12    1    1    2    0    0  0.32127893903E+02  0.73882188137E+01 -0.30697332671E+02  0.45045683223E+02  0.00000000000E+00 0. -1.
         11    1    3    3    0    0 -0.47903644403E+01  0.12364871417E+01  0.38070289630E+01  0.62425925471E+01  0.51100000000E-03 0. -1.
        -11    1    3    3    0    0 -0.21272420864E+02 -0.42600818284E+01  0.17336581463E+02  0.27770870416E+02  0.51100000000E-03 0.  1.
         12    1    3    3    0    0 -0.60651085986E+01 -0.43646241269E+01  0.95537222456E+01  0.12128853813E+02  0.00000000000E+00 0. -1.
</event>
<event>
 7    1  0.1442665E-008  0.4614232E+02  0.7816164E-02  0.1320468E+00
        -11   -1    0    0    0    0  0.00000000000E+00  0.00000000000E+00  0.45593999997E+02  0.45594000000E+02  0.51100000000E-03 0. -1.
         11   -1    0    0    0    0 -0.00000000000E+00 -0.00000000000E+00 -0.45593999997E+02  0.45594000000E+02  0.51100000000E-03 0.  1.
    9900012    2    1    2    0    0  0.17648854454E+01  0.29185934811E+02 -0.34266306746E+02  0.46142318859E+02  0.10000010014E+02 0.  0.
         12    1    1    2    0    0 -0.17648854454E+01 -0.29185934811E+02  0.34266306746E+02  0.45045681141E+02  0.00000000000E+00 0. -1.
         11    1    3    3    0    0  0.12442600490E+01  0.95084418783E+01 -0.53821146866E+01  0.10996627155E+02  0.51100000000E-03 0. -1.
        -11    1    3    3    0    0  0.37040002963E+00  0.17414747924E+02 -0.23088428013E+02  0.28922070289E+02  0.51100000000E-03 0.  1.
         12    1    3    3    0    0  0.15022536680E+00  0.22627450080E+01 -0.57957640471E+01  0.62236214154E+01  0.00000000000E+00 0. -1.
</event>
<event>
 7    1  0.1442665E-008  0.4614232E+02  0.7816164E-02  0.1320468E+00
        -11   -1    0    0    0    0  0.00000000000E+00  0.00000000000E+00  0.45593999997E+02  0.45594000000E+02  0.51100000000E-03 0. -1.
         11   -1    0    0    0    0 -0.00000000000E+00 -0.00000000000E+00 -0.45593999997E+02  0.45594000000E+02  0.51100000000E-03 0.  1.
    9900012    2    1    2    0    0  0.10509963759E+02  0.42947345011E+02 -0.86127655622E+01  0.46142317495E+02  0.99999975720E+01 0.  0.
         12    1    1    2    0    0 -0.10509963759E+02 -0.42947345011E+02  0.86127655622E+01  0.45045682505E+02  0.00000000000E+00 0. -1.
         11    1    3    3    0    0  0.32758739367E+01  0.22134784542E+02 -0.80196390662E+01  0.23769616063E+02  0.51100000000E-03 0. -1.
        -11    1    3    3    0    0  0.16415558181E+01  0.10548622967E+02 -0.36414712597E+00  0.10681795513E+02  0.51100000000E-03 0.  1.
         12    1    3    3    0    0  0.55925340043E+01  0.10263937502E+02 -0.22897936996E+00  0.11690905918E+02  0.00000000000E+00 0. -1.
</event>
<event>
 7    1  0.1442665E-008  0.4614232E+02  0.7816164E-02  0.1320468E+00
        -11   -1    0    0    0    0  0.00000000000E+00  0.00000000000E+00  0.45593999997E+02  0.45594000000E+02  0.51100000000E-03 0. -1.
         11   -1    0    0    0    0 -0.00000000000E+00 -0.00000000000E+00 -0.45593999997E+02  0.45594000000E+02  0.51100000000E-03 0.  1.
    9900012    2    1    2    0    0 -0.43518251551E+02  0.11030546614E+02 -0.36881366258E+01  0.46142317317E+02  0.99999959476E+01 0.  0.
         12    1    1    2    0    0  0.43518251551E+02 -0.11030546614E+02  0.36881366258E+01  0.45045682683E+02  0.00000000000E+00 0. -1.
         11    1    3    3    0    0 -0.31112727385E+02  0.85939930949E+01 -0.38502288909E+01  0.32506657555E+02  0.51100000000E-03 0.  1.
        -11    1    3    3    0    0 -0.58961530397E+01  0.10286751360E+01 -0.24695563095E+01  0.64746816007E+01  0.51100000000E-03 0. -1.
         12    1    3    3    0    0 -0.65093711260E+01  0.14078783831E+01  0.26316485746E+01  0.71609781607E+01  0.00000000000E+00 0. -1.
</event>
<event>
 7    1  0.1442665E-008  0.4614232E+02  0.7816164E-02  0.1320468E+00
        -11   -1    0    0    0    0  0.00000000000E+00  0.00000000000E+00  0.45593999997E+02  0.45594000000E+02  0.51100000000E-03 0.  1.
         11   -1    0    0    0    0 -0.00000000000E+00 -0.00000000000E+00 -0.45593999997E+02  0.45594000000E+02  0.51100000000E-03 0. -1.
    9900012    2    1    2    0    0  0.33251723393E+02 -0.25880361308E+01  0.30277688536E+02  0.46142318046E+02  0.10000002597E+02 0.  0.
         12    1    1    2    0    0 -0.33251723393E+02  0.25880361308E+01 -0.30277688536E+02  0.45045681954E+02  0.00000000000E+00 0. -1.
         11    1    3    3    0    0  0.11944376561E+02 -0.21447068253E+01  0.61494604992E+01  0.13604549367E+02  0.51100000000E-03 0. -1.
        -11    1    3    3    0    0  0.20786131961E+02  0.26635575892E+00  0.22174464736E+02  0.30394754710E+02  0.51100000000E-03 0.  1.
        -12    1    3    3    0    0  0.52121487078E+00 -0.70968506445E+00  0.19537633010E+01  0.21430139683E+01  0.00000000000E+00 0.  1.
</event>
<event>
 7    1  0.1442665E-008  0.4614232E+02  0.7816164E-02  0.1320468E+00
        -11   -1    0    0    0    0  0.00000000000E+00  0.00000000000E+00  0.45593999997E+02  0.45594000000E+02  0.51100000000E-03 0. -1.
         11   -1    0    0    0    0 -0.00000000000E+00 -0.00000000000E+00 -0.45593999997E+02  0.45594000000E+02  0.51100000000E-03 0.  1.
    9900012    2    1    2    0    0  0.20802695903E+02  0.16857426336E+02 -0.36224141799E+02  0.46142318425E+02  0.10000006053E+02 0.  0.
         12    1    1    2    0    0 -0.20802695903E+02 -0.16857426336E+02  0.36224141799E+02  0.45045681575E+02  0.00000000000E+00 0. -1.
         11    1    3    3    0    0  0.17175515599E+02  0.14189450030E+02 -0.29565700636E+02  0.37019852547E+02  0.51100000000E-03 0. -1.
        -11    1    3    3    0    0  0.44164742936E+01  0.26529755205E+01 -0.45591023735E+01  0.68796031144E+01  0.51100000000E-03 0.  1.
         12    1    3    3    0    0 -0.78929398929E+00  0.15000785934E-01 -0.20993387887E+01  0.22428627633E+01  0.00000000000E+00 0. -1.
</event>
<event>
 7    1  0.1442665E-008  0.4614232E+02  0.7816164E-02  0.1320468E+00
        -11   -1    0    0    0    0  0.00000000000E+00  0.00000000000E+00  0.45593999997E+02  0.45594000000E+02  0.51100000000E-03 0.  1.
         11   -1    0    0    0    0 -0.00000000000E+00 -0.00000000000E+00 -0.45593999997E+02  0.45594000000E+02  0.51100000000E-03 0. -1.
    9900012    2    1    2    0    0  0.12135502084E+02 -0.25425079416E+02  0.35148377039E+02  0.46142317825E+02  0.10000000581E+02 0.  0.
         12    1    1    2    0    0 -0.12135502084E+02  0.25425079416E+02 -0.35148377039E+02  0.45045682175E+02  0.00000000000E+00 0. -1.
         11    1    3    3    0    0 -0.99103172479E+00 -0.27319388557E+01  0.37690723557E+01  0.47593634526E+01  0.51100000000E-03 0. -1.
        -11    1    3    3    0    0  0.11724905884E+02 -0.15085784801E+02  0.24161360794E+02  0.30803014085E+02  0.51100000000E-03 0.  1.
        -12    1    3    3    0    0  0.14016279253E+01 -0.76073557590E+01  0.72179438893E+01  0.10579940287E+02  0.00000000000E+00 0.  1.
</event>
<event>
 7    1  0.1442665E-008  0.4614232E+02  0.7816164E-02  0.1320468E+00
        -11   -1    0    0    0    0  0.00000000000E+00  0.00000000000E+00  0.45593999997E+02  0.45594000000E+02  0.51100000000E-03 0. -1.
         11   -1    0    0    0    0 -0.00000000000E+00 -0.00000000000E+00 -0.45593999997E+02  0.45594000000E+02  0.51100000000E-03 0.  1.
    9900012    2    1    2    0    0  0.73187675883E+01  0.44386380733E+02  0.23234146787E+01  0.46142318638E+02  0.10000007995E+02 0.  0.
         12    1    1    2    0    0 -0.73187675883E+01 -0.44386380733E+02 -0.23234146787E+01  0.45045681362E+02  0.00000000000E+00 0. -1.
         11    1    3    3    0    0  0.55236002930E+00  0.13263951109E+02  0.45442500776E+01  0.14031668099E+02  0.51100000000E-03 0. -1.
        -11    1    3    3    0    0  0.31505128134E+00  0.84724566272E+01 -0.34730708029E+00  0.84854228580E+01  0.51100000000E-03 0.  1.
         12    1    3    3    0    0  0.64513562777E+01  0.22649972997E+02 -0.18735283186E+01  0.23625227681E+02  0.00000000000E+00 0. -1.
</event>
<event>
 7    1  0.1442665E-008  0.4614232E+02  0.7816164E-02  0.1320468E+00
        -11   -1    0    0    0    0  0.00000000000E+00  0.00000000000E+00  0.45593999997E+02  0.45594000000E+02  0.51100000000E-03 0. -1.
         11   -1    0    0    0    0 -0.00000000000E+00 -0.00000000000E+00 -0.45593999997E+02  0.45594000000E+02  0.51100000000E-03 0.  1.
    9900012    2    1    2    0    0  0.91685015824E+01 -0.23464582650E+02 -0.37342540739E+02  0.46142318642E+02  0.10000008029E+02 0.  0.
         12    1    1    2    0    0 -0.91685015824E+01  0.23464582650E+02  0.37342540739E+02  0.45045681358E+02  0.00000000000E+00 0. -1.
         11    1    3    3    0    0  0.92896172313E+00  0.75465870998E-01 -0.98945586897E+00  0.13592969354E+01  0.51100000000E-03 0. -1.
        -11    1    3    3    0    0  0.56057364515E+01 -0.22709566483E+02 -0.32497399376E+02  0.40040350366E+02  0.51100000000E-03 0.  1.
        -12    1    3    3    0    0  0.26338034078E+01 -0.83048203766E+00 -0.38556854947E+01  0.47426713401E+01  0.00000000000E+00 0.  1.
</event>
<event>
 7    1  0.1442665E-008  0.4614232E+02  0.7816164E-02  0.1320468E+00
        -11   -1    0    0    0    0  0.00000000000E+00  0.00000000000E+00  0.45593999997E+02  0.45594000000E+02  0.51100000000E-03 0.  1.
         11   -1    0    0    0    0 -0.00000000000E+00 -0.00000000000E+00 -0.45593999997E+02  0.45594000000E+02  0.51100000000E-03 0. -1.
    9900012    2    1    2    0    0 -0.20348952951E+02  0.29840451720E+02  0.26918043406E+02  0.46142317566E+02  0.99999982251E+01 0.  0.
         12    1    1    2    0    0  0.20348952951E+02 -0.29840451720E+02 -0.26918043406E+02  0.45045682434E+02  0.00000000000E+00 0. -1.
         11    1    3    3    0    0 -0.15596850905E+01  0.90603687019E+01  0.86252258236E+01  0.12606245252E+02  0.51100000000E-03 0. -1.
        -11    1    3    3    0    0 -0.11896578896E+02  0.11860967810E+02  0.11779586682E+02  0.20517548818E+02  0.51100000000E-03 0.  1.
         12    1    3    3    0    0 -0.68926889647E+01  0.89191152081E+01  0.65132309006E+01  0.13018523496E+02  0.00000000000E+00 0. -1.
</event>
<event>
 7    1  0.1442665E-008  0.4614232E+02  0.7816164E-02  0.1320468E+00
        -11   -1    0    0    0    0  0.00000000000E+00  0.00000000000E+00  0.45593999997E+02  0.45594000000E+02  0.51100000000E-03 0. -1.
         11   -1    0    0    0    0 -0.00000000000E+00 -0.00000000000E+00 -0.45593999997E+02  0.45594000000E+02  0.51100000000E-03 0.  1.
    9900012    2    1    2    0    0 -0.14267130906E+02  0.62208266564E+01 -0.42271310718E+02  0.46142318538E+02  0.10000007085E+02 0.  0.
         12    1    1    2    0    0  0.14267130906E+02 -0.62208266564E+01  0.42271310718E+02  0.45045681462E+02  0.00000000000E+00 0. -1.
         11    1    3    3    0    0 -0.24494884478E+01  0.12051276568E+01 -0.44014655572E+01  0.51793074476E+01  0.51100000000E-03 0. -1.
        -11    1    3    3    0    0 -0.25652548454E+01  0.49706968242E+01 -0.20889767333E+02  0.21625696262E+02  0.51100000000E-03 0.  1.
        -12    1    3    3    0    0 -0.92523876132E+01  0.45002175429E-01 -0.16980077828E+02  0.19337314829E+02  0.00000000000E+00 0.  1.
</event>
<event>
 7    1  0.1442665E-008  0.4614232E+02  0.7816164E-02  0.1320468E+00
        -11   -1    0    0    0    0  0.00000000000E+00  0.00000000000E+00  0.45593999997E+02  0.45594000000E+02  0.51100000000E-03 0.  1.
         11   -1    0    0    0    0 -0.00000000000E+00 -0.00000000000E+00 -0.45593999997E+02  0.45594000000E+02  0.51100000000E-03 0. -1.
    9900012    2    1    2    0    0 -0.33381308253E+02  0.26365147290E+02  0.14821630120E+02  0.46142318168E+02  0.10000003711E+02 0.  0.
         12    1    1    2    0    0  0.33381308253E+02 -0.26365147290E+02 -0.14821630120E+02  0.45045681832E+02  0.00000000000E+00 0. -1.
         11    1    3    3    0    0 -0.56832221803E+00  0.20919440430E+01 -0.46334825723E+00  0.22167345108E+01  0.51100000000E-03 0. -1.
        -11    1    3    3    0    0 -0.15937390738E+02  0.99032390033E+01  0.45979449843E+01  0.19318790454E+02  0.51100000000E-03 0.  1.
        -12    1    3    3    0    0 -0.16875595298E+02  0.14369964243E+02  0.10687033393E+02  0.24606793203E+02  0.00000000000E+00 0.  1.
</event>
<event>
 7    1  0.1442665E-008  0.4614232E+02  0.7816164E-02  0.1320468E+00
        -11   -1    0    0    0    0  0.00000000000E+00  0.00000000000E+00  0.45593999997E+02  0.45594000000E+02  0.51100000000E-03 0. -1.
         11   -1    0    0    0    0 -0.00000000000E+00 -0.00000000000E+00 -0.45593999997E+02  0.45594000000E+02  0.51100000000E-03 0.  1.
    9900012    2    1    2    0    0  0.13293652487E+02 -0.10524914480E+02 -0.41732696102E+02  0.46142323791E+02  0.10000054981E+02 0.  0.
         12    1    1    2    0    0 -0.13293652487E+02  0.10524914480E+02  0.41732696102E+02  0.45045676209E+02  0.00000000000E+00 0. -1.
         11    1    3    3    0    0 -0.93702122486E+00 -0.11586887270E+00 -0.80779084768E+01  0.81328986218E+01  0.51100000000E-03 0. -1.
        -11    1    3    3    0    0  0.33880055408E+01 -0.30267641700E+01 -0.82588287852E+01  0.94259289224E+01  0.51100000000E-03 0.  1.
         12    1    3    3    0    0  0.10842668171E+02 -0.73822814374E+01 -0.25395958840E+02  0.28583496246E+02  0.00000000000E+00 0. -1.
</event>
<event>
 7    1  0.1442665E-008  0.4614232E+02  0.7816164E-02  0.1320468E+00
        -11   -1    0    0    0    0  0.00000000000E+00  0.00000000000E+00  0.45593999997E+02  0.45594000000E+02  0.51100000000E-03 0. -1.
         11   -1    0    0    0    0 -0.00000000000E+00 -0.00000000000E+00 -0.45593999997E+02  0.45594000000E+02  0.51100000000E-03 0.  1.
    9900012    2    1    2    0    0  0.30845024402E+02 -0.29277852692E+02  0.14849429128E+02  0.46142315034E+02  0.99999751327E+01 0.  0.
         12    1    1    2    0    0 -0.30845024402E+02  0.29277852692E+02 -0.14849429128E+02  0.45045684966E+02  0.00000000000E+00 0. -1.
         11    1    3    3    0    0  0.14095294922E+01  0.39193618429E+00 -0.15920087529E+00  0.14716428037E+01  0.51100000000E-03 0. -1.
        -11    1    3    3    0    0  0.97127983581E+01 -0.13096403576E+02  0.62202789769E+01  0.17451249508E+02  0.51100000000E-03 0.  1.
        -12    1    3    3    0    0  0.19722696552E+02 -0.16573385300E+02  0.87883510260E+01  0.27219422722E+02  0.00000000000E+00 0.  1.
</event>
<event>
 7    1  0.1442665E-008  0.4614232E+02  0.7816164E-02  0.1320468E+00
        -11   -1    0    0    0    0  0.00000000000E+00  0.00000000000E+00  0.45593999997E+02  0.45594000000E+02  0.51100000000E-03 0. -1.
         11   -1    0    0    0    0 -0.00000000000E+00 -0.00000000000E+00 -0.45593999997E+02  0.45594000000E+02  0.51100000000E-03 0.  1.
    9900012    2    1    2    0    0  0.79205385073E+00 -0.27090119487E+02 -0.35980710466E+02  0.46142318201E+02  0.10000004012E+02 0.  0.
         12    1    1    2    0    0 -0.79205385073E+00  0.27090119487E+02  0.35980710466E+02  0.45045681799E+02  0.00000000000E+00 0. -1.
         11    1    3    3    0    0 -0.20216222741E+01 -0.10223798266E+02 -0.10897387898E+02  0.15078662767E+02  0.51100000000E-03 0. -1.
        -11    1    3    3    0    0 -0.21125880320E+01 -0.66977736899E+01 -0.98487181534E+01  0.12096299026E+02  0.51100000000E-03 0.  1.
         12    1    3    3    0    0  0.49262641568E+01 -0.10168547531E+02 -0.15234604415E+02  0.18967356408E+02  0.00000000000E+00 0. -1.
</event>
<event>
 7    1  0.1442665E-008  0.4614232E+02  0.7816164E-02  0.1320468E+00
        -11   -1    0    0    0    0  0.00000000000E+00  0.00000000000E+00  0.45593999997E+02  0.45594000000E+02  0.51100000000E-03 0.  1.
         11   -1    0    0    0    0 -0.00000000000E+00 -0.00000000000E+00 -0.45593999997E+02  0.45594000000E+02  0.51100000000E-03 0. -1.
    9900012    2    1    2    0    0  0.23970753331E+01 -0.21814856851E+02  0.39338017346E+02  0.46142316985E+02  0.99999929268E+01 0.  0.
         12    1    1    2    0    0 -0.23970753331E+01  0.21814856851E+02 -0.39338017346E+02  0.45045683015E+02  0.00000000000E+00 0. -1.
         11    1    3    3    0    0  0.77776006766E+00 -0.72545004292E+01  0.76270684884E+01  0.10554850126E+02  0.51100000000E-03 0. -1.
        -11    1    3    3    0    0 -0.16021550562E+01 -0.11742666265E+02  0.24071511343E+02  0.26830854821E+02  0.51100000000E-03 0.  1.
        -12    1    3    3    0    0  0.32214703216E+01 -0.28176901561E+01  0.76394375144E+01  0.87566120381E+01  0.00000000000E+00 0.  1.
</event>
<event>
 7    1  0.1442665E-008  0.4614232E+02  0.7816164E-02  0.1320468E+00
        -11   -1    0    0    0    0  0.00000000000E+00  0.00000000000E+00  0.45593999997E+02  0.45594000000E+02  0.51100000000E-03 0.  1.
         11   -1    0    0    0    0 -0.00000000000E+00 -0.00000000000E+00 -0.45593999997E+02  0.45594000000E+02  0.51100000000E-03 0. -1.
    9900012    2    1    2    0    0 -0.33888838513E+02 -0.28542704931E+02  0.81224384417E+01  0.46142318889E+02  0.10000010286E+02 0.  0.
         12    1    1    2    0    0  0.33888838513E+02  0.28542704931E+02 -0.81224384417E+01  0.45045681111E+02  0.00000000000E+00 0. -1.
         11    1    3    3    0    0 -0.13584030173E+02 -0.13328339473E+02  0.16083129559E+01  0.19098617219E+02  0.51100000000E-03 0. -1.
        -11    1    3    3    0    0 -0.11943213986E+02 -0.54253007959E+01  0.51695563277E+01  0.14099594389E+02  0.51100000000E-03 0.  1.
        -12    1    3    3    0    0 -0.83615943533E+01 -0.97890646619E+01  0.13445691582E+01  0.12944107281E+02  0.00000000000E+00 0.  1.
</event>
<event>
 7    1  0.1442665E-008  0.4614232E+02  0.7816164E-02  0.1320468E+00
        -11   -1    0    0    0    0  0.00000000000E+00  0.00000000000E+00  0.45593999997E+02  0.45594000000E+02  0.51100000000E-03 0.  1.
         11   -1    0    0    0    0 -0.00000000000E+00 -0.00000000000E+00 -0.45593999997E+02  0.45594000000E+02  0.51100000000E-03 0. -1.
    9900012    2    1    2    0    0 -0.25724091485E+02  0.18770420006E+02  0.31859942290E+02  0.46142317935E+02  0.10000001587E+02 0.  0.
         12    1    1    2    0    0  0.25724091485E+02 -0.18770420006E+02 -0.31859942290E+02  0.45045682065E+02  0.00000000000E+00 0. -1.
         11    1    3    3    0    0 -0.15604646618E+02  0.11522915828E+02  0.23237878638E+02  0.30270143526E+02  0.51100000000E-03 0. -1.
        -11    1    3    3    0    0 -0.16970371083E+01 -0.23641716049E+00  0.25526028953E+01  0.30743470563E+01  0.51100000000E-03 0.  1.
         12    1    3    3    0    0 -0.84224077587E+01  0.74839213393E+01  0.60694607568E+01  0.12797827353E+02  0.00000000000E+00 0. -1.
</event>
<event>
 7    1  0.1442665E-008  0.4614232E+02  0.7816164E-02  0.1320468E+00
        -11   -1    0    0    0    0  0.00000000000E+00  0.00000000000E+00  0.45593999997E+02  0.45594000000E+02  0.51100000000E-03 0. -1.
         11   -1    0    0    0    0 -0.00000000000E+00 -0.00000000000E+00 -0.45593999997E+02  0.45594000000E+02  0.51100000000E-03 0.  1.
    9900012    2    1    2    0    0  0.20485690191E+02 -0.31471104284E+02 -0.24880105120E+02  0.46142317208E+02  0.99999949542E+01 0.  0.
         12    1    1    2    0    0 -0.20485690191E+02  0.31471104284E+02  0.24880105120E+02  0.45045682792E+02  0.00000000000E+00 0. -1.
         11    1    3    3    0    0  0.79402428669E+01 -0.74683061580E+01 -0.36314696209E+01  0.11489587700E+02  0.51100000000E-03 0. -1.
        -11    1    3    3    0    0  0.12448766270E+02 -0.21803926451E+02 -0.20147322690E+02  0.32191576571E+02  0.51100000000E-03 0.  1.
         12    1    3    3    0    0  0.96681053402E-01 -0.21988716756E+01 -0.11013128088E+01  0.24611529361E+01  0.00000000000E+00 0. -1.
</event>
<event>
 7    1  0.1442665E-008  0.4614232E+02  0.7816164E-02  0.1320468E+00
        -11   -1    0    0    0    0  0.00000000000E+00  0.00000000000E+00  0.45593999997E+02  0.45594000000E+02  0.51100000000E-03 0. -1.
         11   -1    0    0    0    0 -0.00000000000E+00 -0.00000000000E+00 -0.45593999997E+02  0.45594000000E+02  0.51100000000E-03 0.  1.
    9900012    2    1    2    0    0  0.28998444969E+01 -0.27258164342E+02 -0.35744886584E+02  0.46142317207E+02  0.99999949430E+01 0.  0.
         12    1    1    2    0    0 -0.28998444969E+01  0.27258164342E+02  0.35744886584E+02  0.45045682793E+02  0.00000000000E+00 0. -1.
         11    1    3    3    0    0  0.27851856428E+01 -0.88237690944E+01 -0.87459724729E+01  0.12732171647E+02  0.51100000000E-03 0. -1.
        -11    1    3    3    0    0 -0.12260277464E+01 -0.14743987133E+02 -0.16298133911E+02  0.22011757537E+02  0.51100000000E-03 0.  1.
        -12    1    3    3    0    0  0.13406866005E+01 -0.36904081144E+01 -0.10700780201E+02  0.11398388023E+02  0.00000000000E+00 0.  1.
</event>
<event>
 7    1  0.1442665E-008  0.4614232E+02  0.7816164E-02  0.1320468E+00
        -11   -1    0    0    0    0  0.00000000000E+00  0.00000000000E+00  0.45593999997E+02  0.45594000000E+02  0.51100000000E-03 0.  1.
         11   -1    0    0    0    0 -0.00000000000E+00 -0.00000000000E+00 -0.45593999997E+02  0.45594000000E+02  0.51100000000E-03 0. -1.
    9900012    2    1    2    0    0 -0.44306066959E+02  0.80228868233E+01  0.13111686114E+01  0.46142318237E+02  0.10000004338E+02 0.  0.
         12    1    1    2    0    0  0.44306066959E+02 -0.80228868233E+01 -0.13111686114E+01  0.45045681763E+02  0.00000000000E+00 0. -1.
         11    1    3    3    0    0 -0.63340794860E+01 -0.40873385858E+00 -0.26760420546E+01  0.68883109426E+01  0.51100000000E-03 0. -1.
        -11    1    3    3    0    0 -0.12975135051E+02  0.30317914467E+01 -0.27687475438E+00  0.13327510978E+02  0.51100000000E-03 0.  1.
         12    1    3    3    0    0 -0.24996852422E+02  0.53998292352E+01  0.42640854203E+01  0.25926496317E+02  0.00000000000E+00 0. -1.
</event>
<event>
 7    1  0.1442665E-008  0.4614232E+02  0.7816164E-02  0.1320468E+00
        -11   -1    0    0    0    0  0.00000000000E+00  0.00000000000E+00  0.45593999997E+02  0.45594000000E+02  0.51100000000E-03 0.  1.
         11   -1    0    0    0    0 -0.00000000000E+00 -0.00000000000E+00 -0.45593999997E+02  0.45594000000E+02  0.51100000000E-03 0. -1.
    9900012    2    1    2    0    0 -0.23674820488E+02 -0.36863429934E+01  0.38144822050E+02  0.46142315423E+02  0.99999786789E+01 0.  0.
         12    1    1    2    0    0  0.23674820488E+02  0.36863429934E+01 -0.38144822050E+02  0.45045684577E+02  0.00000000000E+00 0. -1.
         11    1    3    3    0    0 -0.25934102540E+01  0.65743691822E+00  0.52462693945E+01  0.58890867601E+01  0.51100000000E-03 0. -1.
        -11    1    3    3    0    0 -0.72483739287E+01 -0.10957401911E+01  0.47888978633E+01  0.87563185291E+01  0.51100000000E-03 0.  1.
        -12    1    3    3    0    0 -0.13833036305E+02 -0.32480397205E+01  0.28109654792E+02  0.31496910134E+02  0.00000000000E+00 0.  1.
</event>
<event>
 7    1  0.1442665E-008  0.4614232E+02  0.7816164E-02  0.1320468E+00
        -11   -1    0    0    0    0  0.00000000000E+00  0.00000000000E+00  0.45593999997E+02  0.45594000000E+02  0.51100000000E-03 0.  1.
         11   -1    0    0    0    0 -0.00000000000E+00 -0.00000000000E+00 -0.45593999997E+02  0.45594000000E+02  0.51100000000E-03 0. -1.
    9900012    2    1    2    0    0 -0.31275794477E+02  0.27658090787E+02 -0.16910590799E+02  0.46142318883E+02  0.10000010229E+02 0.  0.
         12    1    1    2    0    0  0.31275794477E+02 -0.27658090787E+02  0.16910590799E+02  0.45045681117E+02  0.00000000000E+00 0. -1.
         11    1    3    3    0    0 -0.16284042946E+02  0.17231199044E+02 -0.74094837649E+01  0.24839177222E+02  0.51100000000E-03 0.  1.
        -11    1    3    3    0    0 -0.13437548923E+01 -0.17807539049E+00 -0.21040617356E+01  0.25028911490E+01  0.51100000000E-03 0. -1.
         12    1    3    3    0    0 -0.13647996639E+02  0.10604967134E+02 -0.73970452985E+01  0.18800250512E+02  0.00000000000E+00 0. -1.
</event>
<event>
 7    1  0.1442665E-008  0.4614232E+02  0.7816164E-02  0.1320468E+00
        -11   -1    0    0    0    0  0.00000000000E+00  0.00000000000E+00  0.45593999997E+02  0.45594000000E+02  0.51100000000E-03 0.  1.
         11   -1    0    0    0    0 -0.00000000000E+00 -0.00000000000E+00 -0.45593999997E+02  0.45594000000E+02  0.51100000000E-03 0. -1.
    9900012    2    1    2    0    0 -0.14508287920E+02  0.32610135470E+02  0.27480938077E+02  0.46142319726E+02  0.10000017919E+02 0.  0.
         12    1    1    2    0    0  0.14508287920E+02 -0.32610135470E+02 -0.27480938077E+02  0.45045680274E+02  0.00000000000E+00 0. -1.
         11    1    3    3    0    0 -0.71059832411E+01  0.93423849045E+01  0.10176765533E+02  0.15535176552E+02  0.51100000000E-03 0. -1.
        -11    1    3    3    0    0  0.70767306994E+00  0.32696908862E+01  0.41639549842E+01  0.53413669633E+01  0.51100000000E-03 0.  1.
         12    1    3    3    0    0 -0.81099777492E+01  0.19998059679E+02  0.13140217560E+02  0.25265776211E+02  0.00000000000E+00 0. -1.
</event>
<event>
 7    1  0.1442665E-008  0.4614232E+02  0.7816164E-02  0.1320468E+00
        -11   -1    0    0    0    0  0.00000000000E+00  0.00000000000E+00  0.45593999997E+02  0.45594000000E+02  0.51100000000E-03 0.  1.
         11   -1    0    0    0    0 -0.00000000000E+00 -0.00000000000E+00 -0.45593999997E+02  0.45594000000E+02  0.51100000000E-03 0. -1.
    9900012    2    1    2    0    0  0.63078518489E+01  0.31321039544E+02  0.31754007319E+02  0.46142317700E+02  0.99999994421E+01 0.  0.
         12    1    1    2    0    0 -0.63078518489E+01 -0.31321039544E+02 -0.31754007319E+02  0.45045682300E+02  0.00000000000E+00 0. -1.
         11    1    3    3    0    0  0.24006390785E+00  0.10293325776E+02  0.79778212430E+01  0.13025199356E+02  0.51100000000E-03 0. -1.
        -11    1    3    3    0    0  0.40794114065E+01  0.13315698078E+02  0.97933802492E+01  0.17025266803E+02  0.51100000000E-03 0.  1.
         12    1    3    3    0    0  0.19883765346E+01  0.77120156895E+01  0.13982805827E+02  0.16091851541E+02  0.00000000000E+00 0. -1.
</event>
<event>
 7    1  0.1442665E-008  0.4614232E+02  0.7816164E-02  0.1320468E+00
        -11   -1    0    0    0    0  0.00000000000E+00  0.00000000000E+00  0.45593999997E+02  0.45594000000E+02  0.51100000000E-03 0.  1.
         11   -1    0    0    0    0 -0.00000000000E+00 -0.00000000000E+00 -0.45593999997E+02  0.45594000000E+02  0.51100000000E-03 0. -1.
    9900012    2    1    2    0    0 -0.64489178305E+01 -0.33507307624E+02 -0.29407232915E+02  0.46142317042E+02  0.99999934427E+01 0.  0.
         12    1    1    2    0    0  0.64489178305E+01  0.33507307624E+02  0.29407232915E+02  0.45045682958E+02  0.00000000000E+00 0. -1.
         11    1    3    3    0    0 -0.17154064160E+01 -0.49974273508E+01 -0.90248465782E+01  0.10457760531E+02  0.51100000000E-03 0. -1.
        -11    1    3    3    0    0 -0.56415740601E+01 -0.26297487579E+02 -0.18567243840E+02  0.32682223837E+02  0.51100000000E-03 0.  1.
        -12    1    3    3    0    0  0.90806264552E+00 -0.22123926946E+01 -0.18151424969E+01  0.30023326744E+01  0.00000000000E+00 0.  1.
</event>
<event>
 7    1  0.1442665E-008  0.4614232E+02  0.7816164E-02  0.1320468E+00
        -11   -1    0    0    0    0  0.00000000000E+00  0.00000000000E+00  0.45593999997E+02  0.45594000000E+02  0.51100000000E-03 0.  1.
         11   -1    0    0    0    0 -0.00000000000E+00 -0.00000000000E+00 -0.45593999997E+02  0.45594000000E+02  0.51100000000E-03 0. -1.
    9900012    2    1    2    0    0  0.40382545563E+02  0.18101694619E+02  0.84078602615E+01  0.46142318205E+02  0.10000004044E+02 0.  0.
         12    1    1    2    0    0 -0.40382545563E+02 -0.18101694619E+02 -0.84078602615E+01  0.45045681795E+02  0.00000000000E+00 0. -1.
         11    1    3    3    0    0  0.81025329411E+01  0.17673078786E+01  0.43723176885E+01  0.93750509028E+01  0.51100000000E-03 0. -1.
        -11    1    3    3    0    0  0.26688386887E+02  0.14067695462E+02  0.52233810574E+01  0.30617866682E+02  0.51100000000E-03 0.  1.
        -12    1    3    3    0    0  0.55916257357E+01  0.22666912775E+01 -0.11878384844E+01  0.61494006197E+01  0.00000000000E+00 0.  1.
</event>
<event>
 7    1  0.1442665E-008  0.4614232E+02  0.7816164E-02  0.1320468E+00
        -11   -1    0    0    0    0  0.00000000000E+00  0.00000000000E+00  0.45593999997E+02  0.45594000000E+02  0.51100000000E-03 0.  1.
         11   -1    0    0    0    0 -0.00000000000E+00 -0.00000000000E+00 -0.45593999997E+02  0.45594000000E+02  0.51100000000E-03 0. -1.
    9900012    2    1    2    0    0 -0.41065023963E+02  0.47289650577E+00 -0.18508205750E+02  0.46142317584E+02  0.99999983888E+01 0.  0.
         12    1    1    2    0    0  0.41065023963E+02 -0.47289650577E+00  0.18508205750E+02  0.45045682416E+02  0.00000000000E+00 0. -1.
         11    1    3    3    0    0 -0.92826460373E+00 -0.10760569651E+01  0.42023734685E+00  0.14819492081E+01  0.51100000000E-03 0. -1.
        -11    1    3    3    0    0 -0.13114568321E+02  0.17392951034E+01 -0.83297683138E+01  0.15633364645E+02  0.51100000000E-03 0.  1.
         12    1    3    3    0    0 -0.27022191038E+02 -0.19034163246E+00 -0.10598674783E+02  0.29027003731E+02  0.00000000000E+00 0. -1.
</event>
<event>
 7    1  0.1442665E-008  0.4614232E+02  0.7816164E-02  0.1320468E+00
        -11   -1    0    0    0    0  0.00000000000E+00  0.00000000000E+00  0.45593999997E+02  0.45594000000E+02  0.51100000000E-03 0.  1.
         11   -1    0    0    0    0 -0.00000000000E+00 -0.00000000000E+00 -0.45593999997E+02  0.45594000000E+02  0.51100000000E-03 0. -1.
    9900012    2    1    2    0    0 -0.17284944550E+02 -0.12949385021E+02  0.39530465095E+02  0.46142317064E+02  0.99999936431E+01 0.  0.
         12    1    1    2    0    0  0.17284944550E+02  0.12949385021E+02 -0.39530465095E+02  0.45045682936E+02  0.00000000000E+00 0. -1.
         11    1    3    3    0    0 -0.61722721401E+01 -0.10296134858E+02  0.17108028312E+02  0.20899568641E+02  0.51100000000E-03 0. -1.
        -11    1    3    3    0    0 -0.81354060922E+01 -0.27328646263E+01  0.15769165556E+02  0.17953271678E+02  0.51100000000E-03 0.  1.
         12    1    3    3    0    0 -0.29772663181E+01  0.79614464206E-01  0.66532712272E+01  0.72894767450E+01  0.00000000000E+00 0. -1.
</event>
<event>
 7    1  0.1442665E-008  0.4614232E+02  0.7816164E-02  0.1320468E+00
        -11   -1    0    0    0    0  0.00000000000E+00  0.00000000000E+00  0.45593999997E+02  0.45594000000E+02  0.51100000000E-03 0.  1.
         11   -1    0    0    0    0 -0.00000000000E+00 -0.00000000000E+00 -0.45593999997E+02  0.45594000000E+02  0.51100000000E-03 0. -1.
    9900012    2    1    2    0    0 -0.23907096643E+02  0.36468749863E+02  0.11295772088E+02  0.46142318148E+02  0.10000003532E+02 0.  0.
         12    1    1    2    0    0  0.23907096643E+02 -0.36468749863E+02 -0.11295772088E+02  0.45045681852E+02  0.00000000000E+00 0. -1.
         11    1    3    3    0    0 -0.92554400593E+01  0.11026267974E+02  0.19740193565E+00  0.14397247095E+02  0.51100000000E-03 0. -1.
        -11    1    3    3    0    0 -0.47115707018E+01  0.12813630653E+02  0.56471139514E+01  0.14774231798E+02  0.51100000000E-03 0.  1.
        -12    1    3    3    0    0 -0.99400858815E+01  0.12628851236E+02  0.54512562005E+01  0.16970839255E+02  0.00000000000E+00 0.  1.
</event>
<event>
 7    1  0.1442665E-008  0.4614232E+02  0.7816164E-02  0.1320468E+00
        -11   -1    0    0    0    0  0.00000000000E+00  0.00000000000E+00  0.45593999997E+02  0.45594000000E+02  0.51100000000E-03 0.  1.
         11   -1    0    0    0    0 -0.00000000000E+00 -0.00000000000E+00 -0.45593999997E+02  0.45594000000E+02  0.51100000000E-03 0. -1.
    9900012    2    1    2    0    0  0.13440569445E+02 -0.17008736881E+02  0.39486293963E+02  0.46142318206E+02  0.10000004061E+02 0.  0.
         12    1    1    2    0    0 -0.13440569445E+02  0.17008736881E+02 -0.39486293963E+02  0.45045681794E+02  0.00000000000E+00 0. -1.
         11    1    3    3    0    0  0.62768602952E+01 -0.10837596633E+02  0.20308694467E+02  0.23859915071E+02  0.51100000000E-03 0. -1.
        -11    1    3    3    0    0  0.16052482645E+01  0.60186196717E+00  0.73696275367E+00  0.18660584610E+01  0.51100000000E-03 0.  1.
        -12    1    3    3    0    0  0.55584608848E+01 -0.67730022148E+01  0.18440636742E+02  0.20416344675E+02  0.00000000000E+00 0.  1.
</event>
<event>
 7    1  0.1442665E-008  0.4614232E+02  0.7816164E-02  0.1320468E+00
        -11   -1    0    0    0    0  0.00000000000E+00  0.00000000000E+00  0.45593999997E+02  0.45594000000E+02  0.51100000000E-03 0. -1.
         11   -1    0    0    0    0 -0.00000000000E+00 -0.00000000000E+00 -0.45593999997E+02  0.45594000000E+02  0.51100000000E-03 0.  1.
    9900012    2    1    2    0    0 -0.39226265974E+02 -0.14781085411E+02  0.16490390304E+02  0.46142318736E+02  0.10000008890E+02 0.  0.
         12    1    1    2    0    0  0.39226265974E+02  0.14781085411E+02 -0.16490390304E+02  0.45045681264E+02  0.00000000000E+00 0. -1.
         11    1    3    3    0    0 -0.17263246893E+02 -0.89501106031E+01  0.70031768920E+01  0.20668058930E+02  0.51100000000E-03 0. -1.
        -11    1    3    3    0    0 -0.37427676386E+01  0.40931668958E+00 -0.46824099489E+00  0.37940874580E+01  0.51100000000E-03 0.  1.
        -12    1    3    3    0    0 -0.18220251442E+02 -0.62402914971E+01  0.99554544064E+01  0.21680172348E+02  0.00000000000E+00 0.  1.
</event>
<event>
 7    1  0.1442665E-008  0.4614232E+02  0.7816164E-02  0.1320468E+00
        -11   -1    0    0    0    0  0.00000000000E+00  0.00000000000E+00  0.45593999997E+02  0.45594000000E+02  0.51100000000E-03 0.  1.
         11   -1    0    0    0    0 -0.00000000000E+00 -0.00000000000E+00 -0.45593999997E+02  0.45594000000E+02  0.51100000000E-03 0. -1.
    9900012    2    1    2    0    0 -0.52238098089E+01  0.86157305309E+01  0.43904379711E+02  0.46142316974E+02  0.99999928206E+01 0.  0.
         12    1    1    2    0    0  0.52238098089E+01 -0.86157305309E+01 -0.43904379711E+02  0.45045683026E+02  0.00000000000E+00 0. -1.
         11    1    3    3    0    0 -0.35466977306E-01  0.77813739653E+01  0.26625487329E+02  0.27739279271E+02  0.51100000000E-03 0. -1.
        -11    1    3    3    0    0 -0.23306702062E+01  0.12313804825E+01  0.38382706622E+01  0.46562477855E+01  0.51100000000E-03 0.  1.
         12    1    3    3    0    0 -0.28576726255E+01 -0.39702391689E+00  0.13440621720E+02  0.13746789918E+02  0.00000000000E+00 0. -1.
</event>
<event>
 7    1  0.1442665E-008  0.4614232E+02  0.7816164E-02  0.1320468E+00
        -11   -1    0    0    0    0  0.00000000000E+00  0.00000000000E+00  0.45593999997E+02  0.45594000000E+02  0.51100000000E-03 0.  1.
         11   -1    0    0    0    0 -0.00000000000E+00 -0.00000000000E+00 -0.45593999997E+02  0.45594000000E+02  0.51100000000E-03 0. -1.
    9900012    2    1    2    0    0 -0.25616782435E+02 -0.27718036648E+02  0.24588703970E+02  0.46142318067E+02  0.10000002785E+02 0.  0.
         12    1    1    2    0    0  0.25616782435E+02  0.27718036648E+02 -0.24588703970E+02  0.45045681933E+02  0.00000000000E+00 0. -1.
         11    1    3    3    0    0 -0.12585443213E+02 -0.14768817938E+02  0.76359824972E+01  0.20852328242E+02  0.51100000000E-03 0. -1.
        -11    1    3    3    0    0 -0.62015335644E+01 -0.75959797162E+01  0.11161747014E+02  0.14857406337E+02  0.51100000000E-03 0.  1.
        -12    1    3    3    0    0 -0.68298056569E+01 -0.53532389943E+01  0.57909744585E+01  0.10432583487E+02  0.00000000000E+00 0.  1.
</event>
<event>
 7    1  0.1442665E-008  0.4614232E+02  0.7816164E-02  0.1320468E+00
        -11   -1    0    0    0    0  0.00000000000E+00  0.00000000000E+00  0.45593999997E+02  0.45594000000E+02  0.51100000000E-03 0. -1.
         11   -1    0    0    0    0 -0.00000000000E+00 -0.00000000000E+00 -0.45593999997E+02  0.45594000000E+02  0.51100000000E-03 0.  1.
    9900012    2    1    2    0    0  0.24419631349E+02  0.35935672192E+02 -0.11892114690E+02  0.46142319597E+02  0.10000016745E+02 0.  0.
         12    1    1    2    0    0 -0.24419631349E+02 -0.35935672192E+02  0.11892114690E+02  0.45045680403E+02  0.00000000000E+00 0. -1.
         11    1    3    3    0    0  0.51752080212E+01  0.39348006090E+01 -0.42994228671E+01  0.77942588580E+01  0.51100000000E-03 0. -1.
        -11    1    3    3    0    0  0.86446371557E+01  0.15329910948E+02 -0.57133006836E+01  0.18503451737E+02  0.51100000000E-03 0.  1.
         12    1    3    3    0    0  0.10599786172E+02  0.16670960635E+02 -0.18793911394E+01  0.19844609002E+02  0.00000000000E+00 0. -1.
</event>
<event>
 7    1  0.1442665E-008  0.4614232E+02  0.7816164E-02  0.1320468E+00
        -11   -1    0    0    0    0  0.00000000000E+00  0.00000000000E+00  0.45593999997E+02  0.45594000000E+02  0.51100000000E-03 0. -1.
         11   -1    0    0    0    0 -0.00000000000E+00 -0.00000000000E+00 -0.45593999997E+02  0.45594000000E+02  0.51100000000E-03 0.  1.
    9900012    2    1    2    0    0 -0.41239435664E+02  0.51926803436E+01  0.17362566100E+02  0.46142315582E+02  0.99999801327E+01 0.  0.
         12    1    1    2    0    0  0.41239435664E+02 -0.51926803436E+01 -0.17362566100E+02  0.45045684418E+02  0.00000000000E+00 0. -1.
         11    1    3    3    0    0 -0.10291810775E+02  0.36411207677E+01  0.83512044541E+01  0.13744880704E+02  0.51100000000E-03 0. -1.
        -11    1    3    3    0    0 -0.79851399491E+01  0.16573973467E+01  0.24696431365E+01  0.85210658638E+01  0.51100000000E-03 0.  1.
         12    1    3    3    0    0 -0.22962484940E+02 -0.10583777078E+00  0.65417185096E+01  0.23876369014E+02  0.00000000000E+00 0. -1.
</event>
<event>
 7    1  0.1442665E-008  0.4614232E+02  0.7816164E-02  0.1320468E+00
        -11   -1    0    0    0    0  0.00000000000E+00  0.00000000000E+00  0.45593999997E+02  0.45594000000E+02  0.51100000000E-03 0.  1.
         11   -1    0    0    0    0 -0.00000000000E+00 -0.00000000000E+00 -0.45593999997E+02  0.45594000000E+02  0.51100000000E-03 0. -1.
    9900012    2    1    2    0    0  0.16445675929E+02  0.13208889211E+02  0.39801740241E+02  0.46142317220E+02  0.99999950619E+01 0.  0.
         12    1    1    2    0    0 -0.16445675929E+02 -0.13208889211E+02 -0.39801740241E+02  0.45045682780E+02  0.00000000000E+00 0. -1.
         11    1    3    3    0    0  0.82741928414E+01  0.95536154971E+01  0.19621496996E+02  0.23339601129E+02  0.51100000000E-03 0. -1.
        -11    1    3    3    0    0  0.59770663094E+01  0.51504048672E+01  0.16182234432E+02  0.18003241470E+02  0.51100000000E-03 0.  1.
         12    1    3    3    0    0  0.21944167778E+01 -0.14951311534E+01  0.39980088137E+01  0.47994746207E+01  0.00000000000E+00 0. -1.
</event>
<event>
 7    1  0.1442665E-008  0.4614232E+02  0.7816164E-02  0.1320468E+00
        -11   -1    0    0    0    0  0.00000000000E+00  0.00000000000E+00  0.45593999997E+02  0.45594000000E+02  0.51100000000E-03 0.  1.
         11   -1    0    0    0    0 -0.00000000000E+00 -0.00000000000E+00 -0.45593999997E+02  0.45594000000E+02  0.51100000000E-03 0. -1.
    9900012    2    1    2    0    0  0.96638180767E+01 -0.33321836852E+02  0.28729416807E+02  0.46142316732E+02  0.99999906155E+01 0.  0.
         12    1    1    2    0    0 -0.96638180767E+01  0.33321836852E+02 -0.28729416807E+02  0.45045683268E+02  0.00000000000E+00 0. -1.
         11    1    3    3    0    0  0.23222121770E+01 -0.90046514845E+00  0.11700000170E+01  0.27518007157E+01  0.51100000000E-03 0. -1.
        -11    1    3    3    0    0  0.53914588054E+01 -0.17304800387E+02  0.12935499277E+02  0.22267713989E+02  0.51100000000E-03 0.  1.
         12    1    3    3    0    0  0.19501470943E+01 -0.15116571316E+02  0.14623917513E+02  0.21122802027E+02  0.00000000000E+00 0. -1.
</event>
<event>
 7    1  0.1442665E-008  0.4614232E+02  0.7816164E-02  0.1320468E+00
        -11   -1    0    0    0    0  0.00000000000E+00  0.00000000000E+00  0.45593999997E+02  0.45594000000E+02  0.51100000000E-03 0. -1.
         11   -1    0    0    0    0 -0.00000000000E+00 -0.00000000000E+00 -0.45593999997E+02  0.45594000000E+02  0.51100000000E-03 0.  1.
    9900012    2    1    2    0    0 -0.29931432155E+02 -0.29865107834E+02 -0.15533768635E+02  0.46142320243E+02  0.10000022630E+02 0.  0.
         12    1    1    2    0    0  0.29931432155E+02  0.29865107834E+02  0.15533768635E+02  0.45045679757E+02  0.00000000000E+00 0. -1.
         11    1    3    3    0    0 -0.14441310847E+02 -0.83230760108E+01 -0.59232954737E+01  0.17689275926E+02  0.51100000000E-03 0. -1.
        -11    1    3    3    0    0 -0.13762101890E+02 -0.18543917158E+02 -0.70386947477E+01  0.24141572774E+02  0.51100000000E-03 0.  1.
         12    1    3    3    0    0 -0.17280194179E+01 -0.29981146649E+01 -0.25717784134E+01  0.43114715423E+01  0.00000000000E+00 0. -1.
</event>
<event>
 7    1  0.1442665E-008  0.4614232E+02  0.7816164E-02  0.1320468E+00
        -11   -1    0    0    0    0  0.00000000000E+00  0.00000000000E+00  0.45593999997E+02  0.45594000000E+02  0.51100000000E-03 0.  1.
         11   -1    0    0    0    0 -0.00000000000E+00 -0.00000000000E+00 -0.45593999997E+02  0.45594000000E+02  0.51100000000E-03 0. -1.
    9900012    2    1    2    0    0  0.32228504380E+02  0.30438236273E+02 -0.79969188250E+01  0.46142318380E+02  0.10000005639E+02 0.  0.
         12    1    1    2    0    0 -0.32228504380E+02 -0.30438236273E+02  0.79969188250E+01  0.45045681620E+02  0.00000000000E+00 0. -1.
         11    1    3    3    0    0  0.17254140178E+02  0.18374087029E+02 -0.76862644649E+01  0.26351301469E+02  0.51100000000E-03 0. -1.
        -11    1    3    3    0    0  0.77640104192E+01  0.40428336502E+01 -0.16973205585E+01  0.89165721582E+01  0.51100000000E-03 0.  1.
         12    1    3    3    0    0  0.72103537823E+01  0.80213155936E+01  0.13866661985E+01  0.10874444752E+02  0.00000000000E+00 0. -1.
</event>
<event>
 7    1  0.1442665E-008  0.4614232E+02  0.7816164E-02  0.1320468E+00
        -11   -1    0    0    0    0  0.00000000000E+00  0.00000000000E+00  0.45593999997E+02  0.45594000000E+02  0.51100000000E-03 0.  1.
         11   -1    0    0    0    0 -0.00000000000E+00 -0.00000000000E+00 -0.45593999997E+02  0.45594000000E+02  0.51100000000E-03 0. -1.
    9900012    2    1    2    0    0  0.40032598019E+02  0.18813714769E+02  0.85175532073E+01  0.46142317852E+02  0.10000000830E+02 0.  0.
         12    1    1    2    0    0 -0.40032598019E+02 -0.18813714769E+02 -0.85175532073E+01  0.45045682148E+02  0.00000000000E+00 0. -1.
         11    1    3    3    0    0  0.18182867374E+02  0.10982765734E+02 -0.29874785505E-01  0.21242379855E+02  0.51100000000E-03 0. -1.
        -11    1    3    3    0    0  0.10702530947E+02  0.47182115729E+01  0.55392143298E+01  0.12941738089E+02  0.51100000000E-03 0.  1.
        -12    1    3    3    0    0  0.11147199698E+02  0.31127374614E+01  0.30082136631E+01  0.11958199909E+02  0.00000000000E+00 0.  1.
</event>
<event>
 7    1  0.1442665E-008  0.4614232E+02  0.7816164E-02  0.1320468E+00
        -11   -1    0    0    0    0  0.00000000000E+00  0.00000000000E+00  0.45593999997E+02  0.45594000000E+02  0.51100000000E-03 0. -1.
         11   -1    0    0    0    0 -0.00000000000E+00 -0.00000000000E+00 -0.45593999997E+02  0.45594000000E+02  0.51100000000E-03 0.  1.
    9900012    2    1    2    0    0  0.34307588091E+02  0.27940941681E+02  0.84502488150E+01  0.46142317325E+02  0.99999960231E+01 0.  0.
         12    1    1    2    0    0 -0.34307588091E+02 -0.27940941681E+02 -0.84502488150E+01  0.45045682675E+02  0.00000000000E+00 0. -1.
         11    1    3    3    0    0  0.29527583535E+02  0.22968976210E+02  0.69833526414E+01  0.38055476241E+02  0.51100000000E-03 0.  1.
        -11    1    3    3    0    0  0.34369394484E+00  0.30518096249E+01  0.14129894751E+00  0.30743508532E+01  0.51100000000E-03 0. -1.
         12    1    3    3    0    0  0.44363106110E+01  0.19201558464E+01  0.13255972261E+01  0.50124902312E+01  0.00000000000E+00 0. -1.
</event>
<event>
 7    1  0.1442665E-008  0.4614232E+02  0.7816164E-02  0.1320468E+00
        -11   -1    0    0    0    0  0.00000000000E+00  0.00000000000E+00  0.45593999997E+02  0.45594000000E+02  0.51100000000E-03 0. -1.
         11   -1    0    0    0    0 -0.00000000000E+00 -0.00000000000E+00 -0.45593999997E+02  0.45594000000E+02  0.51100000000E-03 0.  1.
    9900012    2    1    2    0    0  0.24794889494E+02 -0.27503337924E+02 -0.25649432623E+02  0.46142317233E+02  0.99999951877E+01 0.  0.
         12    1    1    2    0    0 -0.24794889494E+02  0.27503337924E+02  0.25649432623E+02  0.45045682767E+02  0.00000000000E+00 0. -1.
         11    1    3    3    0    0  0.61373857417E+01 -0.23496561495E+01 -0.27114802289E+01  0.71091851190E+01  0.51100000000E-03 0. -1.
        -11    1    3    3    0    0  0.12575511896E+02 -0.15172929578E+02 -0.16417481240E+02  0.25649463580E+02  0.51100000000E-03 0.  1.
         12    1    3    3    0    0  0.60819918562E+01 -0.99807521966E+01 -0.65204711546E+01  0.13383668534E+02  0.00000000000E+00 0. -1.
</event>
<event>
 7    1  0.1442665E-008  0.4614232E+02  0.7816164E-02  0.1320468E+00
        -11   -1    0    0    0    0  0.00000000000E+00  0.00000000000E+00  0.45593999997E+02  0.45594000000E+02  0.51100000000E-03 0. -1.
         11   -1    0    0    0    0 -0.00000000000E+00 -0.00000000000E+00 -0.45593999997E+02  0.45594000000E+02  0.51100000000E-03 0.  1.
    9900012    2    1    2    0    0 -0.29251901095E+02  0.28741700681E+02 -0.18637446011E+02  0.46142317970E+02  0.10000001907E+02 0.  0.
         12    1    1    2    0    0  0.29251901095E+02 -0.28741700681E+02  0.18637446011E+02  0.45045682030E+02  0.00000000000E+00 0. -1.
         11    1    3    3    0    0 -0.96923059378E+01  0.49187894591E+01 -0.48954665447E+01  0.11920607245E+02  0.51100000000E-03 0. -1.
        -11    1    3    3    0    0 -0.84693286960E-01  0.21535953397E+01 -0.46730321284E+00  0.22053386120E+01  0.51100000000E-03 0.  1.
         12    1    3    3    0    0 -0.19474901870E+02  0.21669315882E+02 -0.13274676254E+02  0.32016372113E+02  0.00000000000E+00 0. -1.
</event>
<event>
 7    1  0.1442665E-008  0.4614232E+02  0.7816164E-02  0.1320468E+00
        -11   -1    0    0    0    0  0.00000000000E+00  0.00000000000E+00  0.45593999997E+02  0.45594000000E+02  0.51100000000E-03 0. -1.
         11   -1    0    0    0    0 -0.00000000000E+00 -0.00000000000E+00 -0.45593999997E+02  0.45594000000E+02  0.51100000000E-03 0.  1.
    9900012    2    1    2    0    0 -0.21159813316E+02 -0.14250669119E+02 -0.37125385141E+02  0.46142317723E+02  0.99999996541E+01 0.  0.
         12    1    1    2    0    0  0.21159813316E+02  0.14250669119E+02  0.37125385141E+02  0.45045682277E+02  0.00000000000E+00 0. -1.
         11    1    3    3    0    0  0.13569735218E+00 -0.16206350732E+01 -0.10458532556E+01  0.19335669384E+01  0.51100000000E-03 0. -1.
        -11    1    3    3    0    0 -0.97027785402E+01 -0.92890475318E+01 -0.17614846760E+02  0.22152046002E+02  0.51100000000E-03 0.  1.
         12    1    3    3    0    0 -0.11592732128E+02 -0.33409865144E+01 -0.18464685126E+02  0.22056704783E+02  0.00000000000E+00 0. -1.
</event>
<event>
 7    1  0.1442665E-008  0.4614232E+02  0.7816164E-02  0.1320468E+00
        -11   -1    0    0    0    0  0.00000000000E+00  0.00000000000E+00  0.45593999997E+02  0.45594000000E+02  0.51100000000E-03 0.  1.
         11   -1    0    0    0    0 -0.00000000000E+00 -0.00000000000E+00 -0.45593999997E+02  0.45594000000E+02  0.51100000000E-03 0. -1.
    9900012    2    1    2    0    0 -0.20155554710E+02 -0.16388796174E+02  0.36800470992E+02  0.46142315512E+02  0.99999794946E+01 0.  0.
         12    1    1    2    0    0  0.20155554710E+02  0.16388796174E+02 -0.36800470992E+02  0.45045684488E+02  0.00000000000E+00 0. -1.
         11    1    3    3    0    0 -0.27825434200E+01 -0.22363127113E+01  0.16137606099E+01  0.39176352554E+01  0.51100000000E-03 0. -1.
        -11    1    3    3    0    0 -0.17523846973E+02 -0.13657471177E+02  0.35285878297E+02  0.41697780986E+02  0.51100000000E-03 0.  1.
        -12    1    3    3    0    0  0.15083568335E+00 -0.49501228599E+00 -0.99167914687E-01  0.52689927117E+00  0.00000000000E+00 0.  1.
</event>
<event>
 7    1  0.1442665E-008  0.4614232E+02  0.7816164E-02  0.1320468E+00
        -11   -1    0    0    0    0  0.00000000000E+00  0.00000000000E+00  0.45593999997E+02  0.45594000000E+02  0.51100000000E-03 0.  1.
         11   -1    0    0    0    0 -0.00000000000E+00 -0.00000000000E+00 -0.45593999997E+02  0.45594000000E+02  0.51100000000E-03 0. -1.
    9900012    2    1    2    0    0  0.25562975045E+02 -0.30742541794E+02  0.20749550415E+02  0.46142318614E+02  0.10000007777E+02 0.  0.
         12    1    1    2    0    0 -0.25562975045E+02  0.30742541794E+02 -0.20749550415E+02  0.45045681386E+02  0.00000000000E+00 0. -1.
         11    1    3    3    0    0  0.99311746289E+01 -0.81154191246E+01  0.54066012839E+01  0.13918318677E+02  0.51100000000E-03 0. -1.
        -11    1    3    3    0    0  0.82162122235E+01 -0.15284265101E+02  0.64489475587E+01  0.18512261555E+02  0.51100000000E-03 0.  1.
         12    1    3    3    0    0  0.74155881929E+01 -0.73428575675E+01  0.88940015728E+01  0.13711738383E+02  0.00000000000E+00 0. -1.
</event>
<event>
 7    1  0.1442665E-008  0.4614233E+02  0.7816164E-02  0.1320468E+00
        -11   -1    0    0    0    0  0.00000000000E+00  0.00000000000E+00  0.45593999997E+02  0.45594000000E+02  0.51100000000E-03 0. -1.
         11   -1    0    0    0    0 -0.00000000000E+00 -0.00000000000E+00 -0.45593999997E+02  0.45594000000E+02  0.51100000000E-03 0.  1.
    9900012    2    1    2    0    0 -0.19498307505E+02  0.15029030781E+02 -0.37723426502E+02  0.46142326857E+02  0.10000082947E+02 0.  0.
         12    1    1    2    0    0  0.19498307505E+02 -0.15029030781E+02  0.37723426502E+02  0.45045673143E+02  0.00000000000E+00 0. -1.
         11    1    3    3    0    0 -0.16295855559E+01 -0.36753848609E+00 -0.47172481029E+00  0.17358450912E+01  0.51100000000E-03 0. -1.
        -11    1    3    3    0    0 -0.10066004890E+02  0.58521511627E+01 -0.15255780300E+02  0.19191429350E+02  0.51100000000E-03 0.  1.
         12    1    3    3    0    0 -0.78027170598E+01  0.95444181043E+01 -0.21995921392E+02  0.25215052416E+02  0.00000000000E+00 0. -1.
</event>
<event>
 7    1  0.1442665E-008  0.4614232E+02  0.7816164E-02  0.1320468E+00
        -11   -1    0    0    0    0  0.00000000000E+00  0.00000000000E+00  0.45593999997E+02  0.45594000000E+02  0.51100000000E-03 0.  1.
         11   -1    0    0    0    0 -0.00000000000E+00 -0.00000000000E+00 -0.45593999997E+02  0.45594000000E+02  0.51100000000E-03 0. -1.
    9900012    2    1    2    0    0  0.32029792003E+02 -0.80166303182E+01  0.30642116975E+02  0.46142320183E+02  0.10000022089E+02 0.  0.
         12    1    1    2    0    0 -0.32029792003E+02  0.80166303182E+01 -0.30642116975E+02  0.45045679817E+02  0.00000000000E+00 0. -1.
         11    1    3    3    0    0  0.24549058246E+02 -0.92038646557E+01  0.22464679339E+02  0.34525775928E+02  0.51100000000E-03 0. -1.
        -11    1    3    3    0    0  0.69386234800E+01  0.20400950490E+01  0.70034534405E+01  0.10067514289E+02  0.51100000000E-03 0.  1.
         12    1    3    3    0    0  0.54211027771E+00 -0.85286071159E+00  0.11739841955E+01  0.15490299667E+01  0.00000000000E+00 0. -1.
</event>
<event>
 7    1  0.1442665E-008  0.4614232E+02  0.7816164E-02  0.1320468E+00
        -11   -1    0    0    0    0  0.00000000000E+00  0.00000000000E+00  0.45593999997E+02  0.45594000000E+02  0.51100000000E-03 0. -1.
         11   -1    0    0    0    0 -0.00000000000E+00 -0.00000000000E+00 -0.45593999997E+02  0.45594000000E+02  0.51100000000E-03 0.  1.
    9900012    2    1    2    0    0  0.24331896236E+01  0.42253868459E+02 -0.15420882767E+02  0.46142318334E+02  0.10000005220E+02 0.  0.
         12    1    1    2    0    0 -0.24331896236E+01 -0.42253868459E+02  0.15420882767E+02  0.45045681666E+02  0.00000000000E+00 0. -1.
         11    1    3    3    0    0  0.13302734150E+01  0.29142227290E+01 -0.10283482794E+01  0.33644943035E+01  0.51100000000E-03 0. -1.
        -11    1    3    3    0    0 -0.23870627784E+01  0.70827223935E+01 -0.50289701557E+01  0.90085274212E+01  0.51100000000E-03 0.  1.
        -12    1    3    3    0    0  0.34899789869E+01  0.32256923336E+02 -0.93635643315E+01  0.33769296609E+02  0.00000000000E+00 0.  1.
</event>
<event>
 7    1  0.1442665E-008  0.4614232E+02  0.7816164E-02  0.1320468E+00
        -11   -1    0    0    0    0  0.00000000000E+00  0.00000000000E+00  0.45593999997E+02  0.45594000000E+02  0.51100000000E-03 0. -1.
         11   -1    0    0    0    0 -0.00000000000E+00 -0.00000000000E+00 -0.45593999997E+02  0.45594000000E+02  0.51100000000E-03 0.  1.
    9900012    2    1    2    0    0 -0.40034458574E+02  0.37349532283E+01  0.20307774982E+02  0.46142317925E+02  0.10000001492E+02 0.  0.
         12    1    1    2    0    0  0.40034458574E+02 -0.37349532283E+01 -0.20307774982E+02  0.45045682075E+02  0.00000000000E+00 0. -1.
         11    1    3    3    0    0 -0.61259796907E+01  0.41320793865E+01  0.34479713777E+01  0.81541531816E+01  0.51100000000E-03 0. -1.
        -11    1    3    3    0    0 -0.30733838288E+02 -0.12195485311E+01  0.15413644959E+02  0.34404019616E+02  0.51100000000E-03 0.  1.
        -12    1    3    3    0    0 -0.31746405946E+01  0.82242237293E+00  0.14461586454E+01  0.35841451271E+01  0.00000000000E+00 0.  1.
</event>
<event>
 7    1  0.1442665E-008  0.4614232E+02  0.7816164E-02  0.1320468E+00
        -11   -1    0    0    0    0  0.00000000000E+00  0.00000000000E+00  0.45593999997E+02  0.45594000000E+02  0.51100000000E-03 0.  1.
         11   -1    0    0    0    0 -0.00000000000E+00 -0.00000000000E+00 -0.45593999997E+02  0.45594000000E+02  0.51100000000E-03 0. -1.
    9900012    2    1    2    0    0  0.30796631189E+02  0.22823293759E+02  0.23659632718E+02  0.46142318176E+02  0.10000003782E+02 0.  0.
         12    1    1    2    0    0 -0.30796631189E+02 -0.22823293759E+02 -0.23659632718E+02  0.45045681824E+02  0.00000000000E+00 0. -1.
         11    1    3    3    0    0  0.79876991905E+01  0.21070189973E+01  0.77930923134E+01  0.11356722920E+02  0.51100000000E-03 0. -1.
        -11    1    3    3    0    0  0.12619576940E+01  0.94049839507E+00  0.16025443119E+01  0.22461573821E+01  0.51100000000E-03 0.  1.
        -12    1    3    3    0    0  0.21546974305E+02  0.19775776367E+02  0.14263996093E+02  0.32539437874E+02  0.00000000000E+00 0.  1.
</event>
<event>
 7    1  0.1442665E-008  0.4614232E+02  0.7816164E-02  0.1320468E+00
        -11   -1    0    0    0    0  0.00000000000E+00  0.00000000000E+00  0.45593999997E+02  0.45594000000E+02  0.51100000000E-03 0.  1.
         11   -1    0    0    0    0 -0.00000000000E+00 -0.00000000000E+00 -0.45593999997E+02  0.45594000000E+02  0.51100000000E-03 0. -1.
    9900012    2    1    2    0    0 -0.22639810204E+02 -0.55535317087E+01  0.38544919343E+02  0.46142317325E+02  0.99999960265E+01 0.  0.
         12    1    1    2    0    0  0.22639810204E+02  0.55535317087E+01 -0.38544919343E+02  0.45045682675E+02  0.00000000000E+00 0. -1.
         11    1    3    3    0    0 -0.20469529023E+01 -0.32413979714E+01  0.10175950524E+02  0.10874127382E+02  0.51100000000E-03 0. -1.
        -11    1    3    3    0    0 -0.19145784553E+02 -0.16380959409E+01  0.27138218119E+02  0.33252478214E+02  0.51100000000E-03 0.  1.
        -12    1    3    3    0    0 -0.14470727487E+01 -0.67403779638E+00  0.12307507001E+01  0.20157117296E+01  0.00000000000E+00 0.  1.
</event>
<event>
 7    1  0.1442665E-008  0.4614232E+02  0.7816164E-02  0.1320468E+00
        -11   -1    0    0    0    0  0.00000000000E+00  0.00000000000E+00  0.45593999997E+02  0.45594000000E+02  0.51100000000E-03 0.  1.
         11   -1    0    0    0    0 -0.00000000000E+00 -0.00000000000E+00 -0.45593999997E+02  0.45594000000E+02  0.51100000000E-03 0. -1.
    9900012    2    1    2    0    0  0.26058987660E+02 -0.11668459703E+02  0.34840920835E+02  0.46142317029E+02  0.99999933229E+01 0.  0.
         12    1    1    2    0    0 -0.26058987660E+02  0.11668459703E+02 -0.34840920835E+02  0.45045682971E+02  0.00000000000E+00 0. -1.
         11    1    3    3    0    0  0.77088947081E+01 -0.85031130743E+00  0.10141893457E+02  0.12767462163E+02  0.51100000000E-03 0. -1.
        -11    1    3    3    0    0  0.11091966853E+02 -0.40482040014E+01  0.17511160339E+02  0.21120142542E+02  0.51100000000E-03 0.  1.
        -12    1    3    3    0    0  0.72581260990E+01 -0.67699443941E+01  0.71878670392E+01  0.12254712324E+02  0.00000000000E+00 0.  1.
</event>
<event>
 7    1  0.1442665E-008  0.4614232E+02  0.7816164E-02  0.1320468E+00
        -11   -1    0    0    0    0  0.00000000000E+00  0.00000000000E+00  0.45593999997E+02  0.45594000000E+02  0.51100000000E-03 0.  1.
         11   -1    0    0    0    0 -0.00000000000E+00 -0.00000000000E+00 -0.45593999997E+02  0.45594000000E+02  0.51100000000E-03 0. -1.
    9900012    2    1    2    0    0  0.89157833397E+01  0.17134037050E+02  0.40694557866E+02  0.46142318097E+02  0.10000003063E+02 0.  0.
         12    1    1    2    0    0 -0.89157833397E+01 -0.17134037050E+02 -0.40694557866E+02  0.45045681903E+02  0.00000000000E+00 0. -1.
         11    1    3    3    0    0  0.33389916172E+01  0.33197618934E+01  0.10806845104E+02  0.11788027206E+02  0.51100000000E-03 0. -1.
        -11    1    3    3    0    0  0.74791216127E+00 -0.94465203507E+00  0.10362290119E+01  0.15891856073E+01  0.51100000000E-03 0.  1.
        -12    1    3    3    0    0  0.48288795612E+01  0.14758927192E+02  0.28851483751E+02  0.32765105284E+02  0.00000000000E+00 0.  1.
</event>
<event>
 7    1  0.1442665E-008  0.4614232E+02  0.7816164E-02  0.1320468E+00
        -11   -1    0    0    0    0  0.00000000000E+00  0.00000000000E+00  0.45593999997E+02  0.45594000000E+02  0.51100000000E-03 0. -1.
         11   -1    0    0    0    0 -0.00000000000E+00 -0.00000000000E+00 -0.45593999997E+02  0.45594000000E+02  0.51100000000E-03 0.  1.
    9900012    2    1    2    0    0 -0.36952706963E+02  0.71105479780E+01 -0.24759869509E+02  0.46142316716E+02  0.99999904705E+01 0.  0.
         12    1    1    2    0    0  0.36952706963E+02 -0.71105479780E+01  0.24759869509E+02  0.45045683284E+02  0.00000000000E+00 0. -1.
         11    1    3    3    0    0 -0.58323398462E+01 -0.91534228663E+00 -0.14357334564E+01  0.60758020377E+01  0.51100000000E-03 0. -1.
        -11    1    3    3    0    0 -0.28556599068E+02  0.63680604043E+01 -0.19446313324E+02  0.35131049597E+02  0.51100000000E-03 0.  1.
         12    1    3    3    0    0 -0.25637680484E+01  0.16578298604E+01 -0.38778227288E+01  0.49354650812E+01  0.00000000000E+00 0. -1.
</event>
<event>
 7    1  0.1442665E-008  0.4614232E+02  0.7816164E-02  0.1320468E+00
        -11   -1    0    0    0    0  0.00000000000E+00  0.00000000000E+00  0.45593999997E+02  0.45594000000E+02  0.51100000000E-03 0. -1.
         11   -1    0    0    0    0 -0.00000000000E+00 -0.00000000000E+00 -0.45593999997E+02  0.45594000000E+02  0.51100000000E-03 0.  1.
    9900012    2    1    2    0    0  0.44827299502E+01 -0.22383585295E+02 -0.38832894773E+02  0.46142317910E+02  0.10000001359E+02 0.  0.
         12    1    1    2    0    0 -0.44827299502E+01  0.22383585295E+02  0.38832894773E+02  0.45045682090E+02  0.00000000000E+00 0. -1.
         11    1    3    3    0    0  0.90774647607E-01 -0.81077998858E+00 -0.34639742464E+01  0.35587528809E+01  0.51100000000E-03 0. -1.
        -11    1    3    3    0    0  0.71469073470E+00 -0.17745514874E+02 -0.30922067646E+02  0.35659337469E+02  0.51100000000E-03 0.  1.
        -12    1    3    3    0    0  0.36772645679E+01 -0.38272904327E+01 -0.44468528811E+01  0.69242275602E+01  0.00000000000E+00 0.  1.
</event>
<event>
 7    1  0.1442665E-008  0.4614232E+02  0.7816164E-02  0.1320468E+00
        -11   -1    0    0    0    0  0.00000000000E+00  0.00000000000E+00  0.45593999997E+02  0.45594000000E+02  0.51100000000E-03 0.  1.
         11   -1    0    0    0    0 -0.00000000000E+00 -0.00000000000E+00 -0.45593999997E+02  0.45594000000E+02  0.51100000000E-03 0. -1.
    9900012    2    1    2    0    0 -0.25987803887E+01  0.30751483971E+02  0.32813199529E+02  0.46142317752E+02  0.99999999149E+01 0.  0.
         12    1    1    2    0    0  0.25987803887E+01 -0.30751483971E+02 -0.32813199529E+02  0.45045682248E+02  0.00000000000E+00 0. -1.
         11    1    3    3    0    0 -0.38500827664E+01  0.11962499297E+02  0.15832646370E+02  0.20213787821E+02  0.51100000000E-03 0. -1.
        -11    1    3    3    0    0  0.13368790601E+01  0.57475858916E+01  0.24109458798E+01  0.63745313161E+01  0.51100000000E-03 0.  1.
        -12    1    3    3    0    0 -0.85576682421E-01  0.13041398783E+02  0.14569607279E+02  0.19553998615E+02  0.00000000000E+00 0.  1.
</event>
<event>
 7    1  0.1442665E-008  0.4614232E+02  0.7816164E-02  0.1320468E+00
        -11   -1    0    0    0    0  0.00000000000E+00  0.00000000000E+00  0.45593999997E+02  0.45594000000E+02  0.51100000000E-03 0.  1.
         11   -1    0    0    0    0 -0.00000000000E+00 -0.00000000000E+00 -0.45593999997E+02  0.45594000000E+02  0.51100000000E-03 0. -1.
    9900012    2    1    2    0    0  0.30194371287E+02 -0.27414629074E+02  0.19127246569E+02  0.46142317566E+02  0.99999982164E+01 0.  0.
         12    1    1    2    0    0 -0.30194371287E+02  0.27414629074E+02 -0.19127246569E+02  0.45045682434E+02  0.00000000000E+00 0. -1.
         11    1    3    3    0    0  0.14942350413E+01 -0.23885541668E+01  0.33923548959E+01  0.44097620534E+01  0.51100000000E-03 0. -1.
        -11    1    3    3    0    0  0.22092562938E+02 -0.19264437640E+02  0.89534934784E+01  0.30649061005E+02  0.51100000000E-03 0.  1.
        -12    1    3    3    0    0  0.66075733073E+01 -0.57616372671E+01  0.67813981949E+01  0.11083494507E+02  0.00000000000E+00 0.  1.
</event>
<event>
 7    1  0.1442665E-008  0.4614232E+02  0.7816164E-02  0.1320468E+00
        -11   -1    0    0    0    0  0.00000000000E+00  0.00000000000E+00  0.45593999997E+02  0.45594000000E+02  0.51100000000E-03 0.  1.
         11   -1    0    0    0    0 -0.00000000000E+00 -0.00000000000E+00 -0.45593999997E+02  0.45594000000E+02  0.51100000000E-03 0. -1.
    9900012    2    1    2    0    0  0.40593224330E+02 -0.10660963685E+02  0.16359938175E+02  0.46142316685E+02  0.99999901898E+01 0.  0.
         12    1    1    2    0    0 -0.40593224330E+02  0.10660963685E+02 -0.16359938175E+02  0.45045683315E+02  0.00000000000E+00 0. -1.
         11    1    3    3    0    0  0.24581325951E+02 -0.67497363971E+01  0.92962242017E+01  0.27133380026E+02  0.51100000000E-03 0. -1.
        -11    1    3    3    0    0  0.11352244445E+02 -0.22758927913E+01  0.16732574823E+01  0.11698415825E+02  0.51100000000E-03 0.  1.
         12    1    3    3    0    0  0.46596539333E+01 -0.16353344967E+01  0.53904564910E+01  0.73105208348E+01  0.00000000000E+00 0. -1.
</event>
<event>
 7    1  0.1442665E-008  0.4614232E+02  0.7816164E-02  0.1320468E+00
        -11   -1    0    0    0    0  0.00000000000E+00  0.00000000000E+00  0.45593999997E+02  0.45594000000E+02  0.51100000000E-03 0. -1.
         11   -1    0    0    0    0 -0.00000000000E+00 -0.00000000000E+00 -0.45593999997E+02  0.45594000000E+02  0.51100000000E-03 0.  1.
    9900012    2    1    2    0    0 -0.60760899488E+01 -0.43922250294E+02 -0.79391746803E+01  0.46142318358E+02  0.10000005447E+02 0.  0.
         12    1    1    2    0    0  0.60760899488E+01  0.43922250294E+02  0.79391746803E+01  0.45045681642E+02  0.00000000000E+00 0. -1.
         11    1    3    3    0    0 -0.14551451991E+01 -0.11871865537E+02 -0.64085049223E+01  0.13569361609E+02  0.51100000000E-03 0. -1.
        -11    1    3    3    0    0 -0.37183845504E+01 -0.30154094812E+02 -0.96425853618E+00  0.30397789597E+02  0.51100000000E-03 0.  1.
         12    1    3    3    0    0 -0.90256019921E+00 -0.18962899450E+01 -0.56641122178E+00  0.21751671524E+01  0.00000000000E+00 0. -1.
</event>
<event>
 7    1  0.1442665E-008  0.4614232E+02  0.7816164E-02  0.1320468E+00
        -11   -1    0    0    0    0  0.00000000000E+00  0.00000000000E+00  0.45593999997E+02  0.45594000000E+02  0.51100000000E-03 0.  1.
         11   -1    0    0    0    0 -0.00000000000E+00 -0.00000000000E+00 -0.45593999997E+02  0.45594000000E+02  0.51100000000E-03 0. -1.
    9900012    2    1    2    0    0  0.37482703523E+02 -0.14062270445E+02 -0.20649770759E+02  0.46142317123E+02  0.99999941789E+01 0.  0.
         12    1    1    2    0    0 -0.37482703523E+02  0.14062270445E+02  0.20649770759E+02  0.45045682877E+02  0.00000000000E+00 0. -1.
         11    1    3    3    0    0  0.29355720905E+02 -0.98119789060E+01 -0.12341285178E+02  0.33321773662E+02  0.51100000000E-03 0.  1.
        -11    1    3    3    0    0  0.67425471141E+01 -0.32488562085E+01 -0.47266120262E+01  0.88519980658E+01  0.51100000000E-03 0. -1.
         12    1    3    3    0    0  0.13844355043E+01 -0.10014353303E+01 -0.35818735549E+01  0.39685453947E+01  0.00000000000E+00 0. -1.
</event>
<event>
 7    1  0.1442665E-008  0.4614232E+02  0.7816164E-02  0.1320468E+00
        -11   -1    0    0    0    0  0.00000000000E+00  0.00000000000E+00  0.45593999997E+02  0.45594000000E+02  0.51100000000E-03 0. -1.
         11   -1    0    0    0    0 -0.00000000000E+00 -0.00000000000E+00 -0.45593999997E+02  0.45594000000E+02  0.51100000000E-03 0.  1.
    9900012    2    1    2    0    0  0.31692118334E+02  0.54581739265E+01 -0.31542535751E+02  0.46142316648E+02  0.99999898481E+01 0.  0.
         12    1    1    2    0    0 -0.31692118334E+02 -0.54581739265E+01  0.31542535751E+02  0.45045683352E+02  0.00000000000E+00 0. -1.
         11    1    3    3    0    0  0.29997137582E+01  0.32808988882E+01 -0.58210870398E+01  0.73244545689E+01  0.51100000000E-03 0. -1.
        -11    1    3    3    0    0  0.15658206039E+02  0.32256422620E+01 -0.14644306926E+02  0.21680403824E+02  0.51100000000E-03 0.  1.
        -12    1    3    3    0    0  0.13034198536E+02 -0.10483672236E+01 -0.11077141785E+02  0.17137458255E+02  0.00000000000E+00 0.  1.
</event>
<event>
 7    1  0.1442665E-008  0.4614232E+02  0.7816164E-02  0.1320468E+00
        -11   -1    0    0    0    0  0.00000000000E+00  0.00000000000E+00  0.45593999997E+02  0.45594000000E+02  0.51100000000E-03 0.  1.
         11   -1    0    0    0    0 -0.00000000000E+00 -0.00000000000E+00 -0.45593999997E+02  0.45594000000E+02  0.51100000000E-03 0. -1.
    9900012    2    1    2    0    0  0.96713759785E+01 -0.12253915109E+02  0.42254223826E+02  0.46142318965E+02  0.10000010974E+02 0.  0.
         12    1    1    2    0    0 -0.96713759785E+01  0.12253915109E+02 -0.42254223826E+02  0.45045681035E+02  0.00000000000E+00 0. -1.
         11    1    3    3    0    0  0.92196565694E+00  0.11142909769E+01  0.66687367659E+01  0.68237610866E+01  0.51100000000E-03 0. -1.
        -11    1    3    3    0    0  0.51964946980E+01 -0.53239954815E+01  0.11692922446E+02  0.13859037507E+02  0.51100000000E-03 0.  1.
        -12    1    3    3    0    0  0.35529156236E+01 -0.80442106043E+01  0.23892564614E+02  0.25459520371E+02  0.00000000000E+00 0.  1.
</event>
<event>
 7    1  0.1442665E-008  0.4614232E+02  0.7816164E-02  0.1320468E+00
        -11   -1    0    0    0    0  0.00000000000E+00  0.00000000000E+00  0.45593999997E+02  0.45594000000E+02  0.51100000000E-03 0.  1.
         11   -1    0    0    0    0 -0.00000000000E+00 -0.00000000000E+00 -0.45593999997E+02  0.45594000000E+02  0.51100000000E-03 0. -1.
    9900012    2    1    2    0    0  0.41217834184E+02 -0.84909394036E+00 -0.18151656449E+02  0.46142318218E+02  0.10000004166E+02 0.  0.
         12    1    1    2    0    0 -0.41217834184E+02  0.84909394036E+00  0.18151656449E+02  0.45045681782E+02  0.00000000000E+00 0. -1.
         11    1    3    3    0    0  0.13360084020E+02  0.28155956894E+01 -0.26265096909E+01  0.13903883541E+02  0.51100000000E-03 0. -1.
        -11    1    3    3    0    0  0.62312112576E+01 -0.17038121271E+01 -0.25706263342E+01  0.69526318407E+01  0.51100000000E-03 0.  1.
         12    1    3    3    0    0  0.21626538907E+02 -0.19608775027E+01 -0.12954520423E+02  0.25285802836E+02  0.00000000000E+00 0. -1.
</event>
<event>
 7    1  0.1442665E-008  0.4614232E+02  0.7816164E-02  0.1320468E+00
        -11   -1    0    0    0    0  0.00000000000E+00  0.00000000000E+00  0.45593999997E+02  0.45594000000E+02  0.51100000000E-03 0.  1.
         11   -1    0    0    0    0 -0.00000000000E+00 -0.00000000000E+00 -0.45593999997E+02  0.45594000000E+02  0.51100000000E-03 0. -1.
    9900012    2    1    2    0    0 -0.37180176061E+02  0.31031207903E+00  0.25429348710E+02  0.46142316951E+02  0.99999926146E+01 0.  0.
         12    1    1    2    0    0  0.37180176061E+02 -0.31031207903E+00 -0.25429348710E+02  0.45045683049E+02  0.00000000000E+00 0. -1.
         11    1    3    3    0    0 -0.11842652793E+02  0.15836253107E+01  0.44961983123E+01  0.12766052398E+02  0.51100000000E-03 0. -1.
        -11    1    3    3    0    0 -0.10166331347E+02 -0.23639771650E+01  0.11245187484E+02  0.15342650453E+02  0.51100000000E-03 0.  1.
         12    1    3    3    0    0 -0.15171191921E+02  0.10906639333E+01  0.96879629133E+01  0.18033614100E+02  0.00000000000E+00 0. -1.
</event>
<event>
 7    1  0.1442665E-008  0.4614232E+02  0.7816164E-02  0.1320468E+00
        -11   -1    0    0    0    0  0.00000000000E+00  0.00000000000E+00  0.45593999997E+02  0.45594000000E+02  0.51100000000E-03 0.  1.
         11   -1    0    0    0    0 -0.00000000000E+00 -0.00000000000E+00 -0.45593999997E+02  0.45594000000E+02  0.51100000000E-03 0. -1.
    9900012    2    1    2    0    0 -0.39677605409E+02  0.18289220323E+02 -0.10968387138E+02  0.46142317993E+02  0.10000002116E+02 0.  0.
         12    1    1    2    0    0  0.39677605409E+02 -0.18289220323E+02  0.10968387138E+02  0.45045682007E+02  0.00000000000E+00 0. -1.
         11    1    3    3    0    0 -0.25840228012E+01  0.12035393397E+01  0.41372484702E+00  0.28804251925E+01  0.51100000000E-03 0. -1.
        -11    1    3    3    0    0 -0.30676111094E+02  0.12016665278E+02 -0.60430859353E+01  0.33495416465E+02  0.51100000000E-03 0.  1.
        -12    1    3    3    0    0 -0.64174715138E+01  0.50690157060E+01 -0.53390260502E+01  0.97664763361E+01  0.00000000000E+00 0.  1.
</event>
<event>
 7    1  0.1442665E-008  0.4614232E+02  0.7816164E-02  0.1320468E+00
        -11   -1    0    0    0    0  0.00000000000E+00  0.00000000000E+00  0.45593999997E+02  0.45594000000E+02  0.51100000000E-03 0. -1.
         11   -1    0    0    0    0 -0.00000000000E+00 -0.00000000000E+00 -0.45593999997E+02  0.45594000000E+02  0.51100000000E-03 0.  1.
    9900012    2    1    2    0    0  0.31646092042E+02 -0.31650296687E+02  0.50889159452E+01  0.46142317772E+02  0.10000000096E+02 0.  0.
         12    1    1    2    0    0 -0.31646092042E+02  0.31650296687E+02 -0.50889159452E+01  0.45045682228E+02  0.00000000000E+00 0. -1.
         11    1    3    3    0    0  0.11923790105E+01  0.63093631700E+00  0.17546225485E+00  0.13603806838E+01  0.51100000000E-03 0. -1.
        -11    1    3    3    0    0  0.29573659982E+02 -0.31084909472E+02  0.41324450505E+01  0.43103944877E+02  0.51100000000E-03 0.  1.
         12    1    3    3    0    0  0.88005304954E+00 -0.11963235324E+01  0.78100863990E+00  0.16779922109E+01  0.00000000000E+00 0. -1.
</event>
<event>
 7    1  0.1442665E-008  0.4614232E+02  0.7816164E-02  0.1320468E+00
        -11   -1    0    0    0    0  0.00000000000E+00  0.00000000000E+00  0.45593999997E+02  0.45594000000E+02  0.51100000000E-03 0.  1.
         11   -1    0    0    0    0 -0.00000000000E+00 -0.00000000000E+00 -0.45593999997E+02  0.45594000000E+02  0.51100000000E-03 0. -1.
    9900012    2    1    2    0    0  0.12142982635E+02  0.29963746456E+02  0.31366150038E+02  0.46142317664E+02  0.99999991131E+01 0.  0.
         12    1    1    2    0    0 -0.12142982635E+02 -0.29963746456E+02 -0.31366150038E+02  0.45045682336E+02  0.00000000000E+00 0. -1.
         11    1    3    3    0    0  0.38567384994E+01  0.57775260656E+01  0.34079682825E+01  0.77374729315E+01  0.51100000000E-03 0. -1.
        -11    1    3    3    0    0  0.89295202325E+01  0.21014083320E+02  0.26080385748E+02  0.34662869910E+02  0.51100000000E-03 0.  1.
        -12    1    3    3    0    0 -0.64327609669E+00  0.31721370698E+01  0.18777960077E+01  0.37419748225E+01  0.00000000000E+00 0.  1.
</event>
<event>
 7    1  0.1442665E-008  0.4614231E+02  0.7816164E-02  0.1320468E+00
        -11   -1    0    0    0    0  0.00000000000E+00  0.00000000000E+00  0.45593999997E+02  0.45594000000E+02  0.51100000000E-03 0.  1.
         11   -1    0    0    0    0 -0.00000000000E+00 -0.00000000000E+00 -0.45593999997E+02  0.45594000000E+02  0.51100000000E-03 0. -1.
    9900012    2    1    2    0    0  0.27022509965E+02  0.17611891599E+02  0.31443903511E+02  0.46142313875E+02  0.99999645623E+01 0.  0.
         12    1    1    2    0    0 -0.27022509965E+02 -0.17611891599E+02 -0.31443903511E+02  0.45045686125E+02  0.00000000000E+00 0. -1.
         11    1    3    3    0    0  0.50432065423E+01  0.80658373883E+01  0.10462094491E+02  0.14140264722E+02  0.51100000000E-03 0. -1.
        -11    1    3    3    0    0  0.15225076500E+02  0.62111144450E+01  0.16180924999E+02  0.23069530363E+02  0.51100000000E-03 0.  1.
         12    1    3    3    0    0  0.67542269218E+01  0.33349397658E+01  0.48008840213E+01  0.89325187903E+01  0.00000000000E+00 0. -1.
</event>
<event>
 7    1  0.1442665E-008  0.4614232E+02  0.7816164E-02  0.1320468E+00
        -11   -1    0    0    0    0  0.00000000000E+00  0.00000000000E+00  0.45593999997E+02  0.45594000000E+02  0.51100000000E-03 0.  1.
         11   -1    0    0    0    0 -0.00000000000E+00 -0.00000000000E+00 -0.45593999997E+02  0.45594000000E+02  0.51100000000E-03 0. -1.
    9900012    2    1    2    0    0  0.33078745741E+02 -0.20222581541E+02  0.22933755011E+02  0.46142319376E+02  0.10000014723E+02 0.  0.
         12    1    1    2    0    0 -0.33078745741E+02  0.20222581541E+02 -0.22933755011E+02  0.45045680624E+02  0.00000000000E+00 0. -1.
         11    1    3    3    0    0  0.39847057026E+01 -0.54403291775E+01  0.25206329132E+01  0.71992118763E+01  0.51100000000E-03 0. -1.
        -11    1    3    3    0    0  0.26555367824E+02 -0.12959825713E+02  0.20234127078E+02  0.35812910265E+02  0.51100000000E-03 0.  1.
        -12    1    3    3    0    0  0.25386722143E+01 -0.18224266506E+01  0.17899502013E+00  0.31301972343E+01  0.00000000000E+00 0.  1.
</event>
<event>
 7    1  0.1442665E-008  0.4614232E+02  0.7816164E-02  0.1320468E+00
        -11   -1    0    0    0    0  0.00000000000E+00  0.00000000000E+00  0.45593999997E+02  0.45594000000E+02  0.51100000000E-03 0. -1.
         11   -1    0    0    0    0 -0.00000000000E+00 -0.00000000000E+00 -0.45593999997E+02  0.45594000000E+02  0.51100000000E-03 0.  1.
    9900012    2    1    2    0    0 -0.42076846690E+02 -0.24491814699E+01 -0.15895093378E+02  0.46142317513E+02  0.99999977377E+01 0.  0.
         12    1    1    2    0    0  0.42076846690E+02  0.24491814699E+01  0.15895093378E+02  0.45045682487E+02  0.00000000000E+00 0. -1.
         11    1    3    3    0    0 -0.60519456807E+01 -0.31485814759E+01 -0.33301355898E+01  0.75914040296E+01  0.51100000000E-03 0. -1.
        -11    1    3    3    0    0 -0.15204413223E+02 -0.20776815126E+01 -0.39341982749E+01  0.15841996663E+02  0.51100000000E-03 0.  1.
         12    1    3    3    0    0 -0.20820487786E+02  0.27770815186E+01 -0.86307595138E+01  0.22708916821E+02  0.00000000000E+00 0. -1.
</event>
<event>
 7    1  0.1442665E-008  0.4614232E+02  0.7816164E-02  0.1320468E+00
        -11   -1    0    0    0    0  0.00000000000E+00  0.00000000000E+00  0.45593999997E+02  0.45594000000E+02  0.51100000000E-03 0.  1.
         11   -1    0    0    0    0 -0.00000000000E+00 -0.00000000000E+00 -0.45593999997E+02  0.45594000000E+02  0.51100000000E-03 0. -1.
    9900012    2    1    2    0    0  0.29223567793E+02 -0.20974419949E+02  0.27114024594E+02  0.46142317227E+02  0.99999951327E+01 0.  0.
         12    1    1    2    0    0 -0.29223567793E+02  0.20974419949E+02 -0.27114024594E+02  0.45045682773E+02  0.00000000000E+00 0. -1.
         11    1    3    3    0    0  0.38100982265E+00 -0.46124878996E+00  0.22204651930E+01  0.22996488570E+01  0.51100000000E-03 0. -1.
        -11    1    3    3    0    0  0.25025352948E+02 -0.19923803814E+02  0.20501785058E+02  0.37994071109E+02  0.51100000000E-03 0.  1.
        -12    1    3    3    0    0  0.38172050225E+01 -0.58936734571E+00  0.43917743422E+01  0.58485972613E+01  0.00000000000E+00 0.  1.
</event>
<event>
 7    1  0.1442665E-008  0.4614232E+02  0.7816164E-02  0.1320468E+00
        -11   -1    0    0    0    0  0.00000000000E+00  0.00000000000E+00  0.45593999997E+02  0.45594000000E+02  0.51100000000E-03 0.  1.
         11   -1    0    0    0    0 -0.00000000000E+00 -0.00000000000E+00 -0.45593999997E+02  0.45594000000E+02  0.51100000000E-03 0. -1.
    9900012    2    1    2    0    0 -0.47955432675E+00  0.19442150242E+02  0.40631102168E+02  0.46142316058E+02  0.99999844709E+01 0.  0.
         12    1    1    2    0    0  0.47955432675E+00 -0.19442150242E+02 -0.40631102168E+02  0.45045683942E+02  0.00000000000E+00 0. -1.
         11    1    3    3    0    0 -0.22253539693E+01  0.17488711999E+02  0.38869892493E+02  0.42681094063E+02  0.51100000000E-03 0.  1.
        -11    1    3    3    0    0 -0.99607444687E-01  0.12625568180E+00  0.59155826786E+00  0.61302820948E+00  0.51100000000E-03 0. -1.
         12    1    3    3    0    0  0.18454070872E+01  0.18271825608E+01  0.11696514070E+01  0.28481937859E+01  0.00000000000E+00 0. -1.
</event>
<event>
 7    1  0.1442665E-008  0.4614232E+02  0.7816164E-02  0.1320468E+00
        -11   -1    0    0    0    0  0.00000000000E+00  0.00000000000E+00  0.45593999997E+02  0.45594000000E+02  0.51100000000E-03 0.  1.
         11   -1    0    0    0    0 -0.00000000000E+00 -0.00000000000E+00 -0.45593999997E+02  0.45594000000E+02  0.51100000000E-03 0. -1.
    9900012    2    1    2    0    0  0.16470353198E+02 -0.14131068099E+02  0.39473454787E+02  0.46142320374E+02  0.10000023831E+02 0.  0.
         12    1    1    2    0    0 -0.16470353198E+02  0.14131068099E+02 -0.39473454787E+02  0.45045679626E+02  0.00000000000E+00 0. -1.
         11    1    3    3    0    0  0.12931560314E+01 -0.63591341910E+01  0.76387460936E+01  0.10023037580E+02  0.51100000000E-03 0. -1.
        -11    1    3    3    0    0  0.11767541337E+02 -0.60824227378E+01  0.25268597830E+02  0.28530210866E+02  0.51100000000E-03 0.  1.
         12    1    3    3    0    0  0.34096558303E+01 -0.16895111698E+01  0.65661108633E+01  0.75890719289E+01  0.00000000000E+00 0. -1.
</event>
<event>
 7    1  0.1442665E-008  0.4614232E+02  0.7816164E-02  0.1320468E+00
        -11   -1    0    0    0    0  0.00000000000E+00  0.00000000000E+00  0.45593999997E+02  0.45594000000E+02  0.51100000000E-03 0.  1.
         11   -1    0    0    0    0 -0.00000000000E+00 -0.00000000000E+00 -0.45593999997E+02  0.45594000000E+02  0.51100000000E-03 0. -1.
    9900012    2    1    2    0    0  0.15255053651E+02 -0.28610599675E+02  0.31270278941E+02  0.46142318512E+02  0.10000006851E+02 0.  0.
         12    1    1    2    0    0 -0.15255053651E+02  0.28610599675E+02 -0.31270278941E+02  0.45045681488E+02  0.00000000000E+00 0. -1.
         11    1    3    3    0    0 -0.73893732543E-01  0.23284815870E+00 -0.27507500696E+00  0.36789274156E+00  0.51100000000E-03 0. -1.
        -11    1    3    3    0    0  0.93036569817E+01 -0.11839360032E+02  0.12861124682E+02  0.19802449534E+02  0.51100000000E-03 0.  1.
         12    1    3    3    0    0  0.60252904017E+01 -0.17004087801E+02  0.18684229266E+02  0.25971976237E+02  0.00000000000E+00 0. -1.
</event>
<event>
 7    1  0.1442665E-008  0.4614232E+02  0.7816164E-02  0.1320468E+00
        -11   -1    0    0    0    0  0.00000000000E+00  0.00000000000E+00  0.45593999997E+02  0.45594000000E+02  0.51100000000E-03 0.  1.
         11   -1    0    0    0    0 -0.00000000000E+00 -0.00000000000E+00 -0.45593999997E+02  0.45594000000E+02  0.51100000000E-03 0. -1.
    9900012    2    1    2    0    0  0.71282314270E+01  0.44282417677E+02 -0.41676643953E+01  0.46142316243E+02  0.99999861554E+01 0.  0.
         12    1    1    2    0    0 -0.71282314270E+01 -0.44282417677E+02  0.41676643953E+01  0.45045683757E+02  0.00000000000E+00 0. -1.
         11    1    3    3    0    0  0.16541907137E+00 -0.40904211909E-01 -0.55373047579E+00  0.57935681981E+00  0.51100000000E-03 0. -1.
        -11    1    3    3    0    0 -0.90779407683E+00  0.11649721523E+02  0.54898052559E+00  0.11697926378E+02  0.51100000000E-03 0.  1.
        -12    1    3    3    0    0  0.78706064325E+01  0.32673600366E+02 -0.41629144451E+01  0.33865033046E+02  0.00000000000E+00 0.  1.
</event>
<event>
 7    1  0.1442665E-008  0.4614232E+02  0.7816164E-02  0.1320468E+00
        -11   -1    0    0    0    0  0.00000000000E+00  0.00000000000E+00  0.45593999997E+02  0.45594000000E+02  0.51100000000E-03 0.  1.
         11   -1    0    0    0    0 -0.00000000000E+00 -0.00000000000E+00 -0.45593999997E+02  0.45594000000E+02  0.51100000000E-03 0. -1.
    9900012    2    1    2    0    0 -0.43224141231E+02  0.12011038681E+02  0.40647366725E+01  0.46142317415E+02  0.99999968406E+01 0.  0.
         12    1    1    2    0    0  0.43224141231E+02 -0.12011038681E+02 -0.40647366725E+01  0.45045682585E+02  0.00000000000E+00 0. -1.
         11    1    3    3    0    0 -0.46180420713E+00 -0.47164555451E+00 -0.93076402006E+00  0.11410672973E+01  0.51100000000E-03 0. -1.
        -11    1    3    3    0    0 -0.28221722299E+02  0.66896780276E+01  0.44196698985E+01  0.29338556268E+02  0.51100000000E-03 0.  1.
         12    1    3    3    0    0 -0.14540614725E+02  0.57930062080E+01  0.57583079411E+00  0.15662693849E+02  0.00000000000E+00 0. -1.
</event>
<event>
 7    1  0.1442665E-008  0.4614232E+02  0.7816164E-02  0.1320468E+00
        -11   -1    0    0    0    0  0.00000000000E+00  0.00000000000E+00  0.45593999997E+02  0.45594000000E+02  0.51100000000E-03 0.  1.
         11   -1    0    0    0    0 -0.00000000000E+00 -0.00000000000E+00 -0.45593999997E+02  0.45594000000E+02  0.51100000000E-03 0. -1.
    9900012    2    1    2    0    0 -0.34597445383E+02  0.28658798577E+02 -0.32868809283E+01  0.46142317087E+02  0.99999938510E+01 0.  0.
         12    1    1    2    0    0  0.34597445383E+02 -0.28658798577E+02  0.32868809283E+01  0.45045682913E+02  0.00000000000E+00 0. -1.
         11    1    3    3    0    0 -0.96330516690E+01  0.28004403599E+01 -0.10919991170E+01  0.10091115548E+02  0.51100000000E-03 0. -1.
        -11    1    3    3    0    0 -0.13097884913E+02  0.14163159511E+02 -0.19362799618E+01  0.19388111225E+02  0.51100000000E-03 0.  1.
         12    1    3    3    0    0 -0.11866508801E+02  0.11695198706E+02 -0.25860184959E+00  0.16663090314E+02  0.00000000000E+00 0. -1.
</event>
<event>
 7    1  0.1442665E-008  0.4614232E+02  0.7816164E-02  0.1320468E+00
        -11   -1    0    0    0    0  0.00000000000E+00  0.00000000000E+00  0.45593999997E+02  0.45594000000E+02  0.51100000000E-03 0.  1.
         11   -1    0    0    0    0 -0.00000000000E+00 -0.00000000000E+00 -0.45593999997E+02  0.45594000000E+02  0.51100000000E-03 0. -1.
    9900012    2    1    2    0    0 -0.33228154038E+02 -0.24163576767E+02 -0.18469564977E+02  0.46142317706E+02  0.99999994942E+01 0.  0.
         12    1    1    2    0    0  0.33228154038E+02  0.24163576767E+02  0.18469564977E+02  0.45045682294E+02  0.00000000000E+00 0. -1.
         11    1    3    3    0    0 -0.54371951258E+01 -0.65202005590E+00 -0.14908592307E+01  0.56754631966E+01  0.51100000000E-03 0.  1.
        -11    1    3    3    0    0 -0.66971767638E+01 -0.86017751159E+01 -0.50544020375E+01  0.12016226195E+02  0.51100000000E-03 0. -1.
        -12    1    3    3    0    0 -0.21093782148E+02 -0.14909781595E+02 -0.11924303709E+02  0.28450628314E+02  0.00000000000E+00 0.  1.
</event>
<event>
 7    1  0.1442665E-008  0.4614232E+02  0.7816164E-02  0.1320468E+00
        -11   -1    0    0    0    0  0.00000000000E+00  0.00000000000E+00  0.45593999997E+02  0.45594000000E+02  0.51100000000E-03 0. -1.
         11   -1    0    0    0    0 -0.00000000000E+00 -0.00000000000E+00 -0.45593999997E+02  0.45594000000E+02  0.51100000000E-03 0.  1.
    9900012    2    1    2    0    0  0.13627044451E+02 -0.41324413261E+02 -0.11649464536E+02  0.46142317678E+02  0.99999992447E+01 0.  0.
         12    1    1    2    0    0 -0.13627044451E+02  0.41324413261E+02  0.11649464536E+02  0.45045682322E+02  0.00000000000E+00 0. -1.
         11    1    3    3    0    0  0.14040618577E+01 -0.55704420608E+00  0.43426311345E+00  0.15717101071E+01  0.51100000000E-03 0. -1.
        -11    1    3    3    0    0  0.79245885270E+01 -0.21245702765E+02 -0.87503036414E+01  0.24305283446E+02  0.51100000000E-03 0.  1.
        -12    1    3    3    0    0  0.42983940668E+01 -0.19521666290E+02 -0.33334240078E+01  0.20265324126E+02  0.00000000000E+00 0.  1.
</event>
<event>
 7    1  0.1442665E-008  0.4614232E+02  0.7816164E-02  0.1320468E+00
        -11   -1    0    0    0    0  0.00000000000E+00  0.00000000000E+00  0.45593999997E+02  0.45594000000E+02  0.51100000000E-03 0.  1.
         11   -1    0    0    0    0 -0.00000000000E+00 -0.00000000000E+00 -0.45593999997E+02  0.45594000000E+02  0.51100000000E-03 0. -1.
    9900012    2    1    2    0    0 -0.30014453657E+01 -0.16302118665E+02  0.41884909805E+02  0.46142318558E+02  0.10000007267E+02 0.  0.
         12    1    1    2    0    0  0.30014453657E+01  0.16302118665E+02 -0.41884909805E+02  0.45045681442E+02  0.00000000000E+00 0. -1.
         11    1    3    3    0    0 -0.45672124013E+01 -0.36891967097E+01  0.78074177421E+01  0.97685911749E+01  0.51100000000E-03 0. -1.
        -11    1    3    3    0    0  0.10754675023E+01 -0.90678679246E+01  0.23864761027E+02  0.25552097335E+02  0.51100000000E-03 0.  1.
         12    1    3    3    0    0  0.49029953332E+00 -0.35450540304E+01  0.10212731035E+02  0.10821630049E+02  0.00000000000E+00 0. -1.
</event>
<event>
 7    1  0.1442665E-008  0.4614232E+02  0.7816164E-02  0.1320468E+00
        -11   -1    0    0    0    0  0.00000000000E+00  0.00000000000E+00  0.45593999997E+02  0.45594000000E+02  0.51100000000E-03 0.  1.
         11   -1    0    0    0    0 -0.00000000000E+00 -0.00000000000E+00 -0.45593999997E+02  0.45594000000E+02  0.51100000000E-03 0. -1.
    9900012    2    1    2    0    0 -0.21126890386E+01  0.13738092663E+02  0.42847577493E+02  0.46142317166E+02  0.99999945712E+01 0.  0.
         12    1    1    2    0    0  0.21126890386E+01 -0.13738092663E+02 -0.42847577493E+02  0.45045682834E+02  0.00000000000E+00 0. -1.
         11    1    3    3    0    0 -0.14198137238E-01 -0.26511259383E+00  0.36440374480E-01  0.26798215709E+00  0.51100000000E-03 0. -1.
        -11    1    3    3    0    0 -0.37339824612E+01  0.11563067459E+02  0.40013361869E+02  0.41817655152E+02  0.51100000000E-03 0.  1.
        -12    1    3    3    0    0  0.16354915599E+01  0.24401377976E+01  0.27977752494E+01  0.40566798567E+01  0.00000000000E+00 0.  1.
</event>
<event>
 7    1  0.1442665E-008  0.4614232E+02  0.7816164E-02  0.1320468E+00
        -11   -1    0    0    0    0  0.00000000000E+00  0.00000000000E+00  0.45593999997E+02  0.45594000000E+02  0.51100000000E-03 0. -1.
         11   -1    0    0    0    0 -0.00000000000E+00 -0.00000000000E+00 -0.45593999997E+02  0.45594000000E+02  0.51100000000E-03 0.  1.
    9900012    2    1    2    0    0 -0.13265550182E+01 -0.31436914029E+02 -0.32234674127E+02  0.46142317322E+02  0.99999959931E+01 0.  0.
         12    1    1    2    0    0  0.13265550182E+01  0.31436914029E+02  0.32234674127E+02  0.45045682678E+02  0.00000000000E+00 0. -1.
         11    1    3    3    0    0  0.27155402007E+01 -0.32736276621E+01 -0.23372834889E+01  0.48532145039E+01  0.51100000000E-03 0. -1.
        -11    1    3    3    0    0 -0.14544867449E+01 -0.13449023087E+02 -0.13676569062E+02  0.19236431458E+02  0.51100000000E-03 0.  1.
         12    1    3    3    0    0 -0.25876084740E+01 -0.14714263280E+02 -0.16220821576E+02  0.22052671360E+02  0.00000000000E+00 0. -1.
</event>
<event>
 7    1  0.1677511E-008  0.4614232E+02  0.7816164E-02  0.1320468E+00
        -11   -1    0    0    0    0  0.00000000000E+00  0.00000000000E+00  0.45593999997E+02  0.45594000000E+02  0.51100000000E-03 0.  1.
         11   -1    0    0    0    0 -0.00000000000E+00 -0.00000000000E+00 -0.45593999997E+02  0.45594000000E+02  0.51100000000E-03 0. -1.
    9900012    2    1    2    0    0  0.37554321164E+01 -0.42721907127E+02  0.13778564343E+02  0.46142318139E+02  0.10000003445E+02 0.  0.
         12    1    1    2    0    0 -0.37554321164E+01  0.42721907127E+02 -0.13778564343E+02  0.45045681861E+02  0.00000000000E+00 0. -1.
         11    1    3    3    0    0 -0.94607566828E+00 -0.16587644568E+01  0.17778391516E+01  0.26090747408E+01  0.51100000000E-03 0. -1.
        -11    1    3    3    0    0  0.59103758536E+01 -0.26531387846E+02  0.64986638239E+01  0.27947803411E+02  0.51100000000E-03 0.  1.
        -12    1    3    3    0    0 -0.12088680690E+01 -0.14531754825E+02  0.55020613672E+01  0.15585439987E+02  0.00000000000E+00 0.  1.
</event>
<event>
 7    1  0.1442665E-008  0.4614232E+02  0.7816164E-02  0.1320468E+00
        -11   -1    0    0    0    0  0.00000000000E+00  0.00000000000E+00  0.45593999997E+02  0.45594000000E+02  0.51100000000E-03 0. -1.
         11   -1    0    0    0    0 -0.00000000000E+00 -0.00000000000E+00 -0.45593999997E+02  0.45594000000E+02  0.51100000000E-03 0.  1.
    9900012    2    1    2    0    0 -0.41590569850E+02 -0.73095914098E+01 -0.15681450099E+02  0.46142317585E+02  0.99999983981E+01 0.  0.
         12    1    1    2    0    0  0.41590569850E+02  0.73095914098E+01  0.15681450099E+02  0.45045682415E+02  0.00000000000E+00 0. -1.
         11    1    3    3    0    0 -0.10263564249E+02 -0.38199498553E+01 -0.20512709806E+01  0.11141834719E+02  0.51100000000E-03 0. -1.
        -11    1    3    3    0    0 -0.26296113994E+02 -0.32180088867E+01 -0.13971541557E+02  0.29950712281E+02  0.51100000000E-03 0.  1.
        -12    1    3    3    0    0 -0.50308916059E+01 -0.27163266770E+00  0.34136243872E+00  0.50497705860E+01  0.00000000000E+00 0.  1.
</event>
<event>
 7    1  0.1442665E-008  0.4614232E+02  0.7816164E-02  0.1320468E+00
        -11   -1    0    0    0    0  0.00000000000E+00  0.00000000000E+00  0.45593999997E+02  0.45594000000E+02  0.51100000000E-03 0.  1.
         11   -1    0    0    0    0 -0.00000000000E+00 -0.00000000000E+00 -0.45593999997E+02  0.45594000000E+02  0.51100000000E-03 0. -1.
    9900012    2    1    2    0    0 -0.85038001047E+01 -0.40385172315E+02  0.18050948264E+02  0.46142317717E+02  0.99999995933E+01 0.  0.
         12    1    1    2    0    0  0.85038001047E+01  0.40385172315E+02 -0.18050948264E+02  0.45045682283E+02  0.00000000000E+00 0. -1.
         11    1    3    3    0    0 -0.56921999568E+01 -0.77885528852E+01  0.44065704486E+01  0.10605685257E+02  0.51100000000E-03 0. -1.
        -11    1    3    3    0    0 -0.11113745266E+01 -0.22962000648E+02  0.10372097612E+02  0.25220409121E+02  0.51100000000E-03 0.  1.
         12    1    3    3    0    0 -0.17002256213E+01 -0.96346187814E+01  0.32722802043E+01  0.10316223338E+02  0.00000000000E+00 0. -1.
</event>
<event>
 7    1  0.1442665E-008  0.4614232E+02  0.7816164E-02  0.1320468E+00
        -11   -1    0    0    0    0  0.00000000000E+00  0.00000000000E+00  0.45593999997E+02  0.45594000000E+02  0.51100000000E-03 0.  1.
         11   -1    0    0    0    0 -0.00000000000E+00 -0.00000000000E+00 -0.45593999997E+02  0.45594000000E+02  0.51100000000E-03 0. -1.
    9900012    2    1    2    0    0  0.62562949089E+01 -0.28163167291E+02  0.34594916330E+02  0.46142318146E+02  0.10000003507E+02 0.  0.
         12    1    1    2    0    0 -0.62562949089E+01  0.28163167291E+02 -0.34594916330E+02  0.45045681854E+02  0.00000000000E+00 0. -1.
         11    1    3    3    0    0  0.64536742094E+01 -0.16766049698E+02  0.15222852310E+02  0.23547517194E+02  0.51100000000E-03 0. -1.
        -11    1    3    3    0    0 -0.46250909161E+00 -0.34194202639E+01  0.78825160695E+01  0.86046736979E+01  0.51100000000E-03 0.  1.
         12    1    3    3    0    0  0.26512979109E+00 -0.79776973293E+01  0.11489547950E+02  0.13990127254E+02  0.00000000000E+00 0. -1.
</event>
<event>
 7    1  0.1442665E-008  0.4614232E+02  0.7816164E-02  0.1320468E+00
        -11   -1    0    0    0    0  0.00000000000E+00  0.00000000000E+00  0.45593999997E+02  0.45594000000E+02  0.51100000000E-03 0.  1.
         11   -1    0    0    0    0 -0.00000000000E+00 -0.00000000000E+00 -0.45593999997E+02  0.45594000000E+02  0.51100000000E-03 0. -1.
    9900012    2    1    2    0    0  0.24223618057E+02 -0.19703583169E+02  0.32466885327E+02  0.46142317585E+02  0.99999983899E+01 0.  0.
         12    1    1    2    0    0 -0.24223618057E+02  0.19703583169E+02 -0.32466885327E+02  0.45045682415E+02  0.00000000000E+00 0. -1.
         11    1    3    3    0    0  0.14017346244E+01  0.21657753397E+00 -0.35276651782E+00  0.14615780043E+01  0.51100000000E-03 0. -1.
        -11    1    3    3    0    0  0.11317057553E+02 -0.10219503142E+02  0.15670255615E+02  0.21864833578E+02  0.51100000000E-03 0.  1.
        -12    1    3    3    0    0  0.11504825880E+02 -0.97006575603E+01  0.17149396230E+02  0.22815906002E+02  0.00000000000E+00 0.  1.
</event>
<event>
 7    1  0.1442665E-008  0.4614232E+02  0.7816164E-02  0.1320468E+00
        -11   -1    0    0    0    0  0.00000000000E+00  0.00000000000E+00  0.45593999997E+02  0.45594000000E+02  0.51100000000E-03 0.  1.
         11   -1    0    0    0    0 -0.00000000000E+00 -0.00000000000E+00 -0.45593999997E+02  0.45594000000E+02  0.51100000000E-03 0. -1.
    9900012    2    1    2    0    0  0.18328650527E+02 -0.34177260417E+02  0.22914816519E+02  0.46142319010E+02  0.10000011388E+02 0.  0.
         12    1    1    2    0    0 -0.18328650527E+02  0.34177260417E+02 -0.22914816519E+02  0.45045680990E+02  0.00000000000E+00 0. -1.
         11    1    3    3    0    0 -0.52246095236E+00 -0.38449705906E+01  0.24892633599E+01  0.46101189383E+01  0.51100000000E-03 0. -1.
        -11    1    3    3    0    0  0.11752739968E+02 -0.23646725460E+02  0.14609362756E+02  0.30178270364E+02  0.51100000000E-03 0.  1.
         12    1    3    3    0    0  0.70983715113E+01 -0.66855643664E+01  0.58161904030E+01  0.11353929708E+02  0.00000000000E+00 0. -1.
</event>
<event>
 7    1  0.1442665E-008  0.4614232E+02  0.7816164E-02  0.1320468E+00
        -11   -1    0    0    0    0  0.00000000000E+00  0.00000000000E+00  0.45593999997E+02  0.45594000000E+02  0.51100000000E-03 0. -1.
         11   -1    0    0    0    0 -0.00000000000E+00 -0.00000000000E+00 -0.45593999997E+02  0.45594000000E+02  0.51100000000E-03 0.  1.
    9900012    2    1    2    0    0 -0.82308187984E+01  0.70118663536E+00 -0.44281773347E+02  0.46142317726E+02  0.99999996775E+01 0.  0.
         12    1    1    2    0    0  0.82308187984E+01 -0.70118663536E+00  0.44281773347E+02  0.45045682274E+02  0.00000000000E+00 0. -1.
         11    1    3    3    0    0 -0.37430930665E-01 -0.31768765258E+01 -0.60225111736E+01  0.68091546195E+01  0.51100000000E-03 0. -1.
        -11    1    3    3    0    0 -0.68935909028E+01  0.29581375376E+01 -0.32767439506E+02  0.33615134467E+02  0.51100000000E-03 0.  1.
         12    1    3    3    0    0 -0.12997969649E+01  0.91992562352E+00 -0.54918226678E+01  0.57180286390E+01  0.00000000000E+00 0. -1.
</event>
<event>
 7    1  0.1442665E-008  0.4614232E+02  0.7816164E-02  0.1320468E+00
        -11   -1    0    0    0    0  0.00000000000E+00  0.00000000000E+00  0.45593999997E+02  0.45594000000E+02  0.51100000000E-03 0.  1.
         11   -1    0    0    0    0 -0.00000000000E+00 -0.00000000000E+00 -0.45593999997E+02  0.45594000000E+02  0.51100000000E-03 0. -1.
    9900012    2    1    2    0    0  0.40938978184E+02 -0.11513204459E+02 -0.14851250332E+02  0.46142318208E+02  0.10000004077E+02 0.  0.
         12    1    1    2    0    0 -0.40938978184E+02  0.11513204459E+02  0.14851250332E+02  0.45045681792E+02  0.00000000000E+00 0. -1.
         11    1    3    3    0    0  0.34272978291E-01 -0.20066633352E-01 -0.14783433359E+01  0.14788767990E+01  0.51100000000E-03 0. -1.
        -11    1    3    3    0    0  0.21294058523E+02 -0.58630522520E+01 -0.52411932214E+01  0.22699832967E+02  0.51100000000E-03 0.  1.
         12    1    3    3    0    0  0.19610646683E+02 -0.56300855734E+01 -0.81317137745E+01  0.21963608442E+02  0.00000000000E+00 0. -1.
</event>
<event>
 7    1  0.1442665E-008  0.4614232E+02  0.7816164E-02  0.1320468E+00
        -11   -1    0    0    0    0  0.00000000000E+00  0.00000000000E+00  0.45593999997E+02  0.45594000000E+02  0.51100000000E-03 0. -1.
         11   -1    0    0    0    0 -0.00000000000E+00 -0.00000000000E+00 -0.45593999997E+02  0.45594000000E+02  0.51100000000E-03 0.  1.
    9900012    2    1    2    0    0  0.21437946680E+02 -0.35732188520E+02 -0.17109606228E+02  0.46142317859E+02  0.10000000890E+02 0.  0.
         12    1    1    2    0    0 -0.21437946680E+02  0.35732188520E+02  0.17109606228E+02  0.45045682141E+02  0.00000000000E+00 0. -1.
         11    1    3    3    0    0  0.36615570789E+01 -0.36882306305E+01 -0.65463867924E+00  0.52381864694E+01  0.51100000000E-03 0. -1.
        -11    1    3    3    0    0  0.77007846145E-01 -0.57159503856E+01 -0.22180634807E+01  0.61317065230E+01  0.51100000000E-03 0.  1.
        -12    1    3    3    0    0  0.17699381755E+02 -0.26328007504E+02 -0.14236904068E+02  0.34772424866E+02  0.00000000000E+00 0.  1.
</event>
<event>
 7    1  0.1442665E-008  0.4614232E+02  0.7816164E-02  0.1320468E+00
        -11   -1    0    0    0    0  0.00000000000E+00  0.00000000000E+00  0.45593999997E+02  0.45594000000E+02  0.51100000000E-03 0.  1.
         11   -1    0    0    0    0 -0.00000000000E+00 -0.00000000000E+00 -0.45593999997E+02  0.45594000000E+02  0.51100000000E-03 0. -1.
    9900012    2    1    2    0    0  0.20053984086E+02  0.38985939084E+02 -0.10346398506E+02  0.46142315567E+02  0.99999799926E+01 0.  0.
         12    1    1    2    0    0 -0.20053984086E+02 -0.38985939084E+02  0.10346398506E+02  0.45045684433E+02  0.00000000000E+00 0. -1.
         11    1    3    3    0    0  0.97889318353E+01  0.22974903125E+02 -0.34275353141E+01  0.25207486164E+02  0.51100000000E-03 0. -1.
        -11    1    3    3    0    0  0.56694442047E+01  0.83184047505E+01 -0.64622178854E+01  0.11962387531E+02  0.51100000000E-03 0.  1.
        -12    1    3    3    0    0  0.45956080460E+01  0.76926312083E+01 -0.45664530662E+00  0.89724418725E+01  0.00000000000E+00 0.  1.
</event>
<event>
 7    1  0.1442665E-008  0.4614232E+02  0.7816164E-02  0.1320468E+00
        -11   -1    0    0    0    0  0.00000000000E+00  0.00000000000E+00  0.45593999997E+02  0.45594000000E+02  0.51100000000E-03 0. -1.
         11   -1    0    0    0    0 -0.00000000000E+00 -0.00000000000E+00 -0.45593999997E+02  0.45594000000E+02  0.51100000000E-03 0.  1.
    9900012    2    1    2    0    0  0.12204369399E+02  0.10293404429E+02 -0.42121405232E+02  0.46142316679E+02  0.99999901296E+01 0.  0.
         12    1    1    2    0    0 -0.12204369399E+02 -0.10293404429E+02  0.42121405232E+02  0.45045683321E+02  0.00000000000E+00 0. -1.
         11    1    3    3    0    0  0.37710774917E+01  0.66408163818E+01 -0.29447366819E+02  0.30421520022E+02  0.51100000000E-03 0. -1.
        -11    1    3    3    0    0  0.57929609259E+01  0.19454312531E+01 -0.90893556328E+01  0.10952601752E+02  0.51100000000E-03 0.  1.
         12    1    3    3    0    0  0.26403309814E+01  0.17071567939E+01 -0.35846827806E+01  0.47681949046E+01  0.00000000000E+00 0. -1.
</event>
<event>
 7    1  0.1442665E-008  0.4614232E+02  0.7816164E-02  0.1320468E+00
        -11   -1    0    0    0    0  0.00000000000E+00  0.00000000000E+00  0.45593999997E+02  0.45594000000E+02  0.51100000000E-03 0.  1.
         11   -1    0    0    0    0 -0.00000000000E+00 -0.00000000000E+00 -0.45593999997E+02  0.45594000000E+02  0.51100000000E-03 0. -1.
    9900012    2    1    2    0    0 -0.43830289034E+02 -0.10366686571E+02  0.74235246359E+00  0.46142317472E+02  0.99999973629E+01 0.  0.
         12    1    1    2    0    0  0.43830289034E+02  0.10366686571E+02 -0.74235246359E+00  0.45045682528E+02  0.00000000000E+00 0. -1.
         11    1    3    3    0    0 -0.11219017792E+00 -0.95303968867E+00 -0.22260124240E+00  0.98510043063E+00  0.51100000000E-03 0. -1.
        -11    1    3    3    0    0 -0.40994932196E+02 -0.84980867125E+01 -0.63000895579E+00  0.41871217502E+02  0.51100000000E-03 0.  1.
        -12    1    3    3    0    0 -0.27231666597E+01 -0.91556017003E+00  0.15949626618E+01  0.32859995396E+01  0.00000000000E+00 0.  1.
</event>
<event>
 7    1  0.1442665E-008  0.4614232E+02  0.7816164E-02  0.1320468E+00
        -11   -1    0    0    0    0  0.00000000000E+00  0.00000000000E+00  0.45593999997E+02  0.45594000000E+02  0.51100000000E-03 0.  1.
         11   -1    0    0    0    0 -0.00000000000E+00 -0.00000000000E+00 -0.45593999997E+02  0.45594000000E+02  0.51100000000E-03 0. -1.
    9900012    2    1    2    0    0  0.15419763127E+02  0.40000533150E+02 -0.13831188590E+02  0.46142317355E+02  0.99999962955E+01 0.  0.
         12    1    1    2    0    0 -0.15419763127E+02 -0.40000533150E+02  0.13831188590E+02  0.45045682645E+02  0.00000000000E+00 0. -1.
         11    1    3    3    0    0  0.35092924363E+01  0.15418276704E+02 -0.86587184359E+01  0.18028083512E+02  0.51100000000E-03 0. -1.
        -11    1    3    3    0    0  0.93838117713E+01  0.20645384080E+02 -0.57642553583E+01  0.23399026631E+02  0.51100000000E-03 0.  1.
         12    1    3    3    0    0  0.25266589192E+01  0.39368723658E+01  0.59178520438E+00  0.47152072114E+01  0.00000000000E+00 0. -1.
</event>
<event>
 7    1  0.1442665E-008  0.4614232E+02  0.7816164E-02  0.1320468E+00
        -11   -1    0    0    0    0  0.00000000000E+00  0.00000000000E+00  0.45593999997E+02  0.45594000000E+02  0.51100000000E-03 0. -1.
         11   -1    0    0    0    0 -0.00000000000E+00 -0.00000000000E+00 -0.45593999997E+02  0.45594000000E+02  0.51100000000E-03 0.  1.
    9900012    2    1    2    0    0 -0.40794715765E+02 -0.75382294126E+01 -0.17552200814E+02  0.46142317738E+02  0.99999997919E+01 0.  0.
         12    1    1    2    0    0  0.40794715765E+02  0.75382294126E+01  0.17552200814E+02  0.45045682262E+02  0.00000000000E+00 0. -1.
         11    1    3    3    0    0 -0.15895558245E+02 -0.60307553560E+01 -0.62060711398E+01  0.18098455772E+02  0.51100000000E-03 0. -1.
        -11    1    3    3    0    0 -0.23028368998E+02 -0.28139110273E+00 -0.11610981652E+02  0.25791468645E+02  0.51100000000E-03 0.  1.
         12    1    3    3    0    0 -0.18707885216E+01 -0.12260829538E+01  0.26485197847E+00  0.22523933210E+01  0.00000000000E+00 0. -1.
</event>
<event>
 7    1  0.1442665E-008  0.4614232E+02  0.7816164E-02  0.1320468E+00
        -11   -1    0    0    0    0  0.00000000000E+00  0.00000000000E+00  0.45593999997E+02  0.45594000000E+02  0.51100000000E-03 0. -1.
         11   -1    0    0    0    0 -0.00000000000E+00 -0.00000000000E+00 -0.45593999997E+02  0.45594000000E+02  0.51100000000E-03 0.  1.
    9900012    2    1    2    0    0 -0.26370380442E+01  0.51559070483E+01 -0.44671871739E+02  0.46142317945E+02  0.10000001677E+02 0.  0.
         12    1    1    2    0    0  0.26370380442E+01 -0.51559070483E+01  0.44671871739E+02  0.45045682055E+02  0.00000000000E+00 0. -1.
         11    1    3    3    0    0 -0.30390085428E+01  0.77542624214E+01 -0.37884867281E+02  0.38789526006E+02  0.51100000000E-03 0. -1.
        -11    1    3    3    0    0  0.25781734033E+00 -0.16091207285E+01 -0.54170757186E+01  0.56568939270E+01  0.51100000000E-03 0.  1.
         12    1    3    3    0    0  0.14415315834E+00 -0.98923464466E+00 -0.13699287393E+01  0.16958980116E+01  0.00000000000E+00 0. -1.
</event>
<event>
 7    1  0.1442665E-008  0.4614232E+02  0.7816164E-02  0.1320468E+00
        -11   -1    0    0    0    0  0.00000000000E+00  0.00000000000E+00  0.45593999997E+02  0.45594000000E+02  0.51100000000E-03 0. -1.
         11   -1    0    0    0    0 -0.00000000000E+00 -0.00000000000E+00 -0.45593999997E+02  0.45594000000E+02  0.51100000000E-03 0.  1.
    9900012    2    1    2    0    0  0.35568287079E+02  0.29151306254E+01 -0.27486586503E+02  0.46142317966E+02  0.10000001871E+02 0.  0.
         12    1    1    2    0    0 -0.35568287079E+02 -0.29151306254E+01  0.27486586503E+02  0.45045682034E+02  0.00000000000E+00 0. -1.
         11    1    3    3    0    0  0.14103192670E+01 -0.76013969917E+00 -0.40596672196E+01  0.43643683383E+01  0.51100000000E-03 0. -1.
        -11    1    3    3    0    0  0.24284084892E+02  0.12323204902E+01 -0.17969908254E+02  0.30234963134E+02  0.51100000000E-03 0.  1.
         12    1    3    3    0    0  0.98738829202E+01  0.24429498344E+01 -0.54570110299E+01  0.11542986494E+02  0.00000000000E+00 0. -1.
</event>
<event>
 7    1  0.1442665E-008  0.4614232E+02  0.7816164E-02  0.1320468E+00
        -11   -1    0    0    0    0  0.00000000000E+00  0.00000000000E+00  0.45593999997E+02  0.45594000000E+02  0.51100000000E-03 0. -1.
         11   -1    0    0    0    0 -0.00000000000E+00 -0.00000000000E+00 -0.45593999997E+02  0.45594000000E+02  0.51100000000E-03 0.  1.
    9900012    2    1    2    0    0 -0.31213134429E+02 -0.27778748439E+02  0.16828398393E+02  0.46142316320E+02  0.99999868587E+01 0.  0.
         12    1    1    2    0    0  0.31213134429E+02  0.27778748439E+02 -0.16828398393E+02  0.45045683680E+02  0.00000000000E+00 0. -1.
         11    1    3    3    0    0 -0.12018538037E+02 -0.12161400126E+02  0.78708023217E+01  0.18822710724E+02  0.51100000000E-03 0. -1.
        -11    1    3    3    0    0 -0.15742218607E+02 -0.91187111235E+01  0.80888869682E+01  0.19909757203E+02  0.51100000000E-03 0.  1.
         12    1    3    3    0    0 -0.34523777847E+01 -0.64986371904E+01  0.86870910285E+00  0.74098483929E+01  0.00000000000E+00 0. -1.
</event>
<event>
 7    1  0.1442665E-008  0.4614232E+02  0.7816164E-02  0.1320468E+00
        -11   -1    0    0    0    0  0.00000000000E+00  0.00000000000E+00  0.45593999997E+02  0.45594000000E+02  0.51100000000E-03 0.  1.
         11   -1    0    0    0    0 -0.00000000000E+00 -0.00000000000E+00 -0.45593999997E+02  0.45594000000E+02  0.51100000000E-03 0. -1.
    9900012    2    1    2    0    0 -0.36988877729E+02 -0.50116526505E+00  0.25703798367E+02  0.46142317712E+02  0.99999995532E+01 0.  0.
         12    1    1    2    0    0  0.36988877729E+02  0.50116526505E+00 -0.25703798367E+02  0.45045682288E+02  0.00000000000E+00 0. -1.
         11    1    3    3    0    0 -0.87674839651E+01  0.33723202570E+01  0.77306748190E+01  0.12165716272E+02  0.51100000000E-03 0. -1.
        -11    1    3    3    0    0 -0.22320248079E+02 -0.12072595600E+01  0.14203697314E+02  0.26483881279E+02  0.51100000000E-03 0.  1.
        -12    1    3    3    0    0 -0.59011456846E+01 -0.26662259621E+01  0.37694262349E+01  0.74927201610E+01  0.00000000000E+00 0.  1.
</event>
<event>
 7    1  0.1442665E-008  0.4614232E+02  0.7816164E-02  0.1320468E+00
        -11   -1    0    0    0    0  0.00000000000E+00  0.00000000000E+00  0.45593999997E+02  0.45594000000E+02  0.51100000000E-03 0.  1.
         11   -1    0    0    0    0 -0.00000000000E+00 -0.00000000000E+00 -0.45593999997E+02  0.45594000000E+02  0.51100000000E-03 0. -1.
    9900012    2    1    2    0    0  0.20631633729E+02  0.88697317385E+00  0.40033266011E+02  0.46142318528E+02  0.10000006992E+02 0.  0.
         12    1    1    2    0    0 -0.20631633729E+02 -0.88697317385E+00 -0.40033266011E+02  0.45045681472E+02  0.00000000000E+00 0. -1.
         11    1    3    3    0    0  0.89586260125E+01 -0.27845085254E+00  0.21855449904E+02  0.23621922142E+02  0.51100000000E-03 0. -1.
        -11    1    3    3    0    0  0.76369695065E+01 -0.14778332289E+01  0.75101746397E+01  0.10812493592E+02  0.51100000000E-03 0.  1.
         12    1    3    3    0    0  0.40360382100E+01  0.26432572553E+01  0.10667641468E+02  0.11707902794E+02  0.00000000000E+00 0. -1.
</event>
<event>
 7    1  0.1442665E-008  0.4614231E+02  0.7816164E-02  0.1320468E+00
        -11   -1    0    0    0    0  0.00000000000E+00  0.00000000000E+00  0.45593999997E+02  0.45594000000E+02  0.51100000000E-03 0. -1.
         11   -1    0    0    0    0 -0.00000000000E+00 -0.00000000000E+00 -0.45593999997E+02  0.45594000000E+02  0.51100000000E-03 0.  1.
    9900012    2    1    2    0    0  0.41228195018E+01 -0.40346618221E+02 -0.19602719538E+02  0.46142313683E+02  0.99999628117E+01 0.  0.
         12    1    1    2    0    0 -0.41228195018E+01  0.40346618221E+02  0.19602719538E+02  0.45045686317E+02  0.00000000000E+00 0. -1.
         11    1    3    3    0    0  0.91783466695E+00 -0.34595285842E+00 -0.53910547846E+00  0.11192581624E+01  0.51100000000E-03 0. -1.
        -11    1    3    3    0    0  0.17193732266E+01 -0.36226109534E+02 -0.14894779659E+02  0.39206398937E+02  0.51100000000E-03 0.  1.
        -12    1    3    3    0    0  0.14856116083E+01 -0.37745558286E+01 -0.41688344005E+01  0.58166565837E+01  0.00000000000E+00 0.  1.
</event>
<event>
 7    1  0.1442665E-008  0.4614232E+02  0.7816164E-02  0.1320468E+00
        -11   -1    0    0    0    0  0.00000000000E+00  0.00000000000E+00  0.45593999997E+02  0.45594000000E+02  0.51100000000E-03 0.  1.
         11   -1    0    0    0    0 -0.00000000000E+00 -0.00000000000E+00 -0.45593999997E+02  0.45594000000E+02  0.51100000000E-03 0. -1.
    9900012    2    1    2    0    0 -0.20560817658E+01 -0.36082705644E+02  0.26887253557E+02  0.46142317381E+02  0.99999965307E+01 0.  0.
         12    1    1    2    0    0  0.20560817658E+01  0.36082705644E+02 -0.26887253557E+02  0.45045682619E+02  0.00000000000E+00 0. -1.
         11    1    3    3    0    0 -0.31147778108E+01 -0.67693440965E+01  0.78273823877E+01  0.10807116896E+02  0.51100000000E-03 0. -1.
        -11    1    3    3    0    0 -0.14920791958E-01 -0.21949578106E+02  0.11718824167E+02  0.24882022461E+02  0.51100000000E-03 0.  1.
         12    1    3    3    0    0  0.10736168370E+01 -0.73637834419E+01  0.73410470026E+01  0.10453178023E+02  0.00000000000E+00 0. -1.
</event>
<event>
 7    1  0.1442665E-008  0.4614232E+02  0.7816164E-02  0.1320468E+00
        -11   -1    0    0    0    0  0.00000000000E+00  0.00000000000E+00  0.45593999997E+02  0.45594000000E+02  0.51100000000E-03 0.  1.
         11   -1    0    0    0    0 -0.00000000000E+00 -0.00000000000E+00 -0.45593999997E+02  0.45594000000E+02  0.51100000000E-03 0. -1.
    9900012    2    1    2    0    0 -0.23576274136E+02 -0.33880933996E+01  0.38233411842E+02  0.46142315855E+02  0.99999826229E+01 0.  0.
         12    1    1    2    0    0  0.23576274136E+02  0.33880933996E+01 -0.38233411842E+02  0.45045684145E+02  0.00000000000E+00 0. -1.
         11    1    3    3    0    0 -0.26834370271E+01 -0.36217883257E+00  0.34846636013E+01  0.44130361953E+01  0.51100000000E-03 0. -1.
        -11    1    3    3    0    0 -0.14279402838E+02 -0.22260758669E+01  0.30705941856E+02  0.33936877061E+02  0.51100000000E-03 0.  1.
        -12    1    3    3    0    0 -0.66134342707E+01 -0.79983870015E+00  0.40428063844E+01  0.77924025987E+01  0.00000000000E+00 0.  1.
</event>
<event>
 7    1  0.1442665E-008  0.4614232E+02  0.7816164E-02  0.1320468E+00
        -11   -1    0    0    0    0  0.00000000000E+00  0.00000000000E+00  0.45593999997E+02  0.45594000000E+02  0.51100000000E-03 0.  1.
         11   -1    0    0    0    0 -0.00000000000E+00 -0.00000000000E+00 -0.45593999997E+02  0.45594000000E+02  0.51100000000E-03 0. -1.
    9900012    2    1    2    0    0  0.37584070702E+01  0.20917097763E+02  0.39717287215E+02  0.46142317563E+02  0.99999981915E+01 0.  0.
         12    1    1    2    0    0 -0.37584070702E+01 -0.20917097763E+02 -0.39717287215E+02  0.45045682437E+02  0.00000000000E+00 0. -1.
         11    1    3    3    0    0  0.34113031548E+01  0.48804860661E+01  0.84756466396E+01  0.10358219909E+02  0.51100000000E-03 0. -1.
        -11    1    3    3    0    0 -0.12666501706E+00  0.31959652307E+01  0.13526809145E+02  0.13899813081E+02  0.51100000000E-03 0.  1.
         12    1    3    3    0    0  0.47376893253E+00  0.12840646467E+02  0.17714831430E+02  0.21884284573E+02  0.00000000000E+00 0. -1.
</event>
<event>
 7    1  0.1442665E-008  0.4614232E+02  0.7816164E-02  0.1320468E+00
        -11   -1    0    0    0    0  0.00000000000E+00  0.00000000000E+00  0.45593999997E+02  0.45594000000E+02  0.51100000000E-03 0.  1.
         11   -1    0    0    0    0 -0.00000000000E+00 -0.00000000000E+00 -0.45593999997E+02  0.45594000000E+02  0.51100000000E-03 0. -1.
    9900012    2    1    2    0    0  0.32646866641E+02 -0.29515136248E+02 -0.95996005495E+01  0.46142317633E+02  0.99999988309E+01 0.  0.
         12    1    1    2    0    0 -0.32646866641E+02  0.29515136248E+02  0.95996005495E+01  0.45045682367E+02  0.00000000000E+00 0. -1.
         11    1    3    3    0    0  0.23629023692E+02 -0.17472675147E+02 -0.60637822473E+01  0.30006575826E+02  0.51100000000E-03 0. -1.
        -11    1    3    3    0    0  0.61944429105E-01 -0.30540393553E+01 -0.64441120398E+00  0.31218999915E+01  0.51100000000E-03 0.  1.
        -12    1    3    3    0    0  0.89558985201E+01 -0.89884217453E+01 -0.28914070983E+01  0.13013841815E+02  0.00000000000E+00 0.  1.
</event>
<event>
 7    1  0.1442665E-008  0.4614232E+02  0.7816164E-02  0.1320468E+00
        -11   -1    0    0    0    0  0.00000000000E+00  0.00000000000E+00  0.45593999997E+02  0.45594000000E+02  0.51100000000E-03 0.  1.
         11   -1    0    0    0    0 -0.00000000000E+00 -0.00000000000E+00 -0.45593999997E+02  0.45594000000E+02  0.51100000000E-03 0. -1.
    9900012    2    1    2    0    0  0.30263334304E+02 -0.27265418920E+02  0.19231251222E+02  0.46142317680E+02  0.99999992647E+01 0.  0.
         12    1    1    2    0    0 -0.30263334304E+02  0.27265418920E+02 -0.19231251222E+02  0.45045682320E+02  0.00000000000E+00 0. -1.
         11    1    3    3    0    0  0.82461843242E+01 -0.87777355145E+01  0.63862837166E+01  0.13632051080E+02  0.51100000000E-03 0. -1.
        -11    1    3    3    0    0  0.37184305290E-02 -0.28697913943E+01  0.14002927455E+01  0.31932016078E+01  0.51100000000E-03 0.  1.
        -12    1    3    3    0    0  0.22013431549E+02 -0.15617892011E+02  0.11444674760E+02  0.29317064993E+02  0.00000000000E+00 0.  1.
</event>
<event>
 7    1  0.1442665E-008  0.4614232E+02  0.7816164E-02  0.1320468E+00
        -11   -1    0    0    0    0  0.00000000000E+00  0.00000000000E+00  0.45593999997E+02  0.45594000000E+02  0.51100000000E-03 0.  1.
         11   -1    0    0    0    0 -0.00000000000E+00 -0.00000000000E+00 -0.45593999997E+02  0.45594000000E+02  0.51100000000E-03 0. -1.
    9900012    2    1    2    0    0 -0.42815871110E+01  0.34246183600E+01  0.44710776142E+02  0.46142317606E+02  0.99999985888E+01 0.  0.
         12    1    1    2    0    0  0.42815871110E+01 -0.34246183600E+01 -0.44710776142E+02  0.45045682394E+02  0.00000000000E+00 0. -1.
         11    1    3    3    0    0 -0.12534235087E+01  0.50410143601E+01  0.17039321553E+02  0.17813516653E+02  0.51100000000E-03 0. -1.
        -11    1    3    3    0    0 -0.18365416820E+01 -0.20143048424E+01  0.26403602492E+02  0.26543935921E+02  0.51100000000E-03 0.  1.
        -12    1    3    3    0    0 -0.11916219203E+01  0.39790884222E+00  0.12678520966E+01  0.17848650331E+01  0.00000000000E+00 0.  1.
</event>
<event>
 7    1  0.1442665E-008  0.4614232E+02  0.7816164E-02  0.1320468E+00
        -11   -1    0    0    0    0  0.00000000000E+00  0.00000000000E+00  0.45593999997E+02  0.45594000000E+02  0.51100000000E-03 0.  1.
         11   -1    0    0    0    0 -0.00000000000E+00 -0.00000000000E+00 -0.45593999997E+02  0.45594000000E+02  0.51100000000E-03 0. -1.
    9900012    2    1    2    0    0  0.95235136593E+01  0.24151577277E+02  0.36811920506E+02  0.46142317757E+02  0.99999999636E+01 0.  0.
         12    1    1    2    0    0 -0.95235136593E+01 -0.24151577277E+02 -0.36811920506E+02  0.45045682243E+02  0.00000000000E+00 0. -1.
         11    1    3    3    0    0  0.73008988139E+01  0.16412397347E+02  0.18783239559E+02  0.25989998052E+02  0.51100000000E-03 0. -1.
        -11    1    3    3    0    0  0.13593780840E+01  0.98127146302E+00  0.14073460055E+01  0.21889325023E+01  0.51100000000E-03 0.  1.
         12    1    3    3    0    0  0.86323676146E+00  0.67579084674E+01  0.16621334941E+02  0.17963387203E+02  0.00000000000E+00 0. -1.
</event>
<event>
 7    1  0.1442665E-008  0.4614232E+02  0.7816164E-02  0.1320468E+00
        -11   -1    0    0    0    0  0.00000000000E+00  0.00000000000E+00  0.45593999997E+02  0.45594000000E+02  0.51100000000E-03 0. -1.
         11   -1    0    0    0    0 -0.00000000000E+00 -0.00000000000E+00 -0.45593999997E+02  0.45594000000E+02  0.51100000000E-03 0.  1.
    9900012    2    1    2    0    0  0.20774279162E+02 -0.38502404246E+02 -0.10728829101E+02  0.46142316729E+02  0.99999905914E+01 0.  0.
         12    1    1    2    0    0 -0.20774279162E+02  0.38502404246E+02  0.10728829101E+02  0.45045683271E+02  0.00000000000E+00 0. -1.
         11    1    3    3    0    0  0.93324949430E+01 -0.15923955515E+02 -0.15517429713E+01  0.18522303518E+02  0.51100000000E-03 0. -1.
        -11    1    3    3    0    0  0.72032409433E+01 -0.17403433681E+02 -0.91281589449E+01  0.20930586947E+02  0.51100000000E-03 0.  1.
         12    1    3    3    0    0  0.42385432761E+01 -0.51750150503E+01 -0.48927184897E-01  0.66894262642E+01  0.00000000000E+00 0. -1.
</event>
<event>
 7    1  0.1442665E-008  0.4614231E+02  0.7816164E-02  0.1320468E+00
        -11   -1    0    0    0    0  0.00000000000E+00  0.00000000000E+00  0.45593999997E+02  0.45594000000E+02  0.51100000000E-03 0.  1.
         11   -1    0    0    0    0 -0.00000000000E+00 -0.00000000000E+00 -0.45593999997E+02  0.45594000000E+02  0.51100000000E-03 0. -1.
    9900012    2    1    2    0    0  0.75963191957E+01 -0.23122595453E+01  0.44340318873E+02  0.46142306673E+02  0.99998988880E+01 0.  0.
         12    1    1    2    0    0 -0.75963191957E+01  0.23122595453E+01 -0.44340318873E+02  0.45045693327E+02  0.00000000000E+00 0. -1.
         11    1    3    3    0    0  0.63514061143E+01 -0.20517917365E+01  0.30526624579E+02  0.31247800201E+02  0.51100000000E-03 0. -1.
        -11    1    3    3    0    0  0.33533903910E+00  0.75682322963E-01  0.13915254845E+02  0.13919500628E+02  0.51100000000E-03 0.  1.
         12    1    3    3    0    0  0.90957404230E+00 -0.33615013184E+00 -0.10156055031E+00  0.97500584354E+00  0.00000000000E+00 0. -1.
</event>
<event>
 7    1  0.1442665E-008  0.4614232E+02  0.7816164E-02  0.1320468E+00
        -11   -1    0    0    0    0  0.00000000000E+00  0.00000000000E+00  0.45593999997E+02  0.45594000000E+02  0.51100000000E-03 0. -1.
         11   -1    0    0    0    0 -0.00000000000E+00 -0.00000000000E+00 -0.45593999997E+02  0.45594000000E+02  0.51100000000E-03 0.  1.
    9900012    2    1    2    0    0  0.26234765883E+01 -0.11785668826E+01 -0.44953774370E+02  0.46142317861E+02  0.10000000910E+02 0.  0.
         12    1    1    2    0    0 -0.26234765883E+01  0.11785668826E+01  0.44953774370E+02  0.45045682139E+02  0.00000000000E+00 0. -1.
         11    1    3    3    0    0  0.15918239585E+01 -0.45663797759E+01 -0.17518864062E+02  0.18174056401E+02  0.51100000000E-03 0. -1.
        -11    1    3    3    0    0  0.18992181924E+01  0.36622634772E+01 -0.16985787709E+02  0.17479593470E+02  0.51100000000E-03 0.  1.
         12    1    3    3    0    0 -0.86756556262E+00 -0.27445058389E+00 -0.10449122598E+02  0.10488667990E+02  0.00000000000E+00 0. -1.
</event>
<event>
 7    1  0.1442665E-008  0.4614232E+02  0.7816164E-02  0.1320468E+00
        -11   -1    0    0    0    0  0.00000000000E+00  0.00000000000E+00  0.45593999997E+02  0.45594000000E+02  0.51100000000E-03 0. -1.
         11   -1    0    0    0    0 -0.00000000000E+00 -0.00000000000E+00 -0.45593999997E+02  0.45594000000E+02  0.51100000000E-03 0.  1.
    9900012    2    1    2    0    0  0.15362741377E+02 -0.42063365715E+02  0.48757524436E+01  0.46142317412E+02  0.99999968202E+01 0.  0.
         12    1    1    2    0    0 -0.15362741377E+02  0.42063365715E+02 -0.48757524436E+01  0.45045682588E+02  0.00000000000E+00 0. -1.
         11    1    3    3    0    0  0.59876929441E+01 -0.87463274757E+01  0.26546117917E+01  0.10926924322E+02  0.51100000000E-03 0. -1.
        -11    1    3    3    0    0  0.81717967742E+01 -0.26557969495E+02 -0.59945421612E+00  0.27793224926E+02  0.51100000000E-03 0.  1.
        -12    1    3    3    0    0  0.12032516588E+01 -0.67590687447E+01  0.28205948680E+01  0.74221681643E+01  0.00000000000E+00 0.  1.
</event>
<event>
 7    1  0.1442665E-008  0.4614232E+02  0.7816164E-02  0.1320468E+00
        -11   -1    0    0    0    0  0.00000000000E+00  0.00000000000E+00  0.45593999997E+02  0.45594000000E+02  0.51100000000E-03 0.  1.
         11   -1    0    0    0    0 -0.00000000000E+00 -0.00000000000E+00 -0.45593999997E+02  0.45594000000E+02  0.51100000000E-03 0. -1.
    9900012    2    1    2    0    0  0.15000507376E+02  0.42346859315E+02 -0.32927122637E+01  0.46142315752E+02  0.99999816751E+01 0.  0.
         12    1    1    2    0    0 -0.15000507376E+02 -0.42346859315E+02  0.32927122637E+01  0.45045684248E+02  0.00000000000E+00 0. -1.
         11    1    3    3    0    0  0.71424331009E+01  0.17954838475E+02  0.19867930479E+01  0.19425187828E+02  0.51100000000E-03 0. -1.
        -11    1    3    3    0    0  0.65916047203E+01  0.16362240069E+02 -0.13597686346E+01  0.17692402998E+02  0.51100000000E-03 0.  1.
         12    1    3    3    0    0  0.12664695548E+01  0.80297807711E+01 -0.39197366770E+01  0.90247249256E+01  0.00000000000E+00 0. -1.
</event>
<event>
 7    1  0.1442665E-008  0.4614231E+02  0.7816164E-02  0.1320468E+00
        -11   -1    0    0    0    0  0.00000000000E+00  0.00000000000E+00  0.45593999997E+02  0.45594000000E+02  0.51100000000E-03 0.  1.
         11   -1    0    0    0    0 -0.00000000000E+00 -0.00000000000E+00 -0.45593999997E+02  0.45594000000E+02  0.51100000000E-03 0. -1.
    9900012    2    1    2    0    0 -0.23730016306E+02 -0.17370579700E+02  0.34121300811E+02  0.46142313392E+02  0.99999601600E+01 0.  0.
         12    1    1    2    0    0  0.23730016306E+02  0.17370579700E+02 -0.34121300811E+02  0.45045686608E+02  0.00000000000E+00 0. -1.
         11    1    3    3    0    0 -0.55638114524E+01 -0.25258236436E+01  0.33140883130E+01  0.69511844001E+01  0.51100000000E-03 0. -1.
        -11    1    3    3    0    0 -0.18189856733E+02 -0.13946992490E+02  0.30660308635E+02  0.38281118235E+02  0.51100000000E-03 0.  1.
        -12    1    3    3    0    0  0.23651879835E-01 -0.89776356632E+00  0.14690386227E+00  0.91001075662E+00  0.00000000000E+00 0.  1.
</event>
<event>
 7    1  0.1442665E-008  0.4614232E+02  0.7816164E-02  0.1320468E+00
        -11   -1    0    0    0    0  0.00000000000E+00  0.00000000000E+00  0.45593999997E+02  0.45594000000E+02  0.51100000000E-03 0. -1.
         11   -1    0    0    0    0 -0.00000000000E+00 -0.00000000000E+00 -0.45593999997E+02  0.45594000000E+02  0.51100000000E-03 0.  1.
    9900012    2    1    2    0    0 -0.16215897851E+02  0.36695185772E+02 -0.20484664737E+02  0.46142317728E+02  0.99999997010E+01 0.  0.
         12    1    1    2    0    0  0.16215897851E+02 -0.36695185772E+02  0.20484664737E+02  0.45045682272E+02  0.00000000000E+00 0. -1.
         11    1    3    3    0    0 -0.56063994107E+01  0.88587623696E+01 -0.11253302637E+01  0.10543991348E+02  0.51100000000E-03 0. -1.
        -11    1    3    3    0    0 -0.94353102386E+01  0.24656841986E+02 -0.16263583856E+02  0.31007887644E+02  0.51100000000E-03 0.  1.
        -12    1    3    3    0    0 -0.11741882014E+01  0.31795814162E+01 -0.30957506173E+01  0.45904387371E+01  0.00000000000E+00 0.  1.
</event>
<event>
 7    1  0.1442665E-008  0.4614232E+02  0.7816164E-02  0.1320468E+00
        -11   -1    0    0    0    0  0.00000000000E+00  0.00000000000E+00  0.45593999997E+02  0.45594000000E+02  0.51100000000E-03 0.  1.
         11   -1    0    0    0    0 -0.00000000000E+00 -0.00000000000E+00 -0.45593999997E+02  0.45594000000E+02  0.51100000000E-03 0. -1.
    9900012    2    1    2    0    0 -0.18207873830E+02 -0.38776050928E+02  0.13928556739E+02  0.46142317767E+02  0.10000000058E+02 0.  0.
         12    1    1    2    0    0  0.18207873830E+02  0.38776050928E+02 -0.13928556739E+02  0.45045682233E+02  0.00000000000E+00 0. -1.
         11    1    3    3    0    0 -0.10927852533E+02 -0.12835630009E+02  0.58372468877E+01  0.17839417317E+02  0.51100000000E-03 0. -1.
        -11    1    3    3    0    0 -0.66990537692E+01 -0.21579771973E+02  0.77609170755E+01  0.23891331355E+02  0.51100000000E-03 0.  1.
         12    1    3    3    0    0 -0.58096752745E+00 -0.43606489459E+01  0.33039277540E+00  0.44115690954E+01  0.00000000000E+00 0. -1.
</event>
<event>
 7    1  0.1442665E-008  0.4614232E+02  0.7816164E-02  0.1320468E+00
        -11   -1    0    0    0    0  0.00000000000E+00  0.00000000000E+00  0.45593999997E+02  0.45594000000E+02  0.51100000000E-03 0. -1.
         11   -1    0    0    0    0 -0.00000000000E+00 -0.00000000000E+00 -0.45593999997E+02  0.45594000000E+02  0.51100000000E-03 0.  1.
    9900012    2    1    2    0    0 -0.18211413980E+02  0.41195669076E+02  0.61218583565E+00  0.46142317396E+02  0.99999966703E+01 0.  0.
         12    1    1    2    0    0  0.18211413980E+02 -0.41195669076E+02 -0.61218583565E+00  0.45045682604E+02  0.00000000000E+00 0. -1.
         11    1    3    3    0    0 -0.66889130336E+01  0.22863522767E+02 -0.16900064701E+01  0.23881757745E+02  0.51100000000E-03 0. -1.
        -11    1    3    3    0    0 -0.74468238699E+01  0.13574988275E+02 -0.27745691153E+00  0.15485879859E+02  0.51100000000E-03 0.  1.
         12    1    3    3    0    0 -0.40756770762E+01  0.47571580349E+01  0.25796492173E+01  0.67746797919E+01  0.00000000000E+00 0. -1.
</event>
<event>
 7    1  0.1442665E-008  0.4614232E+02  0.7816164E-02  0.1320468E+00
        -11   -1    0    0    0    0  0.00000000000E+00  0.00000000000E+00  0.45593999997E+02  0.45594000000E+02  0.51100000000E-03 0.  1.
         11   -1    0    0    0    0 -0.00000000000E+00 -0.00000000000E+00 -0.45593999997E+02  0.45594000000E+02  0.51100000000E-03 0. -1.
    9900012    2    1    2    0    0  0.19654898679E+02  0.26331675967E+02  0.30813003875E+02  0.46142318641E+02  0.10000008025E+02 0.  0.
         12    1    1    2    0    0 -0.19654898679E+02 -0.26331675967E+02 -0.30813003875E+02  0.45045681359E+02  0.00000000000E+00 0. -1.
         11    1    3    3    0    0 -0.84448680566E+00  0.57312412995E+00  0.10768282926E+00  0.10262675509E+01  0.51100000000E-03 0. -1.
        -11    1    3    3    0    0  0.14932264376E+02  0.20559724797E+02  0.22829315762E+02  0.34159222204E+02  0.51100000000E-03 0.  1.
         12    1    3    3    0    0  0.55671211083E+01  0.51988270399E+01  0.78760052835E+01  0.10956828887E+02  0.00000000000E+00 0. -1.
</event>
<event>
 7    1  0.1442665E-008  0.4614232E+02  0.7816164E-02  0.1320468E+00
        -11   -1    0    0    0    0  0.00000000000E+00  0.00000000000E+00  0.45593999997E+02  0.45594000000E+02  0.51100000000E-03 0.  1.
         11   -1    0    0    0    0 -0.00000000000E+00 -0.00000000000E+00 -0.45593999997E+02  0.45594000000E+02  0.51100000000E-03 0. -1.
    9900012    2    1    2    0    0  0.29893217477E+02  0.20827261395E+02 -0.26490267347E+02  0.46142317272E+02  0.99999955400E+01 0.  0.
         12    1    1    2    0    0 -0.29893217477E+02 -0.20827261395E+02  0.26490267347E+02  0.45045682728E+02  0.00000000000E+00 0. -1.
         11    1    3    3    0    0  0.10673836600E+02  0.46059265012E+01 -0.75790383256E+01  0.13877577919E+02  0.51100000000E-03 0. -1.
        -11    1    3    3    0    0  0.14430242287E+02  0.77805159782E+01 -0.12760745495E+02  0.20775104023E+02  0.51100000000E-03 0.  1.
        -12    1    3    3    0    0  0.47891385900E+01  0.84408189152E+01 -0.61504835270E+01  0.11489635330E+02  0.00000000000E+00 0.  1.
</event>
<event>
 7    1  0.1442665E-008  0.4614232E+02  0.7816164E-02  0.1320468E+00
        -11   -1    0    0    0    0  0.00000000000E+00  0.00000000000E+00  0.45593999997E+02  0.45594000000E+02  0.51100000000E-03 0.  1.
         11   -1    0    0    0    0 -0.00000000000E+00 -0.00000000000E+00 -0.45593999997E+02  0.45594000000E+02  0.51100000000E-03 0. -1.
    9900012    2    1    2    0    0 -0.11716473848E+02 -0.42959487356E+02  0.68058931659E+01  0.46142317687E+02  0.99999993202E+01 0.  0.
         12    1    1    2    0    0  0.11716473848E+02  0.42959487356E+02 -0.68058931659E+01  0.45045682313E+02  0.00000000000E+00 0. -1.
         11    1    3    3    0    0 -0.24087289010E+00 -0.11306153297E+01 -0.13454040376E+01  0.17738159596E+01  0.51100000000E-03 0. -1.
        -11    1    3    3    0    0 -0.83262778558E+01 -0.23144077305E+02  0.58369435126E+01  0.25279341903E+02  0.51100000000E-03 0.  1.
        -12    1    3    3    0    0 -0.31493231022E+01 -0.18684794721E+02  0.23143536909E+01  0.19089159824E+02  0.00000000000E+00 0.  1.
</event>
<event>
 7    1  0.1442665E-008  0.4614232E+02  0.7816164E-02  0.1320468E+00
        -11   -1    0    0    0    0  0.00000000000E+00  0.00000000000E+00  0.45593999997E+02  0.45594000000E+02  0.51100000000E-03 0. -1.
         11   -1    0    0    0    0 -0.00000000000E+00 -0.00000000000E+00 -0.45593999997E+02  0.45594000000E+02  0.51100000000E-03 0.  1.
    9900012    2    1    2    0    0 -0.35691366137E+02 -0.23460255920E+02 -0.14312801759E+02  0.46142317424E+02  0.99999969258E+01 0.  0.
         12    1    1    2    0    0  0.35691366137E+02  0.23460255920E+02  0.14312801759E+02  0.45045682576E+02  0.00000000000E+00 0. -1.
         11    1    3    3    0    0 -0.73986231810E+01 -0.44786730199E+01 -0.62195856809E+01  0.10652764115E+02  0.51100000000E-03 0. -1.
        -11    1    3    3    0    0 -0.27836695153E+02 -0.18098992180E+02 -0.87017194846E+01  0.34324554435E+02  0.51100000000E-03 0.  1.
        -12    1    3    3    0    0 -0.45604780359E+00 -0.88259072010E+00  0.60850340691E+00  0.11649988732E+01  0.00000000000E+00 0.  1.
</event>
<event>
 7    1  0.1442665E-008  0.4614232E+02  0.7816164E-02  0.1320468E+00
        -11   -1    0    0    0    0  0.00000000000E+00  0.00000000000E+00  0.45593999997E+02  0.45594000000E+02  0.51100000000E-03 0.  1.
         11   -1    0    0    0    0 -0.00000000000E+00 -0.00000000000E+00 -0.45593999997E+02  0.45594000000E+02  0.51100000000E-03 0. -1.
    9900012    2    1    2    0    0  0.18406500869E+02 -0.19607226190E+02  0.36136834797E+02  0.46142318495E+02  0.10000006690E+02 0.  0.
         12    1    1    2    0    0 -0.18406500869E+02  0.19607226190E+02 -0.36136834797E+02  0.45045681505E+02  0.00000000000E+00 0. -1.
         11    1    3    3    0    0  0.13777021226E+00  0.26469307921E+00  0.19378752877E+01  0.19607151627E+01  0.51100000000E-03 0. -1.
        -11    1    3    3    0    0  0.14274783555E+02 -0.10711758569E+02  0.19817918518E+02  0.26669479032E+02  0.51100000000E-03 0.  1.
        -12    1    3    3    0    0  0.39939471021E+01 -0.91601607005E+01  0.14381040991E+02  0.17512124300E+02  0.00000000000E+00 0.  1.
</event>
<event>
 7    1  0.1442665E-008  0.4614232E+02  0.7816164E-02  0.1320468E+00
        -11   -1    0    0    0    0  0.00000000000E+00  0.00000000000E+00  0.45593999997E+02  0.45594000000E+02  0.51100000000E-03 0.  1.
         11   -1    0    0    0    0 -0.00000000000E+00 -0.00000000000E+00 -0.45593999997E+02  0.45594000000E+02  0.51100000000E-03 0. -1.
    9900012    2    1    2    0    0 -0.13737935309E+02 -0.41515580369E+02 -0.10809217903E+02  0.46142317947E+02  0.10000001695E+02 0.  0.
         12    1    1    2    0    0  0.13737935309E+02  0.41515580369E+02  0.10809217903E+02  0.45045682053E+02  0.00000000000E+00 0. -1.
         11    1    3    3    0    0 -0.41890493085E+00 -0.40153407845E+01  0.74605137621E+00  0.41054885061E+01  0.51100000000E-03 0. -1.
        -11    1    3    3    0    0 -0.10728001234E+02 -0.26264897832E+02 -0.51114168361E+01  0.28828136446E+02  0.51100000000E-03 0.  1.
         12    1    3    3    0    0 -0.25910291439E+01 -0.11235341752E+02 -0.64438524436E+01  0.13208692995E+02  0.00000000000E+00 0. -1.
</event>
<event>
 7    1  0.1442665E-008  0.4614232E+02  0.7816164E-02  0.1320468E+00
        -11   -1    0    0    0    0  0.00000000000E+00  0.00000000000E+00  0.45593999997E+02  0.45594000000E+02  0.51100000000E-03 0.  1.
         11   -1    0    0    0    0 -0.00000000000E+00 -0.00000000000E+00 -0.45593999997E+02  0.45594000000E+02  0.51100000000E-03 0. -1.
    9900012    2    1    2    0    0  0.77098432949E+01 -0.25272507733E+02  0.36482491080E+02  0.46142317786E+02  0.10000000223E+02 0.  0.
         12    1    1    2    0    0 -0.77098432949E+01  0.25272507733E+02 -0.36482491080E+02  0.45045682214E+02  0.00000000000E+00 0. -1.
         11    1    3    3    0    0  0.22970931512E+01 -0.14284568273E+02  0.14709572954E+02  0.20632427497E+02  0.51100000000E-03 0. -1.
        -11    1    3    3    0    0  0.12628817275E+01 -0.81574570995E+01  0.14112980007E+02  0.16349776192E+02  0.51100000000E-03 0.  1.
        -12    1    3    3    0    0  0.41498684162E+01 -0.28304823612E+01  0.76599381192E+01  0.91601140964E+01  0.00000000000E+00 0.  1.
</event>
<event>
 7    1  0.1442665E-008  0.4614232E+02  0.7816164E-02  0.1320468E+00
        -11   -1    0    0    0    0  0.00000000000E+00  0.00000000000E+00  0.45593999997E+02  0.45594000000E+02  0.51100000000E-03 0.  1.
         11   -1    0    0    0    0 -0.00000000000E+00 -0.00000000000E+00 -0.45593999997E+02  0.45594000000E+02  0.51100000000E-03 0. -1.
    9900012    2    1    2    0    0 -0.65651515207E+01  0.43208962226E+02 -0.10908612320E+02  0.46142318144E+02  0.10000003489E+02 0.  0.
         12    1    1    2    0    0  0.65651515207E+01 -0.43208962226E+02  0.10908612320E+02  0.45045681856E+02  0.00000000000E+00 0. -1.
         11    1    3    3    0    0  0.81583120750E+00  0.76878827723E+01  0.12328225693E+01  0.78287274718E+01  0.51100000000E-03 0. -1.
        -11    1    3    3    0    0 -0.63450896038E+01  0.28363100812E+02 -0.89757677838E+01  0.30418580791E+02  0.51100000000E-03 0.  1.
         12    1    3    3    0    0 -0.10358931245E+01  0.71579786415E+01 -0.31656671050E+01  0.78950098808E+01  0.00000000000E+00 0. -1.
</event>
<event>
 7    1  0.1442665E-008  0.4614232E+02  0.7816164E-02  0.1320468E+00
        -11   -1    0    0    0    0  0.00000000000E+00  0.00000000000E+00  0.45593999997E+02  0.45594000000E+02  0.51100000000E-03 0.  1.
         11   -1    0    0    0    0 -0.00000000000E+00 -0.00000000000E+00 -0.45593999997E+02  0.45594000000E+02  0.51100000000E-03 0. -1.
    9900012    2    1    2    0    0  0.12659496637E+02 -0.36518885196E+02  0.23134852006E+02  0.46142320869E+02  0.10000028341E+02 0.  0.
         12    1    1    2    0    0 -0.12659496637E+02  0.36518885196E+02 -0.23134852006E+02  0.45045679131E+02  0.00000000000E+00 0. -1.
         11    1    3    3    0    0  0.84968830087E+01 -0.21991284619E+02  0.13119956828E+02  0.26980490868E+02  0.51100000000E-03 0. -1.
        -11    1    3    3    0    0  0.54779615683E+01 -0.12915827489E+02  0.75351096714E+01  0.15924965955E+02  0.51100000000E-03 0.  1.
         12    1    3    3    0    0 -0.13153479403E+01 -0.16117730880E+01  0.24797855062E+01  0.32368640453E+01  0.00000000000E+00 0. -1.
</event>
<event>
 7    1  0.1442665E-008  0.4614231E+02  0.7816164E-02  0.1320468E+00
        -11   -1    0    0    0    0  0.00000000000E+00  0.00000000000E+00  0.45593999997E+02  0.45594000000E+02  0.51100000000E-03 0. -1.
         11   -1    0    0    0    0 -0.00000000000E+00 -0.00000000000E+00 -0.45593999997E+02  0.45594000000E+02  0.51100000000E-03 0.  1.
    9900012    2    1    2    0    0  0.23482279741E+02 -0.22486168419E+02 -0.31178019588E+02  0.46142310557E+02  0.99999343064E+01 0.  0.
         12    1    1    2    0    0 -0.23482279741E+02  0.22486168419E+02  0.31178019588E+02  0.45045689443E+02  0.00000000000E+00 0. -1.
         11    1    3    3    0    0 -0.26570042176E-01  0.38872840851E+00 -0.15544581830E+01  0.16025468001E+01  0.51100000000E-03 0. -1.
        -11    1    3    3    0    0  0.94758772693E+01 -0.57666514173E+01 -0.10936285097E+02  0.15577190073E+02  0.51100000000E-03 0.  1.
         12    1    3    3    0    0  0.14032972514E+02 -0.17108245410E+02 -0.18687276308E+02  0.28962573684E+02  0.00000000000E+00 0. -1.
</event>
<event>
 7    1  0.1442665E-008  0.4614232E+02  0.7816164E-02  0.1320468E+00
        -11   -1    0    0    0    0  0.00000000000E+00  0.00000000000E+00  0.45593999997E+02  0.45594000000E+02  0.51100000000E-03 0.  1.
         11   -1    0    0    0    0 -0.00000000000E+00 -0.00000000000E+00 -0.45593999997E+02  0.45594000000E+02  0.51100000000E-03 0. -1.
    9900012    2    1    2    0    0  0.26675217891E+01  0.42741899485E+02  0.13968820055E+02  0.46142316768E+02  0.99999909475E+01 0.  0.
         12    1    1    2    0    0 -0.26675217891E+01 -0.42741899485E+02 -0.13968820055E+02  0.45045683232E+02  0.00000000000E+00 0. -1.
         11    1    3    3    0    0  0.20718874520E+01  0.21904399231E+01  0.91976031834E+00  0.31522537928E+01  0.51100000000E-03 0. -1.
        -11    1    3    3    0    0 -0.23549617435E+01  0.24403756702E+02  0.86149603186E+01  0.25986664417E+02  0.51100000000E-03 0.  1.
         12    1    3    3    0    0  0.29505960807E+01  0.16147702860E+02  0.44340994176E+01  0.17003398559E+02  0.00000000000E+00 0. -1.
</event>
<event>
 7    1  0.1442665E-008  0.4614232E+02  0.7816164E-02  0.1320468E+00
        -11   -1    0    0    0    0  0.00000000000E+00  0.00000000000E+00  0.45593999997E+02  0.45594000000E+02  0.51100000000E-03 0.  1.
         11   -1    0    0    0    0 -0.00000000000E+00 -0.00000000000E+00 -0.45593999997E+02  0.45594000000E+02  0.51100000000E-03 0. -1.
    9900012    2    1    2    0    0  0.71477726226E+01  0.23286066921E+02  0.37891714509E+02  0.46142316582E+02  0.99999892501E+01 0.  0.
         12    1    1    2    0    0 -0.71477726226E+01 -0.23286066921E+02 -0.37891714509E+02  0.45045683418E+02  0.00000000000E+00 0. -1.
         11    1    3    3    0    0  0.20445206463E+01  0.13622392861E+02  0.20815580004E+02  0.24960729619E+02  0.51100000000E-03 0.  1.
        -11    1    3    3    0    0  0.63754454322E+01  0.91026102833E+01  0.14692924063E+02  0.18422427533E+02  0.51100000000E-03 0. -1.
         12    1    3    3    0    0 -0.12721934560E+01  0.56106377708E+00  0.23832104418E+01  0.27591594302E+01  0.00000000000E+00 0. -1.
</event>
<event>
 7    1  0.1442665E-008  0.4614232E+02  0.7816164E-02  0.1320468E+00
        -11   -1    0    0    0    0  0.00000000000E+00  0.00000000000E+00  0.45593999997E+02  0.45594000000E+02  0.51100000000E-03 0.  1.
         11   -1    0    0    0    0 -0.00000000000E+00 -0.00000000000E+00 -0.45593999997E+02  0.45594000000E+02  0.51100000000E-03 0. -1.
    9900012    2    1    2    0    0 -0.23499706736E+02 -0.33022512677E+02  0.19656830114E+02  0.46142317296E+02  0.99999957556E+01 0.  0.
         12    1    1    2    0    0  0.23499706736E+02  0.33022512677E+02 -0.19656830114E+02  0.45045682704E+02  0.00000000000E+00 0. -1.
         11    1    3    3    0    0 -0.37814961443E+01 -0.16468629096E+01  0.19208450555E+00  0.41290152883E+01  0.51100000000E-03 0. -1.
        -11    1    3    3    0    0 -0.10573428345E+02 -0.20004976983E+02  0.11286614873E+02  0.25286046876E+02  0.51100000000E-03 0.  1.
         12    1    3    3    0    0 -0.91447822465E+01 -0.11370672784E+02  0.81781307352E+01  0.16727255131E+02  0.00000000000E+00 0. -1.
</event>
<event>
 7    1  0.1442665E-008  0.4614232E+02  0.7816164E-02  0.1320468E+00
        -11   -1    0    0    0    0  0.00000000000E+00  0.00000000000E+00  0.45593999997E+02  0.45594000000E+02  0.51100000000E-03 0. -1.
         11   -1    0    0    0    0 -0.00000000000E+00 -0.00000000000E+00 -0.45593999997E+02  0.45594000000E+02  0.51100000000E-03 0.  1.
    9900012    2    1    2    0    0 -0.11862409246E+02  0.39062733815E+02 -0.19039421040E+02  0.46142317857E+02  0.10000000872E+02 0.  0.
         12    1    1    2    0    0  0.11862409246E+02 -0.39062733815E+02  0.19039421040E+02  0.45045682143E+02  0.00000000000E+00 0. -1.
         11    1    3    3    0    0 -0.89219267090E+00  0.26310840815E+01 -0.36018609203E+01  0.45488474975E+01  0.51100000000E-03 0. -1.
        -11    1    3    3    0    0 -0.72216374405E+01  0.24630068181E+02 -0.13685416086E+02  0.29087504528E+02  0.51100000000E-03 0.  1.
         12    1    3    3    0    0 -0.37485791346E+01  0.11801581553E+02 -0.17521440330E+01  0.12505965832E+02  0.00000000000E+00 0. -1.
</event>
<event>
 7    1  0.1442665E-008  0.4614232E+02  0.7816164E-02  0.1320468E+00
        -11   -1    0    0    0    0  0.00000000000E+00  0.00000000000E+00  0.45593999997E+02  0.45594000000E+02  0.51100000000E-03 0.  1.
         11   -1    0    0    0    0 -0.00000000000E+00 -0.00000000000E+00 -0.45593999997E+02  0.45594000000E+02  0.51100000000E-03 0. -1.
    9900012    2    1    2    0    0 -0.39729155333E+02 -0.14775650209E+02  0.15244271383E+02  0.46142318380E+02  0.10000005646E+02 0.  0.
         12    1    1    2    0    0  0.39729155333E+02  0.14775650209E+02 -0.15244271383E+02  0.45045681620E+02  0.00000000000E+00 0. -1.
         11    1    3    3    0    0 -0.12547982414E+02 -0.16260359817E+01  0.13907339921E+01  0.12729100399E+02  0.51100000000E-03 0. -1.
        -11    1    3    3    0    0 -0.21602090145E+02 -0.11993001719E+02  0.11198514992E+02  0.27127276442E+02  0.51100000000E-03 0.  1.
         12    1    3    3    0    0 -0.55790827736E+01 -0.11566125081E+01  0.26550223992E+01  0.62859415388E+01  0.00000000000E+00 0. -1.
</event>
<event>
 7    1  0.1442665E-008  0.4614232E+02  0.7816164E-02  0.1320468E+00
        -11   -1    0    0    0    0  0.00000000000E+00  0.00000000000E+00  0.45593999997E+02  0.45594000000E+02  0.51100000000E-03 0. -1.
         11   -1    0    0    0    0 -0.00000000000E+00 -0.00000000000E+00 -0.45593999997E+02  0.45594000000E+02  0.51100000000E-03 0.  1.
    9900012    2    1    2    0    0 -0.20162891365E+02 -0.13543574313E+02 -0.37936036714E+02  0.46142317910E+02  0.10000001362E+02 0.  0.
         12    1    1    2    0    0  0.20162891365E+02  0.13543574313E+02  0.37936036714E+02  0.45045682090E+02  0.00000000000E+00 0. -1.
         11    1    3    3    0    0 -0.12971755258E+02 -0.78297453238E+01 -0.28279833013E+02  0.32083022018E+02  0.51100000000E-03 0.  1.
        -11    1    3    3    0    0 -0.19847280933E+01 -0.25745597412E+01 -0.85305831862E+00  0.33608350482E+01  0.51100000000E-03 0. -1.
         12    1    3    3    0    0 -0.52064080139E+01 -0.31392692482E+01 -0.88031453817E+01  0.10698460844E+02  0.00000000000E+00 0. -1.
</event>
<event>
 7    1  0.1442665E-008  0.4614232E+02  0.7816164E-02  0.1320468E+00
        -11   -1    0    0    0    0  0.00000000000E+00  0.00000000000E+00  0.45593999997E+02  0.45594000000E+02  0.51100000000E-03 0. -1.
         11   -1    0    0    0    0 -0.00000000000E+00 -0.00000000000E+00 -0.45593999997E+02  0.45594000000E+02  0.51100000000E-03 0.  1.
    9900012    2    1    2    0    0 -0.40852800584E+02 -0.18800606263E+02 -0.25883184891E+01  0.46142317587E+02  0.99999984132E+01 0.  0.
         12    1    1    2    0    0  0.40852800584E+02  0.18800606263E+02  0.25883184891E+01  0.45045682413E+02  0.00000000000E+00 0. -1.
         11    1    3    3    0    0 -0.46407074240E+01 -0.30590268779E+01  0.27169960629E+01  0.61867502537E+01  0.51100000000E-03 0. -1.
        -11    1    3    3    0    0 -0.22871446186E+02 -0.11228137212E+02 -0.25617495232E+01  0.25607355911E+02  0.51100000000E-03 0.  1.
         12    1    3    3    0    0 -0.13340646974E+02 -0.45134421734E+01 -0.27435650288E+01  0.14348211422E+02  0.00000000000E+00 0. -1.
</event>
<event>
 7    1  0.1442665E-008  0.4614232E+02  0.7816164E-02  0.1320468E+00
        -11   -1    0    0    0    0  0.00000000000E+00  0.00000000000E+00  0.45593999997E+02  0.45594000000E+02  0.51100000000E-03 0.  1.
         11   -1    0    0    0    0 -0.00000000000E+00 -0.00000000000E+00 -0.45593999997E+02  0.45594000000E+02  0.51100000000E-03 0. -1.
    9900012    2    1    2    0    0  0.19764422695E+02  0.88034286501E+01  0.39509248464E+02  0.46142317913E+02  0.10000001386E+02 0.  0.
         12    1    1    2    0    0 -0.19764422695E+02 -0.88034286501E+01 -0.39509248464E+02  0.45045682087E+02  0.00000000000E+00 0. -1.
         11    1    3    3    0    0  0.29153300564E+01  0.41917103889E+01  0.68258016595E+01  0.85241512116E+01  0.51100000000E-03 0. -1.
        -11    1    3    3    0    0  0.98361818858E+01  0.59037386267E+01  0.19238636949E+02  0.22399324895E+02  0.51100000000E-03 0.  1.
         12    1    3    3    0    0  0.70129107529E+01 -0.12920203655E+01  0.13444809856E+02  0.15218841806E+02  0.00000000000E+00 0. -1.
</event>
<event>
 7    1  0.1442665E-008  0.4614232E+02  0.7816164E-02  0.1320468E+00
        -11   -1    0    0    0    0  0.00000000000E+00  0.00000000000E+00  0.45593999997E+02  0.45594000000E+02  0.51100000000E-03 0.  1.
         11   -1    0    0    0    0 -0.00000000000E+00 -0.00000000000E+00 -0.45593999997E+02  0.45594000000E+02  0.51100000000E-03 0. -1.
    9900012    2    1    2    0    0  0.17511072482E+02 -0.90849886275E+01  0.40496156827E+02  0.46142318790E+02  0.10000009385E+02 0.  0.
         12    1    1    2    0    0 -0.17511072482E+02  0.90849886275E+01 -0.40496156827E+02  0.45045681210E+02  0.00000000000E+00 0. -1.
         11    1    3    3    0    0  0.39576098456E+01 -0.24346500866E+01  0.51384535922E+01  0.69277631538E+01  0.51100000000E-03 0. -1.
        -11    1    3    3    0    0  0.43248147434E+01 -0.21928090266E+01  0.21133899892E+02  0.21683038507E+02  0.51100000000E-03 0.  1.
        -12    1    3    3    0    0  0.92286478935E+01 -0.44575295143E+01  0.14223803343E+02  0.17531517129E+02  0.00000000000E+00 0.  1.
</event>
<event>
 7    1  0.1442665E-008  0.4614232E+02  0.7816164E-02  0.1320468E+00
        -11   -1    0    0    0    0  0.00000000000E+00  0.00000000000E+00  0.45593999997E+02  0.45594000000E+02  0.51100000000E-03 0. -1.
         11   -1    0    0    0    0 -0.00000000000E+00 -0.00000000000E+00 -0.45593999997E+02  0.45594000000E+02  0.51100000000E-03 0.  1.
    9900012    2    1    2    0    0 -0.56514895572E+01 -0.43832806247E+02 -0.87097141504E+01  0.46142319205E+02  0.10000013167E+02 0.  0.
         12    1    1    2    0    0  0.56514895572E+01  0.43832806247E+02  0.87097141504E+01  0.45045680795E+02  0.00000000000E+00 0. -1.
         11    1    3    3    0    0 -0.71033319113E+01 -0.28914855827E+02 -0.71339072618E+01  0.30617296497E+02  0.51100000000E-03 0. -1.
        -11    1    3    3    0    0  0.27238475734E+01 -0.98816377431E+01 -0.10834915332E+01  0.10307282098E+02  0.51100000000E-03 0.  1.
        -12    1    3    3    0    0 -0.12720052192E+01 -0.50363126772E+01 -0.49231535547E+00  0.52177406096E+01  0.00000000000E+00 0.  1.
</event>
<event>
 7    1  0.1442665E-008  0.4614232E+02  0.7816164E-02  0.1320468E+00
        -11   -1    0    0    0    0  0.00000000000E+00  0.00000000000E+00  0.45593999997E+02  0.45594000000E+02  0.51100000000E-03 0. -1.
         11   -1    0    0    0    0 -0.00000000000E+00 -0.00000000000E+00 -0.45593999997E+02  0.45594000000E+02  0.51100000000E-03 0.  1.
    9900012    2    1    2    0    0 -0.40686653434E+02 -0.29920456785E+01 -0.19098622536E+02  0.46142317768E+02  0.10000000061E+02 0.  0.
         12    1    1    2    0    0  0.40686653434E+02  0.29920456785E+01  0.19098622536E+02  0.45045682232E+02  0.00000000000E+00 0. -1.
         11    1    3    3    0    0 -0.91351407460E+01 -0.46805794981E+01 -0.40652570910E+01  0.11040151102E+02  0.51100000000E-03 0. -1.
        -11    1    3    3    0    0 -0.19585485693E+02  0.24045992194E+01 -0.93813976619E+01  0.21849118279E+02  0.51100000000E-03 0.  1.
        -12    1    3    3    0    0 -0.11966026995E+02 -0.71606539982E+00 -0.56519677832E+01  0.13253048386E+02  0.00000000000E+00 0.  1.
</event>
<event>
 7    1  0.1442665E-008  0.4614232E+02  0.7816164E-02  0.1320468E+00
        -11   -1    0    0    0    0  0.00000000000E+00  0.00000000000E+00  0.45593999997E+02  0.45594000000E+02  0.51100000000E-03 0. -1.
         11   -1    0    0    0    0 -0.00000000000E+00 -0.00000000000E+00 -0.45593999997E+02  0.45594000000E+02  0.51100000000E-03 0.  1.
    9900012    2    1    2    0    0 -0.26890281108E+02 -0.33089025153E+02 -0.14530749308E+02  0.46142317864E+02  0.10000000939E+02 0.  0.
         12    1    1    2    0    0  0.26890281108E+02  0.33089025153E+02  0.14530749308E+02  0.45045682136E+02  0.00000000000E+00 0. -1.
         11    1    3    3    0    0 -0.83791672638E+01 -0.58397221492E+01 -0.13437620083E+01  0.10301383179E+02  0.51100000000E-03 0. -1.
        -11    1    3    3    0    0 -0.76150921513E+01 -0.11834828933E+02 -0.29941141101E+01  0.14388103555E+02  0.51100000000E-03 0.  1.
         12    1    3    3    0    0 -0.10896021693E+02 -0.15414474071E+02 -0.10192873189E+02  0.21452831129E+02  0.00000000000E+00 0. -1.
</event>
<event>
 7    1  0.1442665E-008  0.4614232E+02  0.7816164E-02  0.1320468E+00
        -11   -1    0    0    0    0  0.00000000000E+00  0.00000000000E+00  0.45593999997E+02  0.45594000000E+02  0.51100000000E-03 0. -1.
         11   -1    0    0    0    0 -0.00000000000E+00 -0.00000000000E+00 -0.45593999997E+02  0.45594000000E+02  0.51100000000E-03 0.  1.
    9900012    2    1    2    0    0 -0.25411986157E+02 -0.36824707701E+02  0.52235442438E+01  0.46142317053E+02  0.99999935428E+01 0.  0.
         12    1    1    2    0    0  0.25411986157E+02  0.36824707701E+02 -0.52235442438E+01  0.45045682947E+02  0.00000000000E+00 0. -1.
         11    1    3    3    0    0 -0.11609486893E+02 -0.13133479801E+02  0.44374521300E+01  0.18082020331E+02  0.51100000000E-03 0. -1.
        -11    1    3    3    0    0 -0.12941020542E+02 -0.18517680204E+02 -0.72198922879E+00  0.22603003374E+02  0.51100000000E-03 0.  1.
         12    1    3    3    0    0 -0.86147872236E+00 -0.51735476956E+01  0.15080813426E+01  0.54572933478E+01  0.00000000000E+00 0. -1.
</event>
<event>
 7    1  0.1442665E-008  0.4614232E+02  0.7816164E-02  0.1320468E+00
        -11   -1    0    0    0    0  0.00000000000E+00  0.00000000000E+00  0.45593999997E+02  0.45594000000E+02  0.51100000000E-03 0.  1.
         11   -1    0    0    0    0 -0.00000000000E+00 -0.00000000000E+00 -0.45593999997E+02  0.45594000000E+02  0.51100000000E-03 0. -1.
    9900012    2    1    2    0    0  0.16110018307E+02  0.42041759625E+02  0.14391749756E+01  0.46142318000E+02  0.10000002176E+02 0.  0.
         12    1    1    2    0    0 -0.16110018307E+02 -0.42041759625E+02 -0.14391749756E+01  0.45045682000E+02  0.00000000000E+00 0. -1.
         11    1    3    3    0    0  0.47789093879E+01  0.72062196549E+01 -0.18845587390E+01  0.88498100858E+01  0.51100000000E-03 0. -1.
        -11    1    3    3    0    0  0.53882371908E+01  0.25316502725E+02  0.15353358467E+01  0.25929050632E+02  0.51100000000E-03 0.  1.
        -12    1    3    3    0    0  0.59428717287E+01  0.95190372451E+01  0.17883978680E+01  0.11363457282E+02  0.00000000000E+00 0.  1.
</event>
<event>
 7    1  0.1442665E-008  0.4614232E+02  0.7816164E-02  0.1320468E+00
        -11   -1    0    0    0    0  0.00000000000E+00  0.00000000000E+00  0.45593999997E+02  0.45594000000E+02  0.51100000000E-03 0. -1.
         11   -1    0    0    0    0 -0.00000000000E+00 -0.00000000000E+00 -0.45593999997E+02  0.45594000000E+02  0.51100000000E-03 0.  1.
    9900012    2    1    2    0    0  0.77749634864E+01 -0.18090327942E+02 -0.40514239180E+02  0.46142316537E+02  0.99999888385E+01 0.  0.
         12    1    1    2    0    0 -0.77749634864E+01  0.18090327942E+02  0.40514239180E+02  0.45045683463E+02  0.00000000000E+00 0. -1.
         11    1    3    3    0    0  0.35561014502E+01 -0.23612092383E+01 -0.68804258220E+01  0.80970010710E+01  0.51100000000E-03 0. -1.
        -11    1    3    3    0    0  0.10855577347E+01 -0.84569923650E+01 -0.24582479249E+02  0.26019174502E+02  0.51100000000E-03 0.  1.
        -12    1    3    3    0    0  0.31333043016E+01 -0.72721263390E+01 -0.90513341091E+01  0.12026140964E+02  0.00000000000E+00 0.  1.
</event>
<event>
 7    1  0.1442665E-008  0.4614232E+02  0.7816164E-02  0.1320468E+00
        -11   -1    0    0    0    0  0.00000000000E+00  0.00000000000E+00  0.45593999997E+02  0.45594000000E+02  0.51100000000E-03 0.  1.
         11   -1    0    0    0    0 -0.00000000000E+00 -0.00000000000E+00 -0.45593999997E+02  0.45594000000E+02  0.51100000000E-03 0. -1.
    9900012    2    1    2    0    0 -0.43912331267E+02  0.81709394464E+01  0.58357829129E+01  0.46142318177E+02  0.10000003792E+02 0.  0.
         12    1    1    2    0    0  0.43912331267E+02 -0.81709394464E+01 -0.58357829129E+01  0.45045681823E+02  0.00000000000E+00 0. -1.
         11    1    3    3    0    0 -0.29404900810E+02  0.72796271863E+01  0.61601799152E+01  0.30912602292E+02  0.51100000000E-03 0. -1.
        -11    1    3    3    0    0 -0.69316468585E+01  0.14561382840E+01  0.18637647092E+01  0.73240484724E+01  0.51100000000E-03 0.  1.
         12    1    3    3    0    0 -0.75757835985E+01 -0.56482602382E+00 -0.21881617115E+01  0.79056674129E+01  0.00000000000E+00 0. -1.
</event>
<event>
 7    1  0.1442665E-008  0.4614232E+02  0.7816164E-02  0.1320468E+00
        -11   -1    0    0    0    0  0.00000000000E+00  0.00000000000E+00  0.45593999997E+02  0.45594000000E+02  0.51100000000E-03 0. -1.
         11   -1    0    0    0    0 -0.00000000000E+00 -0.00000000000E+00 -0.45593999997E+02  0.45594000000E+02  0.51100000000E-03 0.  1.
    9900012    2    1    2    0    0  0.27530971242E+02 -0.17896672177E+02 -0.30836152061E+02  0.46142317338E+02  0.99999961437E+01 0.  0.
         12    1    1    2    0    0 -0.27530971242E+02  0.17896672177E+02  0.30836152061E+02  0.45045682662E+02  0.00000000000E+00 0. -1.
         11    1    3    3    0    0  0.80262483134E+01 -0.33005421744E+01 -0.55199001309E+01  0.10285112462E+02  0.51100000000E-03 0. -1.
        -11    1    3    3    0    0  0.19691689975E+02 -0.15125331113E+02 -0.24820775582E+02  0.35108534519E+02  0.51100000000E-03 0.  1.
        -12    1    3    3    0    0 -0.18696704685E+00  0.52920111031E+00 -0.49547634836E+00  0.74867035706E+00  0.00000000000E+00 0.  1.
</event>
<event>
 7    1  0.1442665E-008  0.4614232E+02  0.7816164E-02  0.1320468E+00
        -11   -1    0    0    0    0  0.00000000000E+00  0.00000000000E+00  0.45593999997E+02  0.45594000000E+02  0.51100000000E-03 0. -1.
         11   -1    0    0    0    0 -0.00000000000E+00 -0.00000000000E+00 -0.45593999997E+02  0.45594000000E+02  0.51100000000E-03 0.  1.
    9900012    2    1    2    0    0  0.22815350374E+02  0.31068070250E+02 -0.23309836201E+02  0.46142315795E+02  0.99999820758E+01 0.  0.
         12    1    1    2    0    0 -0.22815350374E+02 -0.31068070250E+02  0.23309836201E+02  0.45045684205E+02  0.00000000000E+00 0. -1.
         11    1    3    3    0    0  0.13568417837E+02  0.18694149656E+02 -0.15215454056E+02  0.27660138040E+02  0.51100000000E-03 0. -1.
        -11    1    3    3    0    0  0.26375612850E+01  0.57202595044E+01 -0.63473283370E+01  0.89424088259E+01  0.51100000000E-03 0.  1.
         12    1    3    3    0    0  0.66093712514E+01  0.66536610894E+01 -0.17470538081E+01  0.95397689301E+01  0.00000000000E+00 0. -1.
</event>
<event>
 7    1  0.1442665E-008  0.4614232E+02  0.7816164E-02  0.1320468E+00
        -11   -1    0    0    0    0  0.00000000000E+00  0.00000000000E+00  0.45593999997E+02  0.45594000000E+02  0.51100000000E-03 0.  1.
         11   -1    0    0    0    0 -0.00000000000E+00 -0.00000000000E+00 -0.45593999997E+02  0.45594000000E+02  0.51100000000E-03 0. -1.
    9900012    2    1    2    0    0 -0.15051487868E+02 -0.36599402707E+02  0.21518595052E+02  0.46142317648E+02  0.99999989681E+01 0.  0.
         12    1    1    2    0    0  0.15051487868E+02  0.36599402707E+02 -0.21518595052E+02  0.45045682352E+02  0.00000000000E+00 0. -1.
         11    1    3    3    0    0 -0.29612225933E+01 -0.14589528520E+02  0.11046083778E+02  0.18537506541E+02  0.51100000000E-03 0. -1.
        -11    1    3    3    0    0 -0.97144942266E+01 -0.18919254914E+02  0.10473407561E+02  0.23706578640E+02  0.51100000000E-03 0.  1.
         12    1    3    3    0    0 -0.23757710485E+01 -0.30906192732E+01 -0.89628727168E-03  0.38982324674E+01  0.00000000000E+00 0. -1.
</event>
<event>
 7    1  0.1442665E-008  0.4614232E+02  0.7816164E-02  0.1320468E+00
        -11   -1    0    0    0    0  0.00000000000E+00  0.00000000000E+00  0.45593999997E+02  0.45594000000E+02  0.51100000000E-03 0.  1.
         11   -1    0    0    0    0 -0.00000000000E+00 -0.00000000000E+00 -0.45593999997E+02  0.45594000000E+02  0.51100000000E-03 0. -1.
    9900012    2    1    2    0    0  0.95887272136E+01  0.33676009674E+01  0.43884268448E+02  0.46142318264E+02  0.10000004583E+02 0.  0.
         12    1    1    2    0    0 -0.95887272136E+01 -0.33676009674E+01 -0.43884268448E+02  0.45045681736E+02  0.00000000000E+00 0. -1.
         11    1    3    3    0    0  0.10030918015E+02  0.29327142953E+01  0.27614685630E+02  0.29526106958E+02  0.51100000000E-03 0.  1.
        -11    1    3    3    0    0 -0.18350371084E+01 -0.14338985200E+00  0.78760921133E+01  0.80883094078E+01  0.51100000000E-03 0. -1.
         12    1    3    3    0    0  0.13928463066E+01  0.57827652416E+00  0.83934907045E+01  0.85279018978E+01  0.00000000000E+00 0. -1.
</event>
<event>
 7    1  0.1442665E-008  0.4614232E+02  0.7816164E-02  0.1320468E+00
        -11   -1    0    0    0    0  0.00000000000E+00  0.00000000000E+00  0.45593999997E+02  0.45594000000E+02  0.51100000000E-03 0. -1.
         11   -1    0    0    0    0 -0.00000000000E+00 -0.00000000000E+00 -0.45593999997E+02  0.45594000000E+02  0.51100000000E-03 0.  1.
    9900012    2    1    2    0    0 -0.15221093077E+02 -0.23795612181E+02 -0.35088469425E+02  0.46142317408E+02  0.99999967846E+01 0.  0.
         12    1    1    2    0    0  0.15221093077E+02  0.23795612181E+02  0.35088469425E+02  0.45045682592E+02  0.00000000000E+00 0. -1.
         11    1    3    3    0    0 -0.98241870281E+01 -0.11754596680E+02 -0.17239851178E+02  0.23062906642E+02  0.51100000000E-03 0.  1.
        -11    1    3    3    0    0 -0.12565207774E+01 -0.98753742499E+01 -0.11889653782E+02  0.15506957418E+02  0.51100000000E-03 0. -1.
         12    1    3    3    0    0 -0.41403852711E+01 -0.21656412516E+01 -0.59589644648E+01  0.75724533486E+01  0.00000000000E+00 0. -1.
</event>
<event>
 7    1  0.1442665E-008  0.4614231E+02  0.7816164E-02  0.1320468E+00
        -11   -1    0    0    0    0  0.00000000000E+00  0.00000000000E+00  0.45593999997E+02  0.45594000000E+02  0.51100000000E-03 0.  1.
         11   -1    0    0    0    0 -0.00000000000E+00 -0.00000000000E+00 -0.45593999997E+02  0.45594000000E+02  0.51100000000E-03 0. -1.
    9900012    2    1    2    0    0  0.19946553314E+02  0.14680226343E+02  0.37626318363E+02  0.46142313546E+02  0.99999615621E+01 0.  0.
         12    1    1    2    0    0 -0.19946553314E+02 -0.14680226343E+02 -0.37626318363E+02  0.45045686454E+02  0.00000000000E+00 0. -1.
         11    1    3    3    0    0  0.80711509069E+01  0.86072809206E+01  0.13689961096E+02  0.18073289598E+02  0.51100000000E-03 0. -1.
        -11    1    3    3    0    0  0.36496822385E+01  0.35001418859E+01  0.14160937098E+02  0.15036732139E+02  0.51100000000E-03 0.  1.
         12    1    3    3    0    0  0.82257201683E+01  0.25728035365E+01  0.97754201684E+01  0.13032291809E+02  0.00000000000E+00 0. -1.
</event>
<event>
 7    1  0.1442665E-008  0.4614232E+02  0.7816164E-02  0.1320468E+00
        -11   -1    0    0    0    0  0.00000000000E+00  0.00000000000E+00  0.45593999997E+02  0.45594000000E+02  0.51100000000E-03 0.  1.
         11   -1    0    0    0    0 -0.00000000000E+00 -0.00000000000E+00 -0.45593999997E+02  0.45594000000E+02  0.51100000000E-03 0. -1.
    9900012    2    1    2    0    0  0.37218341468E+02  0.24033746203E+02  0.81417221169E+01  0.46142317219E+02  0.99999950570E+01 0.  0.
         12    1    1    2    0    0 -0.37218341468E+02 -0.24033746203E+02 -0.81417221169E+01  0.45045682781E+02  0.00000000000E+00 0. -1.
         11    1    3    3    0    0  0.97517503930E+00  0.25657330519E+01  0.25791284089E+00  0.27568953092E+01  0.51100000000E-03 0. -1.
        -11    1    3    3    0    0  0.29803316795E+02  0.15753290426E+02  0.40238126010E+01  0.33949888355E+02  0.51100000000E-03 0.  1.
        -12    1    3    3    0    0  0.64398496336E+01  0.57147227248E+01  0.38599966750E+01  0.94355335544E+01  0.00000000000E+00 0.  1.
</event>
<event>
 7    1  0.1442665E-008  0.4614232E+02  0.7816164E-02  0.1320468E+00
        -11   -1    0    0    0    0  0.00000000000E+00  0.00000000000E+00  0.45593999997E+02  0.45594000000E+02  0.51100000000E-03 0.  1.
         11   -1    0    0    0    0 -0.00000000000E+00 -0.00000000000E+00 -0.45593999997E+02  0.45594000000E+02  0.51100000000E-03 0. -1.
    9900012    2    1    2    0    0 -0.31897930943E+02 -0.22547571903E+02  0.22433069840E+02  0.46142316304E+02  0.99999867158E+01 0.  0.
         12    1    1    2    0    0  0.31897930943E+02  0.22547571903E+02 -0.22433069840E+02  0.45045683696E+02  0.00000000000E+00 0. -1.
         11    1    3    3    0    0 -0.70451689477E+00 -0.25526251453E+01  0.18758562406E+01  0.32451619503E+01  0.51100000000E-03 0. -1.
        -11    1    3    3    0    0 -0.19322321743E+02 -0.12329284475E+02  0.89353181282E+01  0.24600879730E+02  0.51100000000E-03 0.  1.
        -12    1    3    3    0    0 -0.11871092305E+02 -0.76656622833E+01  0.11621895471E+02  0.18296274624E+02  0.00000000000E+00 0.  1.
</event>
<event>
 7    1  0.1442665E-008  0.4614232E+02  0.7816164E-02  0.1320468E+00
        -11   -1    0    0    0    0  0.00000000000E+00  0.00000000000E+00  0.45593999997E+02  0.45594000000E+02  0.51100000000E-03 0.  1.
         11   -1    0    0    0    0 -0.00000000000E+00 -0.00000000000E+00 -0.45593999997E+02  0.45594000000E+02  0.51100000000E-03 0. -1.
    9900012    2    1    2    0    0 -0.40087109622E+02  0.97839686657E+01  0.18066849010E+02  0.46142318366E+02  0.10000005513E+02 0.  0.
         12    1    1    2    0    0  0.40087109622E+02 -0.97839686657E+01 -0.18066849010E+02  0.45045681634E+02  0.00000000000E+00 0. -1.
         11    1    3    3    0    0 -0.17880081740E+01  0.17519116864E+01  0.18755573104E+01  0.31279199596E+01  0.51100000000E-03 0. -1.
        -11    1    3    3    0    0 -0.14465694740E+02  0.22129368159E+01  0.22778744860E+01  0.14810203446E+02  0.51100000000E-03 0.  1.
        -12    1    3    3    0    0 -0.23833406708E+02  0.58191201633E+01  0.13913417214E+02  0.28204194960E+02  0.00000000000E+00 0.  1.
</event>
<event>
 7    1  0.1442665E-008  0.4614232E+02  0.7816164E-02  0.1320468E+00
        -11   -1    0    0    0    0  0.00000000000E+00  0.00000000000E+00  0.45593999997E+02  0.45594000000E+02  0.51100000000E-03 0.  1.
         11   -1    0    0    0    0 -0.00000000000E+00 -0.00000000000E+00 -0.45593999997E+02  0.45594000000E+02  0.51100000000E-03 0. -1.
    9900012    2    1    2    0    0  0.26611074900E+02  0.16970928159E+02  0.32139567120E+02  0.46142317804E+02  0.10000000387E+02 0.  0.
         12    1    1    2    0    0 -0.26611074900E+02 -0.16970928159E+02 -0.32139567120E+02  0.45045682196E+02  0.00000000000E+00 0. -1.
         11    1    3    3    0    0  0.39293093902E+01  0.53662934917E+01  0.90182152283E+01  0.11205569342E+02  0.51100000000E-03 0.  1.
        -11    1    3    3    0    0  0.91534117104E+01  0.36850688159E+01  0.52950227880E+01  0.11198300974E+02  0.51100000000E-03 0. -1.
         12    1    3    3    0    0  0.13528353800E+02  0.79195658511E+01  0.17826329103E+02  0.23738447487E+02  0.00000000000E+00 0. -1.
</event>
<event>
 7    1  0.1442665E-008  0.4614232E+02  0.7816164E-02  0.1320468E+00
        -11   -1    0    0    0    0  0.00000000000E+00  0.00000000000E+00  0.45593999997E+02  0.45594000000E+02  0.51100000000E-03 0.  1.
         11   -1    0    0    0    0 -0.00000000000E+00 -0.00000000000E+00 -0.45593999997E+02  0.45594000000E+02  0.51100000000E-03 0. -1.
    9900012    2    1    2    0    0 -0.41448937977E+02  0.17161006441E+02  0.40741669324E+01  0.46142318324E+02  0.10000005133E+02 0.  0.
         12    1    1    2    0    0  0.41448937977E+02 -0.17161006441E+02 -0.40741669324E+01  0.45045681676E+02  0.00000000000E+00 0. -1.
         11    1    3    3    0    0 -0.35738138198E+01  0.25268172990E+01 -0.11624852471E+01  0.45286116075E+01  0.51100000000E-03 0. -1.
        -11    1    3    3    0    0 -0.21376183922E+02  0.47014821380E+01  0.10898194381E+01  0.21914216391E+02  0.51100000000E-03 0.  1.
         12    1    3    3    0    0 -0.16498940235E+02  0.99327070038E+01  0.41468327414E+01  0.19699490325E+02  0.00000000000E+00 0. -1.
</event>
<event>
 7    1  0.1442665E-008  0.4614232E+02  0.7816164E-02  0.1320468E+00
        -11   -1    0    0    0    0  0.00000000000E+00  0.00000000000E+00  0.45593999997E+02  0.45594000000E+02  0.51100000000E-03 0. -1.
         11   -1    0    0    0    0 -0.00000000000E+00 -0.00000000000E+00 -0.45593999997E+02  0.45594000000E+02  0.51100000000E-03 0.  1.
    9900012    2    1    2    0    0 -0.31606603804E+02  0.17917889286E+02 -0.26628655292E+02  0.46142318263E+02  0.10000004573E+02 0.  0.
         12    1    1    2    0    0  0.31606603804E+02 -0.17917889286E+02  0.26628655292E+02  0.45045681737E+02  0.00000000000E+00 0. -1.
         11    1    3    3    0    0 -0.60834836640E+01  0.26333781464E+01 -0.33424969675E+01  0.74239975882E+01  0.51100000000E-03 0. -1.
        -11    1    3    3    0    0 -0.25642765250E+02  0.13204438227E+02 -0.21508249930E+02  0.35979347046E+02  0.51100000000E-03 0.  1.
        -12    1    3    3    0    0  0.11964510971E+00  0.20800729131E+01 -0.17779083947E+01  0.27389736283E+01  0.00000000000E+00 0.  1.
</event>
<event>
 7    1  0.1442665E-008  0.4614232E+02  0.7816164E-02  0.1320468E+00
        -11   -1    0    0    0    0  0.00000000000E+00  0.00000000000E+00  0.45593999997E+02  0.45594000000E+02  0.51100000000E-03 0. -1.
         11   -1    0    0    0    0 -0.00000000000E+00 -0.00000000000E+00 -0.45593999997E+02  0.45594000000E+02  0.51100000000E-03 0.  1.
    9900012    2    1    2    0    0 -0.26904263015E+02  0.35726847623E+02  0.53727647242E+01  0.46142316409E+02  0.99999876700E+01 0.  0.
         12    1    1    2    0    0  0.26904263015E+02 -0.35726847623E+02 -0.53727647242E+01  0.45045683591E+02  0.00000000000E+00 0. -1.
         11    1    3    3    0    0 -0.72886170552E+01  0.74986537585E+01  0.45429815153E+01  0.11401422195E+02  0.51100000000E-03 0. -1.
        -11    1    3    3    0    0 -0.79928039371E+01  0.93020683910E+01 -0.17222618662E+01  0.12384650876E+02  0.51100000000E-03 0.  1.
        -12    1    3    3    0    0 -0.11622842022E+02  0.18926125473E+02  0.25520450751E+01  0.22356243337E+02  0.00000000000E+00 0.  1.
</event>
<event>
 7    1  0.1442665E-008  0.4614232E+02  0.7816164E-02  0.1320468E+00
        -11   -1    0    0    0    0  0.00000000000E+00  0.00000000000E+00  0.45593999997E+02  0.45594000000E+02  0.51100000000E-03 0.  1.
         11   -1    0    0    0    0 -0.00000000000E+00 -0.00000000000E+00 -0.45593999997E+02  0.45594000000E+02  0.51100000000E-03 0. -1.
    9900012    2    1    2    0    0  0.34751532747E+01 -0.16382115047E+02  0.41817019527E+02  0.46142317568E+02  0.99999982366E+01 0.  0.
         12    1    1    2    0    0 -0.34751532747E+01  0.16382115047E+02 -0.41817019527E+02  0.45045682432E+02  0.00000000000E+00 0. -1.
         11    1    3    3    0    0 -0.12807767737E+01 -0.87275735345E+01  0.14456302161E+02  0.16935040637E+02  0.51100000000E-03 0. -1.
        -11    1    3    3    0    0  0.26349196047E-02 -0.43478342350E+01  0.99351321707E+01  0.10844838449E+02  0.51100000000E-03 0.  1.
         12    1    3    3    0    0  0.47532951288E+01 -0.33067072772E+01  0.17425585195E+02  0.18362438482E+02  0.00000000000E+00 0. -1.
</event>
<event>
 7    1  0.1442665E-008  0.4614232E+02  0.7816164E-02  0.1320468E+00
        -11   -1    0    0    0    0  0.00000000000E+00  0.00000000000E+00  0.45593999997E+02  0.45594000000E+02  0.51100000000E-03 0. -1.
         11   -1    0    0    0    0 -0.00000000000E+00 -0.00000000000E+00 -0.45593999997E+02  0.45594000000E+02  0.51100000000E-03 0.  1.
    9900012    2    1    2    0    0  0.46708981604E+01  0.35434117825E+01 -0.44662516567E+02  0.46142318267E+02  0.10000004610E+02 0.  0.
         12    1    1    2    0    0 -0.46708981604E+01 -0.35434117825E+01  0.44662516567E+02  0.45045681733E+02  0.00000000000E+00 0. -1.
         11    1    3    3    0    0  0.88990838950E-02 -0.22817793751E+01 -0.13824284972E+02  0.14011332968E+02  0.51100000000E-03 0. -1.
        -11    1    3    3    0    0  0.25644605403E+01  0.63063979764E+01 -0.21703808920E+02  0.22746481820E+02  0.51100000000E-03 0.  1.
        -12    1    3    3    0    0  0.20975385362E+01 -0.48120681876E+00 -0.91344226756E+01  0.93845034781E+01  0.00000000000E+00 0.  1.
</event>
<event>
 7    1  0.1442665E-008  0.4614232E+02  0.7816164E-02  0.1320468E+00
        -11   -1    0    0    0    0  0.00000000000E+00  0.00000000000E+00  0.45593999997E+02  0.45594000000E+02  0.51100000000E-03 0.  1.
         11   -1    0    0    0    0 -0.00000000000E+00 -0.00000000000E+00 -0.45593999997E+02  0.45594000000E+02  0.51100000000E-03 0. -1.
    9900012    2    1    2    0    0 -0.39057521245E+02  0.16185582914E+02  0.15545113021E+02  0.46142316534E+02  0.99999888102E+01 0.  0.
         12    1    1    2    0    0  0.39057521245E+02 -0.16185582914E+02 -0.15545113021E+02  0.45045683466E+02  0.00000000000E+00 0. -1.
         11    1    3    3    0    0 -0.36834933282E+01  0.28072380087E+01  0.12677635911E+01  0.48016594132E+01  0.51100000000E-03 0. -1.
        -11    1    3    3    0    0 -0.28224945367E+02  0.92140658860E+01  0.14546533051E+02  0.33062791400E+02  0.51100000000E-03 0.  1.
        -12    1    3    3    0    0 -0.71490825504E+01  0.41642790194E+01 -0.26918362184E+00  0.82778657204E+01  0.00000000000E+00 0.  1.
</event>
<event>
 7    1  0.1442665E-008  0.4614232E+02  0.7816164E-02  0.1320468E+00
        -11   -1    0    0    0    0  0.00000000000E+00  0.00000000000E+00  0.45593999997E+02  0.45594000000E+02  0.51100000000E-03 0. -1.
         11   -1    0    0    0    0 -0.00000000000E+00 -0.00000000000E+00 -0.45593999997E+02  0.45594000000E+02  0.51100000000E-03 0.  1.
    9900012    2    1    2    0    0 -0.27201592574E+02 -0.14698382614E+01 -0.35875150138E+02  0.46142318070E+02  0.10000002817E+02 0.  0.
         12    1    1    2    0    0  0.27201592574E+02  0.14698382614E+01  0.35875150138E+02  0.45045681930E+02  0.00000000000E+00 0. -1.
         11    1    3    3    0    0 -0.50581364135E+01 -0.76629035793E+00 -0.31912009880E+01  0.60295695449E+01  0.51100000000E-03 0. -1.
        -11    1    3    3    0    0 -0.10597025266E+02  0.21561179157E+01 -0.19914024902E+02  0.22660851198E+02  0.51100000000E-03 0.  1.
        -12    1    3    3    0    0 -0.11546430895E+02 -0.28596658192E+01 -0.12769924248E+02  0.17451897327E+02  0.00000000000E+00 0.  1.
</event>
<event>
 7    1  0.1442665E-008  0.4614232E+02  0.7816164E-02  0.1320468E+00
        -11   -1    0    0    0    0  0.00000000000E+00  0.00000000000E+00  0.45593999997E+02  0.45594000000E+02  0.51100000000E-03 0.  1.
         11   -1    0    0    0    0 -0.00000000000E+00 -0.00000000000E+00 -0.45593999997E+02  0.45594000000E+02  0.51100000000E-03 0. -1.
    9900012    2    1    2    0    0  0.25519446677E+02 -0.18930792982E+02  0.31929555423E+02  0.46142316620E+02  0.99999895977E+01 0.  0.
         12    1    1    2    0    0 -0.25519446677E+02  0.18930792982E+02 -0.31929555423E+02  0.45045683380E+02  0.00000000000E+00 0. -1.
         11    1    3    3    0    0  0.21369353959E+01 -0.11447546840E+01  0.19299226959E+01  0.30986380954E+01  0.51100000000E-03 0. -1.
        -11    1    3    3    0    0  0.21608836213E+02 -0.18828174016E+02  0.26793674810E+02  0.39234461247E+02  0.51100000000E-03 0.  1.
        -12    1    3    3    0    0  0.17736750680E+01  0.10421357184E+01  0.32059579172E+01  0.38092172778E+01  0.00000000000E+00 0.  1.
</event>
<event>
 7    1  0.1442665E-008  0.4614232E+02  0.7816164E-02  0.1320468E+00
        -11   -1    0    0    0    0  0.00000000000E+00  0.00000000000E+00  0.45593999997E+02  0.45594000000E+02  0.51100000000E-03 0.  1.
         11   -1    0    0    0    0 -0.00000000000E+00 -0.00000000000E+00 -0.45593999997E+02  0.45594000000E+02  0.51100000000E-03 0. -1.
    9900012    2    1    2    0    0  0.41554763555E+02 -0.12817166931E+02  0.11748842301E+02  0.46142318324E+02  0.10000005134E+02 0.  0.
         12    1    1    2    0    0 -0.41554763555E+02  0.12817166931E+02 -0.11748842301E+02  0.45045681676E+02  0.00000000000E+00 0. -1.
         11    1    3    3    0    0  0.34542993037E+02 -0.12587943797E+02  0.98683930560E+01  0.38066519131E+02  0.51100000000E-03 0.  1.
        -11    1    3    3    0    0  0.15947447946E+01 -0.60198900962E+00  0.20213482000E+01  0.26441351203E+01  0.51100000000E-03 0. -1.
        -12    1    3    3    0    0  0.54170257232E+01  0.37276587569E+00 -0.14089895490E+00  0.54316640728E+01  0.00000000000E+00 0.  1.
</event>
<event>
 7    1  0.1442665E-008  0.4614232E+02  0.7816164E-02  0.1320468E+00
        -11   -1    0    0    0    0  0.00000000000E+00  0.00000000000E+00  0.45593999997E+02  0.45594000000E+02  0.51100000000E-03 0. -1.
         11   -1    0    0    0    0 -0.00000000000E+00 -0.00000000000E+00 -0.45593999997E+02  0.45594000000E+02  0.51100000000E-03 0.  1.
    9900012    2    1    2    0    0 -0.95095450624E+01  0.42960944111E+02 -0.96456915868E+01  0.46142317273E+02  0.99999955485E+01 0.  0.
         12    1    1    2    0    0  0.95095450624E+01 -0.42960944111E+02  0.96456915868E+01  0.45045682727E+02  0.00000000000E+00 0. -1.
         11    1    3    3    0    0 -0.97840045195E+00  0.77243647097E+00 -0.54942975574E+00  0.13622770877E+01  0.51100000000E-03 0. -1.
        -11    1    3    3    0    0 -0.89205171001E+01  0.40320480996E+02 -0.10252154190E+02  0.42549071422E+02  0.51100000000E-03 0.  1.
        -12    1    3    3    0    0  0.38937248970E+00  0.18680266438E+01  0.11558923590E+01  0.22309687634E+01  0.00000000000E+00 0.  1.
</event>
<event>
 7    1  0.1442665E-008  0.4614231E+02  0.7816164E-02  0.1320468E+00
        -11   -1    0    0    0    0  0.00000000000E+00  0.00000000000E+00  0.45593999997E+02  0.45594000000E+02  0.51100000000E-03 0.  1.
         11   -1    0    0    0    0 -0.00000000000E+00 -0.00000000000E+00 -0.45593999997E+02  0.45594000000E+02  0.51100000000E-03 0. -1.
    9900012    2    1    2    0    0  0.26668037445E+02 -0.25984075421E+02  0.25352664134E+02  0.46142312356E+02  0.99999507076E+01 0.  0.
         12    1    1    2    0    0 -0.26668037445E+02  0.25984075421E+02 -0.25352664134E+02  0.45045687644E+02  0.00000000000E+00 0. -1.
         11    1    3    3    0    0  0.18535810838E+01 -0.54105152553E+00 -0.12878454152E-01  0.19309753243E+01  0.51100000000E-03 0. -1.
        -11    1    3    3    0    0 -0.28373259895E+00 -0.40190332510E+00 -0.16808237472E+00  0.51988692641E+00  0.51100000000E-03 0.  1.
        -12    1    3    3    0    0  0.25098188960E+02 -0.25041120571E+02  0.25533624963E+02  0.43691450105E+02  0.00000000000E+00 0.  1.
</event>
<event>
 7    1  0.1442665E-008  0.4614232E+02  0.7816164E-02  0.1320468E+00
        -11   -1    0    0    0    0  0.00000000000E+00  0.00000000000E+00  0.45593999997E+02  0.45594000000E+02  0.51100000000E-03 0.  1.
         11   -1    0    0    0    0 -0.00000000000E+00 -0.00000000000E+00 -0.45593999997E+02  0.45594000000E+02  0.51100000000E-03 0. -1.
    9900012    2    1    2    0    0 -0.76469837442E+01 -0.41411257314E+02  0.15992025245E+02  0.46142318030E+02  0.10000002449E+02 0.  0.
         12    1    1    2    0    0  0.76469837442E+01  0.41411257314E+02 -0.15992025245E+02  0.45045681970E+02  0.00000000000E+00 0. -1.
         11    1    3    3    0    0  0.16778163344E+01 -0.15402395344E+02  0.44495105291E+01  0.16119770290E+02  0.51100000000E-03 0. -1.
        -11    1    3    3    0    0 -0.54561097072E+01 -0.13790272548E+02  0.51397680533E+01  0.15695794532E+02  0.51100000000E-03 0.  1.
         12    1    3    3    0    0 -0.38686903714E+01 -0.12218589423E+02  0.64027466624E+01  0.14326753208E+02  0.00000000000E+00 0. -1.
</event>
<event>
 7    1  0.1442665E-008  0.4614232E+02  0.7816164E-02  0.1320468E+00
        -11   -1    0    0    0    0  0.00000000000E+00  0.00000000000E+00  0.45593999997E+02  0.45594000000E+02  0.51100000000E-03 0.  1.
         11   -1    0    0    0    0 -0.00000000000E+00 -0.00000000000E+00 -0.45593999997E+02  0.45594000000E+02  0.51100000000E-03 0. -1.
    9900012    2    1    2    0    0 -0.11490911623E+01 -0.29548670495E+02  0.33980422075E+02  0.46142318488E+02  0.10000006627E+02 0.  0.
         12    1    1    2    0    0  0.11490911623E+01  0.29548670495E+02 -0.33980422075E+02  0.45045681512E+02  0.00000000000E+00 0. -1.
         11    1    3    3    0    0  0.11538784084E+00 -0.59752775292E+01  0.44842680395E+01  0.74716742445E+01  0.51100000000E-03 0. -1.
        -11    1    3    3    0    0 -0.46323739770E+01 -0.13677334513E+02  0.15268591388E+02  0.21015666805E+02  0.51100000000E-03 0.  1.
        -12    1    3    3    0    0  0.33678949739E+01 -0.98960584530E+01  0.14227562647E+02  0.17654977438E+02  0.00000000000E+00 0.  1.
</event>
<event>
 7    1  0.1442665E-008  0.4614232E+02  0.7816164E-02  0.1320468E+00
        -11   -1    0    0    0    0  0.00000000000E+00  0.00000000000E+00  0.45593999997E+02  0.45594000000E+02  0.51100000000E-03 0.  1.
         11   -1    0    0    0    0 -0.00000000000E+00 -0.00000000000E+00 -0.45593999997E+02  0.45594000000E+02  0.51100000000E-03 0. -1.
    9900012    2    1    2    0    0  0.22201077795E+01 -0.58936214469E+00  0.44987079355E+02  0.46142317242E+02  0.99999952648E+01 0.  0.
         12    1    1    2    0    0 -0.22201077795E+01  0.58936214469E+00 -0.44987079355E+02  0.45045682758E+02  0.00000000000E+00 0. -1.
         11    1    3    3    0    0  0.31377469154E-01 -0.31322400163E+01  0.54501672503E+01  0.62861940300E+01  0.51100000000E-03 0. -1.
        -11    1    3    3    0    0  0.66314959213E+00 -0.97336168835E+00  0.11023931431E+02  0.11086670592E+02  0.51100000000E-03 0.  1.
         12    1    3    3    0    0  0.15255807182E+01  0.35162395599E+01  0.28512980674E+02  0.28769452620E+02  0.00000000000E+00 0. -1.
</event>
<event>
 7    1  0.1442665E-008  0.4614232E+02  0.7816164E-02  0.1320468E+00
        -11   -1    0    0    0    0  0.00000000000E+00  0.00000000000E+00  0.45593999997E+02  0.45594000000E+02  0.51100000000E-03 0.  1.
         11   -1    0    0    0    0 -0.00000000000E+00 -0.00000000000E+00 -0.45593999997E+02  0.45594000000E+02  0.51100000000E-03 0. -1.
    9900012    2    1    2    0    0  0.20764636147E+01  0.15298060585E+02  0.42317504113E+02  0.46142317486E+02  0.99999974904E+01 0.  0.
         12    1    1    2    0    0 -0.20764636147E+01 -0.15298060585E+02 -0.42317504113E+02  0.45045682514E+02  0.00000000000E+00 0. -1.
         11    1    3    3    0    0 -0.83939618401E+00 -0.16269505209E+00  0.17171253173E+01  0.19182218981E+01  0.51100000000E-03 0. -1.
        -11    1    3    3    0    0  0.34214708175E+01  0.39788058717E+01  0.72569550985E+01  0.89554874955E+01  0.51100000000E-03 0.  1.
        -12    1    3    3    0    0 -0.50561101876E+00  0.11481949766E+02  0.33343423697E+02  0.35268608092E+02  0.00000000000E+00 0.  1.
</event>
<event>
 7    1  0.1442665E-008  0.4614232E+02  0.7816164E-02  0.1320468E+00
        -11   -1    0    0    0    0  0.00000000000E+00  0.00000000000E+00  0.45593999997E+02  0.45594000000E+02  0.51100000000E-03 0.  1.
         11   -1    0    0    0    0 -0.00000000000E+00 -0.00000000000E+00 -0.45593999997E+02  0.45594000000E+02  0.51100000000E-03 0. -1.
    9900012    2    1    2    0    0 -0.43530969003E+02  0.31399542342E+01  0.11149391680E+02  0.46142317523E+02  0.99999978327E+01 0.  0.
         12    1    1    2    0    0  0.43530969003E+02 -0.31399542342E+01 -0.11149391680E+02  0.45045682477E+02  0.00000000000E+00 0. -1.
         11    1    3    3    0    0 -0.73392378587E+01 -0.12525624108E+01  0.83145210735E+00  0.74916378588E+01  0.51100000000E-03 0. -1.
        -11    1    3    3    0    0 -0.18989892537E+01 -0.86882272588E+00  0.21722557844E+01  0.30132554769E+01  0.51100000000E-03 0.  1.
        -12    1    3    3    0    0 -0.34292741891E+02  0.52613393709E+01  0.81456837877E+01  0.35637424188E+02  0.00000000000E+00 0.  1.
</event>
<event>
 7    1  0.1442665E-008  0.4614232E+02  0.7816164E-02  0.1320468E+00
        -11   -1    0    0    0    0  0.00000000000E+00  0.00000000000E+00  0.45593999997E+02  0.45594000000E+02  0.51100000000E-03 0. -1.
         11   -1    0    0    0    0 -0.00000000000E+00 -0.00000000000E+00 -0.45593999997E+02  0.45594000000E+02  0.51100000000E-03 0.  1.
    9900012    2    1    2    0    0  0.11373542861E+02  0.30548531741E+02 -0.31089277077E+02  0.46142318543E+02  0.10000007129E+02 0.  0.
         12    1    1    2    0    0 -0.11373542861E+02 -0.30548531741E+02  0.31089277077E+02  0.45045681457E+02  0.00000000000E+00 0. -1.
         11    1    3    3    0    0  0.22511117117E+01  0.86428637078E+01 -0.32775117114E+01  0.95136050101E+01  0.51100000000E-03 0. -1.
        -11    1    3    3    0    0  0.40659172329E+01  0.71208724044E+01 -0.90519318816E+01  0.12213761820E+02  0.51100000000E-03 0.  1.
         12    1    3    3    0    0  0.50565139163E+01  0.14784795629E+02 -0.18759833484E+02  0.24414951713E+02  0.00000000000E+00 0. -1.
</event>
<event>
 7    1  0.1442665E-008  0.4614232E+02  0.7816164E-02  0.1320468E+00
        -11   -1    0    0    0    0  0.00000000000E+00  0.00000000000E+00  0.45593999997E+02  0.45594000000E+02  0.51100000000E-03 0.  1.
         11   -1    0    0    0    0 -0.00000000000E+00 -0.00000000000E+00 -0.45593999997E+02  0.45594000000E+02  0.51100000000E-03 0. -1.
    9900012    2    1    2    0    0 -0.26705423290E+02 -0.19167749037E+02  0.30798235258E+02  0.46142317285E+02  0.99999956598E+01 0.  0.
         12    1    1    2    0    0  0.26705423290E+02  0.19167749037E+02 -0.30798235258E+02  0.45045682715E+02  0.00000000000E+00 0. -1.
         11    1    3    3    0    0 -0.18556580588E+02 -0.13467814159E+02  0.22419805858E+02  0.32068308286E+02  0.51100000000E-03 0.  1.
        -11    1    3    3    0    0 -0.30699009468E+01  0.57978909683E+00  0.32429884695E+01  0.45030458242E+01  0.51100000000E-03 0. -1.
        -12    1    3    3    0    0 -0.50789417552E+01 -0.62797239747E+01  0.51354409308E+01  0.95709631754E+01  0.00000000000E+00 0.  1.
</event>
<event>
 7    1  0.1442665E-008  0.4614232E+02  0.7816164E-02  0.1320468E+00
        -11   -1    0    0    0    0  0.00000000000E+00  0.00000000000E+00  0.45593999997E+02  0.45594000000E+02  0.51100000000E-03 0.  1.
         11   -1    0    0    0    0 -0.00000000000E+00 -0.00000000000E+00 -0.45593999997E+02  0.45594000000E+02  0.51100000000E-03 0. -1.
    9900012    2    1    2    0    0 -0.20163336784E+02  0.14846844590E+01  0.40253558732E+02  0.46142318423E+02  0.10000006034E+02 0.  0.
         12    1    1    2    0    0  0.20163336784E+02 -0.14846844590E+01 -0.40253558732E+02  0.45045681577E+02  0.00000000000E+00 0. -1.
         11    1    3    3    0    0  0.24107395149E+00 -0.11304629006E+01  0.46189166264E+01  0.47613500273E+01  0.51100000000E-03 0. -1.
        -11    1    3    3    0    0 -0.11188963655E+02 -0.10844250879E+00  0.22235399031E+02  0.24892119994E+02  0.51100000000E-03 0.  1.
         12    1    3    3    0    0 -0.92154470795E+01  0.27235898684E+01  0.13399243074E+02  0.16488848401E+02  0.00000000000E+00 0. -1.
</event>
<event>
 7    1  0.1442665E-008  0.4614232E+02  0.7816164E-02  0.1320468E+00
        -11   -1    0    0    0    0  0.00000000000E+00  0.00000000000E+00  0.45593999997E+02  0.45594000000E+02  0.51100000000E-03 0.  1.
         11   -1    0    0    0    0 -0.00000000000E+00 -0.00000000000E+00 -0.45593999997E+02  0.45594000000E+02  0.51100000000E-03 0. -1.
    9900012    2    1    2    0    0  0.40116196049E+02 -0.17545592341E+02  0.10580948865E+02  0.46142317910E+02  0.10000001357E+02 0.  0.
         12    1    1    2    0    0 -0.40116196049E+02  0.17545592341E+02 -0.10580948865E+02  0.45045682090E+02  0.00000000000E+00 0. -1.
         11    1    3    3    0    0  0.22047829676E+02 -0.46313115268E+01  0.38982333390E+01  0.22863771853E+02  0.51100000000E-03 0. -1.
        -11    1    3    3    0    0  0.41819596591E+01 -0.39859321614E+01  0.20749851860E+01  0.61385670615E+01  0.51100000000E-03 0.  1.
         12    1    3    3    0    0  0.13886406714E+02 -0.89283486527E+01  0.46077303403E+01  0.17139978996E+02  0.00000000000E+00 0. -1.
</event>
<event>
 7    1  0.1442665E-008  0.4614232E+02  0.7816164E-02  0.1320468E+00
        -11   -1    0    0    0    0  0.00000000000E+00  0.00000000000E+00  0.45593999997E+02  0.45594000000E+02  0.51100000000E-03 0.  1.
         11   -1    0    0    0    0 -0.00000000000E+00 -0.00000000000E+00 -0.45593999997E+02  0.45594000000E+02  0.51100000000E-03 0. -1.
    9900012    2    1    2    0    0 -0.11039293255E+00  0.14281682795E+02  0.42721598776E+02  0.46142315945E+02  0.99999834361E+01 0.  0.
         12    1    1    2    0    0  0.11039293255E+00 -0.14281682795E+02 -0.42721598776E+02  0.45045684055E+02  0.00000000000E+00 0. -1.
         11    1    3    3    0    0 -0.11425034905E+00 -0.86693629021E+00  0.45113260605E+00  0.98394743910E+00  0.51100000000E-03 0. -1.
        -11    1    3    3    0    0 -0.19255015849E+00  0.10890562198E+02  0.35714134785E+02  0.37338195514E+02  0.51100000000E-03 0.  1.
         12    1    3    3    0    0  0.19640757499E+00  0.42580568870E+01  0.65563313850E+01  0.78201729916E+01  0.00000000000E+00 0. -1.
</event>
<event>
 7    1  0.1442665E-008  0.4614232E+02  0.7816164E-02  0.1320468E+00
        -11   -1    0    0    0    0  0.00000000000E+00  0.00000000000E+00  0.45593999997E+02  0.45594000000E+02  0.51100000000E-03 0. -1.
         11   -1    0    0    0    0 -0.00000000000E+00 -0.00000000000E+00 -0.45593999997E+02  0.45594000000E+02  0.51100000000E-03 0.  1.
    9900012    2    1    2    0    0  0.54164521388E+01 -0.91925557799E+01 -0.43763826894E+02  0.46142316744E+02  0.99999907271E+01 0.  0.
         12    1    1    2    0    0 -0.54164521388E+01  0.91925557799E+01  0.43763826894E+02  0.45045683256E+02  0.00000000000E+00 0. -1.
         11    1    3    3    0    0  0.23891276280E+01 -0.41880250900E+01 -0.86879070489E+01  0.99361569094E+01  0.51100000000E-03 0. -1.
        -11    1    3    3    0    0  0.46411950898E+01 -0.53729428339E+01 -0.24744110944E+02  0.25742576274E+02  0.51100000000E-03 0.  1.
         12    1    3    3    0    0 -0.16138705790E+01  0.36841214400E+00 -0.10331808902E+02  0.10463583561E+02  0.00000000000E+00 0. -1.
</event>
<event>
 7    1  0.1442665E-008  0.4614232E+02  0.7816164E-02  0.1320468E+00
        -11   -1    0    0    0    0  0.00000000000E+00  0.00000000000E+00  0.45593999997E+02  0.45594000000E+02  0.51100000000E-03 0.  1.
         11   -1    0    0    0    0 -0.00000000000E+00 -0.00000000000E+00 -0.45593999997E+02  0.45594000000E+02  0.51100000000E-03 0. -1.
    9900012    2    1    2    0    0 -0.27666418036E+02  0.17647296110E+02  0.30858643776E+02  0.46142316049E+02  0.99999843859E+01 0.  0.
         12    1    1    2    0    0  0.27666418036E+02 -0.17647296110E+02 -0.30858643776E+02  0.45045683951E+02  0.00000000000E+00 0. -1.
         11    1    3    3    0    0 -0.86354046648E+00  0.90138585530E+00 -0.12665553342E+00  0.12546874044E+01  0.51100000000E-03 0. -1.
        -11    1    3    3    0    0 -0.20746833479E+02  0.15979590021E+02  0.26903514328E+02  0.37544340188E+02  0.51100000000E-03 0.  1.
        -12    1    3    3    0    0 -0.60560440905E+01  0.76632023309E+00  0.40817849814E+01  0.73432884568E+01  0.00000000000E+00 0.  1.
</event>
<event>
 7    1  0.1442665E-008  0.4614232E+02  0.7816164E-02  0.1320468E+00
        -11   -1    0    0    0    0  0.00000000000E+00  0.00000000000E+00  0.45593999997E+02  0.45594000000E+02  0.51100000000E-03 0.  1.
         11   -1    0    0    0    0 -0.00000000000E+00 -0.00000000000E+00 -0.45593999997E+02  0.45594000000E+02  0.51100000000E-03 0. -1.
    9900012    2    1    2    0    0 -0.99287510014E+01  0.57296308783E+01  0.43562652587E+02  0.46142318000E+02  0.10000002181E+02 0.  0.
         12    1    1    2    0    0  0.99287510014E+01 -0.57296308783E+01 -0.43562652587E+02  0.45045682000E+02  0.00000000000E+00 0. -1.
         11    1    3    3    0    0 -0.66600055973E+01 -0.79021480260E+00  0.21078125009E+02  0.22119391225E+02  0.51100000000E-03 0. -1.
        -11    1    3    3    0    0 -0.29114806936E+01  0.69047876795E+01  0.22189283720E+02  0.23420442459E+02  0.51100000000E-03 0.  1.
         12    1    3    3    0    0 -0.35726471053E+00 -0.38494199858E+00  0.29524385714E+00  0.60248431585E+00  0.00000000000E+00 0. -1.
</event>
<event>
 7    1  0.1442665E-008  0.4614232E+02  0.7816164E-02  0.1320468E+00
        -11   -1    0    0    0    0  0.00000000000E+00  0.00000000000E+00  0.45593999997E+02  0.45594000000E+02  0.51100000000E-03 0.  1.
         11   -1    0    0    0    0 -0.00000000000E+00 -0.00000000000E+00 -0.45593999997E+02  0.45594000000E+02  0.51100000000E-03 0. -1.
    9900012    2    1    2    0    0  0.69591139273E+01  0.26713493383E+02  0.35595978107E+02  0.46142315937E+02  0.99999833623E+01 0.  0.
         12    1    1    2    0    0 -0.69591139273E+01 -0.26713493383E+02 -0.35595978107E+02  0.45045684063E+02  0.00000000000E+00 0. -1.
         11    1    3    3    0    0  0.38430298485E+01  0.59109835715E+01  0.13965699855E+02  0.15644467965E+02  0.51100000000E-03 0. -1.
        -11    1    3    3    0    0  0.32811810812E+01  0.13997675233E+02  0.12129009956E+02  0.18809942690E+02  0.51100000000E-03 0.  1.
        -12    1    3    3    0    0 -0.16509700239E+00  0.68048345789E+01  0.95012682953E+01  0.11687905282E+02  0.00000000000E+00 0.  1.
</event>
<event>
 7    1  0.1442665E-008  0.4614232E+02  0.7816164E-02  0.1320468E+00
        -11   -1    0    0    0    0  0.00000000000E+00  0.00000000000E+00  0.45593999997E+02  0.45594000000E+02  0.51100000000E-03 0. -1.
         11   -1    0    0    0    0 -0.00000000000E+00 -0.00000000000E+00 -0.45593999997E+02  0.45594000000E+02  0.51100000000E-03 0.  1.
    9900012    2    1    2    0    0 -0.20965559784E+02 -0.26690473902E+02 -0.29617177651E+02  0.46142319783E+02  0.10000018441E+02 0.  0.
         12    1    1    2    0    0  0.20965559784E+02  0.26690473902E+02  0.29617177651E+02  0.45045680217E+02  0.00000000000E+00 0. -1.
         11    1    3    3    0    0  0.16288660641E+00 -0.16969930449E+01 -0.90711984833E+00  0.19311095570E+01  0.51100000000E-03 0. -1.
        -11    1    3    3    0    0 -0.12747409839E+01 -0.45356155574E+01 -0.19092394378E+01  0.50834996363E+01  0.51100000000E-03 0.  1.
        -12    1    3    3    0    0 -0.19853705407E+02 -0.20457865300E+02 -0.26800818365E+02  0.39127710590E+02  0.00000000000E+00 0.  1.
</event>
<event>
 7    1  0.1442665E-008  0.4614232E+02  0.7816164E-02  0.1320468E+00
        -11   -1    0    0    0    0  0.00000000000E+00  0.00000000000E+00  0.45593999997E+02  0.45594000000E+02  0.51100000000E-03 0.  1.
         11   -1    0    0    0    0 -0.00000000000E+00 -0.00000000000E+00 -0.45593999997E+02  0.45594000000E+02  0.51100000000E-03 0. -1.
    9900012    2    1    2    0    0  0.38508614166E+02 -0.74825649633E+00  0.23358938210E+02  0.46142320439E+02  0.10000024422E+02 0.  0.
         12    1    1    2    0    0 -0.38508614166E+02  0.74825649633E+00 -0.23358938210E+02  0.45045679561E+02  0.00000000000E+00 0. -1.
         11    1    3    3    0    0  0.16535289754E+02 -0.11888696527E+01  0.14787462030E+02  0.22214820545E+02  0.51100000000E-03 0. -1.
        -11    1    3    3    0    0  0.19084167785E+02 -0.64497185155E+00  0.63442024542E+01  0.20121390454E+02  0.51100000000E-03 0.  1.
         12    1    3    3    0    0  0.28891566269E+01  0.10855850079E+01  0.22272737263E+01  0.38061094409E+01  0.00000000000E+00 0. -1.
</event>
<event>
 7    1  0.1442665E-008  0.4614232E+02  0.7816164E-02  0.1320468E+00
        -11   -1    0    0    0    0  0.00000000000E+00  0.00000000000E+00  0.45593999997E+02  0.45594000000E+02  0.51100000000E-03 0.  1.
         11   -1    0    0    0    0 -0.00000000000E+00 -0.00000000000E+00 -0.45593999997E+02  0.45594000000E+02  0.51100000000E-03 0. -1.
    9900012    2    1    2    0    0  0.13333760235E+02 -0.37052625217E+01  0.42867183588E+02  0.46142316953E+02  0.99999926340E+01 0.  0.
         12    1    1    2    0    0 -0.13333760235E+02  0.37052625217E+01 -0.42867183588E+02  0.45045683047E+02  0.00000000000E+00 0. -1.
         11    1    3    3    0    0  0.55754488237E+01  0.15706587566E+01  0.18528650595E+02  0.19412972252E+02  0.51100000000E-03 0. -1.
        -11    1    3    3    0    0  0.72813473446E+01 -0.18021543119E+01  0.17639814724E+02  0.19168433506E+02  0.51100000000E-03 0.  1.
         12    1    3    3    0    0  0.47696406714E+00 -0.34737669664E+01  0.66987182685E+01  0.75609111950E+01  0.00000000000E+00 0. -1.
</event>
<event>
 7    1  0.1442665E-008  0.4614232E+02  0.7816164E-02  0.1320468E+00
        -11   -1    0    0    0    0  0.00000000000E+00  0.00000000000E+00  0.45593999997E+02  0.45594000000E+02  0.51100000000E-03 0.  1.
         11   -1    0    0    0    0 -0.00000000000E+00 -0.00000000000E+00 -0.45593999997E+02  0.45594000000E+02  0.51100000000E-03 0. -1.
    9900012    2    1    2    0    0 -0.38174110446E+02 -0.23374599567E+02 -0.50476785997E+01  0.46142315717E+02  0.99999813634E+01 0.  0.
         12    1    1    2    0    0  0.38174110446E+02  0.23374599567E+02  0.50476785997E+01  0.45045684283E+02  0.00000000000E+00 0. -1.
         11    1    3    3    0    0 -0.13147414889E+01 -0.33584386814E+01 -0.17353571640E+01  0.40023893248E+01  0.51100000000E-03 0. -1.
        -11    1    3    3    0    0 -0.26000139051E+02 -0.14712234760E+02 -0.14235278454E+01  0.29907917248E+02  0.51100000000E-03 0.  1.
         12    1    3    3    0    0 -0.10859229906E+02 -0.53039261255E+01 -0.18887935903E+01  0.12232009145E+02  0.00000000000E+00 0. -1.
</event>
<event>
 7    1  0.1442665E-008  0.4614232E+02  0.7816164E-02  0.1320468E+00
        -11   -1    0    0    0    0  0.00000000000E+00  0.00000000000E+00  0.45593999997E+02  0.45594000000E+02  0.51100000000E-03 0.  1.
         11   -1    0    0    0    0 -0.00000000000E+00 -0.00000000000E+00 -0.45593999997E+02  0.45594000000E+02  0.51100000000E-03 0. -1.
    9900012    2    1    2    0    0 -0.26708735653E+02 -0.36198643167E+02 -0.23270678152E+01  0.46142316834E+02  0.99999915439E+01 0.  0.
         12    1    1    2    0    0  0.26708735653E+02  0.36198643167E+02  0.23270678152E+01  0.45045683166E+02  0.00000000000E+00 0. -1.
         11    1    3    3    0    0 -0.36639645815E+01 -0.67351130441E+01  0.29920043325E+01  0.82303386539E+01  0.51100000000E-03 0. -1.
        -11    1    3    3    0    0 -0.20371635498E+02 -0.27116213103E+02 -0.41583044030E+01  0.34169928910E+02  0.51100000000E-03 0.  1.
         12    1    3    3    0    0 -0.26731355734E+01 -0.23473170197E+01 -0.11607677447E+01  0.37420492703E+01  0.00000000000E+00 0. -1.
</event>
<event>
 7    1  0.1442665E-008  0.4614232E+02  0.7816164E-02  0.1320468E+00
        -11   -1    0    0    0    0  0.00000000000E+00  0.00000000000E+00  0.45593999997E+02  0.45594000000E+02  0.51100000000E-03 0. -1.
         11   -1    0    0    0    0 -0.00000000000E+00 -0.00000000000E+00 -0.45593999997E+02  0.45594000000E+02  0.51100000000E-03 0.  1.
    9900012    2    1    2    0    0  0.43940676676E+02 -0.98361322988E+01 -0.12573569515E+01  0.46142317500E+02  0.99999976213E+01 0.  0.
         12    1    1    2    0    0 -0.43940676676E+02  0.98361322988E+01  0.12573569515E+01  0.45045682500E+02  0.00000000000E+00 0. -1.
         11    1    3    3    0    0  0.18950786132E+02 -0.90342420328E+01  0.97268886765E+00  0.21016563659E+02  0.51100000000E-03 0. -1.
        -11    1    3    3    0    0  0.14136964462E+02 -0.99071278969E+00 -0.13322350517E+01  0.14234118397E+02  0.51100000000E-03 0.  1.
         12    1    3    3    0    0  0.10852926082E+02  0.18882252371E+00 -0.89781076753E+00  0.10891635445E+02  0.00000000000E+00 0. -1.
</event>
<event>
 7    1  0.1442665E-008  0.4614232E+02  0.7816164E-02  0.1320468E+00
        -11   -1    0    0    0    0  0.00000000000E+00  0.00000000000E+00  0.45593999997E+02  0.45594000000E+02  0.51100000000E-03 0.  1.
         11   -1    0    0    0    0 -0.00000000000E+00 -0.00000000000E+00 -0.45593999997E+02  0.45594000000E+02  0.51100000000E-03 0. -1.
    9900012    2    1    2    0    0  0.17945008146E+02 -0.51181831598E+01  0.40998713332E+02  0.46142316398E+02  0.99999875746E+01 0.  0.
         12    1    1    2    0    0 -0.17945008146E+02  0.51181831598E+01 -0.40998713332E+02  0.45045683602E+02  0.00000000000E+00 0. -1.
         11    1    3    3    0    0  0.10134456375E+02 -0.51027724998E+01  0.20981033165E+02  0.23852657004E+02  0.51100000000E-03 0.  1.
        -11    1    3    3    0    0  0.33024050129E+01  0.72640981544E+00  0.15499736433E+02  0.15864279997E+02  0.51100000000E-03 0. -1.
         12    1    3    3    0    0  0.45081467583E+01 -0.74182047542E+00  0.45179437341E+01  0.64253793971E+01  0.00000000000E+00 0. -1.
</event>
<event>
 7    1  0.1442665E-008  0.4614232E+02  0.7816164E-02  0.1320468E+00
        -11   -1    0    0    0    0  0.00000000000E+00  0.00000000000E+00  0.45593999997E+02  0.45594000000E+02  0.51100000000E-03 0. -1.
         11   -1    0    0    0    0 -0.00000000000E+00 -0.00000000000E+00 -0.45593999997E+02  0.45594000000E+02  0.51100000000E-03 0.  1.
    9900012    2    1    2    0    0  0.37911796313E+02 -0.36643405601E+01 -0.24049569024E+02  0.46142318057E+02  0.10000002698E+02 0.  0.
         12    1    1    2    0    0 -0.37911796313E+02  0.36643405601E+01  0.24049569024E+02  0.45045681943E+02  0.00000000000E+00 0. -1.
         11    1    3    3    0    0  0.25989383405E+01 -0.23185171805E+01 -0.46505592488E+01  0.58101380364E+01  0.51100000000E-03 0. -1.
        -11    1    3    3    0    0  0.98490918155E+01 -0.92634603446E+00 -0.53139421428E+01  0.11229457152E+02  0.51100000000E-03 0.  1.
         12    1    3    3    0    0  0.25463766157E+02 -0.41947734522E+00 -0.14085067633E+02  0.29102722869E+02  0.00000000000E+00 0. -1.
</event>
<event>
 7    1  0.1442665E-008  0.4614232E+02  0.7816164E-02  0.1320468E+00
        -11   -1    0    0    0    0  0.00000000000E+00  0.00000000000E+00  0.45593999997E+02  0.45594000000E+02  0.51100000000E-03 0.  1.
         11   -1    0    0    0    0 -0.00000000000E+00 -0.00000000000E+00 -0.45593999997E+02  0.45594000000E+02  0.51100000000E-03 0. -1.
    9900012    2    1    2    0    0 -0.39759948048E+02 -0.15940930539E+02  0.13933649090E+02  0.46142319717E+02  0.10000017831E+02 0.  0.
         12    1    1    2    0    0  0.39759948048E+02  0.15940930539E+02 -0.13933649090E+02  0.45045680283E+02  0.00000000000E+00 0. -1.
         11    1    3    3    0    0 -0.26679465306E+01 -0.22951648204E+01 -0.21390856063E+00  0.35258300266E+01  0.51100000000E-03 0. -1.
        -11    1    3    3    0    0 -0.34401713643E+02 -0.14505634022E+02  0.13630357268E+02  0.39745162718E+02  0.51100000000E-03 0.  1.
        -12    1    3    3    0    0 -0.26902878743E+01  0.85986830292E+00  0.51720038281E+00  0.28713269722E+01  0.00000000000E+00 0.  1.
</event>
<event>
 7    1  0.1442665E-008  0.4614232E+02  0.7816164E-02  0.1320468E+00
        -11   -1    0    0    0    0  0.00000000000E+00  0.00000000000E+00  0.45593999997E+02  0.45594000000E+02  0.51100000000E-03 0.  1.
         11   -1    0    0    0    0 -0.00000000000E+00 -0.00000000000E+00 -0.45593999997E+02  0.45594000000E+02  0.51100000000E-03 0. -1.
    9900012    2    1    2    0    0 -0.24296822085E+02  0.76753980746E+01  0.37146549134E+02  0.46142318614E+02  0.10000007776E+02 0.  0.
         12    1    1    2    0    0  0.24296822085E+02 -0.76753980746E+01 -0.37146549134E+02  0.45045681386E+02  0.00000000000E+00 0. -1.
         11    1    3    3    0    0 -0.11177730318E+02  0.66737528661E+01  0.15540545077E+02  0.20272867926E+02  0.51100000000E-03 0. -1.
        -11    1    3    3    0    0 -0.30989351257E+01 -0.19891076975E+01  0.69515870832E+01  0.78666709339E+01  0.51100000000E-03 0.  1.
        -12    1    3    3    0    0 -0.10020156641E+02  0.29907529060E+01  0.14654416974E+02  0.18002779754E+02  0.00000000000E+00 0.  1.
</event>
<event>
 7    1  0.1442665E-008  0.4614232E+02  0.7816164E-02  0.1320468E+00
        -11   -1    0    0    0    0  0.00000000000E+00  0.00000000000E+00  0.45593999997E+02  0.45594000000E+02  0.51100000000E-03 0.  1.
         11   -1    0    0    0    0 -0.00000000000E+00 -0.00000000000E+00 -0.45593999997E+02  0.45594000000E+02  0.51100000000E-03 0. -1.
    9900012    2    1    2    0    0 -0.28775629085E+02 -0.29250581017E+02  0.18587097341E+02  0.46142317559E+02  0.99999981539E+01 0.  0.
         12    1    1    2    0    0  0.28775629085E+02  0.29250581017E+02 -0.18587097341E+02  0.45045682441E+02  0.00000000000E+00 0. -1.
         11    1    3    3    0    0 -0.93550336875E+01 -0.45932407453E+01  0.22992934632E+01  0.10672453632E+02  0.51100000000E-03 0. -1.
        -11    1    3    3    0    0 -0.11355222303E+02 -0.14675397536E+02  0.80945145549E+01  0.20244246900E+02  0.51100000000E-03 0.  1.
        -12    1    3    3    0    0 -0.80653730940E+01 -0.99819427355E+01  0.81932893225E+01  0.15225617027E+02  0.00000000000E+00 0.  1.
</event>
<event>
 7    1  0.1442665E-008  0.4614232E+02  0.7816164E-02  0.1320468E+00
        -11   -1    0    0    0    0  0.00000000000E+00  0.00000000000E+00  0.45593999997E+02  0.45594000000E+02  0.51100000000E-03 0. -1.
         11   -1    0    0    0    0 -0.00000000000E+00 -0.00000000000E+00 -0.45593999997E+02  0.45594000000E+02  0.51100000000E-03 0.  1.
    9900012    2    1    2    0    0  0.42139933785E+00  0.91163870498E+01 -0.44111531208E+02  0.46142320121E+02  0.10000021520E+02 0.  0.
         12    1    1    2    0    0 -0.42139933785E+00 -0.91163870498E+01  0.44111531208E+02  0.45045679879E+02  0.00000000000E+00 0. -1.
         11    1    3    3    0    0  0.25302616809E+01  0.77482007106E+01 -0.30955283503E+02  0.32010411048E+02  0.51100000000E-03 0. -1.
        -11    1    3    3    0    0 -0.16488678836E+01  0.98137147505E+00 -0.13360155514E+02  0.13497244566E+02  0.51100000000E-03 0.  1.
         12    1    3    3    0    0 -0.45999445939E+00  0.38681486413E+00  0.20390780893E+00  0.63466450691E+00  0.00000000000E+00 0. -1.
</event>
<event>
 7    1  0.1442665E-008  0.4614232E+02  0.7816164E-02  0.1320468E+00
        -11   -1    0    0    0    0  0.00000000000E+00  0.00000000000E+00  0.45593999997E+02  0.45594000000E+02  0.51100000000E-03 0.  1.
         11   -1    0    0    0    0 -0.00000000000E+00 -0.00000000000E+00 -0.45593999997E+02  0.45594000000E+02  0.51100000000E-03 0. -1.
    9900012    2    1    2    0    0  0.11341367811E+02  0.21030062906E+02  0.38186692408E+02  0.46142316004E+02  0.99999839729E+01 0.  0.
         12    1    1    2    0    0 -0.11341367811E+02 -0.21030062906E+02 -0.38186692408E+02  0.45045683996E+02  0.00000000000E+00 0. -1.
         11    1    3    3    0    0  0.29726784353E+01  0.16907137680E+01  0.75415245527E+01  0.82806958020E+01  0.51100000000E-03 0. -1.
        -11    1    3    3    0    0  0.83117908956E+01  0.18463057646E+02  0.30903868215E+02  0.36946169442E+02  0.51100000000E-03 0.  1.
         12    1    3    3    0    0  0.56898480281E-01  0.87629149224E+00 -0.25870036012E+00  0.91545075933E+00  0.00000000000E+00 0. -1.
</event>
<event>
 7    1  0.1442665E-008  0.4614232E+02  0.7816164E-02  0.1320468E+00
        -11   -1    0    0    0    0  0.00000000000E+00  0.00000000000E+00  0.45593999997E+02  0.45594000000E+02  0.51100000000E-03 0.  1.
         11   -1    0    0    0    0 -0.00000000000E+00 -0.00000000000E+00 -0.45593999997E+02  0.45594000000E+02  0.51100000000E-03 0. -1.
    9900012    2    1    2    0    0 -0.28503492721E+02 -0.23567335515E+02 -0.25714686683E+02  0.46142317501E+02  0.99999976306E+01 0.  0.
         12    1    1    2    0    0  0.28503492721E+02  0.23567335515E+02  0.25714686683E+02  0.45045682499E+02  0.00000000000E+00 0. -1.
         11    1    3    3    0    0 -0.88330310669E+01 -0.21834122571E+01 -0.53871696994E+01  0.10574087410E+02  0.51100000000E-03 0. -1.
        -11    1    3    3    0    0 -0.17163584557E+02 -0.18325679117E+02 -0.16367502839E+02  0.29971891823E+02  0.51100000000E-03 0.  1.
         12    1    3    3    0    0 -0.25068770972E+01 -0.30582441405E+01 -0.39600141439E+01  0.55963382692E+01  0.00000000000E+00 0. -1.
</event>
<event>
 7    1  0.1442665E-008  0.4614232E+02  0.7816164E-02  0.1320468E+00
        -11   -1    0    0    0    0  0.00000000000E+00  0.00000000000E+00  0.45593999997E+02  0.45594000000E+02  0.51100000000E-03 0. -1.
         11   -1    0    0    0    0 -0.00000000000E+00 -0.00000000000E+00 -0.45593999997E+02  0.45594000000E+02  0.51100000000E-03 0.  1.
    9900012    2    1    2    0    0  0.25028654408E+02 -0.21712491242E+02  0.30516351315E+02  0.46142317465E+02  0.99999973020E+01 0.  0.
         12    1    1    2    0    0 -0.25028654408E+02  0.21712491242E+02 -0.30516351315E+02  0.45045682535E+02  0.00000000000E+00 0. -1.
         11    1    3    3    0    0  0.11142775449E+02 -0.12825084340E+02  0.20547140113E+02  0.26661380312E+02  0.51100000000E-03 0. -1.
        -11    1    3    3    0    0  0.12732145654E+02 -0.88361653235E+01  0.87323773810E+01  0.17788753907E+02  0.51100000000E-03 0.  1.
        -12    1    3    3    0    0  0.11537333054E+01 -0.51241578566E-01  0.12368338216E+01  0.16921832470E+01  0.00000000000E+00 0.  1.
</event>
<event>
 7    1  0.1442665E-008  0.4614232E+02  0.7816164E-02  0.1320468E+00
        -11   -1    0    0    0    0  0.00000000000E+00  0.00000000000E+00  0.45593999997E+02  0.45594000000E+02  0.51100000000E-03 0. -1.
         11   -1    0    0    0    0 -0.00000000000E+00 -0.00000000000E+00 -0.45593999997E+02  0.45594000000E+02  0.51100000000E-03 0.  1.
    9900012    2    1    2    0    0 -0.39865023490E+02  0.19053997452E+02  0.87657629829E+01  0.46142317439E+02  0.99999970624E+01 0.  0.
         12    1    1    2    0    0  0.39865023490E+02 -0.19053997452E+02 -0.87657629829E+01  0.45045682561E+02  0.00000000000E+00 0. -1.
         11    1    3    3    0    0 -0.12735222423E+02  0.74114108877E+01  0.62868130547E+01  0.16019953813E+02  0.51100000000E-03 0. -1.
        -11    1    3    3    0    0 -0.26189617792E+02  0.12046097140E+02  0.29843686768E+01  0.28981217936E+02  0.51100000000E-03 0.  1.
        -12    1    3    3    0    0 -0.94018327475E+00 -0.40351057632E+00 -0.50541874853E+00  0.11411456904E+01  0.00000000000E+00 0.  1.
</event>
<event>
 7    1  0.1442665E-008  0.4614232E+02  0.7816164E-02  0.1320468E+00
        -11   -1    0    0    0    0  0.00000000000E+00  0.00000000000E+00  0.45593999997E+02  0.45594000000E+02  0.51100000000E-03 0.  1.
         11   -1    0    0    0    0 -0.00000000000E+00 -0.00000000000E+00 -0.45593999997E+02  0.45594000000E+02  0.51100000000E-03 0. -1.
    9900012    2    1    2    0    0 -0.42994479039E+02  0.18078318669E+01  0.13316156507E+02  0.46142317543E+02  0.99999980127E+01 0.  0.
         12    1    1    2    0    0  0.42994479039E+02 -0.18078318669E+01 -0.13316156507E+02  0.45045682457E+02  0.00000000000E+00 0. -1.
         11    1    3    3    0    0 -0.23131160821E+01 -0.17642676066E+01  0.24577366503E+01  0.38083613143E+01  0.51100000000E-03 0. -1.
        -11    1    3    3    0    0 -0.19103044397E+02  0.21010925116E+01  0.38651982744E+01  0.19603077640E+02  0.51100000000E-03 0.  1.
         12    1    3    3    0    0 -0.21578318559E+02  0.14710069619E+01  0.69932215828E+01  0.22730878589E+02  0.00000000000E+00 0. -1.
</event>
<event>
 7    1  0.1442665E-008  0.4614232E+02  0.7816164E-02  0.1320468E+00
        -11   -1    0    0    0    0  0.00000000000E+00  0.00000000000E+00  0.45593999997E+02  0.45594000000E+02  0.51100000000E-03 0. -1.
         11   -1    0    0    0    0 -0.00000000000E+00 -0.00000000000E+00 -0.45593999997E+02  0.45594000000E+02  0.51100000000E-03 0.  1.
    9900012    2    1    2    0    0 -0.32108115425E+02 -0.30948426111E+02 -0.63543176371E+01  0.46142317548E+02  0.99999980587E+01 0.  0.
         12    1    1    2    0    0  0.32108115425E+02  0.30948426111E+02  0.63543176371E+01  0.45045682452E+02  0.00000000000E+00 0. -1.
         11    1    3    3    0    0 -0.63078595009E+00 -0.21302989755E+00 -0.26025120450E+00  0.71484515991E+00  0.51100000000E-03 0. -1.
        -11    1    3    3    0    0 -0.13359160612E+02 -0.18499257811E+02 -0.34508251784E+00  0.22821235594E+02  0.51100000000E-03 0.  1.
        -12    1    3    3    0    0 -0.18118168864E+02 -0.12236138402E+02 -0.57489839147E+01  0.22606236795E+02  0.00000000000E+00 0.  1.
</event>
<event>
 7    1  0.1442665E-008  0.4614231E+02  0.7816164E-02  0.1320468E+00
        -11   -1    0    0    0    0  0.00000000000E+00  0.00000000000E+00  0.45593999997E+02  0.45594000000E+02  0.51100000000E-03 0. -1.
         11   -1    0    0    0    0 -0.00000000000E+00 -0.00000000000E+00 -0.45593999997E+02  0.45594000000E+02  0.51100000000E-03 0.  1.
    9900012    2    1    2    0    0  0.42772696056E+02 -0.85294544453E+01 -0.11263159619E+02  0.46142313351E+02  0.99999597894E+01 0.  0.
         12    1    1    2    0    0 -0.42772696056E+02  0.85294544453E+01  0.11263159619E+02  0.45045686649E+02  0.00000000000E+00 0. -1.
         11    1    3    3    0    0  0.32823050197E+01 -0.64952552714E+00 -0.31393790648E+01  0.45881489542E+01  0.51100000000E-03 0.  1.
        -11    1    3    3    0    0  0.29356278229E+02 -0.30272556095E+01 -0.56123460835E+01  0.30040868443E+02  0.51100000000E-03 0. -1.
         12    1    3    3    0    0  0.10134112808E+02 -0.48526733086E+01 -0.25114344707E+01  0.11513295955E+02  0.00000000000E+00 0. -1.
</event>
<event>
 7    1  0.1442665E-008  0.4614232E+02  0.7816164E-02  0.1320468E+00
        -11   -1    0    0    0    0  0.00000000000E+00  0.00000000000E+00  0.45593999997E+02  0.45594000000E+02  0.51100000000E-03 0. -1.
         11   -1    0    0    0    0 -0.00000000000E+00 -0.00000000000E+00 -0.45593999997E+02  0.45594000000E+02  0.51100000000E-03 0.  1.
    9900012    2    1    2    0    0 -0.25023029294E+02 -0.91197382718E+01 -0.36328939259E+02  0.46142318200E+02  0.10000003999E+02 0.  0.
         12    1    1    2    0    0  0.25023029294E+02  0.91197382718E+01  0.36328939259E+02  0.45045681800E+02  0.00000000000E+00 0. -1.
         11    1    3    3    0    0 -0.31669206021E+01 -0.19701908541E+01 -0.11721300830E+02  0.12300403714E+02  0.51100000000E-03 0. -1.
        -11    1    3    3    0    0 -0.16220368653E+02 -0.48548281536E+01 -0.20030188420E+02  0.26227431518E+02  0.51100000000E-03 0.  1.
         12    1    3    3    0    0 -0.56357400391E+01 -0.22947192641E+01 -0.45774500082E+01  0.76144829678E+01  0.00000000000E+00 0. -1.
</event>
<event>
 7    1  0.1442665E-008  0.4614232E+02  0.7816164E-02  0.1320468E+00
        -11   -1    0    0    0    0  0.00000000000E+00  0.00000000000E+00  0.45593999997E+02  0.45594000000E+02  0.51100000000E-03 0.  1.
         11   -1    0    0    0    0 -0.00000000000E+00 -0.00000000000E+00 -0.45593999997E+02  0.45594000000E+02  0.51100000000E-03 0. -1.
    9900012    2    1    2    0    0 -0.14592948239E+02  0.36534673496E+02  0.21940304263E+02  0.46142318110E+02  0.10000003181E+02 0.  0.
         12    1    1    2    0    0  0.14592948239E+02 -0.36534673496E+02 -0.21940304263E+02  0.45045681890E+02  0.00000000000E+00 0. -1.
         11    1    3    3    0    0 -0.63193724758E+01  0.56296600427E+01  0.43596079575E+01  0.95201744988E+01  0.51100000000E-03 0. -1.
        -11    1    3    3    0    0 -0.63086354089E+01  0.23867581005E+02  0.12129354217E+02  0.27506027298E+02  0.51100000000E-03 0.  1.
         12    1    3    3    0    0 -0.19649403544E+01  0.70374324489E+01  0.54513420885E+01  0.91161163131E+01  0.00000000000E+00 0. -1.
</event>
<event>
 7    1  0.1442665E-008  0.4614232E+02  0.7816164E-02  0.1320468E+00
        -11   -1    0    0    0    0  0.00000000000E+00  0.00000000000E+00  0.45593999997E+02  0.45594000000E+02  0.51100000000E-03 0.  1.
         11   -1    0    0    0    0 -0.00000000000E+00 -0.00000000000E+00 -0.45593999997E+02  0.45594000000E+02  0.51100000000E-03 0. -1.
    9900012    2    1    2    0    0  0.64769405428E+01 -0.29178808067E+02  0.33701037154E+02  0.46142317584E+02  0.99999983868E+01 0.  0.
         12    1    1    2    0    0 -0.64769405428E+01  0.29178808067E+02 -0.33701037154E+02  0.45045682416E+02  0.00000000000E+00 0. -1.
         11    1    3    3    0    0 -0.70210137622E+00 -0.23595993288E+01 -0.20424012957E-01  0.24619246000E+01  0.51100000000E-03 0. -1.
        -11    1    3    3    0    0  0.34137517049E+01 -0.12589776801E+02  0.15965411705E+02  0.20616754152E+02  0.51100000000E-03 0.  1.
         12    1    3    3    0    0  0.37652902141E+01 -0.14229431937E+02  0.17756049463E+02  0.23063638832E+02  0.00000000000E+00 0. -1.
</event>
<event>
 7    1  0.1442665E-008  0.4614232E+02  0.7816164E-02  0.1320468E+00
        -11   -1    0    0    0    0  0.00000000000E+00  0.00000000000E+00  0.45593999997E+02  0.45594000000E+02  0.51100000000E-03 0.  1.
         11   -1    0    0    0    0 -0.00000000000E+00 -0.00000000000E+00 -0.45593999997E+02  0.45594000000E+02  0.51100000000E-03 0. -1.
    9900012    2    1    2    0    0  0.37021947020E+02  0.25149059052E+01  0.25537506581E+02  0.46142317018E+02  0.99999932265E+01 0.  0.
         12    1    1    2    0    0 -0.37021947020E+02 -0.25149059052E+01 -0.25537506581E+02  0.45045682982E+02  0.00000000000E+00 0. -1.
         11    1    3    3    0    0  0.13855880870E+02 -0.16091081742E+01  0.62286368933E+01  0.15276471504E+02  0.51100000000E-03 0. -1.
        -11    1    3    3    0    0  0.17728096509E+01  0.14270218106E+01  0.69269350848E+00  0.23788799600E+01  0.51100000000E-03 0.  1.
        -12    1    3    3    0    0  0.21393256500E+02  0.26969922689E+01  0.18616176180E+02  0.28486965555E+02  0.00000000000E+00 0.  1.
</event>
<event>
 7    1  0.1442665E-008  0.4614232E+02  0.7816164E-02  0.1320468E+00
        -11   -1    0    0    0    0  0.00000000000E+00  0.00000000000E+00  0.45593999997E+02  0.45594000000E+02  0.51100000000E-03 0.  1.
         11   -1    0    0    0    0 -0.00000000000E+00 -0.00000000000E+00 -0.45593999997E+02  0.45594000000E+02  0.51100000000E-03 0. -1.
    9900012    2    1    2    0    0  0.36138527888E+01  0.84723641799E+01  0.44093901557E+02  0.46142322724E+02  0.10000045253E+02 0.  0.
         12    1    1    2    0    0 -0.36138527888E+01 -0.84723641799E+01 -0.44093901557E+02  0.45045677276E+02  0.00000000000E+00 0. -1.
         11    1    3    3    0    0 -0.20406623279E+01  0.63221596224E+01  0.18099510416E+02  0.19280204423E+02  0.51100000000E-03 0. -1.
        -11    1    3    3    0    0  0.56322868155E+01  0.12248004826E+01  0.23633949604E+02  0.24326659555E+02  0.51100000000E-03 0.  1.
        -12    1    3    3    0    0  0.22228301225E-01  0.92540407493E+00  0.23604415372E+01  0.25354587454E+01  0.00000000000E+00 0.  1.
</event>
<event>
 7    1  0.1442665E-008  0.4614232E+02  0.7816164E-02  0.1320468E+00
        -11   -1    0    0    0    0  0.00000000000E+00  0.00000000000E+00  0.45593999997E+02  0.45594000000E+02  0.51100000000E-03 0.  1.
         11   -1    0    0    0    0 -0.00000000000E+00 -0.00000000000E+00 -0.45593999997E+02  0.45594000000E+02  0.51100000000E-03 0. -1.
    9900012    2    1    2    0    0  0.25602053789E+02 -0.28317627263E+02  0.23911511449E+02  0.46142317057E+02  0.99999935768E+01 0.  0.
         12    1    1    2    0    0 -0.25602053789E+02  0.28317627263E+02 -0.23911511449E+02  0.45045682943E+02  0.00000000000E+00 0. -1.
         11    1    3    3    0    0  0.31366448384E+01 -0.37593911930E+01  0.56847434124E+00  0.49289680788E+01  0.51100000000E-03 0. -1.
        -11    1    3    3    0    0  0.10251397826E+02 -0.10162478924E+02  0.14155228973E+02  0.20217261011E+02  0.51100000000E-03 0.  1.
        -12    1    3    3    0    0  0.12214011125E+02 -0.14395757146E+02  0.91878081352E+01  0.20996087966E+02  0.00000000000E+00 0.  1.
</event>
<event>
 7    1  0.1442665E-008  0.4614232E+02  0.7816164E-02  0.1320468E+00
        -11   -1    0    0    0    0  0.00000000000E+00  0.00000000000E+00  0.45593999997E+02  0.45594000000E+02  0.51100000000E-03 0.  1.
         11   -1    0    0    0    0 -0.00000000000E+00 -0.00000000000E+00 -0.45593999997E+02  0.45594000000E+02  0.51100000000E-03 0. -1.
    9900012    2    1    2    0    0  0.31403545159E+02  0.23154238213E+02  0.22512477832E+02  0.46142322583E+02  0.10000043973E+02 0.  0.
         12    1    1    2    0    0 -0.31403545159E+02 -0.23154238213E+02 -0.22512477832E+02  0.45045677417E+02  0.00000000000E+00 0. -1.
         11    1    3    3    0    0  0.10901764486E+02  0.54330048012E+01  0.73300488359E+01  0.14216034126E+02  0.51100000000E-03 0. -1.
        -11    1    3    3    0    0  0.42811606040E+01  0.70221712422E+01  0.20581084043E+01  0.84779145748E+01  0.51100000000E-03 0.  1.
         12    1    3    3    0    0  0.16220620069E+02  0.10699062169E+02  0.13124320592E+02  0.23448373882E+02  0.00000000000E+00 0. -1.
</event>
<event>
 7    1  0.1442665E-008  0.4614232E+02  0.7816164E-02  0.1320468E+00
        -11   -1    0    0    0    0  0.00000000000E+00  0.00000000000E+00  0.45593999997E+02  0.45594000000E+02  0.51100000000E-03 0.  1.
         11   -1    0    0    0    0 -0.00000000000E+00 -0.00000000000E+00 -0.45593999997E+02  0.45594000000E+02  0.51100000000E-03 0. -1.
    9900012    2    1    2    0    0  0.33535051148E+02  0.12261712148E+01  0.30050130404E+02  0.46142317758E+02  0.99999999676E+01 0.  0.
         12    1    1    2    0    0 -0.33535051148E+02 -0.12261712148E+01 -0.30050130404E+02  0.45045682242E+02  0.00000000000E+00 0. -1.
         11    1    3    3    0    0  0.10315600873E+01 -0.24339242470E+00 -0.55914432978E+00  0.11983316439E+01  0.51100000000E-03 0. -1.
        -11    1    3    3    0    0  0.17252200259E+02  0.13646336422E+01  0.12979457434E+02  0.21632543870E+02  0.51100000000E-03 0.  1.
        -12    1    3    3    0    0  0.15251290802E+02  0.10492999723E+00  0.17629817300E+02  0.23311442244E+02  0.00000000000E+00 0.  1.
</event>
<event>
 7    1  0.1442665E-008  0.4614232E+02  0.7816164E-02  0.1320468E+00
        -11   -1    0    0    0    0  0.00000000000E+00  0.00000000000E+00  0.45593999997E+02  0.45594000000E+02  0.51100000000E-03 0.  1.
         11   -1    0    0    0    0 -0.00000000000E+00 -0.00000000000E+00 -0.45593999997E+02  0.45594000000E+02  0.51100000000E-03 0. -1.
    9900012    2    1    2    0    0  0.21431929629E+02 -0.21601945120E+02  0.33213579420E+02  0.46142317648E+02  0.99999989721E+01 0.  0.
         12    1    1    2    0    0 -0.21431929629E+02  0.21601945120E+02 -0.33213579420E+02  0.45045682352E+02  0.00000000000E+00 0. -1.
         11    1    3    3    0    0  0.26867849546E+01 -0.69320307347E+01  0.50813903840E+01  0.90051314258E+01  0.51100000000E-03 0. -1.
        -11    1    3    3    0    0  0.15628073696E+02 -0.14144128941E+02  0.24692690027E+02  0.32465705167E+02  0.51100000000E-03 0.  1.
        -12    1    3    3    0    0  0.31170709791E+01 -0.52578544473E+00  0.34394990092E+01  0.46714810560E+01  0.00000000000E+00 0.  1.
</event>
<event>
 7    1  0.1442665E-008  0.4614233E+02  0.7816164E-02  0.1320468E+00
        -11   -1    0    0    0    0  0.00000000000E+00  0.00000000000E+00  0.45593999997E+02  0.45594000000E+02  0.51100000000E-03 0.  1.
         11   -1    0    0    0    0 -0.00000000000E+00 -0.00000000000E+00 -0.45593999997E+02  0.45594000000E+02  0.51100000000E-03 0. -1.
    9900012    2    1    2    0    0  0.19178897148E+01  0.38926008847E+02  0.22587612031E+02  0.46142326701E+02  0.10000081518E+02 0.  0.
         12    1    1    2    0    0 -0.19178897148E+01 -0.38926008847E+02 -0.22587612031E+02  0.45045673299E+02  0.00000000000E+00 0. -1.
         11    1    3    3    0    0  0.26335978127E+01  0.20679413439E+02  0.10649639785E+02  0.23409160716E+02  0.51100000000E-03 0. -1.
        -11    1    3    3    0    0  0.23870590549E+01  0.36011089633E+01  0.19749497968E+01  0.47504172088E+01  0.51100000000E-03 0.  1.
         12    1    3    3    0    0 -0.31027671528E+01  0.14645486445E+02  0.99630224488E+01  0.17982748776E+02  0.00000000000E+00 0. -1.
</event>
<event>
 7    1  0.1442665E-008  0.4614232E+02  0.7816164E-02  0.1320468E+00
        -11   -1    0    0    0    0  0.00000000000E+00  0.00000000000E+00  0.45593999997E+02  0.45594000000E+02  0.51100000000E-03 0. -1.
         11   -1    0    0    0    0 -0.00000000000E+00 -0.00000000000E+00 -0.45593999997E+02  0.45594000000E+02  0.51100000000E-03 0.  1.
    9900012    2    1    2    0    0 -0.29020859806E+02 -0.31014008897E+02 -0.15001147756E+02  0.46142317790E+02  0.10000000268E+02 0.  0.
         12    1    1    2    0    0  0.29020859806E+02  0.31014008897E+02  0.15001147756E+02  0.45045682210E+02  0.00000000000E+00 0. -1.
         11    1    3    3    0    0 -0.26894617544E+01 -0.96324073814E+00 -0.61222132571E+00  0.29216181237E+01  0.51100000000E-03 0.  1.
        -11    1    3    3    0    0 -0.87094281518E+01 -0.75895141047E+01 -0.77468179410E+01  0.13909279332E+02  0.51100000000E-03 0. -1.
        -12    1    3    3    0    0 -0.17621969899E+02 -0.22461254054E+02 -0.66421084889E+01  0.29311420334E+02  0.00000000000E+00 0.  1.
</event>
<event>
 7    1  0.1442665E-008  0.4614232E+02  0.7816164E-02  0.1320468E+00
        -11   -1    0    0    0    0  0.00000000000E+00  0.00000000000E+00  0.45593999997E+02  0.45594000000E+02  0.51100000000E-03 0.  1.
         11   -1    0    0    0    0 -0.00000000000E+00 -0.00000000000E+00 -0.45593999997E+02  0.45594000000E+02  0.51100000000E-03 0. -1.
    9900012    2    1    2    0    0 -0.44363919376E+02  0.30445438144E+01  0.71893714083E+01  0.46142315960E+02  0.99999835735E+01 0.  0.
         12    1    1    2    0    0  0.44363919376E+02 -0.30445438144E+01 -0.71893714083E+01  0.45045684040E+02  0.00000000000E+00 0. -1.
         11    1    3    3    0    0 -0.20785387678E+02  0.56580892963E+01  0.19306836601E+01  0.21628080245E+02  0.51100000000E-03 0. -1.
        -11    1    3    3    0    0 -0.17783677293E+02 -0.33172186085E+01  0.35924755398E+01  0.18443670950E+02  0.51100000000E-03 0.  1.
         12    1    3    3    0    0 -0.57948544046E+01  0.70367312659E+00  0.16662122084E+01  0.60705647648E+01  0.00000000000E+00 0. -1.
</event>
<event>
 7    1  0.1442665E-008  0.4614232E+02  0.7816164E-02  0.1320468E+00
        -11   -1    0    0    0    0  0.00000000000E+00  0.00000000000E+00  0.45593999997E+02  0.45594000000E+02  0.51100000000E-03 0.  1.
         11   -1    0    0    0    0 -0.00000000000E+00 -0.00000000000E+00 -0.45593999997E+02  0.45594000000E+02  0.51100000000E-03 0. -1.
    9900012    2    1    2    0    0 -0.44214377471E+02  0.78502825724E+01  0.35461520509E+01  0.46142319786E+02  0.10000018465E+02 0.  0.
         12    1    1    2    0    0  0.44214377471E+02 -0.78502825724E+01 -0.35461520509E+01  0.45045680214E+02  0.00000000000E+00 0. -1.
         11    1    3    3    0    0 -0.65797387810E+01 -0.37551890302E+00  0.21755753777E+01  0.69402525428E+01  0.51100000000E-03 0. -1.
        -11    1    3    3    0    0 -0.56985726501E+01  0.45662370459E+00 -0.22333025480E+01  0.61375790006E+01  0.51100000000E-03 0.  1.
        -12    1    3    3    0    0 -0.31936066039E+02  0.77691777708E+01  0.36038792212E+01  0.33064488243E+02  0.00000000000E+00 0.  1.
</event>
<event>
 7    1  0.1442665E-008  0.4614232E+02  0.7816164E-02  0.1320468E+00
        -11   -1    0    0    0    0  0.00000000000E+00  0.00000000000E+00  0.45593999997E+02  0.45594000000E+02  0.51100000000E-03 0.  1.
         11   -1    0    0    0    0 -0.00000000000E+00 -0.00000000000E+00 -0.45593999997E+02  0.45594000000E+02  0.51100000000E-03 0. -1.
    9900012    2    1    2    0    0  0.15971443746E+02  0.41928494497E+02  0.40034845591E+01  0.46142317025E+02  0.99999932837E+01 0.  0.
         12    1    1    2    0    0 -0.15971443746E+02 -0.41928494497E+02 -0.40034845591E+01  0.45045682975E+02  0.00000000000E+00 0. -1.
         11    1    3    3    0    0  0.11469857603E+02  0.19130595666E+02  0.14356967409E+01  0.22351701263E+02  0.51100000000E-03 0. -1.
        -11    1    3    3    0    0  0.45213283345E+01  0.22695855464E+02  0.30096312897E+01  0.23336712406E+02  0.51100000000E-03 0.  1.
         12    1    3    3    0    0 -0.19742191162E-01  0.10204336675E+00 -0.44184347151E+00  0.45390335549E+00  0.00000000000E+00 0. -1.
</event>
<event>
 7    1  0.1442665E-008  0.4614232E+02  0.7816164E-02  0.1320468E+00
        -11   -1    0    0    0    0  0.00000000000E+00  0.00000000000E+00  0.45593999997E+02  0.45594000000E+02  0.51100000000E-03 0.  1.
         11   -1    0    0    0    0 -0.00000000000E+00 -0.00000000000E+00 -0.45593999997E+02  0.45594000000E+02  0.51100000000E-03 0. -1.
    9900012    2    1    2    0    0  0.16501260450E+02  0.25402286790E+02  0.33339851819E+02  0.46142317744E+02  0.99999998424E+01 0.  0.
         12    1    1    2    0    0 -0.16501260450E+02 -0.25402286790E+02 -0.33339851819E+02  0.45045682256E+02  0.00000000000E+00 0. -1.
         11    1    3    3    0    0  0.10911930000E+02  0.18689178932E+02  0.21378969525E+02  0.30420650284E+02  0.51100000000E-03 0. -1.
        -11    1    3    3    0    0  0.23301114167E+01  0.54154817291E+01  0.10236267315E+02  0.11812621656E+02  0.51100000000E-03 0.  1.
         12    1    3    3    0    0  0.32592190327E+01  0.12976261290E+01  0.17246149792E+01  0.39090458043E+01  0.00000000000E+00 0. -1.
</event>
<event>
 7    1  0.1442665E-008  0.4614232E+02  0.7816164E-02  0.1320468E+00
        -11   -1    0    0    0    0  0.00000000000E+00  0.00000000000E+00  0.45593999997E+02  0.45594000000E+02  0.51100000000E-03 0. -1.
         11   -1    0    0    0    0 -0.00000000000E+00 -0.00000000000E+00 -0.45593999997E+02  0.45594000000E+02  0.51100000000E-03 0.  1.
    9900012    2    1    2    0    0 -0.39347853628E+01 -0.13365504327E+02 -0.42836833306E+02  0.46142317305E+02  0.99999958435E+01 0.  0.
         12    1    1    2    0    0  0.39347853628E+01  0.13365504327E+02  0.42836833306E+02  0.45045682695E+02  0.00000000000E+00 0. -1.
         11    1    3    3    0    0 -0.30177652068E+01 -0.35970685714E+00 -0.94547110597E+01  0.99311558919E+01  0.51100000000E-03 0. -1.
        -11    1    3    3    0    0 -0.21761574046E+01 -0.10938096514E+02 -0.30330429752E+02  0.32315825622E+02  0.51100000000E-03 0.  1.
         12    1    3    3    0    0  0.12591372486E+01 -0.20677009555E+01 -0.30516924942E+01  0.38953357919E+01  0.00000000000E+00 0. -1.
</event>
<event>
 7    1  0.1442665E-008  0.4614232E+02  0.7816164E-02  0.1320468E+00
        -11   -1    0    0    0    0  0.00000000000E+00  0.00000000000E+00  0.45593999997E+02  0.45594000000E+02  0.51100000000E-03 0. -1.
         11   -1    0    0    0    0 -0.00000000000E+00 -0.00000000000E+00 -0.45593999997E+02  0.45594000000E+02  0.51100000000E-03 0.  1.
    9900012    2    1    2    0    0 -0.32695798037E+02  0.26207305080E+02 -0.16531041553E+02  0.46142318923E+02  0.10000010598E+02 0.  0.
         12    1    1    2    0    0  0.32695798037E+02 -0.26207305080E+02  0.16531041553E+02  0.45045681077E+02  0.00000000000E+00 0. -1.
         11    1    3    3    0    0 -0.23283663501E+02  0.20273482534E+02 -0.88645515228E+01  0.32120450714E+02  0.51100000000E-03 0. -1.
        -11    1    3    3    0    0 -0.50354615109E+01  0.53127253203E+01 -0.47718315472E+01  0.87379230674E+01  0.51100000000E-03 0.  1.
         12    1    3    3    0    0 -0.43766730250E+01  0.62109722578E+00 -0.28946584832E+01  0.52839451423E+01  0.00000000000E+00 0. -1.
</event>
<event>
 7    1  0.1442665E-008  0.4614232E+02  0.7816164E-02  0.1320468E+00
        -11   -1    0    0    0    0  0.00000000000E+00  0.00000000000E+00  0.45593999997E+02  0.45594000000E+02  0.51100000000E-03 0. -1.
         11   -1    0    0    0    0 -0.00000000000E+00 -0.00000000000E+00 -0.45593999997E+02  0.45594000000E+02  0.51100000000E-03 0.  1.
    9900012    2    1    2    0    0  0.95266669004E+01 -0.17681274160E+02 -0.40320326333E+02  0.46142317035E+02  0.99999933807E+01 0.  0.
         12    1    1    2    0    0 -0.95266669004E+01  0.17681274160E+02  0.40320326333E+02  0.45045682965E+02  0.00000000000E+00 0. -1.
         11    1    3    3    0    0  0.92984556684E+01 -0.10844967839E+02 -0.32083297803E+02  0.35119974422E+02  0.51100000000E-03 0. -1.
        -11    1    3    3    0    0 -0.11209620271E+01 -0.43609786891E+01 -0.49308611691E+01  0.66774308774E+01  0.51100000000E-03 0.  1.
        -12    1    3    3    0    0  0.13491732591E+01 -0.24753276325E+01 -0.33061673608E+01  0.43449117355E+01  0.00000000000E+00 0.  1.
</event>
<event>
 7    1  0.1442665E-008  0.4614232E+02  0.7816164E-02  0.1320468E+00
        -11   -1    0    0    0    0  0.00000000000E+00  0.00000000000E+00  0.45593999997E+02  0.45594000000E+02  0.51100000000E-03 0.  1.
         11   -1    0    0    0    0 -0.00000000000E+00 -0.00000000000E+00 -0.45593999997E+02  0.45594000000E+02  0.51100000000E-03 0. -1.
    9900012    2    1    2    0    0 -0.21348434033E+02 -0.19426451160E+02 -0.34582809275E+02  0.46142319434E+02  0.10000015254E+02 0.  0.
         12    1    1    2    0    0  0.21348434033E+02  0.19426451160E+02  0.34582809275E+02  0.45045680566E+02  0.00000000000E+00 0. -1.
         11    1    3    3    0    0 -0.57203115027E+01 -0.96682876255E+01 -0.12029113188E+02  0.16458958462E+02  0.51100000000E-03 0. -1.
        -11    1    3    3    0    0 -0.15616395609E+02 -0.83747686542E+01 -0.19607031128E+02  0.26428095499E+02  0.51100000000E-03 0.  1.
        -12    1    3    3    0    0 -0.11726921222E-01 -0.13833948801E+01 -0.29466649597E+01  0.32552654730E+01  0.00000000000E+00 0.  1.
</event>
<event>
 7    1  0.1442665E-008  0.4614233E+02  0.7816164E-02  0.1320468E+00
        -11   -1    0    0    0    0  0.00000000000E+00  0.00000000000E+00  0.45593999997E+02  0.45594000000E+02  0.51100000000E-03 0.  1.
         11   -1    0    0    0    0 -0.00000000000E+00 -0.00000000000E+00 -0.45593999997E+02  0.45594000000E+02  0.51100000000E-03 0. -1.
    9900012    2    1    2    0    0 -0.39541014445E+02 -0.63885683659E+01  0.20610843727E+02  0.46142328640E+02  0.10000099206E+02 0.  0.
         12    1    1    2    0    0  0.39541014445E+02  0.63885683659E+01 -0.20610843727E+02  0.45045671360E+02  0.00000000000E+00 0. -1.
         11    1    3    3    0    0 -0.15528296974E+02  0.26738519042E+00  0.45859526672E+01  0.16193531544E+02  0.51100000000E-03 0. -1.
        -11    1    3    3    0    0 -0.55067276982E+01  0.33821281279E+00  0.35401102126E+01  0.65552130726E+01  0.51100000000E-03 0.  1.
         12    1    3    3    0    0 -0.18505989773E+02 -0.69941663691E+01  0.12484780847E+02  0.23393584024E+02  0.00000000000E+00 0. -1.
</event>
<event>
 7    1  0.1442665E-008  0.4614232E+02  0.7816164E-02  0.1320468E+00
        -11   -1    0    0    0    0  0.00000000000E+00  0.00000000000E+00  0.45593999997E+02  0.45594000000E+02  0.51100000000E-03 0.  1.
         11   -1    0    0    0    0 -0.00000000000E+00 -0.00000000000E+00 -0.45593999997E+02  0.45594000000E+02  0.51100000000E-03 0. -1.
    9900012    2    1    2    0    0 -0.16355620728E+02  0.84953667771E+01  0.41102747156E+02  0.46142318632E+02  0.10000007945E+02 0.  0.
         12    1    1    2    0    0  0.16355620728E+02 -0.84953667771E+01 -0.41102747156E+02  0.45045681368E+02  0.00000000000E+00 0. -1.
         11    1    3    3    0    0 -0.67122096204E+01  0.29699922038E+01  0.94795474007E+01  0.11989012923E+02  0.51100000000E-03 0. -1.
        -11    1    3    3    0    0 -0.56635862345E+01 -0.38236038200E+00  0.11935691371E+02  0.13216774843E+02  0.51100000000E-03 0.  1.
         12    1    3    3    0    0 -0.39798248735E+01  0.59077349553E+01  0.19687508385E+02  0.20936530866E+02  0.00000000000E+00 0. -1.
</event>
<event>
 7    1  0.1442665E-008  0.4614232E+02  0.7816164E-02  0.1320468E+00
        -11   -1    0    0    0    0  0.00000000000E+00  0.00000000000E+00  0.45593999997E+02  0.45594000000E+02  0.51100000000E-03 0.  1.
         11   -1    0    0    0    0 -0.00000000000E+00 -0.00000000000E+00 -0.45593999997E+02  0.45594000000E+02  0.51100000000E-03 0. -1.
    9900012    2    1    2    0    0 -0.18677498557E+02 -0.25218344518E+02  0.32315625808E+02  0.46142317366E+02  0.99999963973E+01 0.  0.
         12    1    1    2    0    0  0.18677498557E+02  0.25218344518E+02 -0.32315625808E+02  0.45045682634E+02  0.00000000000E+00 0. -1.
         11    1    3    3    0    0  0.52563460829E+00 -0.34080090837E+00 -0.18350739674E+00  0.65277272182E+00  0.51100000000E-03 0. -1.
        -11    1    3    3    0    0 -0.35157464724E+01 -0.42414134148E+01  0.32064992618E+01  0.63742998667E+01  0.51100000000E-03 0.  1.
         12    1    3    3    0    0 -0.15687386693E+02 -0.20636130195E+02  0.29292633943E+02  0.39115244778E+02  0.00000000000E+00 0. -1.
</event>
<event>
 7    1  0.1442665E-008  0.4614232E+02  0.7816164E-02  0.1320468E+00
        -11   -1    0    0    0    0  0.00000000000E+00  0.00000000000E+00  0.45593999997E+02  0.45594000000E+02  0.51100000000E-03 0.  1.
         11   -1    0    0    0    0 -0.00000000000E+00 -0.00000000000E+00 -0.45593999997E+02  0.45594000000E+02  0.51100000000E-03 0. -1.
    9900012    2    1    2    0    0  0.10022870706E+02  0.28151614834E+02  0.33706707921E+02  0.46142317479E+02  0.99999974245E+01 0.  0.
         12    1    1    2    0    0 -0.10022870706E+02 -0.28151614834E+02 -0.33706707921E+02  0.45045682521E+02  0.00000000000E+00 0. -1.
         11    1    3    3    0    0  0.31348796483E+00  0.70358853832E+01  0.12161344061E+02  0.14053478127E+02  0.51100000000E-03 0. -1.
        -11    1    3    3    0    0  0.99776110659E+01  0.20510941576E+02  0.21614638321E+02  0.31423622276E+02  0.51100000000E-03 0.  1.
        -12    1    3    3    0    0 -0.26822832493E+00  0.60478787423E+00 -0.69274461017E-01  0.66521707589E+00  0.00000000000E+00 0.  1.
</event>
<event>
 7    1  0.1442665E-008  0.4614232E+02  0.7816164E-02  0.1320468E+00
        -11   -1    0    0    0    0  0.00000000000E+00  0.00000000000E+00  0.45593999997E+02  0.45594000000E+02  0.51100000000E-03 0.  1.
         11   -1    0    0    0    0 -0.00000000000E+00 -0.00000000000E+00 -0.45593999997E+02  0.45594000000E+02  0.51100000000E-03 0. -1.
    9900012    2    1    2    0    0 -0.96968558082E+01  0.23717024510E+02  0.37048443884E+02  0.46142318093E+02  0.10000003031E+02 0.  0.
         12    1    1    2    0    0  0.96968558082E+01 -0.23717024510E+02 -0.37048443884E+02  0.45045681907E+02  0.00000000000E+00 0. -1.
         11    1    3    3    0    0  0.61971535063E+00  0.42477879279E+01  0.95292154750E+01  0.10451492584E+02  0.51100000000E-03 0. -1.
        -11    1    3    3    0    0 -0.53997464431E+01  0.15461243309E+02  0.19441854989E+02  0.25420327142E+02  0.51100000000E-03 0.  1.
         12    1    3    3    0    0 -0.49168247157E+01  0.40079932737E+01  0.80773734199E+01  0.10270498368E+02  0.00000000000E+00 0. -1.
</event>
<event>
 7    1  0.1442665E-008  0.4614232E+02  0.7816164E-02  0.1320468E+00
        -11   -1    0    0    0    0  0.00000000000E+00  0.00000000000E+00  0.45593999997E+02  0.45594000000E+02  0.51100000000E-03 0.  1.
         11   -1    0    0    0    0 -0.00000000000E+00 -0.00000000000E+00 -0.45593999997E+02  0.45594000000E+02  0.51100000000E-03 0. -1.
    9900012    2    1    2    0    0  0.15947570201E+02 -0.17303272400E+01  0.42092689076E+02  0.46142317617E+02  0.99999986865E+01 0.  0.
         12    1    1    2    0    0 -0.15947570201E+02  0.17303272400E+01 -0.42092689076E+02  0.45045682383E+02  0.00000000000E+00 0. -1.
         11    1    3    3    0    0  0.29522995305E+01 -0.18562866101E+01  0.31877958492E+01  0.47248190584E+01  0.51100000000E-03 0. -1.
        -11    1    3    3    0    0  0.26660140048E+01 -0.23173328515E+01  0.81530561305E+01  0.88853805066E+01  0.51100000000E-03 0.  1.
         12    1    3    3    0    0  0.10329256665E+02  0.24432922216E+01  0.30751837097E+02  0.32532118052E+02  0.00000000000E+00 0. -1.
</event>
<event>
 7    1  0.1442665E-008  0.4614232E+02  0.7816164E-02  0.1320468E+00
        -11   -1    0    0    0    0  0.00000000000E+00  0.00000000000E+00  0.45593999997E+02  0.45594000000E+02  0.51100000000E-03 0.  1.
         11   -1    0    0    0    0 -0.00000000000E+00 -0.00000000000E+00 -0.45593999997E+02  0.45594000000E+02  0.51100000000E-03 0. -1.
    9900012    2    1    2    0    0 -0.42367621094E+02  0.14807927008E+02  0.38501175956E+01  0.46142318465E+02  0.10000006419E+02 0.  0.
         12    1    1    2    0    0  0.42367621094E+02 -0.14807927008E+02 -0.38501175956E+01  0.45045681535E+02  0.00000000000E+00 0. -1.
         11    1    3    3    0    0 -0.10294960398E+02  0.65612317723E+01  0.23076196106E+01  0.12424213476E+02  0.51100000000E-03 0. -1.
        -11    1    3    3    0    0 -0.25943849124E+02  0.54172803911E+01  0.33903173668E+01  0.26719365381E+02  0.51100000000E-03 0.  1.
        -12    1    3    3    0    0 -0.61288115715E+01  0.28294148443E+01 -0.18478193818E+01  0.69987396086E+01  0.00000000000E+00 0.  1.
</event>
<event>
 7    1  0.1442665E-008  0.4614232E+02  0.7816164E-02  0.1320468E+00
        -11   -1    0    0    0    0  0.00000000000E+00  0.00000000000E+00  0.45593999997E+02  0.45594000000E+02  0.51100000000E-03 0. -1.
         11   -1    0    0    0    0 -0.00000000000E+00 -0.00000000000E+00 -0.45593999997E+02  0.45594000000E+02  0.51100000000E-03 0.  1.
    9900012    2    1    2    0    0  0.11675941793E+02  0.38993897966E+02 -0.19294086009E+02  0.46142318184E+02  0.10000003856E+02 0.  0.
         12    1    1    2    0    0 -0.11675941793E+02 -0.38993897966E+02  0.19294086009E+02  0.45045681816E+02  0.00000000000E+00 0. -1.
         11    1    3    3    0    0  0.84269536627E+01  0.16426826158E+02 -0.79236020664E+01  0.20090735069E+02  0.51100000000E-03 0.  1.
        -11    1    3    3    0    0  0.13128756643E+01  0.13590427107E+02 -0.96221593360E+01  0.16703571534E+02  0.51100000000E-03 0. -1.
         12    1    3    3    0    0  0.19361124663E+01  0.89766447009E+01 -0.17483246068E+01  0.93480115800E+01  0.00000000000E+00 0. -1.
</event>
<event>
 7    1  0.1442665E-008  0.4614232E+02  0.7816164E-02  0.1320468E+00
        -11   -1    0    0    0    0  0.00000000000E+00  0.00000000000E+00  0.45593999997E+02  0.45594000000E+02  0.51100000000E-03 0.  1.
         11   -1    0    0    0    0 -0.00000000000E+00 -0.00000000000E+00 -0.45593999997E+02  0.45594000000E+02  0.51100000000E-03 0. -1.
    9900012    2    1    2    0    0 -0.27079889234E+02 -0.25233844081E+02  0.25671894146E+02  0.46142318331E+02  0.10000005194E+02 0.  0.
         12    1    1    2    0    0  0.27079889234E+02  0.25233844081E+02 -0.25671894146E+02  0.45045681669E+02  0.00000000000E+00 0. -1.
         11    1    3    3    0    0 -0.44007659212E-01 -0.25808430040E+01  0.74493935656E+00  0.26865632677E+01  0.51100000000E-03 0. -1.
        -11    1    3    3    0    0 -0.20721261140E+02 -0.15798986765E+02  0.20411772626E+02  0.33100137583E+02  0.51100000000E-03 0.  1.
        -12    1    3    3    0    0 -0.63146204347E+01 -0.68540143117E+01  0.45151821631E+01  0.10355617480E+02  0.00000000000E+00 0.  1.
</event>
<event>
 7    1  0.1442665E-008  0.4614232E+02  0.7816164E-02  0.1320468E+00
        -11   -1    0    0    0    0  0.00000000000E+00  0.00000000000E+00  0.45593999997E+02  0.45594000000E+02  0.51100000000E-03 0.  1.
         11   -1    0    0    0    0 -0.00000000000E+00 -0.00000000000E+00 -0.45593999997E+02  0.45594000000E+02  0.51100000000E-03 0. -1.
    9900012    2    1    2    0    0 -0.36059457371E+02 -0.26336605531E+02  0.59339907646E+01  0.46142317597E+02  0.99999985006E+01 0.  0.
         12    1    1    2    0    0  0.36059457371E+02  0.26336605531E+02 -0.59339907646E+01  0.45045682403E+02  0.00000000000E+00 0. -1.
         11    1    3    3    0    0 -0.19695733518E+02 -0.17726842642E+02 -0.64299268094E+00  0.26506156053E+02  0.51100000000E-03 0. -1.
        -11    1    3    3    0    0 -0.16151753261E+02 -0.84285928028E+01  0.64237894542E+01  0.19318006658E+02  0.51100000000E-03 0.  1.
        -12    1    3    3    0    0 -0.21197059266E+00 -0.18117008618E+00  0.15319399129E+00  0.31815488562E+00  0.00000000000E+00 0.  1.
</event>
<event>
 7    1  0.1442665E-008  0.4614232E+02  0.7816164E-02  0.1320468E+00
        -11   -1    0    0    0    0  0.00000000000E+00  0.00000000000E+00  0.45593999997E+02  0.45594000000E+02  0.51100000000E-03 0.  1.
         11   -1    0    0    0    0 -0.00000000000E+00 -0.00000000000E+00 -0.45593999997E+02  0.45594000000E+02  0.51100000000E-03 0. -1.
    9900012    2    1    2    0    0 -0.17564951016E+01 -0.13552362681E+02  0.42922741975E+02  0.46142316656E+02  0.99999899189E+01 0.  0.
         12    1    1    2    0    0  0.17564951016E+01  0.13552362681E+02 -0.42922741975E+02  0.45045683344E+02  0.00000000000E+00 0. -1.
         11    1    3    3    0    0 -0.11976220310E+01 -0.72496704495E+01  0.15381964458E+02  0.17046901507E+02  0.51100000000E-03 0. -1.
        -11    1    3    3    0    0 -0.18127527373E+01 -0.31495806660E+01  0.43976408926E+01  0.57048379942E+01  0.51100000000E-03 0.  1.
         12    1    3    3    0    0  0.12538796667E+01 -0.31531115658E+01  0.23143136625E+02  0.23390577154E+02  0.00000000000E+00 0. -1.
</event>
<event>
 7    1  0.1442665E-008  0.4614232E+02  0.7816164E-02  0.1320468E+00
        -11   -1    0    0    0    0  0.00000000000E+00  0.00000000000E+00  0.45593999997E+02  0.45594000000E+02  0.51100000000E-03 0.  1.
         11   -1    0    0    0    0 -0.00000000000E+00 -0.00000000000E+00 -0.45593999997E+02  0.45594000000E+02  0.51100000000E-03 0. -1.
    9900012    2    1    2    0    0  0.21777724097E+02 -0.18771772105E+02  0.34676574656E+02  0.46142317358E+02  0.99999963236E+01 0.  0.
         12    1    1    2    0    0 -0.21777724097E+02  0.18771772105E+02 -0.34676574656E+02  0.45045682642E+02  0.00000000000E+00 0. -1.
         11    1    3    3    0    0  0.23337744937E+01  0.61997664469E-01  0.11260199499E+01  0.25919622464E+01  0.51100000000E-03 0. -1.
        -11    1    3    3    0    0  0.17675975539E+02 -0.19018436283E+02  0.30921137262E+02  0.40376450560E+02  0.51100000000E-03 0.  1.
        -12    1    3    3    0    0  0.17679740640E+01  0.18466651351E+00  0.26294174437E+01  0.31739045520E+01  0.00000000000E+00 0.  1.
</event>
<event>
 7    1  0.1442665E-008  0.4614233E+02  0.7816164E-02  0.1320468E+00
        -11   -1    0    0    0    0  0.00000000000E+00  0.00000000000E+00  0.45593999997E+02  0.45594000000E+02  0.51100000000E-03 0.  1.
         11   -1    0    0    0    0 -0.00000000000E+00 -0.00000000000E+00 -0.45593999997E+02  0.45594000000E+02  0.51100000000E-03 0. -1.
    9900012    2    1    2    0    0  0.85705167046E+01  0.37710707676E+02  0.23098947319E+02  0.46142327652E+02  0.10000090197E+02 0.  0.
         12    1    1    2    0    0 -0.85705167046E+01 -0.37710707676E+02 -0.23098947319E+02  0.45045672348E+02  0.00000000000E+00 0. -1.
         11    1    3    3    0    0  0.79121026103E-01  0.49653455840E+01  0.49874896552E+00  0.49909585950E+01  0.51100000000E-03 0. -1.
        -11    1    3    3    0    0  0.64380474034E+01  0.14098336138E+02  0.84437141183E+01  0.17649584828E+02  0.51100000000E-03 0.  1.
        -12    1    3    3    0    0  0.20533482751E+01  0.18647025953E+02  0.14156484236E+02  0.23501784229E+02  0.00000000000E+00 0.  1.
</event>
<event>
 7    1  0.1442665E-008  0.4614232E+02  0.7816164E-02  0.1320468E+00
        -11   -1    0    0    0    0  0.00000000000E+00  0.00000000000E+00  0.45593999997E+02  0.45594000000E+02  0.51100000000E-03 0. -1.
         11   -1    0    0    0    0 -0.00000000000E+00 -0.00000000000E+00 -0.45593999997E+02  0.45594000000E+02  0.51100000000E-03 0.  1.
    9900012    2    1    2    0    0 -0.40907035008E+02  0.10878322029E+02 -0.15407468785E+02  0.46142317658E+02  0.99999990567E+01 0.  0.
         12    1    1    2    0    0  0.40907035008E+02 -0.10878322029E+02  0.15407468785E+02  0.45045682342E+02  0.00000000000E+00 0. -1.
         11    1    3    3    0    0 -0.21609934268E+02  0.56293725370E+01 -0.35738511851E+01  0.22615293648E+02  0.51100000000E-03 0. -1.
        -11    1    3    3    0    0 -0.11201276864E+02  0.49094715749E+01 -0.69785073044E+01  0.14080876357E+02  0.51100000000E-03 0.  1.
         12    1    3    3    0    0 -0.80958238763E+01  0.33947791673E+00 -0.48551102954E+01  0.94461476525E+01  0.00000000000E+00 0. -1.
</event>
<event>
 7    1  0.1442665E-008  0.4614232E+02  0.7816164E-02  0.1320468E+00
        -11   -1    0    0    0    0  0.00000000000E+00  0.00000000000E+00  0.45593999997E+02  0.45594000000E+02  0.51100000000E-03 0. -1.
         11   -1    0    0    0    0 -0.00000000000E+00 -0.00000000000E+00 -0.45593999997E+02  0.45594000000E+02  0.51100000000E-03 0.  1.
    9900012    2    1    2    0    0 -0.30064466705E+02 -0.26946822553E+02 -0.19977741425E+02  0.46142317006E+02  0.99999931148E+01 0.  0.
         12    1    1    2    0    0  0.30064466705E+02  0.26946822553E+02  0.19977741425E+02  0.45045682994E+02  0.00000000000E+00 0. -1.
         11    1    3    3    0    0 -0.14682601019E+02 -0.17702625178E+02 -0.86819914406E+01  0.24583300969E+02  0.51100000000E-03 0.  1.
        -11    1    3    3    0    0 -0.90198983640E+01 -0.63048934299E+01 -0.88974780831E+01  0.14151867868E+02  0.51100000000E-03 0. -1.
        -12    1    3    3    0    0 -0.63619673221E+01 -0.29393039447E+01 -0.23982719011E+01  0.74071481691E+01  0.00000000000E+00 0.  1.
</event>
<event>
 7    1  0.1442665E-008  0.4614232E+02  0.7816164E-02  0.1320468E+00
        -11   -1    0    0    0    0  0.00000000000E+00  0.00000000000E+00  0.45593999997E+02  0.45594000000E+02  0.51100000000E-03 0.  1.
         11   -1    0    0    0    0 -0.00000000000E+00 -0.00000000000E+00 -0.45593999997E+02  0.45594000000E+02  0.51100000000E-03 0. -1.
    9900012    2    1    2    0    0 -0.31083475707E+02  0.32364131504E+02  0.39362670944E+01  0.46142315760E+02  0.99999817512E+01 0.  0.
         12    1    1    2    0    0  0.31083475707E+02 -0.32364131504E+02 -0.39362670944E+01  0.45045684240E+02  0.00000000000E+00 0. -1.
         11    1    3    3    0    0 -0.63946776091E+01  0.44681967810E+01 -0.93657723278E+00  0.78570898793E+01  0.51100000000E-03 0. -1.
        -11    1    3    3    0    0 -0.21008876403E+02  0.19180499315E+02  0.26769796444E+01  0.28573250812E+02  0.51100000000E-03 0.  1.
         12    1    3    3    0    0 -0.36799216948E+01  0.87154354072E+01  0.21958646828E+01  0.97119750681E+01  0.00000000000E+00 0. -1.
</event>
<event>
 7    1  0.1442665E-008  0.4614232E+02  0.7816164E-02  0.1320468E+00
        -11   -1    0    0    0    0  0.00000000000E+00  0.00000000000E+00  0.45593999997E+02  0.45594000000E+02  0.51100000000E-03 0. -1.
         11   -1    0    0    0    0 -0.00000000000E+00 -0.00000000000E+00 -0.45593999997E+02  0.45594000000E+02  0.51100000000E-03 0.  1.
    9900012    2    1    2    0    0  0.23204799369E+02 -0.23358664413E+02 -0.30741235830E+02  0.46142317663E+02  0.99999991032E+01 0.  0.
         12    1    1    2    0    0 -0.23204799369E+02  0.23358664413E+02  0.30741235830E+02  0.45045682337E+02  0.00000000000E+00 0. -1.
         11    1    3    3    0    0  0.94678955813E+01 -0.99330487491E+01 -0.83036780469E+01  0.16039251029E+02  0.51100000000E-03 0. -1.
        -11    1    3    3    0    0  0.60998595104E+01 -0.23215142597E+01 -0.84825419791E+01  0.10702860982E+02  0.51100000000E-03 0.  1.
        -12    1    3    3    0    0  0.76370442771E+01 -0.11104101404E+02 -0.13955015804E+02  0.19400205653E+02  0.00000000000E+00 0.  1.
</event>
<event>
 7    1  0.1442665E-008  0.4614233E+02  0.7816164E-02  0.1320468E+00
        -11   -1    0    0    0    0  0.00000000000E+00  0.00000000000E+00  0.45593999997E+02  0.45594000000E+02  0.51100000000E-03 0. -1.
         11   -1    0    0    0    0 -0.00000000000E+00 -0.00000000000E+00 -0.45593999997E+02  0.45594000000E+02  0.51100000000E-03 0.  1.
    9900012    2    1    2    0    0 -0.87238475535E+00  0.39136326194E+02 -0.22286745698E+02  0.46142332984E+02  0.10000138813E+02 0.  0.
         12    1    1    2    0    0  0.87238475535E+00 -0.39136326194E+02  0.22286745698E+02  0.45045667016E+02  0.00000000000E+00 0. -1.
         11    1    3    3    0    0  0.10620920360E+01  0.39468631870E+01 -0.24266174108E+01  0.47533399657E+01  0.51100000000E-03 0. -1.
        -11    1    3    3    0    0  0.27726614573E+01  0.22855202752E+02 -0.13996562110E+02  0.26943490783E+02  0.51100000000E-03 0.  1.
        -12    1    3    3    0    0 -0.47071382487E+01  0.12334260254E+02 -0.58635661775E+01  0.14445502235E+02  0.00000000000E+00 0.  1.
</event>
<event>
 7    1  0.1442665E-008  0.4614231E+02  0.7816164E-02  0.1320468E+00
        -11   -1    0    0    0    0  0.00000000000E+00  0.00000000000E+00  0.45593999997E+02  0.45594000000E+02  0.51100000000E-03 0.  1.
         11   -1    0    0    0    0 -0.00000000000E+00 -0.00000000000E+00 -0.45593999997E+02  0.45594000000E+02  0.51100000000E-03 0. -1.
    9900012    2    1    2    0    0 -0.14843851900E+02 -0.86788487140E+01  0.41634739640E+02  0.46142313202E+02  0.99999584285E+01 0.  0.
         12    1    1    2    0    0  0.14843851900E+02  0.86788487140E+01 -0.41634739640E+02  0.45045686798E+02  0.00000000000E+00 0. -1.
         11    1    3    3    0    0 -0.19019422362E+01 -0.40153171594E+01  0.49101335619E+01  0.66219006348E+01  0.51100000000E-03 0. -1.
        -11    1    3    3    0    0 -0.53257661637E+01  0.28068014803E+00  0.10664612763E+02  0.11923780114E+02  0.51100000000E-03 0.  1.
         12    1    3    3    0    0 -0.76161435000E+01 -0.49442117026E+01  0.26059993315E+02  0.27596632453E+02  0.00000000000E+00 0. -1.
</event>
<event>
 7    1  0.1442665E-008  0.4614232E+02  0.7816164E-02  0.1320468E+00
        -11   -1    0    0    0    0  0.00000000000E+00  0.00000000000E+00  0.45593999997E+02  0.45594000000E+02  0.51100000000E-03 0.  1.
         11   -1    0    0    0    0 -0.00000000000E+00 -0.00000000000E+00 -0.45593999997E+02  0.45594000000E+02  0.51100000000E-03 0. -1.
    9900012    2    1    2    0    0  0.15782079004E+02 -0.30157643876E+02  0.29505185669E+02  0.46142317818E+02  0.10000000522E+02 0.  0.
         12    1    1    2    0    0 -0.15782079004E+02  0.30157643876E+02 -0.29505185669E+02  0.45045682182E+02  0.00000000000E+00 0. -1.
         11    1    3    3    0    0  0.73495883417E+01 -0.20722887926E+02  0.22913336782E+02  0.31756503831E+02  0.51100000000E-03 0. -1.
        -11    1    3    3    0    0  0.63966036617E+01 -0.67683131840E+01  0.56841743742E+01  0.10910382227E+02  0.51100000000E-03 0.  1.
         12    1    3    3    0    0  0.20358870003E+01 -0.26664427663E+01  0.90767451258E+00  0.34754317609E+01  0.00000000000E+00 0. -1.
</event>
<event>
 7    1  0.1442665E-008  0.4614232E+02  0.7816164E-02  0.1320468E+00
        -11   -1    0    0    0    0  0.00000000000E+00  0.00000000000E+00  0.45593999997E+02  0.45594000000E+02  0.51100000000E-03 0.  1.
         11   -1    0    0    0    0 -0.00000000000E+00 -0.00000000000E+00 -0.45593999997E+02  0.45594000000E+02  0.51100000000E-03 0. -1.
    9900012    2    1    2    0    0 -0.78731116397E+01 -0.38028578304E+02  0.22824436777E+02  0.46142316867E+02  0.99999918469E+01 0.  0.
         12    1    1    2    0    0  0.78731116397E+01  0.38028578304E+02 -0.22824436777E+02  0.45045683133E+02  0.00000000000E+00 0. -1.
         11    1    3    3    0    0  0.77861770736E+00 -0.48333839006E+01  0.12100521181E+01  0.50430220954E+01  0.51100000000E-03 0. -1.
        -11    1    3    3    0    0 -0.92546305356E+01 -0.31631282992E+02  0.19144144266E+02  0.38114098573E+02  0.51100000000E-03 0.  1.
         12    1    3    3    0    0  0.60290118845E+00 -0.15639114112E+01  0.24702403932E+01  0.29851961988E+01  0.00000000000E+00 0. -1.
</event>
<event>
 7    1  0.1442665E-008  0.4614232E+02  0.7816164E-02  0.1320468E+00
        -11   -1    0    0    0    0  0.00000000000E+00  0.00000000000E+00  0.45593999997E+02  0.45594000000E+02  0.51100000000E-03 0.  1.
         11   -1    0    0    0    0 -0.00000000000E+00 -0.00000000000E+00 -0.45593999997E+02  0.45594000000E+02  0.51100000000E-03 0. -1.
    9900012    2    1    2    0    0  0.59882279881E+01 -0.43711791810E+00  0.44643740566E+02  0.46142317430E+02  0.99999969765E+01 0.  0.
         12    1    1    2    0    0 -0.59882279881E+01  0.43711791810E+00 -0.44643740566E+02  0.45045682570E+02  0.00000000000E+00 0. -1.
         11    1    3    3    0    0 -0.84514203199E+00  0.12943105953E+01  0.79338943197E+01  0.80830801251E+01  0.51100000000E-03 0. -1.
        -11    1    3    3    0    0  0.14059017013E+01  0.24662299396E+01  0.67294967162E+01  0.73037645103E+01  0.51100000000E-03 0.  1.
        -12    1    3    3    0    0  0.54274683188E+01 -0.41976584529E+01  0.29980349530E+02  0.30755472794E+02  0.00000000000E+00 0.  1.
</event>
<event>
 7    1  0.1442665E-008  0.4614232E+02  0.7816164E-02  0.1320468E+00
        -11   -1    0    0    0    0  0.00000000000E+00  0.00000000000E+00  0.45593999997E+02  0.45594000000E+02  0.51100000000E-03 0.  1.
         11   -1    0    0    0    0 -0.00000000000E+00 -0.00000000000E+00 -0.45593999997E+02  0.45594000000E+02  0.51100000000E-03 0. -1.
    9900012    2    1    2    0    0 -0.14067707016E+02 -0.38690674037E+02 -0.18282363275E+02  0.46142318242E+02  0.10000004388E+02 0.  0.
         12    1    1    2    0    0  0.14067707016E+02  0.38690674037E+02  0.18282363275E+02  0.45045681758E+02  0.00000000000E+00 0. -1.
         11    1    3    3    0    0  0.71994915499E+00 -0.73389745157E+01 -0.12312555589E+01  0.74762867949E+01  0.51100000000E-03 0. -1.
        -11    1    3    3    0    0 -0.13441724554E+02 -0.29428969951E+02 -0.16022356732E+02  0.36103464472E+02  0.51100000000E-03 0.  1.
         12    1    3    3    0    0 -0.13459316169E+01 -0.19227295696E+01 -0.10287509842E+01  0.25625669753E+01  0.00000000000E+00 0. -1.
</event>
<event>
 7    1  0.1442665E-008  0.4614231E+02  0.7816164E-02  0.1320468E+00
        -11   -1    0    0    0    0  0.00000000000E+00  0.00000000000E+00  0.45593999997E+02  0.45594000000E+02  0.51100000000E-03 0.  1.
         11   -1    0    0    0    0 -0.00000000000E+00 -0.00000000000E+00 -0.45593999997E+02  0.45594000000E+02  0.51100000000E-03 0. -1.
    9900012    2    1    2    0    0  0.12124293141E+02 -0.33622313683E+02  0.27416342646E+02  0.46142308689E+02  0.99999172757E+01 0.  0.
         12    1    1    2    0    0 -0.12124293141E+02  0.33622313683E+02 -0.27416342646E+02  0.45045691311E+02  0.00000000000E+00 0. -1.
         11    1    3    3    0    0 -0.12426287652E+00 -0.11588570744E+01  0.11092656817E+01  0.16089939699E+01  0.51100000000E-03 0. -1.
        -11    1    3    3    0    0  0.50848861451E+01 -0.37985618223E+01  0.38774130046E+01  0.74377060237E+01  0.51100000000E-03 0.  1.
        -12    1    3    3    0    0  0.71636698721E+01 -0.28664894786E+02  0.22429663960E+02  0.37095608696E+02  0.00000000000E+00 0.  1.
</event>
<event>
 7    1  0.1442665E-008  0.4614232E+02  0.7816164E-02  0.1320468E+00
        -11   -1    0    0    0    0  0.00000000000E+00  0.00000000000E+00  0.45593999997E+02  0.45594000000E+02  0.51100000000E-03 0. -1.
         11   -1    0    0    0    0 -0.00000000000E+00 -0.00000000000E+00 -0.45593999997E+02  0.45594000000E+02  0.51100000000E-03 0.  1.
    9900012    2    1    2    0    0  0.25004510480E+02  0.33810242423E+02 -0.16147922406E+02  0.46142318353E+02  0.10000005393E+02 0.  0.
         12    1    1    2    0    0 -0.25004510480E+02 -0.33810242423E+02  0.16147922406E+02  0.45045681647E+02  0.00000000000E+00 0. -1.
         11    1    3    3    0    0  0.14210189772E+02  0.22659845344E+02 -0.13793110856E+02  0.30093985973E+02  0.51100000000E-03 0.  1.
        -11    1    3    3    0    0  0.97945000622E+01  0.10735477401E+02 -0.13903075675E+01  0.14598481493E+02  0.51100000000E-03 0. -1.
         12    1    3    3    0    0  0.99982064506E+00  0.41491967779E+00 -0.96450398267E+00  0.14498508868E+01  0.00000000000E+00 0. -1.
</event>
<event>
 7    1  0.1442665E-008  0.4614232E+02  0.7816164E-02  0.1320468E+00
        -11   -1    0    0    0    0  0.00000000000E+00  0.00000000000E+00  0.45593999997E+02  0.45594000000E+02  0.51100000000E-03 0.  1.
         11   -1    0    0    0    0 -0.00000000000E+00 -0.00000000000E+00 -0.45593999997E+02  0.45594000000E+02  0.51100000000E-03 0. -1.
    9900012    2    1    2    0    0  0.20843619962E+01  0.43764008094E+02  0.10463285580E+02  0.46142319691E+02  0.10000017597E+02 0.  0.
         12    1    1    2    0    0 -0.20843619962E+01 -0.43764008094E+02 -0.10463285580E+02  0.45045680309E+02  0.00000000000E+00 0. -1.
         11    1    3    3    0    0  0.35335095984E+01  0.32622568324E+02  0.52290448035E+01  0.33227406819E+02  0.51100000000E-03 0. -1.
        -11    1    3    3    0    0 -0.59294596953E+00  0.59186004012E+01  0.78332736960E+00  0.59995847907E+01  0.51100000000E-03 0.  1.
         12    1    3    3    0    0 -0.85620163270E+00  0.52228393692E+01  0.44509134067E+01  0.69153280809E+01  0.00000000000E+00 0. -1.
</event>
<event>
 7    1  0.1442665E-008  0.4614232E+02  0.7816164E-02  0.1320468E+00
        -11   -1    0    0    0    0  0.00000000000E+00  0.00000000000E+00  0.45593999997E+02  0.45594000000E+02  0.51100000000E-03 0. -1.
         11   -1    0    0    0    0 -0.00000000000E+00 -0.00000000000E+00 -0.45593999997E+02  0.45594000000E+02  0.51100000000E-03 0.  1.
    9900012    2    1    2    0    0  0.31002800693E+02 -0.23902174346E+02 -0.22285107382E+02  0.46142316518E+02  0.99999886645E+01 0.  0.
         12    1    1    2    0    0 -0.31002800693E+02  0.23902174346E+02  0.22285107382E+02  0.45045683482E+02  0.00000000000E+00 0. -1.
         11    1    3    3    0    0  0.10325385137E+02 -0.47533035051E+01 -0.83593046603E+01  0.14109764247E+02  0.51100000000E-03 0. -1.
        -11    1    3    3    0    0  0.15108710858E+02 -0.15524531604E+02 -0.78869753756E+01  0.23054036656E+02  0.51100000000E-03 0.  1.
        -12    1    3    3    0    0  0.55687046987E+01 -0.36243392372E+01 -0.60388273466E+01  0.89785156151E+01  0.00000000000E+00 0.  1.
</event>
<event>
 7    1  0.1442665E-008  0.4614232E+02  0.7816164E-02  0.1320468E+00
        -11   -1    0    0    0    0  0.00000000000E+00  0.00000000000E+00  0.45593999997E+02  0.45594000000E+02  0.51100000000E-03 0. -1.
         11   -1    0    0    0    0 -0.00000000000E+00 -0.00000000000E+00 -0.45593999997E+02  0.45594000000E+02  0.51100000000E-03 0.  1.
    9900012    2    1    2    0    0 -0.29626888216E+02 -0.10738695595E+02 -0.32187596021E+02  0.46142318453E+02  0.10000006307E+02 0.  0.
         12    1    1    2    0    0  0.29626888216E+02  0.10738695595E+02  0.32187596021E+02  0.45045681547E+02  0.00000000000E+00 0. -1.
         11    1    3    3    0    0 -0.30701031001E+01 -0.41668806810E+01 -0.41255942190E+01  0.66188333999E+01  0.51100000000E-03 0. -1.
        -11    1    3    3    0    0 -0.14650686239E+02 -0.59842352004E+01 -0.17529304572E+02  0.23616312101E+02  0.51100000000E-03 0.  1.
         12    1    3    3    0    0 -0.11906098877E+02 -0.58757971391E+00 -0.10532697229E+02  0.15907172952E+02  0.00000000000E+00 0. -1.
</event>
<event>
 7    1  0.1442665E-008  0.4614232E+02  0.7816164E-02  0.1320468E+00
        -11   -1    0    0    0    0  0.00000000000E+00  0.00000000000E+00  0.45593999997E+02  0.45594000000E+02  0.51100000000E-03 0.  1.
         11   -1    0    0    0    0 -0.00000000000E+00 -0.00000000000E+00 -0.45593999997E+02  0.45594000000E+02  0.51100000000E-03 0. -1.
    9900012    2    1    2    0    0 -0.73803851087E+01 -0.87472324226E+00  0.44428349848E+02  0.46142317684E+02  0.99999992962E+01 0.  0.
         12    1    1    2    0    0  0.73803851087E+01  0.87472324226E+00 -0.44428349848E+02  0.45045682316E+02  0.00000000000E+00 0. -1.
         11    1    3    3    0    0 -0.79330447703E+01 -0.14747018122E+01  0.20112393658E+02  0.21670632747E+02  0.51100000000E-03 0. -1.
        -11    1    3    3    0    0 -0.27471332216E+00 -0.92259694593E+00  0.63797393246E+01  0.64519552575E+01  0.51100000000E-03 0.  1.
         12    1    3    3    0    0  0.82737298386E+00  0.15225755159E+01  0.17936216866E+02  0.18019729679E+02  0.00000000000E+00 0. -1.
</event>
<event>
 7    1  0.1442665E-008  0.4614232E+02  0.7816164E-02  0.1320468E+00
        -11   -1    0    0    0    0  0.00000000000E+00  0.00000000000E+00  0.45593999997E+02  0.45594000000E+02  0.51100000000E-03 0. -1.
         11   -1    0    0    0    0 -0.00000000000E+00 -0.00000000000E+00 -0.45593999997E+02  0.45594000000E+02  0.51100000000E-03 0.  1.
    9900012    2    1    2    0    0  0.31875642494E+02  0.48486698430E+01  0.31457070190E+02  0.46142318202E+02  0.10000004023E+02 0.  0.
         12    1    1    2    0    0 -0.31875642494E+02 -0.48486698430E+01 -0.31457070190E+02  0.45045681798E+02  0.00000000000E+00 0. -1.
         11    1    3    3    0    0  0.51490908111E+01  0.16764266019E+01  0.92934663769E+01  0.10756024353E+02  0.51100000000E-03 0. -1.
        -11    1    3    3    0    0  0.21707429720E+02  0.17277654299E+00  0.16767310589E+02  0.27429638376E+02  0.51100000000E-03 0.  1.
        -12    1    3    3    0    0  0.50191219632E+01  0.29994666981E+01  0.53962932241E+01  0.79566554730E+01  0.00000000000E+00 0.  1.
</event>
<event>
 7    1  0.1442665E-008  0.4614232E+02  0.7816164E-02  0.1320468E+00
        -11   -1    0    0    0    0  0.00000000000E+00  0.00000000000E+00  0.45593999997E+02  0.45594000000E+02  0.51100000000E-03 0.  1.
         11   -1    0    0    0    0 -0.00000000000E+00 -0.00000000000E+00 -0.45593999997E+02  0.45594000000E+02  0.51100000000E-03 0. -1.
    9900012    2    1    2    0    0 -0.41400686378E+02 -0.12277429553E+02  0.12820349726E+02  0.46142317898E+02  0.10000001245E+02 0.  0.
         12    1    1    2    0    0  0.41400686378E+02  0.12277429553E+02 -0.12820349726E+02  0.45045682102E+02  0.00000000000E+00 0. -1.
         11    1    3    3    0    0 -0.16755928691E+02 -0.86249651804E+01  0.46509158437E+01  0.19410878112E+02  0.51100000000E-03 0. -1.
        -11    1    3    3    0    0 -0.19253712802E+02 -0.33088352785E+01  0.85309175805E+01  0.21317373257E+02  0.51100000000E-03 0.  1.
         12    1    3    3    0    0 -0.53910448848E+01 -0.34362909394E+00 -0.36148369778E+00  0.54140665279E+01  0.00000000000E+00 0. -1.
</event>
<event>
 7    1  0.1442665E-008  0.4614232E+02  0.7816164E-02  0.1320468E+00
        -11   -1    0    0    0    0  0.00000000000E+00  0.00000000000E+00  0.45593999997E+02  0.45594000000E+02  0.51100000000E-03 0. -1.
         11   -1    0    0    0    0 -0.00000000000E+00 -0.00000000000E+00 -0.45593999997E+02  0.45594000000E+02  0.51100000000E-03 0.  1.
    9900012    2    1    2    0    0  0.16493567605E+02 -0.31852379526E+02 -0.27248880654E+02  0.46142319290E+02  0.10000013940E+02 0.  0.
         12    1    1    2    0    0 -0.16493567605E+02  0.31852379526E+02  0.27248880654E+02  0.45045680710E+02  0.00000000000E+00 0. -1.
         11    1    3    3    0    0 -0.30668088439E+00 -0.17087028867E+01 -0.42752254421E+01  0.46142465866E+01  0.51100000000E-03 0. -1.
        -11    1    3    3    0    0  0.15904213858E+02 -0.29102719098E+02 -0.22492499747E+02  0.40072744134E+02  0.51100000000E-03 0.  1.
         12    1    3    3    0    0  0.89603463115E+00 -0.10409575406E+01 -0.48115546484E+00  0.14553285687E+01  0.00000000000E+00 0. -1.
</event>
<event>
 7    1  0.1442665E-008  0.4614232E+02  0.7816164E-02  0.1320468E+00
        -11   -1    0    0    0    0  0.00000000000E+00  0.00000000000E+00  0.45593999997E+02  0.45594000000E+02  0.51100000000E-03 0.  1.
         11   -1    0    0    0    0 -0.00000000000E+00 -0.00000000000E+00 -0.45593999997E+02  0.45594000000E+02  0.51100000000E-03 0. -1.
    9900012    2    1    2    0    0  0.27724128795E+02 -0.91412639308E+01  0.34306319506E+02  0.46142316724E+02  0.99999905472E+01 0.  0.
         12    1    1    2    0    0 -0.27724128795E+02  0.91412639308E+01 -0.34306319506E+02  0.45045683276E+02  0.00000000000E+00 0. -1.
         11    1    3    3    0    0  0.33400074398E+01 -0.38769783898E+01  0.99146080516E+01  0.11157332307E+02  0.51100000000E-03 0. -1.
        -11    1    3    3    0    0  0.10114121097E+02 -0.14414921627E+01  0.11445822085E+02  0.15342105093E+02  0.51100000000E-03 0.  1.
         12    1    3    3    0    0  0.14270000259E+02 -0.38227933783E+01  0.12945889370E+02  0.19642879325E+02  0.00000000000E+00 0. -1.
</event>
<event>
 7    1  0.1442665E-008  0.4614232E+02  0.7816164E-02  0.1320468E+00
        -11   -1    0    0    0    0  0.00000000000E+00  0.00000000000E+00  0.45593999997E+02  0.45594000000E+02  0.51100000000E-03 0.  1.
         11   -1    0    0    0    0 -0.00000000000E+00 -0.00000000000E+00 -0.45593999997E+02  0.45594000000E+02  0.51100000000E-03 0. -1.
    9900012    2    1    2    0    0 -0.18135144202E+01 -0.19956862037E+01  0.44964896363E+02  0.46142317600E+02  0.99999985284E+01 0.  0.
         12    1    1    2    0    0  0.18135144202E+01  0.19956862037E+01 -0.44964896363E+02  0.45045682400E+02  0.00000000000E+00 0. -1.
         11    1    3    3    0    0 -0.31483334589E+01 -0.13558172719E+01  0.57150134599E+01  0.66642046151E+01  0.51100000000E-03 0. -1.
        -11    1    3    3    0    0 -0.13191056403E+01 -0.45301612770E+00  0.19503755193E+02  0.19553560550E+02  0.51100000000E-03 0.  1.
         12    1    3    3    0    0  0.26539246790E+01 -0.18685280412E+00  0.19746127710E+02  0.19924552435E+02  0.00000000000E+00 0. -1.
</event>
<event>
 7    1  0.1442665E-008  0.4614232E+02  0.7816164E-02  0.1320468E+00
        -11   -1    0    0    0    0  0.00000000000E+00  0.00000000000E+00  0.45593999997E+02  0.45594000000E+02  0.51100000000E-03 0. -1.
         11   -1    0    0    0    0 -0.00000000000E+00 -0.00000000000E+00 -0.45593999997E+02  0.45594000000E+02  0.51100000000E-03 0.  1.
    9900012    2    1    2    0    0 -0.23531381434E+02  0.37525366569E+02 -0.81996622953E+01  0.46142317520E+02  0.99999978017E+01 0.  0.
         12    1    1    2    0    0  0.23531381434E+02 -0.37525366569E+02  0.81996622953E+01  0.45045682480E+02  0.00000000000E+00 0. -1.
         11    1    3    3    0    0 -0.14649698929E+02  0.16642045987E+02 -0.15145284350E+01  0.22223077419E+02  0.51100000000E-03 0. -1.
        -11    1    3    3    0    0 -0.48016076244E+01  0.15293965496E+02 -0.50764331389E+01  0.16814606450E+02  0.51100000000E-03 0.  1.
        -12    1    3    3    0    0 -0.40800748807E+01  0.55893550854E+01 -0.16087007214E+01  0.71046336509E+01  0.00000000000E+00 0.  1.
</event>
<event>
 7    1  0.1442665E-008  0.4614232E+02  0.7816164E-02  0.1320468E+00
        -11   -1    0    0    0    0  0.00000000000E+00  0.00000000000E+00  0.45593999997E+02  0.45594000000E+02  0.51100000000E-03 0.  1.
         11   -1    0    0    0    0 -0.00000000000E+00 -0.00000000000E+00 -0.45593999997E+02  0.45594000000E+02  0.51100000000E-03 0. -1.
    9900012    2    1    2    0    0 -0.40252551351E+01  0.31167069119E+02  0.32272660044E+02  0.46142318046E+02  0.10000002594E+02 0.  0.
         12    1    1    2    0    0  0.40252551351E+01 -0.31167069119E+02 -0.32272660044E+02  0.45045681954E+02  0.00000000000E+00 0. -1.
         11    1    3    3    0    0 -0.32694369641E+00  0.62456337853E+01  0.43514675520E+01  0.76190618634E+01  0.51100000000E-03 0. -1.
        -11    1    3    3    0    0 -0.12142484503E+01  0.83664733525E+01  0.15578847556E+02  0.17724919381E+02  0.51100000000E-03 0.  1.
        -12    1    3    3    0    0 -0.24840629884E+01  0.16554961982E+02  0.12342344937E+02  0.20798336801E+02  0.00000000000E+00 0.  1.
</event>
<event>
 7    1  0.1442665E-008  0.4614232E+02  0.7816164E-02  0.1320468E+00
        -11   -1    0    0    0    0  0.00000000000E+00  0.00000000000E+00  0.45593999997E+02  0.45594000000E+02  0.51100000000E-03 0.  1.
         11   -1    0    0    0    0 -0.00000000000E+00 -0.00000000000E+00 -0.45593999997E+02  0.45594000000E+02  0.51100000000E-03 0. -1.
    9900012    2    1    2    0    0 -0.19036314925E+02 -0.19115537317E+01  0.40780855270E+02  0.46142317852E+02  0.10000000833E+02 0.  0.
         12    1    1    2    0    0  0.19036314925E+02  0.19115537317E+01 -0.40780855270E+02  0.45045682148E+02  0.00000000000E+00 0. -1.
         11    1    3    3    0    0 -0.57979064307E+01 -0.44223201129E+01  0.11028831409E+02  0.13221488444E+02  0.51100000000E-03 0. -1.
        -11    1    3    3    0    0 -0.72968772757E+01  0.21934100299E+01  0.20984522684E+02  0.22325000741E+02  0.51100000000E-03 0.  1.
         12    1    3    3    0    0 -0.59415312181E+01  0.31735635119E+00  0.87675011771E+01  0.10595828668E+02  0.00000000000E+00 0. -1.
</event>
<event>
 7    1  0.1442665E-008  0.4614232E+02  0.7816164E-02  0.1320468E+00
        -11   -1    0    0    0    0  0.00000000000E+00  0.00000000000E+00  0.45593999997E+02  0.45594000000E+02  0.51100000000E-03 0. -1.
         11   -1    0    0    0    0 -0.00000000000E+00 -0.00000000000E+00 -0.45593999997E+02  0.45594000000E+02  0.51100000000E-03 0.  1.
    9900012    2    1    2    0    0  0.14295323403E+02  0.65510483775E+01 -0.42211859160E+02  0.46142316968E+02  0.99999927719E+01 0.  0.
         12    1    1    2    0    0 -0.14295323403E+02 -0.65510483775E+01  0.42211859160E+02  0.45045683032E+02  0.00000000000E+00 0. -1.
         11    1    3    3    0    0  0.13890043783E+02  0.34075735805E+01 -0.36108281221E+02  0.38837518548E+02  0.51100000000E-03 0. -1.
        -11    1    3    3    0    0  0.88246544106E+00  0.30497276902E+01 -0.60275858459E+01  0.68125894952E+01  0.51100000000E-03 0.  1.
         12    1    3    3    0    0 -0.47718582103E+00  0.93747106844E-01 -0.75992093389E-01  0.49220892525E+00  0.00000000000E+00 0. -1.
</event>
<event>
 7    1  0.1442665E-008  0.4614231E+02  0.7816164E-02  0.1320468E+00
        -11   -1    0    0    0    0  0.00000000000E+00  0.00000000000E+00  0.45593999997E+02  0.45594000000E+02  0.51100000000E-03 0. -1.
         11   -1    0    0    0    0 -0.00000000000E+00 -0.00000000000E+00 -0.45593999997E+02  0.45594000000E+02  0.51100000000E-03 0.  1.
    9900012    2    1    2    0    0  0.67554437555E+01  0.23964014411E+02  0.37539362783E+02  0.46142314689E+02  0.99999719860E+01 0.  0.
         12    1    1    2    0    0 -0.67554437555E+01 -0.23964014411E+02 -0.37539362783E+02  0.45045685311E+02  0.00000000000E+00 0. -1.
         11    1    3    3    0    0  0.16277714629E+01 -0.20608597263E-01  0.46461515940E+01  0.49230873997E+01  0.51100000000E-03 0. -1.
        -11    1    3    3    0    0  0.51622556678E+01  0.23163986869E+02  0.30232732548E+02  0.38434844722E+02  0.51100000000E-03 0.  1.
        -12    1    3    3    0    0 -0.34583375272E-01  0.82063613931E+00  0.26604786406E+01  0.27843825671E+01  0.00000000000E+00 0.  1.
</event>
<event>
 7    1  0.1442665E-008  0.4614232E+02  0.7816164E-02  0.1320468E+00
        -11   -1    0    0    0    0  0.00000000000E+00  0.00000000000E+00  0.45593999997E+02  0.45594000000E+02  0.51100000000E-03 0. -1.
         11   -1    0    0    0    0 -0.00000000000E+00 -0.00000000000E+00 -0.45593999997E+02  0.45594000000E+02  0.51100000000E-03 0.  1.
    9900012    2    1    2    0    0 -0.14378154159E+02 -0.39750612825E+02 -0.15565051566E+02  0.46142319106E+02  0.10000012264E+02 0.  0.
         12    1    1    2    0    0  0.14378154159E+02  0.39750612825E+02  0.15565051566E+02  0.45045680894E+02  0.00000000000E+00 0. -1.
         11    1    3    3    0    0 -0.78833883051E+01 -0.16602422037E+02 -0.10794793970E+02  0.21314685214E+02  0.51100000000E-03 0. -1.
        -11    1    3    3    0    0 -0.20073572684E+01 -0.13011281741E+02 -0.13921713307E+01  0.13238620661E+02  0.51100000000E-03 0.  1.
        -12    1    3    3    0    0 -0.44874085853E+01 -0.10136909047E+02 -0.33780862649E+01  0.11589013230E+02  0.00000000000E+00 0.  1.
</event>
<event>
 7    1  0.1442665E-008  0.4614232E+02  0.7816164E-02  0.1320468E+00
        -11   -1    0    0    0    0  0.00000000000E+00  0.00000000000E+00  0.45593999997E+02  0.45594000000E+02  0.51100000000E-03 0.  1.
         11   -1    0    0    0    0 -0.00000000000E+00 -0.00000000000E+00 -0.45593999997E+02  0.45594000000E+02  0.51100000000E-03 0. -1.
    9900012    2    1    2    0    0 -0.32097457206E+02 -0.31356099667E+02 -0.39574920699E+01  0.46142317755E+02  0.99999999482E+01 0.  0.
         12    1    1    2    0    0  0.32097457206E+02  0.31356099667E+02  0.39574920699E+01  0.45045682245E+02  0.00000000000E+00 0. -1.
         11    1    3    3    0    0 -0.50440468269E+00 -0.46684518633E+00 -0.75062161703E+00  0.10177433787E+01  0.51100000000E-03 0. -1.
        -11    1    3    3    0    0 -0.67447033464E+01 -0.80815768952E+01 -0.43179369639E+01  0.11377499208E+02  0.51100000000E-03 0.  1.
        -12    1    3    3    0    0 -0.24848349177E+02 -0.22807677585E+02  0.11110665110E+01  0.33747075169E+02  0.00000000000E+00 0.  1.
</event>
<event>
 7    1  0.1442665E-008  0.4614232E+02  0.7816164E-02  0.1320468E+00
        -11   -1    0    0    0    0  0.00000000000E+00  0.00000000000E+00  0.45593999997E+02  0.45594000000E+02  0.51100000000E-03 0.  1.
         11   -1    0    0    0    0 -0.00000000000E+00 -0.00000000000E+00 -0.45593999997E+02  0.45594000000E+02  0.51100000000E-03 0. -1.
    9900012    2    1    2    0    0  0.35198816375E+01 -0.24596895157E+02  0.37572818063E+02  0.46142317906E+02  0.10000001325E+02 0.  0.
         12    1    1    2    0    0 -0.35198816375E+01  0.24596895157E+02 -0.37572818063E+02  0.45045682094E+02  0.00000000000E+00 0. -1.
         11    1    3    3    0    0  0.24842741163E+01 -0.29731625704E+01  0.25431360595E+01  0.46345285449E+01  0.51100000000E-03 0. -1.
        -11    1    3    3    0    0 -0.16873771386E+01 -0.46589784225E+01  0.98247345165E+01  0.11003578060E+02  0.51100000000E-03 0.  1.
        -12    1    3    3    0    0  0.27229846598E+01 -0.16964754164E+02  0.25204947487E+02  0.30504211301E+02  0.00000000000E+00 0.  1.
</event>
<event>
 7    1  0.1442665E-008  0.4614231E+02  0.7816164E-02  0.1320468E+00
        -11   -1    0    0    0    0  0.00000000000E+00  0.00000000000E+00  0.45593999997E+02  0.45594000000E+02  0.51100000000E-03 0.  1.
         11   -1    0    0    0    0 -0.00000000000E+00 -0.00000000000E+00 -0.45593999997E+02  0.45594000000E+02  0.51100000000E-03 0. -1.
    9900012    2    1    2    0    0 -0.19489762344E+02 -0.35776917808E+02  0.19216531991E+02  0.46142314459E+02  0.99999698886E+01 0.  0.
         12    1    1    2    0    0  0.19489762344E+02  0.35776917808E+02 -0.19216531991E+02  0.45045685541E+02  0.00000000000E+00 0. -1.
         11    1    3    3    0    0 -0.76327554180E+00  0.41909336390E+00  0.25315233573E+00  0.90681594967E+00  0.51100000000E-03 0. -1.
        -11    1    3    3    0    0 -0.10203314082E+02 -0.24955473513E+02  0.12628413981E+02  0.29771800692E+02  0.51100000000E-03 0.  1.
        -12    1    3    3    0    0 -0.85231727197E+01 -0.11240537659E+02  0.63349656746E+01  0.15463697817E+02  0.00000000000E+00 0.  1.
</event>
<event>
 7    1  0.1442665E-008  0.4614232E+02  0.7816164E-02  0.1320468E+00
        -11   -1    0    0    0    0  0.00000000000E+00  0.00000000000E+00  0.45593999997E+02  0.45594000000E+02  0.51100000000E-03 0.  1.
         11   -1    0    0    0    0 -0.00000000000E+00 -0.00000000000E+00 -0.45593999997E+02  0.45594000000E+02  0.51100000000E-03 0. -1.
    9900012    2    1    2    0    0 -0.18905627139E+02 -0.53873295006E+01  0.40529833725E+02  0.46142317871E+02  0.10000001000E+02 0.  0.
         12    1    1    2    0    0  0.18905627139E+02  0.53873295006E+01 -0.40529833725E+02  0.45045682129E+02  0.00000000000E+00 0. -1.
         11    1    3    3    0    0 -0.29936075306E+01 -0.15036716173E+01  0.41623509689E+01  0.53430216385E+01  0.51100000000E-03 0. -1.
        -11    1    3    3    0    0 -0.16753664460E+02 -0.34620640937E+01  0.31540588435E+02  0.35881469866E+02  0.51100000000E-03 0.  1.
        -12    1    3    3    0    0  0.84164485169E+00 -0.42159378955E+00  0.48268943212E+01  0.49178263662E+01  0.00000000000E+00 0.  1.
</event>
<event>
 7    1  0.1442665E-008  0.4614232E+02  0.7816164E-02  0.1320468E+00
        -11   -1    0    0    0    0  0.00000000000E+00  0.00000000000E+00  0.45593999997E+02  0.45594000000E+02  0.51100000000E-03 0.  1.
         11   -1    0    0    0    0 -0.00000000000E+00 -0.00000000000E+00 -0.45593999997E+02  0.45594000000E+02  0.51100000000E-03 0. -1.
    9900012    2    1    2    0    0 -0.38926392995E+01 -0.60572554011E+01  0.44466509107E+02  0.46142318566E+02  0.10000007338E+02 0.  0.
         12    1    1    2    0    0  0.38926392995E+01  0.60572554011E+01 -0.44466509107E+02  0.45045681434E+02  0.00000000000E+00 0. -1.
         11    1    3    3    0    0  0.19875613657E+01  0.26381701406E+00  0.68691515264E+01  0.71557838532E+01  0.51100000000E-03 0. -1.
        -11    1    3    3    0    0 -0.34570681012E+01 -0.57970023621E+01  0.33686929332E+02  0.34356451567E+02  0.51100000000E-03 0.  1.
        -12    1    3    3    0    0 -0.24231325640E+01 -0.52407005307E+00  0.39104282489E+01  0.46300831454E+01  0.00000000000E+00 0.  1.
</event>
<event>
 7    1  0.1442665E-008  0.4614232E+02  0.7816164E-02  0.1320468E+00
        -11   -1    0    0    0    0  0.00000000000E+00  0.00000000000E+00  0.45593999997E+02  0.45594000000E+02  0.51100000000E-03 0.  1.
         11   -1    0    0    0    0 -0.00000000000E+00 -0.00000000000E+00 -0.45593999997E+02  0.45594000000E+02  0.51100000000E-03 0. -1.
    9900012    2    1    2    0    0 -0.19200988814E+02 -0.14511390386E+02  0.38076962616E+02  0.46142317583E+02  0.99999983756E+01 0.  0.
         12    1    1    2    0    0  0.19200988814E+02  0.14511390386E+02 -0.38076962616E+02  0.45045682417E+02  0.00000000000E+00 0. -1.
         11    1    3    3    0    0 -0.28257789223E+01 -0.71126312577E+01  0.11101485639E+02  0.13483973212E+02  0.51100000000E-03 0. -1.
        -11    1    3    3    0    0 -0.94693244561E+01 -0.60639205566E+01  0.18442309511E+02  0.21599954132E+02  0.51100000000E-03 0.  1.
         12    1    3    3    0    0 -0.69058854358E+01 -0.13348385712E+01  0.85331674656E+01  0.11058390238E+02  0.00000000000E+00 0. -1.
</event>
<event>
 7    1  0.1442665E-008  0.4614232E+02  0.7816164E-02  0.1320468E+00
        -11   -1    0    0    0    0  0.00000000000E+00  0.00000000000E+00  0.45593999997E+02  0.45594000000E+02  0.51100000000E-03 0.  1.
         11   -1    0    0    0    0 -0.00000000000E+00 -0.00000000000E+00 -0.45593999997E+02  0.45594000000E+02  0.51100000000E-03 0. -1.
    9900012    2    1    2    0    0  0.12652670587E+02 -0.27904697450E+01  0.43142050505E+02  0.46142319672E+02  0.10000017426E+02 0.  0.
         12    1    1    2    0    0 -0.12652670587E+02  0.27904697450E+01 -0.43142050505E+02  0.45045680328E+02  0.00000000000E+00 0. -1.
         11    1    3    3    0    0  0.88502416582E+00 -0.42964367329E+01  0.95631568717E+01  0.10521245458E+02  0.51100000000E-03 0. -1.
        -11    1    3    3    0    0  0.34885604402E+01  0.65340723014E+00  0.10893546686E+02  0.11457152989E+02  0.51100000000E-03 0.  1.
         12    1    3    3    0    0  0.82790859813E+01  0.85255975779E+00  0.22685346948E+02  0.24163921225E+02  0.00000000000E+00 0. -1.
</event>
<event>
 7    1  0.1442665E-008  0.4614232E+02  0.7816164E-02  0.1320468E+00
        -11   -1    0    0    0    0  0.00000000000E+00  0.00000000000E+00  0.45593999997E+02  0.45594000000E+02  0.51100000000E-03 0. -1.
         11   -1    0    0    0    0 -0.00000000000E+00 -0.00000000000E+00 -0.45593999997E+02  0.45594000000E+02  0.51100000000E-03 0.  1.
    9900012    2    1    2    0    0  0.52922870464E+01 -0.40283378196E+02 -0.19451340072E+02  0.46142317724E+02  0.99999996653E+01 0.  0.
         12    1    1    2    0    0 -0.52922870464E+01  0.40283378196E+02  0.19451340072E+02  0.45045682276E+02  0.00000000000E+00 0. -1.
         11    1    3    3    0    0 -0.63983386198E-01 -0.16072387991E+02 -0.37128559856E+01  0.16495788840E+02  0.51100000000E-03 0. -1.
        -11    1    3    3    0    0  0.57796460178E+01 -0.23849867659E+02 -0.15167068135E+02  0.28848924616E+02  0.51100000000E-03 0.  1.
         12    1    3    3    0    0 -0.42337558516E+00 -0.36112254567E+00 -0.57141595146E+00  0.79760426822E+00  0.00000000000E+00 0. -1.
</event>
<event>
 7    1  0.1442665E-008  0.4614232E+02  0.7816164E-02  0.1320468E+00
        -11   -1    0    0    0    0  0.00000000000E+00  0.00000000000E+00  0.45593999997E+02  0.45594000000E+02  0.51100000000E-03 0.  1.
         11   -1    0    0    0    0 -0.00000000000E+00 -0.00000000000E+00 -0.45593999997E+02  0.45594000000E+02  0.51100000000E-03 0. -1.
    9900012    2    1    2    0    0  0.18204695960E+02  0.16403896594E+01  0.41170519721E+02  0.46142317329E+02  0.99999960556E+01 0.  0.
         12    1    1    2    0    0 -0.18204695960E+02 -0.16403896594E+01 -0.41170519721E+02  0.45045682671E+02  0.00000000000E+00 0. -1.
         11    1    3    3    0    0  0.19883119789E+01  0.20475163785E+01  0.81450013275E+01  0.86305709389E+01  0.51100000000E-03 0. -1.
        -11    1    3    3    0    0  0.89092602547E+01  0.33118841598E+01  0.15893528515E+02  0.18518848342E+02  0.51100000000E-03 0.  1.
        -12    1    3    3    0    0  0.73071237268E+01 -0.37190108789E+01  0.17131989878E+02  0.18992898048E+02  0.00000000000E+00 0.  1.
</event>
<event>
 7    1  0.1442665E-008  0.4614232E+02  0.7816164E-02  0.1320468E+00
        -11   -1    0    0    0    0  0.00000000000E+00  0.00000000000E+00  0.45593999997E+02  0.45594000000E+02  0.51100000000E-03 0.  1.
         11   -1    0    0    0    0 -0.00000000000E+00 -0.00000000000E+00 -0.45593999997E+02  0.45594000000E+02  0.51100000000E-03 0. -1.
    9900012    2    1    2    0    0  0.42414037403E+02  0.13206067376E+02  0.74674487769E+01  0.46142316793E+02  0.99999911718E+01 0.  0.
         12    1    1    2    0    0 -0.42414037403E+02 -0.13206067376E+02 -0.74674487769E+01  0.45045683207E+02  0.00000000000E+00 0. -1.
         11    1    3    3    0    0  0.27718310505E+02  0.70985979897E+01  0.79459861464E+01  0.29695681955E+02  0.51100000000E-03 0. -1.
        -11    1    3    3    0    0  0.11226268864E+02  0.53181802188E+01  0.12609678082E+01  0.12486079990E+02  0.51100000000E-03 0.  1.
         12    1    3    3    0    0  0.34694580339E+01  0.78928916736E+00 -0.17395051778E+01  0.39605548478E+01  0.00000000000E+00 0. -1.
</event>
<event>
 7    1  0.1442665E-008  0.4614232E+02  0.7816164E-02  0.1320468E+00
        -11   -1    0    0    0    0  0.00000000000E+00  0.00000000000E+00  0.45593999997E+02  0.45594000000E+02  0.51100000000E-03 0. -1.
         11   -1    0    0    0    0 -0.00000000000E+00 -0.00000000000E+00 -0.45593999997E+02  0.45594000000E+02  0.51100000000E-03 0.  1.
    9900012    2    1    2    0    0  0.35061316664E+02 -0.89660466971E+01 -0.26822144058E+02  0.46142319503E+02  0.10000015886E+02 0.  0.
         12    1    1    2    0    0 -0.35061316664E+02  0.89660466971E+01  0.26822144058E+02  0.45045680497E+02  0.00000000000E+00 0. -1.
         11    1    3    3    0    0  0.85598687288E+00 -0.73467214525E+00 -0.20870130562E+00  0.11471761781E+01  0.51100000000E-03 0. -1.
        -11    1    3    3    0    0  0.61386375075E+01 -0.37654255865E+01 -0.91293767413E+01  0.11627846759E+02  0.51100000000E-03 0.  1.
        -12    1    3    3    0    0  0.28066692283E+02 -0.44659489654E+01 -0.17484066011E+02  0.33367296567E+02  0.00000000000E+00 0.  1.
</event>
<event>
 7    1  0.1442665E-008  0.4614232E+02  0.7816164E-02  0.1320468E+00
        -11   -1    0    0    0    0  0.00000000000E+00  0.00000000000E+00  0.45593999997E+02  0.45594000000E+02  0.51100000000E-03 0. -1.
         11   -1    0    0    0    0 -0.00000000000E+00 -0.00000000000E+00 -0.45593999997E+02  0.45594000000E+02  0.51100000000E-03 0.  1.
    9900012    2    1    2    0    0 -0.18793201354E+02  0.33809648597E+02 -0.23083256625E+02  0.46142317723E+02  0.99999996504E+01 0.  0.
         12    1    1    2    0    0  0.18793201354E+02 -0.33809648597E+02  0.23083256625E+02  0.45045682277E+02  0.00000000000E+00 0. -1.
         11    1    3    3    0    0 -0.56490384897E+00  0.53436291260E+01 -0.48813528754E+01  0.72595519662E+01  0.51100000000E-03 0.  1.
        -11    1    3    3    0    0 -0.10983362418E+02  0.18952886277E+02 -0.85469888142E+01  0.23513765464E+02  0.51100000000E-03 0. -1.
        -12    1    3    3    0    0 -0.72449350867E+01  0.95131331940E+01 -0.96549149354E+01  0.15369000292E+02  0.00000000000E+00 0.  1.
</event>
<event>
 7    1  0.1442665E-008  0.4614232E+02  0.7816164E-02  0.1320468E+00
        -11   -1    0    0    0    0  0.00000000000E+00  0.00000000000E+00  0.45593999997E+02  0.45594000000E+02  0.51100000000E-03 0.  1.
         11   -1    0    0    0    0 -0.00000000000E+00 -0.00000000000E+00 -0.45593999997E+02  0.45594000000E+02  0.51100000000E-03 0. -1.
    9900012    2    1    2    0    0 -0.39553924867E+02 -0.21341217048E+02  0.30254063711E+01  0.46142316509E+02  0.99999885791E+01 0.  0.
         12    1    1    2    0    0  0.39553924867E+02  0.21341217048E+02 -0.30254063711E+01  0.45045683491E+02  0.00000000000E+00 0. -1.
         11    1    3    3    0    0 -0.61571121201E+01 -0.12149028588E+01  0.14004835591E+01  0.64301923048E+01  0.51100000000E-03 0. -1.
        -11    1    3    3    0    0 -0.24486746129E+02 -0.18283551435E+02  0.17902730068E+01  0.30611992205E+02  0.51100000000E-03 0.  1.
        -12    1    3    3    0    0 -0.89100666180E+01 -0.18427627539E+01 -0.16535019474E+00  0.91001319985E+01  0.00000000000E+00 0.  1.
</event>
<event>
 7    1  0.1442665E-008  0.4614232E+02  0.7816164E-02  0.1320468E+00
        -11   -1    0    0    0    0  0.00000000000E+00  0.00000000000E+00  0.45593999997E+02  0.45594000000E+02  0.51100000000E-03 0. -1.
         11   -1    0    0    0    0 -0.00000000000E+00 -0.00000000000E+00 -0.45593999997E+02  0.45594000000E+02  0.51100000000E-03 0.  1.
    9900012    2    1    2    0    0 -0.20227150050E+02 -0.38954434556E+02 -0.10125605422E+02  0.46142318122E+02  0.10000003292E+02 0.  0.
         12    1    1    2    0    0  0.20227150050E+02  0.38954434556E+02  0.10125605422E+02  0.45045681878E+02  0.00000000000E+00 0. -1.
         11    1    3    3    0    0 -0.44682539634E+01 -0.51655400065E+01 -0.54106856665E+00  0.68513394672E+01  0.51100000000E-03 0. -1.
        -11    1    3    3    0    0 -0.14985416800E+01 -0.93728960734E+01 -0.18354589014E+00  0.94937083020E+01  0.51100000000E-03 0.  1.
        -12    1    3    3    0    0 -0.14260354406E+02 -0.24415998476E+02 -0.94009909653E+01  0.29797270353E+02  0.00000000000E+00 0.  1.
</event>
<event>
 7    1  0.1442665E-008  0.4614232E+02  0.7816164E-02  0.1320468E+00
        -11   -1    0    0    0    0  0.00000000000E+00  0.00000000000E+00  0.45593999997E+02  0.45594000000E+02  0.51100000000E-03 0. -1.
         11   -1    0    0    0    0 -0.00000000000E+00 -0.00000000000E+00 -0.45593999997E+02  0.45594000000E+02  0.51100000000E-03 0.  1.
    9900012    2    1    2    0    0  0.36820714170E+01 -0.43809838993E+02  0.98108961139E+01  0.46142319574E+02  0.10000016531E+02 0.  0.
         12    1    1    2    0    0 -0.36820714170E+01  0.43809838993E+02 -0.98108961139E+01  0.45045680426E+02  0.00000000000E+00 0. -1.
         11    1    3    3    0    0 -0.12719059219E+01 -0.81232500688E+01  0.87233645038E-01  0.82226848611E+01  0.51100000000E-03 0. -1.
        -11    1    3    3    0    0  0.62227397287E+01 -0.30153919515E+02  0.67861192949E+01  0.31528285193E+02  0.51100000000E-03 0.  1.
         12    1    3    3    0    0 -0.12687623898E+01 -0.55326694085E+01  0.29375431740E+01  0.63913495199E+01  0.00000000000E+00 0. -1.
</event>
<event>
 7    1  0.1442665E-008  0.4614232E+02  0.7816164E-02  0.1320468E+00
        -11   -1    0    0    0    0  0.00000000000E+00  0.00000000000E+00  0.45593999997E+02  0.45594000000E+02  0.51100000000E-03 0.  1.
         11   -1    0    0    0    0 -0.00000000000E+00 -0.00000000000E+00 -0.45593999997E+02  0.45594000000E+02  0.51100000000E-03 0. -1.
    9900012    2    1    2    0    0  0.10237511336E+02  0.37698137012E+01  0.43704632074E+02  0.46142323200E+02  0.10000049596E+02 0.  0.
         12    1    1    2    0    0 -0.10237511336E+02 -0.37698137012E+01 -0.43704632074E+02  0.45045676800E+02  0.00000000000E+00 0. -1.
         11    1    3    3    0    0  0.21382433099E+01 -0.19702853168E+01  0.38981762480E+01  0.48631149486E+01  0.51100000000E-03 0. -1.
        -11    1    3    3    0    0  0.62127988602E+01  0.58860846616E+01  0.36295552987E+02  0.37290910812E+02  0.51100000000E-03 0.  1.
        -12    1    3    3    0    0  0.18864691656E+01 -0.14598564352E+00  0.35109028390E+01  0.39882974395E+01  0.00000000000E+00 0.  1.
</event>
<event>
 7    1  0.1442665E-008  0.4614232E+02  0.7816164E-02  0.1320468E+00
        -11   -1    0    0    0    0  0.00000000000E+00  0.00000000000E+00  0.45593999997E+02  0.45594000000E+02  0.51100000000E-03 0.  1.
         11   -1    0    0    0    0 -0.00000000000E+00 -0.00000000000E+00 -0.45593999997E+02  0.45594000000E+02  0.51100000000E-03 0. -1.
    9900012    2    1    2    0    0 -0.16972245378E+02 -0.41717924559E+02 -0.81922247376E+00  0.46142317986E+02  0.10000002047E+02 0.  0.
         12    1    1    2    0    0  0.16972245378E+02  0.41717924559E+02  0.81922247376E+00  0.45045682014E+02  0.00000000000E+00 0. -1.
         11    1    3    3    0    0 -0.31175842094E+01 -0.17772140979E+02  0.14036848193E+01  0.18098029108E+02  0.51100000000E-03 0. -1.
        -11    1    3    3    0    0 -0.35408868341E+01 -0.51470616762E+01 -0.21344026408E+01  0.66019541323E+01  0.51100000000E-03 0.  1.
        -12    1    3    3    0    0 -0.10313774334E+02 -0.18798721904E+02 -0.88504652168E-01  0.21442334745E+02  0.00000000000E+00 0.  1.
</event>
<event>
 7    1  0.1442665E-008  0.4614232E+02  0.7816164E-02  0.1320468E+00
        -11   -1    0    0    0    0  0.00000000000E+00  0.00000000000E+00  0.45593999997E+02  0.45594000000E+02  0.51100000000E-03 0. -1.
         11   -1    0    0    0    0 -0.00000000000E+00 -0.00000000000E+00 -0.45593999997E+02  0.45594000000E+02  0.51100000000E-03 0.  1.
    9900012    2    1    2    0    0 -0.32463974493E+02  0.23050783279E+02 -0.21068108218E+02  0.46142318369E+02  0.10000005547E+02 0.  0.
         12    1    1    2    0    0  0.32463974493E+02 -0.23050783279E+02  0.21068108218E+02  0.45045681631E+02  0.00000000000E+00 0. -1.
         11    1    3    3    0    0 -0.71791138365E+00  0.28991934821E+01 -0.18216539509E+01  0.34984486532E+01  0.51100000000E-03 0. -1.
        -11    1    3    3    0    0 -0.12511200096E+02  0.63166415806E+01 -0.44289564345E+01  0.14698494619E+02  0.51100000000E-03 0.  1.
        -12    1    3    3    0    0 -0.19234863013E+02  0.13834948217E+02 -0.14817497833E+02  0.27945375097E+02  0.00000000000E+00 0.  1.
</event>
<event>
 7    1  0.1442665E-008  0.4614232E+02  0.7816164E-02  0.1320468E+00
        -11   -1    0    0    0    0  0.00000000000E+00  0.00000000000E+00  0.45593999997E+02  0.45594000000E+02  0.51100000000E-03 0.  1.
         11   -1    0    0    0    0 -0.00000000000E+00 -0.00000000000E+00 -0.45593999997E+02  0.45594000000E+02  0.51100000000E-03 0. -1.
    9900012    2    1    2    0    0  0.29192985756E+01 -0.10890138407E+02  0.43611879704E+02  0.46142317965E+02  0.10000001861E+02 0.  0.
         12    1    1    2    0    0 -0.29192985756E+01  0.10890138407E+02 -0.43611879704E+02  0.45045682035E+02  0.00000000000E+00 0. -1.
         11    1    3    3    0    0  0.46568160099E+01 -0.63931962071E+01  0.32772962433E+02  0.33713883787E+02  0.51100000000E-03 0. -1.
        -11    1    3    3    0    0  0.42435971130E+00 -0.27140544511E+01  0.79167216502E+01  0.83797765290E+01  0.51100000000E-03 0.  1.
         12    1    3    3    0    0 -0.21618771456E+01 -0.17828877490E+01  0.29221956202E+01  0.40486576493E+01  0.00000000000E+00 0. -1.
</event>
<event>
 7    1  0.1442665E-008  0.4614232E+02  0.7816164E-02  0.1320468E+00
        -11   -1    0    0    0    0  0.00000000000E+00  0.00000000000E+00  0.45593999997E+02  0.45594000000E+02  0.51100000000E-03 0.  1.
         11   -1    0    0    0    0 -0.00000000000E+00 -0.00000000000E+00 -0.45593999997E+02  0.45594000000E+02  0.51100000000E-03 0. -1.
    9900012    2    1    2    0    0 -0.15631578708E+02  0.14559886236E+02  0.39658252076E+02  0.46142317656E+02  0.99999990409E+01 0.  0.
         12    1    1    2    0    0  0.15631578708E+02 -0.14559886236E+02 -0.39658252076E+02  0.45045682344E+02  0.00000000000E+00 0. -1.
         11    1    3    3    0    0 -0.35939324516E+01  0.16559711731E+01  0.13233724184E+02  0.13812677041E+02  0.51100000000E-03 0. -1.
        -11    1    3    3    0    0 -0.89308284551E+01  0.12378342539E+02  0.23553274668E+02  0.28066702848E+02  0.51100000000E-03 0.  1.
        -12    1    3    3    0    0 -0.31068178014E+01  0.52557252363E+00  0.28712532237E+01  0.42629377668E+01  0.00000000000E+00 0.  1.
</event>
<event>
 7    1  0.1442665E-008  0.4614232E+02  0.7816164E-02  0.1320468E+00
        -11   -1    0    0    0    0  0.00000000000E+00  0.00000000000E+00  0.45593999997E+02  0.45594000000E+02  0.51100000000E-03 0.  1.
         11   -1    0    0    0    0 -0.00000000000E+00 -0.00000000000E+00 -0.45593999997E+02  0.45594000000E+02  0.51100000000E-03 0. -1.
    9900012    2    1    2    0    0  0.73103432107E+01  0.42576457574E+02  0.12763907961E+02  0.46142320920E+02  0.10000028801E+02 0.  0.
         12    1    1    2    0    0 -0.73103432107E+01 -0.42576457574E+02 -0.12763907961E+02  0.45045679080E+02  0.00000000000E+00 0. -1.
         11    1    3    3    0    0  0.48444838337E+01  0.20237610825E+02  0.16827722771E+01  0.20877299594E+02  0.51100000000E-03 0. -1.
        -11    1    3    3    0    0  0.49381202736E+00  0.16302956430E+02  0.86804552035E+01  0.18476486178E+02  0.51100000000E-03 0.  1.
        -12    1    3    3    0    0  0.19720473496E+01  0.60358903183E+01  0.24006804808E+01  0.67885351479E+01  0.00000000000E+00 0.  1.
</event>
<event>
 7    1  0.1442665E-008  0.4614232E+02  0.7816164E-02  0.1320468E+00
        -11   -1    0    0    0    0  0.00000000000E+00  0.00000000000E+00  0.45593999997E+02  0.45594000000E+02  0.51100000000E-03 0.  1.
         11   -1    0    0    0    0 -0.00000000000E+00 -0.00000000000E+00 -0.45593999997E+02  0.45594000000E+02  0.51100000000E-03 0. -1.
    9900012    2    1    2    0    0  0.13746681071E+02  0.42831536654E+02 -0.23667986364E+01  0.46142317539E+02  0.99999979734E+01 0.  0.
         12    1    1    2    0    0 -0.13746681071E+02 -0.42831536654E+02  0.23667986364E+01  0.45045682461E+02  0.00000000000E+00 0. -1.
         11    1    3    3    0    0  0.10303057342E+02  0.32844049179E+02 -0.43931486598E+01  0.34701358943E+02  0.51100000000E-03 0. -1.
        -11    1    3    3    0    0  0.40394927705E+01  0.98251353434E+01  0.20657516934E+01  0.10822112395E+02  0.51100000000E-03 0.  1.
         12    1    3    3    0    0 -0.59586904147E+00  0.16235213096E+00 -0.39401670056E-01  0.61884620110E+00  0.00000000000E+00 0. -1.
</event>
<event>
 7    1  0.1442665E-008  0.4614232E+02  0.7816164E-02  0.1320468E+00
        -11   -1    0    0    0    0  0.00000000000E+00  0.00000000000E+00  0.45593999997E+02  0.45594000000E+02  0.51100000000E-03 0.  1.
         11   -1    0    0    0    0 -0.00000000000E+00 -0.00000000000E+00 -0.45593999997E+02  0.45594000000E+02  0.51100000000E-03 0. -1.
    9900012    2    1    2    0    0 -0.32493215180E+02  0.24038521497E+02  0.19886023373E+02  0.46142317920E+02  0.10000001445E+02 0.  0.
         12    1    1    2    0    0  0.32493215180E+02 -0.24038521497E+02 -0.19886023373E+02  0.45045682080E+02  0.00000000000E+00 0. -1.
         11    1    3    3    0    0 -0.21272187484E+02  0.11460653506E+02  0.12743193933E+02  0.27317421749E+02  0.51100000000E-03 0. -1.
        -11    1    3    3    0    0 -0.10386498168E+02  0.10365464992E+02  0.74216700376E+01  0.16443947066E+02  0.51100000000E-03 0.  1.
         12    1    3    3    0    0 -0.83452952847E+00  0.22124029981E+01 -0.27884059751E+00  0.23809491046E+01  0.00000000000E+00 0. -1.
</event>
<event>
 7    1  0.1442665E-008  0.4614232E+02  0.7816164E-02  0.1320468E+00
        -11   -1    0    0    0    0  0.00000000000E+00  0.00000000000E+00  0.45593999997E+02  0.45594000000E+02  0.51100000000E-03 0.  1.
         11   -1    0    0    0    0 -0.00000000000E+00 -0.00000000000E+00 -0.45593999997E+02  0.45594000000E+02  0.51100000000E-03 0. -1.
    9900012    2    1    2    0    0  0.30265315249E+02  0.24478525690E+02  0.22669937751E+02  0.46142316469E+02  0.99999882190E+01 0.  0.
         12    1    1    2    0    0 -0.30265315249E+02 -0.24478525690E+02 -0.22669937751E+02  0.45045683531E+02  0.00000000000E+00 0. -1.
         11    1    3    3    0    0 -0.62803973846E+00  0.29659584008E-01  0.20602172611E+00  0.66163344592E+00  0.51100000000E-03 0. -1.
        -11    1    3    3    0    0  0.25292992979E+02  0.18814207711E+02  0.19062988301E+02  0.36838939030E+02  0.51100000000E-03 0.  1.
        -12    1    3    3    0    0  0.56003620085E+01  0.56346583953E+01  0.34009277247E+01  0.86417439934E+01  0.00000000000E+00 0.  1.
</event>
<event>
 7    1  0.1442665E-008  0.4614232E+02  0.7816164E-02  0.1320468E+00
        -11   -1    0    0    0    0  0.00000000000E+00  0.00000000000E+00  0.45593999997E+02  0.45594000000E+02  0.51100000000E-03 0.  1.
         11   -1    0    0    0    0 -0.00000000000E+00 -0.00000000000E+00 -0.45593999997E+02  0.45594000000E+02  0.51100000000E-03 0. -1.
    9900012    2    1    2    0    0 -0.41613589024E+02  0.39385369595E+01  0.16790192537E+02  0.46142318406E+02  0.10000005883E+02 0.  0.
         12    1    1    2    0    0  0.41613589024E+02 -0.39385369595E+01 -0.16790192537E+02  0.45045681594E+02  0.00000000000E+00 0. -1.
         11    1    3    3    0    0 -0.10633401203E+02  0.22446242278E+01  0.16564418225E+01  0.10993241508E+02  0.51100000000E-03 0. -1.
        -11    1    3    3    0    0 -0.21037929249E+02  0.20234187438E+00  0.68608533486E+01  0.22129318071E+02  0.51100000000E-03 0.  1.
         12    1    3    3    0    0 -0.99422585709E+01  0.14915708574E+01  0.82728973656E+01  0.13019758828E+02  0.00000000000E+00 0. -1.
</event>
<event>
 7    1  0.1442665E-008  0.4614232E+02  0.7816164E-02  0.1320468E+00
        -11   -1    0    0    0    0  0.00000000000E+00  0.00000000000E+00  0.45593999997E+02  0.45594000000E+02  0.51100000000E-03 0.  1.
         11   -1    0    0    0    0 -0.00000000000E+00 -0.00000000000E+00 -0.45593999997E+02  0.45594000000E+02  0.51100000000E-03 0. -1.
    9900012    2    1    2    0    0  0.22915038998E+02 -0.29232549140E+02  0.25484751230E+02  0.46142317779E+02  0.10000000166E+02 0.  0.
         12    1    1    2    0    0 -0.22915038998E+02  0.29232549140E+02 -0.25484751230E+02  0.45045682221E+02  0.00000000000E+00 0. -1.
         11    1    3    3    0    0  0.79951735267E+01 -0.14163096051E+02  0.10105451850E+02  0.19147747826E+02  0.51100000000E-03 0. -1.
        -11    1    3    3    0    0  0.22569858884E+01 -0.64400525751E+01  0.40244810899E+01  0.79224182404E+01  0.51100000000E-03 0.  1.
        -12    1    3    3    0    0  0.12662879583E+02 -0.86294005139E+01  0.11354818290E+02  0.19072151713E+02  0.00000000000E+00 0.  1.
</event>
<event>
 7    1  0.1442665E-008  0.4614231E+02  0.7816164E-02  0.1320468E+00
        -11   -1    0    0    0    0  0.00000000000E+00  0.00000000000E+00  0.45593999997E+02  0.45594000000E+02  0.51100000000E-03 0. -1.
         11   -1    0    0    0    0 -0.00000000000E+00 -0.00000000000E+00 -0.45593999997E+02  0.45594000000E+02  0.51100000000E-03 0.  1.
    9900012    2    1    2    0    0  0.26407039637E+02 -0.30724693761E+02 -0.19692016718E+02  0.46142311288E+02  0.99999409743E+01 0.  0.
         12    1    1    2    0    0 -0.26407039637E+02  0.30724693761E+02  0.19692016718E+02  0.45045688712E+02  0.00000000000E+00 0. -1.
         11    1    3    3    0    0  0.33517641501E+01 -0.37893939253E+01  0.64817137816E-01  0.50594496501E+01  0.51100000000E-03 0. -1.
        -11    1    3    3    0    0  0.22795844888E+02 -0.26994941483E+02 -0.20099209029E+02  0.40649177281E+02  0.51100000000E-03 0.  1.
        -12    1    3    3    0    0  0.25943059955E+00  0.59641647431E-01  0.34237517303E+00  0.43368435665E+00  0.00000000000E+00 0.  1.
</event>
<event>
 7    1  0.1442665E-008  0.4614232E+02  0.7816164E-02  0.1320468E+00
        -11   -1    0    0    0    0  0.00000000000E+00  0.00000000000E+00  0.45593999997E+02  0.45594000000E+02  0.51100000000E-03 0. -1.
         11   -1    0    0    0    0 -0.00000000000E+00 -0.00000000000E+00 -0.45593999997E+02  0.45594000000E+02  0.51100000000E-03 0.  1.
    9900012    2    1    2    0    0  0.14089390235E+02  0.37705073847E+02 -0.20222016863E+02  0.46142317887E+02  0.10000001151E+02 0.  0.
         12    1    1    2    0    0 -0.14089390235E+02 -0.37705073847E+02  0.20222016863E+02  0.45045682113E+02  0.00000000000E+00 0. -1.
         11    1    3    3    0    0  0.45615908453E+01  0.13689103881E+02 -0.52386876767E+01  0.15350684837E+02  0.51100000000E-03 0.  1.
        -11    1    3    3    0    0  0.26569096976E+01  0.98353774286E+00 -0.20538780223E+01  0.34992757572E+01  0.51100000000E-03 0. -1.
         12    1    3    3    0    0  0.68708896922E+01  0.23032432223E+02 -0.12929451164E+02  0.27292357294E+02  0.00000000000E+00 0. -1.
</event>
<event>
 7    1  0.1442665E-008  0.4614232E+02  0.7816164E-02  0.1320468E+00
        -11   -1    0    0    0    0  0.00000000000E+00  0.00000000000E+00  0.45593999997E+02  0.45594000000E+02  0.51100000000E-03 0.  1.
         11   -1    0    0    0    0 -0.00000000000E+00 -0.00000000000E+00 -0.45593999997E+02  0.45594000000E+02  0.51100000000E-03 0. -1.
    9900012    2    1    2    0    0  0.40376939454E+02  0.12177457890E+02  0.15828005524E+02  0.46142317863E+02  0.10000000929E+02 0.  0.
         12    1    1    2    0    0 -0.40376939454E+02 -0.12177457890E+02 -0.15828005524E+02  0.45045682137E+02  0.00000000000E+00 0. -1.
         11    1    3    3    0    0  0.24528473955E+02  0.57302395967E+01  0.57133405615E+01  0.25828742537E+02  0.51100000000E-03 0. -1.
        -11    1    3    3    0    0  0.76331970584E+01  0.30303544980E+01  0.72816409696E+01  0.10975930083E+02  0.51100000000E-03 0.  1.
         12    1    3    3    0    0  0.82152684405E+01  0.34168637949E+01  0.28330239932E+01  0.93376452433E+01  0.00000000000E+00 0. -1.
</event>
<event>
 7    1  0.1442665E-008  0.4614232E+02  0.7816164E-02  0.1320468E+00
        -11   -1    0    0    0    0  0.00000000000E+00  0.00000000000E+00  0.45593999997E+02  0.45594000000E+02  0.51100000000E-03 0.  1.
         11   -1    0    0    0    0 -0.00000000000E+00 -0.00000000000E+00 -0.45593999997E+02  0.45594000000E+02  0.51100000000E-03 0. -1.
    9900012    2    1    2    0    0  0.44810259018E+02  0.36110748433E+01  0.28485530398E+01  0.46142318418E+02  0.10000005986E+02 0.  0.
         12    1    1    2    0    0 -0.44810259018E+02 -0.36110748433E+01 -0.28485530398E+01  0.45045681582E+02  0.00000000000E+00 0. -1.
         11    1    3    3    0    0  0.80053963135E+01 -0.13700030561E+01  0.53576971631E+00  0.81394304444E+01  0.51100000000E-03 0. -1.
        -11    1    3    3    0    0  0.84480520599E+01  0.17879211421E+01  0.37863833463E+01  0.94288358095E+01  0.51100000000E-03 0.  1.
        -12    1    3    3    0    0  0.28356810645E+02  0.31931567572E+01 -0.14736000228E+01  0.28574052164E+02  0.00000000000E+00 0.  1.
</event>
<event>
 7    1  0.1442665E-008  0.4614232E+02  0.7816164E-02  0.1320468E+00
        -11   -1    0    0    0    0  0.00000000000E+00  0.00000000000E+00  0.45593999997E+02  0.45594000000E+02  0.51100000000E-03 0. -1.
         11   -1    0    0    0    0 -0.00000000000E+00 -0.00000000000E+00 -0.45593999997E+02  0.45594000000E+02  0.51100000000E-03 0.  1.
    9900012    2    1    2    0    0  0.31291572334E+02  0.44124749203E+01 -0.32101107946E+02  0.46142316906E+02  0.99999922030E+01 0.  0.
         12    1    1    2    0    0 -0.31291572334E+02 -0.44124749203E+01  0.32101107946E+02  0.45045683094E+02  0.00000000000E+00 0. -1.
         11    1    3    3    0    0  0.29710766404E+01 -0.13001160469E+01 -0.63175859880E+01  0.71013724811E+01  0.51100000000E-03 0. -1.
        -11    1    3    3    0    0  0.24304292970E+02  0.66219664194E+01 -0.22462853775E+02  0.33750983630E+02  0.51100000000E-03 0.  1.
        -12    1    3    3    0    0  0.40162027232E+01 -0.90937545221E+00 -0.33206681831E+01  0.52899607946E+01  0.00000000000E+00 0.  1.
</event>
<event>
 7    1  0.1442665E-008  0.4614232E+02  0.7816164E-02  0.1320468E+00
        -11   -1    0    0    0    0  0.00000000000E+00  0.00000000000E+00  0.45593999997E+02  0.45594000000E+02  0.51100000000E-03 0.  1.
         11   -1    0    0    0    0 -0.00000000000E+00 -0.00000000000E+00 -0.45593999997E+02  0.45594000000E+02  0.51100000000E-03 0. -1.
    9900012    2    1    2    0    0  0.34166115598E+02  0.19530530469E+01  0.29291221191E+02  0.46142317520E+02  0.99999978006E+01 0.  0.
         12    1    1    2    0    0 -0.34166115598E+02 -0.19530530469E+01 -0.29291221191E+02  0.45045682480E+02  0.00000000000E+00 0. -1.
         11    1    3    3    0    0  0.87493498222E+01 -0.17826424531E+01  0.44529938842E+01  0.99778800966E+01  0.51100000000E-03 0. -1.
        -11    1    3    3    0    0  0.20058373805E+02  0.49873744467E+01  0.20926406101E+02  0.29413036840E+02  0.51100000000E-03 0.  1.
        -12    1    3    3    0    0  0.53583919703E+01 -0.12516789468E+01  0.39118212060E+01  0.67514005837E+01  0.00000000000E+00 0.  1.
</event>
<event>
 7    1  0.1442665E-008  0.4614232E+02  0.7816164E-02  0.1320468E+00
        -11   -1    0    0    0    0  0.00000000000E+00  0.00000000000E+00  0.45593999997E+02  0.45594000000E+02  0.51100000000E-03 0.  1.
         11   -1    0    0    0    0 -0.00000000000E+00 -0.00000000000E+00 -0.45593999997E+02  0.45594000000E+02  0.51100000000E-03 0. -1.
    9900012    2    1    2    0    0  0.97619240236E+01  0.35876607853E+02  0.25430047686E+02  0.46142317888E+02  0.10000001155E+02 0.  0.
         12    1    1    2    0    0 -0.97619240236E+01 -0.35876607853E+02 -0.25430047686E+02  0.45045682112E+02  0.00000000000E+00 0. -1.
         11    1    3    3    0    0  0.72915772636E+00  0.48334600237E+01  0.39856639986E+00  0.49043717464E+01  0.51100000000E-03 0. -1.
        -11    1    3    3    0    0  0.95348875328E+01  0.30596530241E+02  0.24814655648E+02  0.40531825499E+02  0.51100000000E-03 0.  1.
        -12    1    3    3    0    0 -0.50212123551E+00  0.44661758792E+00  0.21682563786E+00  0.70612064283E+00  0.00000000000E+00 0.  1.
</event>
<event>
 7    1  0.1442665E-008  0.4614232E+02  0.7816164E-02  0.1320468E+00
        -11   -1    0    0    0    0  0.00000000000E+00  0.00000000000E+00  0.45593999997E+02  0.45594000000E+02  0.51100000000E-03 0. -1.
         11   -1    0    0    0    0 -0.00000000000E+00 -0.00000000000E+00 -0.45593999997E+02  0.45594000000E+02  0.51100000000E-03 0.  1.
    9900012    2    1    2    0    0  0.31794740605E+02  0.28782214078E+02  0.13776504316E+02  0.46142318203E+02  0.10000004033E+02 0.  0.
         12    1    1    2    0    0 -0.31794740605E+02 -0.28782214078E+02 -0.13776504316E+02  0.45045681797E+02  0.00000000000E+00 0. -1.
         11    1    3    3    0    0  0.59978380966E+01  0.10877267857E+02  0.22977650513E+01  0.12632052183E+02  0.51100000000E-03 0. -1.
        -11    1    3    3    0    0  0.19320632800E+02  0.13603658915E+02  0.96478123517E+01  0.25523061555E+02  0.51100000000E-03 0.  1.
        -12    1    3    3    0    0  0.64762697078E+01  0.43012873061E+01  0.18309269135E+01  0.79872044659E+01  0.00000000000E+00 0.  1.
</event>
<event>
 7    1  0.1442665E-008  0.4614232E+02  0.7816164E-02  0.1320468E+00
        -11   -1    0    0    0    0  0.00000000000E+00  0.00000000000E+00  0.45593999997E+02  0.45594000000E+02  0.51100000000E-03 0. -1.
         11   -1    0    0    0    0 -0.00000000000E+00 -0.00000000000E+00 -0.45593999997E+02  0.45594000000E+02  0.51100000000E-03 0.  1.
    9900012    2    1    2    0    0 -0.42208895812E+02 -0.83180579713E+01  0.13354111848E+02  0.46142320104E+02  0.10000021361E+02 0.  0.
         12    1    1    2    0    0  0.42208895812E+02  0.83180579713E+01 -0.13354111848E+02  0.45045679896E+02  0.00000000000E+00 0. -1.
         11    1    3    3    0    0 -0.14597427532E+02 -0.53770064010E+01  0.78855107881E+01  0.17440710107E+02  0.51100000000E-03 0. -1.
        -11    1    3    3    0    0 -0.24343048340E+02 -0.33717452641E+01  0.61544170571E+01  0.25334354505E+02  0.51100000000E-03 0.  1.
         12    1    3    3    0    0 -0.32684199404E+01  0.43069369387E+00 -0.68581599750E+00  0.33672554918E+01  0.00000000000E+00 0. -1.
</event>
<event>
 7    1  0.1442665E-008  0.4614232E+02  0.7816164E-02  0.1320468E+00
        -11   -1    0    0    0    0  0.00000000000E+00  0.00000000000E+00  0.45593999997E+02  0.45594000000E+02  0.51100000000E-03 0. -1.
         11   -1    0    0    0    0 -0.00000000000E+00 -0.00000000000E+00 -0.45593999997E+02  0.45594000000E+02  0.51100000000E-03 0.  1.
    9900012    2    1    2    0    0 -0.29991544862E+02 -0.31190425548E+02 -0.12521102395E+02  0.46142318583E+02  0.10000007497E+02 0.  0.
         12    1    1    2    0    0  0.29991544862E+02  0.31190425548E+02  0.12521102395E+02  0.45045681417E+02  0.00000000000E+00 0. -1.
         11    1    3    3    0    0 -0.20152269889E+02 -0.24631811853E+02 -0.88111426646E+01  0.33022361699E+02  0.51100000000E-03 0.  1.
        -11    1    3    3    0    0 -0.84511569071E+01 -0.33960475232E+01 -0.23348755950E+01  0.94024909547E+01  0.51100000000E-03 0. -1.
        -12    1    3    3    0    0 -0.13881180660E+01 -0.31625661726E+01 -0.13750841355E+01  0.37174659300E+01  0.00000000000E+00 0.  1.
</event>
<event>
 7    1  0.1442665E-008  0.4614232E+02  0.7816164E-02  0.1320468E+00
        -11   -1    0    0    0    0  0.00000000000E+00  0.00000000000E+00  0.45593999997E+02  0.45594000000E+02  0.51100000000E-03 0.  1.
         11   -1    0    0    0    0 -0.00000000000E+00 -0.00000000000E+00 -0.45593999997E+02  0.45594000000E+02  0.51100000000E-03 0. -1.
    9900012    2    1    2    0    0 -0.62677863055E+01 -0.31249054053E+02  0.31832765902E+02  0.46142317528E+02  0.99999978725E+01 0.  0.
         12    1    1    2    0    0  0.62677863055E+01  0.31249054053E+02 -0.31832765902E+02  0.45045682472E+02  0.00000000000E+00 0. -1.
         11    1    3    3    0    0 -0.11790536350E+01 -0.10658306862E+02  0.90498255911E+01  0.14031714654E+02  0.51100000000E-03 0. -1.
        -11    1    3    3    0    0 -0.22602042582E+01 -0.69819894265E+00  0.13140398503E+01  0.27060498964E+01  0.51100000000E-03 0.  1.
        -12    1    3    3    0    0 -0.28285284122E+01 -0.19892548248E+02  0.21468900461E+02  0.29404552977E+02  0.00000000000E+00 0.  1.
</event>
<event>
 7    1  0.1442665E-008  0.4614232E+02  0.7816164E-02  0.1320468E+00
        -11   -1    0    0    0    0  0.00000000000E+00  0.00000000000E+00  0.45593999997E+02  0.45594000000E+02  0.51100000000E-03 0.  1.
         11   -1    0    0    0    0 -0.00000000000E+00 -0.00000000000E+00 -0.45593999997E+02  0.45594000000E+02  0.51100000000E-03 0. -1.
    9900012    2    1    2    0    0  0.37291285455E+02 -0.12603962181E+02 -0.21900081954E+02  0.46142318486E+02  0.10000006607E+02 0.  0.
         12    1    1    2    0    0 -0.37291285455E+02  0.12603962181E+02  0.21900081954E+02  0.45045681514E+02  0.00000000000E+00 0. -1.
         11    1    3    3    0    0  0.16434983733E+02 -0.90447018033E+01 -0.12143344022E+02  0.22346725158E+02  0.51100000000E-03 0. -1.
        -11    1    3    3    0    0  0.16434562053E+02 -0.37199654752E+01 -0.56875983176E+01  0.17784311848E+02  0.51100000000E-03 0.  1.
        -12    1    3    3    0    0  0.44217396690E+01  0.16070509751E+00 -0.40691396144E+01  0.60112814798E+01  0.00000000000E+00 0.  1.
</event>
<event>
 7    1  0.1442665E-008  0.4614232E+02  0.7816164E-02  0.1320468E+00
        -11   -1    0    0    0    0  0.00000000000E+00  0.00000000000E+00  0.45593999997E+02  0.45594000000E+02  0.51100000000E-03 0.  1.
         11   -1    0    0    0    0 -0.00000000000E+00 -0.00000000000E+00 -0.45593999997E+02  0.45594000000E+02  0.51100000000E-03 0. -1.
    9900012    2    1    2    0    0 -0.23326484035E+02 -0.21634684469E+02  0.31889325145E+02  0.46142317769E+02  0.10000000069E+02 0.  0.
         12    1    1    2    0    0  0.23326484035E+02  0.21634684469E+02 -0.31889325145E+02  0.45045682231E+02  0.00000000000E+00 0. -1.
         11    1    3    3    0    0 -0.12773408747E+02 -0.75765549408E+01  0.10589170236E+02  0.18239920020E+02  0.51100000000E-03 0. -1.
        -11    1    3    3    0    0 -0.74115694765E+01 -0.12233954040E+02  0.18028063868E+02  0.23013302254E+02  0.51100000000E-03 0.  1.
        -12    1    3    3    0    0 -0.31415058112E+01 -0.18241754878E+01  0.32720910412E+01  0.48890954944E+01  0.00000000000E+00 0.  1.
</event>
<event>
 7    1  0.1442665E-008  0.4614232E+02  0.7816164E-02  0.1320468E+00
        -11   -1    0    0    0    0  0.00000000000E+00  0.00000000000E+00  0.45593999997E+02  0.45594000000E+02  0.51100000000E-03 0.  1.
         11   -1    0    0    0    0 -0.00000000000E+00 -0.00000000000E+00 -0.45593999997E+02  0.45594000000E+02  0.51100000000E-03 0. -1.
    9900012    2    1    2    0    0 -0.34451437200E+02  0.52828727492E+01  0.28535997994E+02  0.46142318175E+02  0.10000003772E+02 0.  0.
         12    1    1    2    0    0  0.34451437200E+02 -0.52828727492E+01 -0.28535997994E+02  0.45045681825E+02  0.00000000000E+00 0. -1.
         11    1    3    3    0    0 -0.96456960776E+01  0.43393039399E+01  0.53387467014E+01  0.11847836432E+02  0.51100000000E-03 0. -1.
        -11    1    3    3    0    0 -0.17752273911E+02 -0.13689197704E+01  0.17131890453E+02  0.24708679469E+02  0.51100000000E-03 0.  1.
         12    1    3    3    0    0 -0.70534672110E+01  0.23124885796E+01  0.60653608393E+01  0.95858022741E+01  0.00000000000E+00 0. -1.
</event>
<event>
 7    1  0.1442665E-008  0.4614232E+02  0.7816164E-02  0.1320468E+00
        -11   -1    0    0    0    0  0.00000000000E+00  0.00000000000E+00  0.45593999997E+02  0.45594000000E+02  0.51100000000E-03 0.  1.
         11   -1    0    0    0    0 -0.00000000000E+00 -0.00000000000E+00 -0.45593999997E+02  0.45594000000E+02  0.51100000000E-03 0. -1.
    9900012    2    1    2    0    0 -0.80097309672E+01  0.41995763318E+02  0.14188499211E+02  0.46142318334E+02  0.10000005228E+02 0.  0.
         12    1    1    2    0    0  0.80097309672E+01 -0.41995763318E+02 -0.14188499211E+02  0.45045681666E+02  0.00000000000E+00 0. -1.
         11    1    3    3    0    0 -0.31098983710E+00  0.16756251623E+02  0.39644664335E+01  0.17221663029E+02  0.51100000000E-03 0. -1.
        -11    1    3    3    0    0 -0.83433150022E+01  0.25015307808E+02  0.99987953334E+01  0.28201993517E+02  0.51100000000E-03 0.  1.
         12    1    3    3    0    0  0.64457387207E+00  0.22420388774E+00  0.22523744381E+00  0.71866178828E+00  0.00000000000E+00 0. -1.
</event>
<event>
 7    1  0.1442665E-008  0.4614232E+02  0.7816164E-02  0.1320468E+00
        -11   -1    0    0    0    0  0.00000000000E+00  0.00000000000E+00  0.45593999997E+02  0.45594000000E+02  0.51100000000E-03 0.  1.
         11   -1    0    0    0    0 -0.00000000000E+00 -0.00000000000E+00 -0.45593999997E+02  0.45594000000E+02  0.51100000000E-03 0. -1.
    9900012    2    1    2    0    0 -0.21873053690E+02  0.18764690398E+02  0.34620361175E+02  0.46142317728E+02  0.99999997023E+01 0.  0.
         12    1    1    2    0    0  0.21873053690E+02 -0.18764690398E+02 -0.34620361175E+02  0.45045682272E+02  0.00000000000E+00 0. -1.
         11    1    3    3    0    0 -0.27195590816E+00  0.46656719427E+00 -0.24288490487E+00  0.59214719529E+00  0.51100000000E-03 0. -1.
        -11    1    3    3    0    0 -0.13262788532E+02  0.12644900415E+02  0.27605711361E+02  0.33134126911E+02  0.51100000000E-03 0.  1.
        -12    1    3    3    0    0 -0.83383092495E+01  0.56532227884E+01  0.72575347191E+01  0.12416043622E+02  0.00000000000E+00 0.  1.
</event>
<event>
 7    1  0.1442665E-008  0.4614232E+02  0.7816164E-02  0.1320468E+00
        -11   -1    0    0    0    0  0.00000000000E+00  0.00000000000E+00  0.45593999997E+02  0.45594000000E+02  0.51100000000E-03 0.  1.
         11   -1    0    0    0    0 -0.00000000000E+00 -0.00000000000E+00 -0.45593999997E+02  0.45594000000E+02  0.51100000000E-03 0. -1.
    9900012    2    1    2    0    0 -0.30574984722E+02 -0.22637324181E+01  0.33002412459E+02  0.46142318705E+02  0.10000008609E+02 0.  0.
         12    1    1    2    0    0  0.30574984722E+02  0.22637324181E+01 -0.33002412459E+02  0.45045681295E+02  0.00000000000E+00 0. -1.
         11    1    3    3    0    0 -0.16447997259E+02 -0.44078059724E+01  0.22192359557E+02  0.27972597131E+02  0.51100000000E-03 0. -1.
        -11    1    3    3    0    0 -0.12818993889E+02  0.16016787686E+01  0.10654028256E+02  0.16745157436E+02  0.51100000000E-03 0.  1.
         12    1    3    3    0    0 -0.13079935739E+01  0.54239478566E+00  0.15602464617E+00  0.14245641379E+01  0.00000000000E+00 0. -1.
</event>
<event>
 7    1  0.1442665E-008  0.4614232E+02  0.7816164E-02  0.1320468E+00
        -11   -1    0    0    0    0  0.00000000000E+00  0.00000000000E+00  0.45593999997E+02  0.45594000000E+02  0.51100000000E-03 0.  1.
         11   -1    0    0    0    0 -0.00000000000E+00 -0.00000000000E+00 -0.45593999997E+02  0.45594000000E+02  0.51100000000E-03 0. -1.
    9900012    2    1    2    0    0 -0.62598047460E+01 -0.31538803876E+02  0.31547299613E+02  0.46142318539E+02  0.10000007095E+02 0.  0.
         12    1    1    2    0    0  0.62598047460E+01  0.31538803876E+02 -0.31547299613E+02  0.45045681461E+02  0.00000000000E+00 0. -1.
         11    1    3    3    0    0 -0.54505351697E+01 -0.75873908044E+01  0.78253176662E+01  0.12186567593E+02  0.51100000000E-03 0. -1.
        -11    1    3    3    0    0 -0.23539194800E+01 -0.14957639864E+02  0.14003875163E+02  0.20624753260E+02  0.51100000000E-03 0.  1.
         12    1    3    3    0    0  0.15446499037E+01 -0.89937732084E+01  0.97181067838E+01  0.13330997686E+02  0.00000000000E+00 0. -1.
</event>
<event>
 7    1  0.1442665E-008  0.4614232E+02  0.7816164E-02  0.1320468E+00
        -11   -1    0    0    0    0  0.00000000000E+00  0.00000000000E+00  0.45593999997E+02  0.45594000000E+02  0.51100000000E-03 0.  1.
         11   -1    0    0    0    0 -0.00000000000E+00 -0.00000000000E+00 -0.45593999997E+02  0.45594000000E+02  0.51100000000E-03 0. -1.
    9900012    2    1    2    0    0 -0.30638377127E+02 -0.31288361694E+02  0.10556597981E+02  0.46142317728E+02  0.99999996950E+01 0.  0.
         12    1    1    2    0    0  0.30638377127E+02  0.31288361694E+02 -0.10556597981E+02  0.45045682272E+02  0.00000000000E+00 0. -1.
         11    1    3    3    0    0 -0.97984918564E+01 -0.85063027705E+01  0.31516877837E+01  0.13352930975E+02  0.51100000000E-03 0. -1.
        -11    1    3    3    0    0 -0.14309907812E+02 -0.13439094219E+02  0.83884602420E+01  0.21348278163E+02  0.51100000000E-03 0.  1.
         12    1    3    3    0    0 -0.65299774585E+01 -0.93429647043E+01 -0.98355004463E+00  0.11441108590E+02  0.00000000000E+00 0. -1.
</event>
<event>
 7    1  0.1442665E-008  0.4614232E+02  0.7816164E-02  0.1320468E+00
        -11   -1    0    0    0    0  0.00000000000E+00  0.00000000000E+00  0.45593999997E+02  0.45594000000E+02  0.51100000000E-03 0.  1.
         11   -1    0    0    0    0 -0.00000000000E+00 -0.00000000000E+00 -0.45593999997E+02  0.45594000000E+02  0.51100000000E-03 0. -1.
    9900012    2    1    2    0    0 -0.10157846861E+02 -0.18338120913E+01  0.43847105398E+02  0.46142319060E+02  0.10000011840E+02 0.  0.
         12    1    1    2    0    0  0.10157846861E+02  0.18338120913E+01 -0.43847105398E+02  0.45045680940E+02  0.00000000000E+00 0. -1.
         11    1    3    3    0    0 -0.81263350235E+01  0.21912475286E+01  0.36896610208E+02  0.37844401591E+02  0.51100000000E-03 0. -1.
        -11    1    3    3    0    0 -0.12118935870E+01 -0.20026029689E+01  0.38690576272E+01  0.45220251991E+01  0.51100000000E-03 0.  1.
         12    1    3    3    0    0 -0.81961825026E+00 -0.20224566509E+01  0.30814375620E+01  0.37758922694E+01  0.00000000000E+00 0. -1.
</event>
<event>
 7    1  0.1442665E-008  0.4614232E+02  0.7816164E-02  0.1320468E+00
        -11   -1    0    0    0    0  0.00000000000E+00  0.00000000000E+00  0.45593999997E+02  0.45594000000E+02  0.51100000000E-03 0.  1.
         11   -1    0    0    0    0 -0.00000000000E+00 -0.00000000000E+00 -0.45593999997E+02  0.45594000000E+02  0.51100000000E-03 0. -1.
    9900012    2    1    2    0    0  0.14765258066E+02  0.11804687744E+02  0.40887039836E+02  0.46142317355E+02  0.99999962934E+01 0.  0.
         12    1    1    2    0    0 -0.14765258066E+02 -0.11804687744E+02 -0.40887039836E+02  0.45045682645E+02  0.00000000000E+00 0. -1.
         11    1    3    3    0    0  0.67522501072E+01  0.26178819128E+01  0.78360032553E+01  0.10670010989E+02  0.51100000000E-03 0. -1.
        -11    1    3    3    0    0  0.25748435462E+01  0.49228813224E+00  0.63744314313E+01  0.68924265122E+01  0.51100000000E-03 0.  1.
         12    1    3    3    0    0  0.54381644126E+01  0.86945176985E+01  0.26676605149E+02  0.28579879854E+02  0.00000000000E+00 0. -1.
</event>
<event>
 7    1  0.1442665E-008  0.4614232E+02  0.7816164E-02  0.1320468E+00
        -11   -1    0    0    0    0  0.00000000000E+00  0.00000000000E+00  0.45593999997E+02  0.45594000000E+02  0.51100000000E-03 0.  1.
         11   -1    0    0    0    0 -0.00000000000E+00 -0.00000000000E+00 -0.45593999997E+02  0.45594000000E+02  0.51100000000E-03 0. -1.
    9900012    2    1    2    0    0  0.10640188156E+02  0.39598596379E+02  0.18650753508E+02  0.46142322675E+02  0.10000044812E+02 0.  0.
         12    1    1    2    0    0 -0.10640188156E+02 -0.39598596379E+02 -0.18650753508E+02  0.45045677325E+02  0.00000000000E+00 0. -1.
         11    1    3    3    0    0  0.17951582933E+00  0.50529726633E+00 -0.88732640668E+00  0.10367736848E+01  0.51100000000E-03 0. -1.
        -11    1    3    3    0    0  0.67030833255E+01  0.30610804028E+02  0.15911677785E+02  0.35144475234E+02  0.51100000000E-03 0.  1.
         12    1    3    3    0    0  0.37575890014E+01  0.84824950848E+01  0.36264021304E+01  0.99610737563E+01  0.00000000000E+00 0. -1.
</event>
<event>
 7    1  0.1442665E-008  0.4614232E+02  0.7816164E-02  0.1320468E+00
        -11   -1    0    0    0    0  0.00000000000E+00  0.00000000000E+00  0.45593999997E+02  0.45594000000E+02  0.51100000000E-03 0.  1.
         11   -1    0    0    0    0 -0.00000000000E+00 -0.00000000000E+00 -0.45593999997E+02  0.45594000000E+02  0.51100000000E-03 0. -1.
    9900012    2    1    2    0    0  0.26931091269E+02  0.10548146636E+02  0.34533554677E+02  0.46142317932E+02  0.10000001556E+02 0.  0.
         12    1    1    2    0    0 -0.26931091269E+02 -0.10548146636E+02 -0.34533554677E+02  0.45045682068E+02  0.00000000000E+00 0. -1.
         11    1    3    3    0    0  0.12288583733E+02  0.18728107495E+00  0.11299857380E+02  0.16695243078E+02  0.51100000000E-03 0. -1.
        -11    1    3    3    0    0  0.11502983406E+02  0.79278892899E+01  0.19559972085E+02  0.24036692036E+02  0.51100000000E-03 0.  1.
        -12    1    3    3    0    0  0.31395241302E+01  0.24329762712E+01  0.36737252118E+01  0.54103828175E+01  0.00000000000E+00 0.  1.
</event>
<event>
 7    1  0.1442665E-008  0.4614233E+02  0.7816164E-02  0.1320468E+00
        -11   -1    0    0    0    0  0.00000000000E+00  0.00000000000E+00  0.45593999997E+02  0.45594000000E+02  0.51100000000E-03 0.  1.
         11   -1    0    0    0    0 -0.00000000000E+00 -0.00000000000E+00 -0.45593999997E+02  0.45594000000E+02  0.51100000000E-03 0. -1.
    9900012    2    1    2    0    0  0.16058412989E+02 -0.15668454595E+02  0.39060718316E+02  0.46142325263E+02  0.10000068412E+02 0.  0.
         12    1    1    2    0    0 -0.16058412989E+02  0.15668454595E+02 -0.39060718316E+02  0.45045674737E+02  0.00000000000E+00 0. -1.
         11    1    3    3    0    0  0.79961257176E+01 -0.38306213438E+01  0.12881247379E+02  0.15637717886E+02  0.51100000000E-03 0. -1.
        -11    1    3    3    0    0  0.12200863198E+01 -0.35332797355E+01  0.12802602326E+02  0.13337139982E+02  0.51100000000E-03 0.  1.
        -12    1    3    3    0    0  0.68422009514E+01 -0.83045535153E+01  0.13376868611E+02  0.17167467396E+02  0.00000000000E+00 0.  1.
</event>
<event>
 7    1  0.1442665E-008  0.4614232E+02  0.7816164E-02  0.1320468E+00
        -11   -1    0    0    0    0  0.00000000000E+00  0.00000000000E+00  0.45593999997E+02  0.45594000000E+02  0.51100000000E-03 0.  1.
         11   -1    0    0    0    0 -0.00000000000E+00 -0.00000000000E+00 -0.45593999997E+02  0.45594000000E+02  0.51100000000E-03 0. -1.
    9900012    2    1    2    0    0 -0.16845100819E+01  0.19118476605E+02  0.40752421531E+02  0.46142316716E+02  0.99999904664E+01 0.  0.
         12    1    1    2    0    0  0.16845100819E+01 -0.19118476605E+02 -0.40752421531E+02  0.45045683284E+02  0.00000000000E+00 0. -1.
         11    1    3    3    0    0  0.59040785057E+00  0.74705252457E+00  0.40224156307E+00  0.10336669873E+01  0.51100000000E-03 0. -1.
        -11    1    3    3    0    0 -0.18116914041E+01  0.90285502750E+01  0.11229140810E+02  0.14522071112E+02  0.51100000000E-03 0.  1.
        -12    1    3    3    0    0 -0.46322652842E+00  0.93428738054E+01  0.29121039158E+02  0.30586578616E+02  0.00000000000E+00 0.  1.
</event>
<event>
 7    1  0.1442665E-008  0.4614232E+02  0.7816164E-02  0.1320468E+00
        -11   -1    0    0    0    0  0.00000000000E+00  0.00000000000E+00  0.45593999997E+02  0.45594000000E+02  0.51100000000E-03 0. -1.
         11   -1    0    0    0    0 -0.00000000000E+00 -0.00000000000E+00 -0.45593999997E+02  0.45594000000E+02  0.51100000000E-03 0.  1.
    9900012    2    1    2    0    0 -0.35846086352E+02 -0.10951839415E+02 -0.24984572708E+02  0.46142316891E+02  0.99999920632E+01 0.  0.
         12    1    1    2    0    0  0.35846086352E+02  0.10951839415E+02  0.24984572708E+02  0.45045683109E+02  0.00000000000E+00 0. -1.
         11    1    3    3    0    0 -0.22085848657E+00 -0.10939019550E+01  0.19420724241E+00  0.11327474001E+01  0.51100000000E-03 0. -1.
        -11    1    3    3    0    0 -0.55204246855E+01 -0.14208360787E+01 -0.62595383501E+01  0.84661493306E+01  0.51100000000E-03 0.  1.
         12    1    3    3    0    0 -0.30104803180E+02 -0.84371013814E+01 -0.18919241601E+02  0.36543420160E+02  0.00000000000E+00 0. -1.
</event>
<event>
 7    1  0.1442665E-008  0.4614232E+02  0.7816164E-02  0.1320468E+00
        -11   -1    0    0    0    0  0.00000000000E+00  0.00000000000E+00  0.45593999997E+02  0.45594000000E+02  0.51100000000E-03 0.  1.
         11   -1    0    0    0    0 -0.00000000000E+00 -0.00000000000E+00 -0.45593999997E+02  0.45594000000E+02  0.51100000000E-03 0. -1.
    9900012    2    1    2    0    0  0.28105702214E+02 -0.32292022352E+02  0.14014573559E+02  0.46142317891E+02  0.10000001189E+02 0.  0.
         12    1    1    2    0    0 -0.28105702214E+02  0.32292022352E+02 -0.14014573559E+02  0.45045682109E+02  0.00000000000E+00 0. -1.
         11    1    3    3    0    0  0.34350235435E+01 -0.81482855477E+01  0.41424418391E+01  0.97649254356E+01  0.51100000000E-03 0. -1.
        -11    1    3    3    0    0  0.10795502641E+02 -0.12710787370E+02  0.21653546402E+01  0.16816532158E+02  0.51100000000E-03 0.  1.
         12    1    3    3    0    0  0.13875176030E+02 -0.11432949434E+02  0.77067770798E+01  0.19560860298E+02  0.00000000000E+00 0. -1.
</event>
<event>
 7    1  0.1442665E-008  0.4614232E+02  0.7816164E-02  0.1320468E+00
        -11   -1    0    0    0    0  0.00000000000E+00  0.00000000000E+00  0.45593999997E+02  0.45594000000E+02  0.51100000000E-03 0. -1.
         11   -1    0    0    0    0 -0.00000000000E+00 -0.00000000000E+00 -0.45593999997E+02  0.45594000000E+02  0.51100000000E-03 0.  1.
    9900012    2    1    2    0    0 -0.12237978322E+02  0.40151302349E+02 -0.16346815758E+02  0.46142316753E+02  0.99999908112E+01 0.  0.
         12    1    1    2    0    0  0.12237978322E+02 -0.40151302349E+02  0.16346815758E+02  0.45045683247E+02  0.00000000000E+00 0. -1.
         11    1    3    3    0    0 -0.80409178201E+01  0.15893738268E+02 -0.61601353228E+01  0.18847136201E+02  0.51100000000E-03 0. -1.
        -11    1    3    3    0    0 -0.47227011906E+01  0.12108437825E+02 -0.68184792484E+01  0.14676846822E+02  0.51100000000E-03 0.  1.
         12    1    3    3    0    0  0.52564068829E+00  0.12149126256E+02 -0.33682011866E+01  0.12618333731E+02  0.00000000000E+00 0. -1.
</event>
<event>
 7    1  0.1442665E-008  0.4614232E+02  0.7816164E-02  0.1320468E+00
        -11   -1    0    0    0    0  0.00000000000E+00  0.00000000000E+00  0.45593999997E+02  0.45594000000E+02  0.51100000000E-03 0.  1.
         11   -1    0    0    0    0 -0.00000000000E+00 -0.00000000000E+00 -0.45593999997E+02  0.45594000000E+02  0.51100000000E-03 0. -1.
    9900012    2    1    2    0    0 -0.24533135069E+00  0.13648294857E+02  0.42927582239E+02  0.46142318111E+02  0.10000003187E+02 0.  0.
         12    1    1    2    0    0  0.24533135069E+00 -0.13648294857E+02 -0.42927582239E+02  0.45045681889E+02  0.00000000000E+00 0. -1.
         11    1    3    3    0    0  0.77092168225E+00  0.32859200310E+01  0.21971844903E+01  0.40273081128E+01  0.51100000000E-03 0. -1.
        -11    1    3    3    0    0 -0.20660541313E+00  0.42752078053E+01  0.21709742630E+02  0.22127652675E+02  0.51100000000E-03 0.  1.
         12    1    3    3    0    0 -0.80964761981E+00  0.60871670202E+01  0.19020655119E+02  0.19987357323E+02  0.00000000000E+00 0. -1.
</event>
<event>
 7    1  0.1442665E-008  0.4614232E+02  0.7816164E-02  0.1320468E+00
        -11   -1    0    0    0    0  0.00000000000E+00  0.00000000000E+00  0.45593999997E+02  0.45594000000E+02  0.51100000000E-03 0.  1.
         11   -1    0    0    0    0 -0.00000000000E+00 -0.00000000000E+00 -0.45593999997E+02  0.45594000000E+02  0.51100000000E-03 0. -1.
    9900012    2    1    2    0    0  0.14730436671E+02  0.21688026989E+02  0.36630004674E+02  0.46142317392E+02  0.99999966332E+01 0.  0.
         12    1    1    2    0    0 -0.14730436671E+02 -0.21688026989E+02 -0.36630004674E+02  0.45045682608E+02  0.00000000000E+00 0. -1.
         11    1    3    3    0    0  0.33090475461E+01  0.11843294146E+02  0.18996507297E+02  0.22629200199E+02  0.51100000000E-03 0. -1.
        -11    1    3    3    0    0  0.75987320236E+01  0.59220235493E+01  0.13790002627E+02  0.16821868624E+02  0.51100000000E-03 0.  1.
        -12    1    3    3    0    0  0.38226571016E+01  0.39227092942E+01  0.38434947499E+01  0.66912485693E+01  0.00000000000E+00 0.  1.
</event>
<event>
 7    1  0.1442665E-008  0.4614232E+02  0.7816164E-02  0.1320468E+00
        -11   -1    0    0    0    0  0.00000000000E+00  0.00000000000E+00  0.45593999997E+02  0.45594000000E+02  0.51100000000E-03 0.  1.
         11   -1    0    0    0    0 -0.00000000000E+00 -0.00000000000E+00 -0.45593999997E+02  0.45594000000E+02  0.51100000000E-03 0. -1.
    9900012    2    1    2    0    0  0.28543581785E+02 -0.13593652216E+02  0.32087224472E+02  0.46142318564E+02  0.10000007324E+02 0.  0.
         12    1    1    2    0    0 -0.28543581785E+02  0.13593652216E+02 -0.32087224472E+02  0.45045681436E+02  0.00000000000E+00 0. -1.
         11    1    3    3    0    0  0.13420061928E+02 -0.10405300696E+02  0.15464623593E+02  0.22967867290E+02  0.51100000000E-03 0. -1.
        -11    1    3    3    0    0  0.43479056612E+01  0.25994532191E+00  0.73611395222E+01  0.85532584747E+01  0.51100000000E-03 0.  1.
        -12    1    3    3    0    0  0.10775614196E+02 -0.34482968417E+01  0.92614613566E+01  0.14621192799E+02  0.00000000000E+00 0.  1.
</event>
<event>
 7    1  0.1442665E-008  0.4614232E+02  0.7816164E-02  0.1320468E+00
        -11   -1    0    0    0    0  0.00000000000E+00  0.00000000000E+00  0.45593999997E+02  0.45594000000E+02  0.51100000000E-03 0. -1.
         11   -1    0    0    0    0 -0.00000000000E+00 -0.00000000000E+00 -0.45593999997E+02  0.45594000000E+02  0.51100000000E-03 0.  1.
    9900012    2    1    2    0    0  0.52119779190E+01 -0.34525536720E+02 -0.28459378431E+02  0.46142316296E+02  0.99999866419E+01 0.  0.
         12    1    1    2    0    0 -0.52119779190E+01  0.34525536720E+02  0.28459378431E+02  0.45045683704E+02  0.00000000000E+00 0. -1.
         11    1    3    3    0    0  0.10047113836E+01 -0.88948589656E+00 -0.13799721717E+01  0.19248255974E+01  0.51100000000E-03 0. -1.
        -11    1    3    3    0    0 -0.69214318189E+00 -0.11122454203E+02 -0.46909445684E+01  0.12091030183E+02  0.51100000000E-03 0.  1.
        -12    1    3    3    0    0  0.48994097173E+01 -0.22513596621E+02 -0.22388461691E+02  0.32126460516E+02  0.00000000000E+00 0.  1.
</event>
<event>
 7    1  0.1442665E-008  0.4614231E+02  0.7816164E-02  0.1320468E+00
        -11   -1    0    0    0    0  0.00000000000E+00  0.00000000000E+00  0.45593999997E+02  0.45594000000E+02  0.51100000000E-03 0. -1.
         11   -1    0    0    0    0 -0.00000000000E+00 -0.00000000000E+00 -0.45593999997E+02  0.45594000000E+02  0.51100000000E-03 0.  1.
    9900012    2    1    2    0    0  0.33643106269E+02  0.26030208003E+02 -0.14821730847E+02  0.46142311711E+02  0.99999448317E+01 0.  0.
         12    1    1    2    0    0 -0.33643106269E+02 -0.26030208003E+02  0.14821730847E+02  0.45045688289E+02  0.00000000000E+00 0. -1.
         11    1    3    3    0    0  0.13868965469E+02  0.54364149876E+01 -0.69959559649E+01  0.16457405968E+02  0.51100000000E-03 0. -1.
        -11    1    3    3    0    0  0.16095754717E+01  0.26382243095E+01 -0.98097684029E+00  0.32424183149E+01  0.51100000000E-03 0.  1.
         12    1    3    3    0    0  0.18164565329E+02  0.17955568706E+02 -0.68447980414E+01  0.26442487428E+02  0.00000000000E+00 0. -1.
</event>
<event>
 7    1  0.1442665E-008  0.4614232E+02  0.7816164E-02  0.1320468E+00
        -11   -1    0    0    0    0  0.00000000000E+00  0.00000000000E+00  0.45593999997E+02  0.45594000000E+02  0.51100000000E-03 0.  1.
         11   -1    0    0    0    0 -0.00000000000E+00 -0.00000000000E+00 -0.45593999997E+02  0.45594000000E+02  0.51100000000E-03 0. -1.
    9900012    2    1    2    0    0 -0.31216446446E+02  0.29369224348E+02 -0.13859841577E+02  0.46142322337E+02  0.10000041731E+02 0.  0.
         12    1    1    2    0    0  0.31216446446E+02 -0.29369224348E+02  0.13859841577E+02  0.45045677663E+02  0.00000000000E+00 0. -1.
         11    1    3    3    0    0 -0.19267661421E+02  0.19949117097E+02 -0.12867741695E+02  0.30574316447E+02  0.51100000000E-03 0. -1.
        -11    1    3    3    0    0 -0.86296623103E+01  0.70130467962E+01  0.67849748258E+00  0.11140657793E+02  0.51100000000E-03 0.  1.
         12    1    3    3    0    0 -0.33191227146E+01  0.24070604545E+01 -0.16705973645E+01  0.44273480979E+01  0.00000000000E+00 0. -1.
</event>
<event>
 7    1  0.1442665E-008  0.4614232E+02  0.7816164E-02  0.1320468E+00
        -11   -1    0    0    0    0  0.00000000000E+00  0.00000000000E+00  0.45593999997E+02  0.45594000000E+02  0.51100000000E-03 0. -1.
         11   -1    0    0    0    0 -0.00000000000E+00 -0.00000000000E+00 -0.45593999997E+02  0.45594000000E+02  0.51100000000E-03 0.  1.
    9900012    2    1    2    0    0  0.95964352968E+01  0.43167117601E+02 -0.85803191716E+01  0.46142317749E+02  0.99999998857E+01 0.  0.
         12    1    1    2    0    0 -0.95964352968E+01 -0.43167117601E+02  0.85803191716E+01  0.45045682251E+02  0.00000000000E+00 0. -1.
         11    1    3    3    0    0  0.35592848707E+01  0.25708057157E+02 -0.93776277216E+01  0.27595517997E+02  0.51100000000E-03 0.  1.
        -11    1    3    3    0    0  0.54696778722E+01  0.16748118293E+02  0.70966593671E+00  0.17632937032E+02  0.51100000000E-03 0. -1.
        -12    1    3    3    0    0  0.56747255401E+00  0.71094215124E+00  0.87642613272E-01  0.91386271924E+00  0.00000000000E+00 0.  1.
</event>
<event>
 7    1  0.1442665E-008  0.4614231E+02  0.7816164E-02  0.1320468E+00
        -11   -1    0    0    0    0  0.00000000000E+00  0.00000000000E+00  0.45593999997E+02  0.45594000000E+02  0.51100000000E-03 0.  1.
         11   -1    0    0    0    0 -0.00000000000E+00 -0.00000000000E+00 -0.45593999997E+02  0.45594000000E+02  0.51100000000E-03 0. -1.
    9900012    2    1    2    0    0 -0.31938958289E+02 -0.25786005279E+02 -0.18549895950E+02  0.46142314695E+02  0.99999720403E+01 0.  0.
         12    1    1    2    0    0  0.31938958289E+02  0.25786005279E+02  0.18549895950E+02  0.45045685305E+02  0.00000000000E+00 0. -1.
         11    1    3    3    0    0 -0.11535475976E+02 -0.12904925383E+02 -0.42315271814E+01  0.17818813868E+02  0.51100000000E-03 0. -1.
        -11    1    3    3    0    0 -0.16682566298E+02 -0.88113163059E+01 -0.11870261642E+02  0.22290141880E+02  0.51100000000E-03 0.  1.
        -12    1    3    3    0    0 -0.37209160156E+01 -0.40697635904E+01 -0.24481071267E+01  0.60333589468E+01  0.00000000000E+00 0.  1.
</event>
<event>
 7    1  0.1442665E-008  0.4614232E+02  0.7816164E-02  0.1320468E+00
        -11   -1    0    0    0    0  0.00000000000E+00  0.00000000000E+00  0.45593999997E+02  0.45594000000E+02  0.51100000000E-03 0.  1.
         11   -1    0    0    0    0 -0.00000000000E+00 -0.00000000000E+00 -0.45593999997E+02  0.45594000000E+02  0.51100000000E-03 0. -1.
    9900012    2    1    2    0    0  0.32474254461E+02 -0.28829725322E+02  0.11974270197E+02  0.46142318612E+02  0.10000007758E+02 0.  0.
         12    1    1    2    0    0 -0.32474254461E+02  0.28829725322E+02 -0.11974270197E+02  0.45045681388E+02  0.00000000000E+00 0. -1.
         11    1    3    3    0    0  0.53159650875E+01 -0.28340954723E+01  0.35180767460E+01  0.69762773891E+01  0.51100000000E-03 0. -1.
        -11    1    3    3    0    0  0.17059158875E+02 -0.11508759920E+02  0.42557857742E+01  0.21013761425E+02  0.51100000000E-03 0.  1.
        -12    1    3    3    0    0  0.10099130499E+02 -0.14486869930E+02  0.42004076768E+01  0.18152279798E+02  0.00000000000E+00 0.  1.
</event>
<event>
 7    1  0.1442665E-008  0.4614232E+02  0.7816164E-02  0.1320468E+00
        -11   -1    0    0    0    0  0.00000000000E+00  0.00000000000E+00  0.45593999997E+02  0.45594000000E+02  0.51100000000E-03 0. -1.
         11   -1    0    0    0    0 -0.00000000000E+00 -0.00000000000E+00 -0.45593999997E+02  0.45594000000E+02  0.51100000000E-03 0.  1.
    9900012    2    1    2    0    0  0.25339157118E+02  0.35091256375E+02  0.12475751870E+02  0.46142317164E+02  0.99999945562E+01 0.  0.
         12    1    1    2    0    0 -0.25339157118E+02 -0.35091256375E+02 -0.12475751870E+02  0.45045682836E+02  0.00000000000E+00 0. -1.
         11    1    3    3    0    0  0.84790355753E+01  0.10724967817E+02  0.98608625101E-01  0.13672187202E+02  0.51100000000E-03 0. -1.
        -11    1    3    3    0    0  0.17195219171E+02  0.23964817564E+02  0.12151325547E+02  0.31900513413E+02  0.51100000000E-03 0.  1.
         12    1    3    3    0    0 -0.33509762881E+00  0.40147099467E+00  0.22581769868E+00  0.56961654947E+00  0.00000000000E+00 0. -1.
</event>
<event>
 7    1  0.1442665E-008  0.4614232E+02  0.7816164E-02  0.1320468E+00
        -11   -1    0    0    0    0  0.00000000000E+00  0.00000000000E+00  0.45593999997E+02  0.45594000000E+02  0.51100000000E-03 0.  1.
         11   -1    0    0    0    0 -0.00000000000E+00 -0.00000000000E+00 -0.45593999997E+02  0.45594000000E+02  0.51100000000E-03 0. -1.
    9900012    2    1    2    0    0 -0.10870049085E+02  0.23184103926E+02  0.37060121996E+02  0.46142320026E+02  0.10000020654E+02 0.  0.
         12    1    1    2    0    0  0.10870049085E+02 -0.23184103926E+02 -0.37060121996E+02  0.45045679974E+02  0.00000000000E+00 0. -1.
         11    1    3    3    0    0 -0.47936194507E+00  0.35497412674E+01  0.58614020933E+01  0.68692420034E+01  0.51100000000E-03 0. -1.
        -11    1    3    3    0    0 -0.71853560711E+01  0.76994904711E+01  0.19965176340E+02  0.22572544427E+02  0.51100000000E-03 0.  1.
        -12    1    3    3    0    0 -0.32053310684E+01  0.11934872188E+02  0.11233543563E+02  0.16700533595E+02  0.00000000000E+00 0.  1.
</event>
<event>
 7    1  0.1442665E-008  0.4614231E+02  0.7816164E-02  0.1320468E+00
        -11   -1    0    0    0    0  0.00000000000E+00  0.00000000000E+00  0.45593999997E+02  0.45594000000E+02  0.51100000000E-03 0.  1.
         11   -1    0    0    0    0 -0.00000000000E+00 -0.00000000000E+00 -0.45593999997E+02  0.45594000000E+02  0.51100000000E-03 0. -1.
    9900012    2    1    2    0    0 -0.43987169932E+01 -0.44761646417E+02  0.24819753622E+01  0.46142313160E+02  0.99999580451E+01 0.  0.
         12    1    1    2    0    0  0.43987169932E+01  0.44761646417E+02 -0.24819753622E+01  0.45045686840E+02  0.00000000000E+00 0. -1.
         11    1    3    3    0    0 -0.33416880334E+01 -0.14308071662E+02  0.71651707230E+00  0.14710580905E+02  0.51100000000E-03 0. -1.
        -11    1    3    3    0    0  0.21196075079E+01 -0.16746796484E+02 -0.16264967874E+01  0.16958579555E+02  0.51100000000E-03 0.  1.
        -12    1    3    3    0    0 -0.31766364678E+01 -0.13706778271E+02  0.33919550772E+01  0.14473152700E+02  0.00000000000E+00 0.  1.
</event>
<event>
 7    1  0.1442665E-008  0.4614232E+02  0.7816164E-02  0.1320468E+00
        -11   -1    0    0    0    0  0.00000000000E+00  0.00000000000E+00  0.45593999997E+02  0.45594000000E+02  0.51100000000E-03 0.  1.
         11   -1    0    0    0    0 -0.00000000000E+00 -0.00000000000E+00 -0.45593999997E+02  0.45594000000E+02  0.51100000000E-03 0. -1.
    9900012    2    1    2    0    0  0.22688257680E+02 -0.37973508371E+02  0.85070060482E+01  0.46142317338E+02  0.99999961454E+01 0.  0.
         12    1    1    2    0    0 -0.22688257680E+02  0.37973508371E+02 -0.85070060482E+01  0.45045682662E+02  0.00000000000E+00 0. -1.
         11    1    3    3    0    0  0.99268898482E+00 -0.93540699607E+01  0.19464963620E+01  0.96058786479E+01  0.51100000000E-03 0. -1.
        -11    1    3    3    0    0  0.17668036308E+02 -0.23985369037E+02  0.58037052582E+01  0.30350295382E+02  0.51100000000E-03 0.  1.
         12    1    3    3    0    0  0.40275323871E+01 -0.46340693738E+01  0.75680442798E+00  0.61861433084E+01  0.00000000000E+00 0. -1.
</event>
<event>
 7    1  0.1442665E-008  0.4614232E+02  0.7816164E-02  0.1320468E+00
        -11   -1    0    0    0    0  0.00000000000E+00  0.00000000000E+00  0.45593999997E+02  0.45594000000E+02  0.51100000000E-03 0. -1.
         11   -1    0    0    0    0 -0.00000000000E+00 -0.00000000000E+00 -0.45593999997E+02  0.45594000000E+02  0.51100000000E-03 0.  1.
    9900012    2    1    2    0    0  0.16078903989E+02  0.39926371308E+02  0.13284098058E+02  0.46142317183E+02  0.99999947245E+01 0.  0.
         12    1    1    2    0    0 -0.16078903989E+02 -0.39926371308E+02 -0.13284098058E+02  0.45045682817E+02  0.00000000000E+00 0. -1.
         11    1    3    3    0    0  0.70372739956E+01  0.14182046374E+02  0.51599723860E+01  0.16651696008E+02  0.51100000000E-03 0. -1.
        -11    1    3    3    0    0  0.10351129672E+02  0.21949020821E+02  0.76675187936E+01  0.25449877115E+02  0.51100000000E-03 0.  1.
        -12    1    3    3    0    0 -0.13094996781E+01  0.37953041126E+01  0.45660687818E+00  0.40407440596E+01  0.00000000000E+00 0.  1.
</event>
<event>
 7    1  0.1442665E-008  0.4614232E+02  0.7816164E-02  0.1320468E+00
        -11   -1    0    0    0    0  0.00000000000E+00  0.00000000000E+00  0.45593999997E+02  0.45594000000E+02  0.51100000000E-03 0.  1.
         11   -1    0    0    0    0 -0.00000000000E+00 -0.00000000000E+00 -0.45593999997E+02  0.45594000000E+02  0.51100000000E-03 0. -1.
    9900012    2    1    2    0    0 -0.44512383958E+02 -0.66399628758E+01  0.19161408175E+01  0.46142322868E+02  0.10000046572E+02 0.  0.
         12    1    1    2    0    0  0.44512383958E+02  0.66399628758E+01 -0.19161408175E+01  0.45045677132E+02  0.00000000000E+00 0. -1.
         11    1    3    3    0    0 -0.19085220266E+02 -0.32762323749E+01  0.10215785950E+01  0.19391311308E+02  0.51100000000E-03 0. -1.
        -11    1    3    3    0    0 -0.20887629959E+02 -0.52332609243E+01 -0.82531230676E+00  0.21549042806E+02  0.51100000000E-03 0.  1.
         12    1    3    3    0    0 -0.45395337335E+01  0.18695304233E+01  0.17198745293E+01  0.52019687540E+01  0.00000000000E+00 0. -1.
</event>
<event>
 7    1  0.1442665E-008  0.4614232E+02  0.7816164E-02  0.1320468E+00
        -11   -1    0    0    0    0  0.00000000000E+00  0.00000000000E+00  0.45593999997E+02  0.45594000000E+02  0.51100000000E-03 0. -1.
         11   -1    0    0    0    0 -0.00000000000E+00 -0.00000000000E+00 -0.45593999997E+02  0.45594000000E+02  0.51100000000E-03 0.  1.
    9900012    2    1    2    0    0 -0.52685639933E+01 -0.44285630466E+02 -0.63355070578E+01  0.46142317832E+02  0.10000000648E+02 0.  0.
         12    1    1    2    0    0  0.52685639933E+01  0.44285630466E+02  0.63355070578E+01  0.45045682168E+02  0.00000000000E+00 0. -1.
         11    1    3    3    0    0 -0.11386212768E+01 -0.68544865959E+01  0.12696367596E+01  0.70634568497E+01  0.51100000000E-03 0. -1.
        -11    1    3    3    0    0 -0.26170290228E+01 -0.31015705053E+02 -0.35203580480E+01  0.31324363073E+02  0.51100000000E-03 0.  1.
        -12    1    3    3    0    0 -0.15129136937E+01 -0.64154388164E+01 -0.40847857695E+01  0.77544979099E+01  0.00000000000E+00 0.  1.
</event>
<event>
 7    1  0.1442665E-008  0.4614232E+02  0.7816164E-02  0.1320468E+00
        -11   -1    0    0    0    0  0.00000000000E+00  0.00000000000E+00  0.45593999997E+02  0.45594000000E+02  0.51100000000E-03 0.  1.
         11   -1    0    0    0    0 -0.00000000000E+00 -0.00000000000E+00 -0.45593999997E+02  0.45594000000E+02  0.51100000000E-03 0. -1.
    9900012    2    1    2    0    0  0.80038549894E+00 -0.20779613251E+02  0.39958487425E+02  0.46142315844E+02  0.99999825157E+01 0.  0.
         12    1    1    2    0    0 -0.80038549894E+00  0.20779613251E+02 -0.39958487425E+02  0.45045684156E+02  0.00000000000E+00 0. -1.
         11    1    3    3    0    0 -0.94073180308E+00 -0.73106366877E+00  0.51871931050E+01  0.53222554414E+01  0.51100000000E-03 0. -1.
        -11    1    3    3    0    0 -0.13470980165E+01 -0.16849744864E+02  0.26573588404E+02  0.31494192734E+02  0.51100000000E-03 0.  1.
        -12    1    3    3    0    0  0.30882153185E+01 -0.31988047183E+01  0.81977059163E+01  0.93258676685E+01  0.00000000000E+00 0.  1.
</event>
<event>
 7    1  0.1442665E-008  0.4614232E+02  0.7816164E-02  0.1320468E+00
        -11   -1    0    0    0    0  0.00000000000E+00  0.00000000000E+00  0.45593999997E+02  0.45594000000E+02  0.51100000000E-03 0.  1.
         11   -1    0    0    0    0 -0.00000000000E+00 -0.00000000000E+00 -0.45593999997E+02  0.45594000000E+02  0.51100000000E-03 0. -1.
    9900012    2    1    2    0    0  0.18379307093E+02  0.87554918036E+01  0.40182781392E+02  0.46142317784E+02  0.10000000205E+02 0.  0.
         12    1    1    2    0    0 -0.18379307093E+02 -0.87554918036E+01 -0.40182781392E+02  0.45045682216E+02  0.00000000000E+00 0. -1.
         11    1    3    3    0    0  0.21769651635E+01 -0.14827657632E+01  0.60185507700E+01  0.65696822803E+01  0.51100000000E-03 0. -1.
        -11    1    3    3    0    0  0.72018625096E+01  0.64687468503E+01  0.12483017320E+02  0.15796747485E+02  0.51100000000E-03 0.  1.
         12    1    3    3    0    0  0.90004794201E+01  0.37695107165E+01  0.21681213302E+02  0.23775888019E+02  0.00000000000E+00 0. -1.
</event>
<event>
 7    1  0.1442665E-008  0.4614232E+02  0.7816164E-02  0.1320468E+00
        -11   -1    0    0    0    0  0.00000000000E+00  0.00000000000E+00  0.45593999997E+02  0.45594000000E+02  0.51100000000E-03 0. -1.
         11   -1    0    0    0    0 -0.00000000000E+00 -0.00000000000E+00 -0.45593999997E+02  0.45594000000E+02  0.51100000000E-03 0.  1.
    9900012    2    1    2    0    0  0.12993783783E+02  0.23269285632E+02 -0.36315498484E+02  0.46142317621E+02  0.99999987220E+01 0.  0.
         12    1    1    2    0    0 -0.12993783783E+02 -0.23269285632E+02  0.36315498484E+02  0.45045682379E+02  0.00000000000E+00 0. -1.
         11    1    3    3    0    0  0.21307852849E+01  0.75558174971E+01 -0.10151295814E+02  0.12832748379E+02  0.51100000000E-03 0.  1.
        -11    1    3    3    0    0 -0.11986125383E+01  0.20088520781E+01 -0.25375843399E+01  0.34513031209E+01  0.51100000000E-03 0. -1.
        -12    1    3    3    0    0  0.12061611037E+02  0.13704616057E+02 -0.23626618330E+02  0.29858266122E+02  0.00000000000E+00 0.  1.
</event>
<event>
 7    1  0.1442665E-008  0.4614232E+02  0.7816164E-02  0.1320468E+00
        -11   -1    0    0    0    0  0.00000000000E+00  0.00000000000E+00  0.45593999997E+02  0.45594000000E+02  0.51100000000E-03 0.  1.
         11   -1    0    0    0    0 -0.00000000000E+00 -0.00000000000E+00 -0.45593999997E+02  0.45594000000E+02  0.51100000000E-03 0. -1.
    9900012    2    1    2    0    0 -0.17202009223E+02  0.73912685458E+01  0.40970397900E+02  0.46142317897E+02  0.10000001237E+02 0.  0.
         12    1    1    2    0    0  0.17202009223E+02 -0.73912685458E+01 -0.40970397900E+02  0.45045682103E+02  0.00000000000E+00 0. -1.
         11    1    3    3    0    0 -0.10324327171E+01  0.28232383420E+01  0.12222563557E+02  0.12586804687E+02  0.51100000000E-03 0. -1.
        -11    1    3    3    0    0 -0.89548242404E+01  0.44344678381E+01  0.18430400239E+02  0.20965043177E+02  0.51100000000E-03 0.  1.
         12    1    3    3    0    0 -0.72147522654E+01  0.13356236577E+00  0.10317434104E+02  0.12590470033E+02  0.00000000000E+00 0. -1.
</event>
<event>
 7    1  0.1442665E-008  0.4614232E+02  0.7816164E-02  0.1320468E+00
        -11   -1    0    0    0    0  0.00000000000E+00  0.00000000000E+00  0.45593999997E+02  0.45594000000E+02  0.51100000000E-03 0. -1.
         11   -1    0    0    0    0 -0.00000000000E+00 -0.00000000000E+00 -0.45593999997E+02  0.45594000000E+02  0.51100000000E-03 0.  1.
    9900012    2    1    2    0    0  0.35506079826E+02 -0.24192116397E+02 -0.13534152824E+02  0.46142317709E+02  0.99999995232E+01 0.  0.
         12    1    1    2    0    0 -0.35506079826E+02  0.24192116397E+02  0.13534152824E+02  0.45045682291E+02  0.00000000000E+00 0. -1.
         11    1    3    3    0    0  0.50465917666E+01 -0.47338022386E+01  0.43323526086E+00  0.69328684644E+01  0.51100000000E-03 0. -1.
        -11    1    3    3    0    0  0.35033076560E+01 -0.14671498916E+01  0.27782841229E+00  0.38082649888E+01  0.51100000000E-03 0.  1.
        -12    1    3    3    0    0  0.26956180404E+02 -0.17991164267E+02 -0.14245216497E+02  0.35401184256E+02  0.00000000000E+00 0.  1.
</event>
<event>
 7    1  0.1442665E-008  0.4614232E+02  0.7816164E-02  0.1320468E+00
        -11   -1    0    0    0    0  0.00000000000E+00  0.00000000000E+00  0.45593999997E+02  0.45594000000E+02  0.51100000000E-03 0.  1.
         11   -1    0    0    0    0 -0.00000000000E+00 -0.00000000000E+00 -0.45593999997E+02  0.45594000000E+02  0.51100000000E-03 0. -1.
    9900012    2    1    2    0    0 -0.10854543314E+02  0.58916676363E+01  0.43319518555E+02  0.46142317122E+02  0.99999941716E+01 0.  0.
         12    1    1    2    0    0  0.10854543314E+02 -0.58916676363E+01 -0.43319518555E+02  0.45045682878E+02  0.00000000000E+00 0. -1.
         11    1    3    3    0    0  0.11539802566E+01 -0.46793114811E+00  0.17437284992E+01  0.21427130774E+01  0.51100000000E-03 0. -1.
        -11    1    3    3    0    0 -0.43197808354E+01 -0.15061476674E+00  0.11959995150E+02  0.12717101695E+02  0.51100000000E-03 0.  1.
         12    1    3    3    0    0 -0.76887427350E+01  0.65102135511E+01  0.29615794906E+02  0.31282502349E+02  0.00000000000E+00 0. -1.
</event>
<event>
 7    1  0.1442665E-008  0.4614232E+02  0.7816164E-02  0.1320468E+00
        -11   -1    0    0    0    0  0.00000000000E+00  0.00000000000E+00  0.45593999997E+02  0.45594000000E+02  0.51100000000E-03 0. -1.
         11   -1    0    0    0    0 -0.00000000000E+00 -0.00000000000E+00 -0.45593999997E+02  0.45594000000E+02  0.51100000000E-03 0.  1.
    9900012    2    1    2    0    0 -0.13501757510E+02 -0.15597996762E+02 -0.40043957267E+02  0.46142317937E+02  0.10000001608E+02 0.  0.
         12    1    1    2    0    0  0.13501757510E+02  0.15597996762E+02  0.40043957267E+02  0.45045682063E+02  0.00000000000E+00 0. -1.
         11    1    3    3    0    0 -0.64477277556E+01 -0.91265551082E+01 -0.20766296567E+02  0.23581905664E+02  0.51100000000E-03 0.  1.
        -11    1    3    3    0    0 -0.53438014227E+01 -0.69292029304E+01 -0.10800703000E+02  0.13900548638E+02  0.51100000000E-03 0. -1.
        -12    1    3    3    0    0 -0.17102283315E+01  0.45776127605E+00 -0.84769577003E+01  0.86598636354E+01  0.00000000000E+00 0.  1.
</event>
<event>
 7    1  0.1442665E-008  0.4614232E+02  0.7816164E-02  0.1320468E+00
        -11   -1    0    0    0    0  0.00000000000E+00  0.00000000000E+00  0.45593999997E+02  0.45594000000E+02  0.51100000000E-03 0.  1.
         11   -1    0    0    0    0 -0.00000000000E+00 -0.00000000000E+00 -0.45593999997E+02  0.45594000000E+02  0.51100000000E-03 0. -1.
    9900012    2    1    2    0    0  0.31184116377E+02  0.10522272323E+01  0.32489341972E+02  0.46142316098E+02  0.99999848373E+01 0.  0.
         12    1    1    2    0    0 -0.31184116377E+02 -0.10522272323E+01 -0.32489341972E+02  0.45045683902E+02  0.00000000000E+00 0. -1.
         11    1    3    3    0    0  0.24355674849E+02 -0.13645650600E+01  0.21579526631E+02  0.32568956155E+02  0.51100000000E-03 0. -1.
        -11    1    3    3    0    0  0.50500196476E+01  0.30216252555E+01  0.96787377196E+01  0.11327439328E+02  0.51100000000E-03 0.  1.
        -12    1    3    3    0    0  0.17784218806E+01 -0.60483296323E+00  0.12310776219E+01  0.22459206153E+01  0.00000000000E+00 0.  1.
</event>
<event>
 7    1  0.1442665E-008  0.4614232E+02  0.7816164E-02  0.1320468E+00
        -11   -1    0    0    0    0  0.00000000000E+00  0.00000000000E+00  0.45593999997E+02  0.45594000000E+02  0.51100000000E-03 0.  1.
         11   -1    0    0    0    0 -0.00000000000E+00 -0.00000000000E+00 -0.45593999997E+02  0.45594000000E+02  0.51100000000E-03 0. -1.
    9900012    2    1    2    0    0  0.28661118401E+02  0.34171803835E+02 -0.63199462860E+01  0.46142316451E+02  0.99999880568E+01 0.  0.
         12    1    1    2    0    0 -0.28661118401E+02 -0.34171803835E+02  0.63199462860E+01  0.45045683549E+02  0.00000000000E+00 0. -1.
         11    1    3    3    0    0  0.10236470059E+02  0.11179472139E+02 -0.53839056353E+01  0.16085781198E+02  0.51100000000E-03 0. -1.
        -11    1    3    3    0    0  0.13776230994E+02  0.20579194070E+02 -0.18381828928E+00  0.24765329765E+02  0.51100000000E-03 0.  1.
        -12    1    3    3    0    0  0.46484173477E+01  0.24131376254E+01 -0.75222236144E+00  0.52912054883E+01  0.00000000000E+00 0.  1.
</event>
<event>
 7    1  0.1442665E-008  0.4614232E+02  0.7816164E-02  0.1320468E+00
        -11   -1    0    0    0    0  0.00000000000E+00  0.00000000000E+00  0.45593999997E+02  0.45594000000E+02  0.51100000000E-03 0.  1.
         11   -1    0    0    0    0 -0.00000000000E+00 -0.00000000000E+00 -0.45593999997E+02  0.45594000000E+02  0.51100000000E-03 0. -1.
    9900012    2    1    2    0    0  0.46934501667E+01 -0.43871061919E+02 -0.90782686351E+01  0.46142317523E+02  0.99999978311E+01 0.  0.
         12    1    1    2    0    0 -0.46934501667E+01  0.43871061919E+02  0.90782686351E+01  0.45045682477E+02  0.00000000000E+00 0. -1.
         11    1    3    3    0    0  0.16245290947E+01 -0.24457480520E+01 -0.22565102629E+01  0.37030551091E+01  0.51100000000E-03 0. -1.
        -11    1    3    3    0    0  0.23930135981E+00 -0.20698834857E+02 -0.99471610851E+00  0.20724104082E+02  0.51100000000E-03 0.  1.
        -12    1    3    3    0    0  0.28296197122E+01 -0.20726479010E+02 -0.58270422637E+01  0.21715158332E+02  0.00000000000E+00 0.  1.
</event>
<event>
 7    1  0.1442665E-008  0.4614232E+02  0.7816164E-02  0.1320468E+00
        -11   -1    0    0    0    0  0.00000000000E+00  0.00000000000E+00  0.45593999997E+02  0.45594000000E+02  0.51100000000E-03 0. -1.
         11   -1    0    0    0    0 -0.00000000000E+00 -0.00000000000E+00 -0.45593999997E+02  0.45594000000E+02  0.51100000000E-03 0.  1.
    9900012    2    1    2    0    0  0.23602949323E+01 -0.41208548235E+02 -0.18038793189E+02  0.46142317637E+02  0.99999988705E+01 0.  0.
         12    1    1    2    0    0 -0.23602949323E+01  0.41208548235E+02  0.18038793189E+02  0.45045682363E+02  0.00000000000E+00 0. -1.
         11    1    3    3    0    0  0.46246697762E+01 -0.10396625347E+02 -0.48178023542E+01  0.12356723228E+02  0.51100000000E-03 0. -1.
        -11    1    3    3    0    0 -0.25829949390E+00 -0.10511900048E+02 -0.62293988393E+01  0.12221790843E+02  0.51100000000E-03 0.  1.
         12    1    3    3    0    0 -0.20060753500E+01 -0.20300022841E+02 -0.69915919952E+01  0.21563803567E+02  0.00000000000E+00 0. -1.
</event>
<event>
 7    1  0.1442665E-008  0.4614232E+02  0.7816164E-02  0.1320468E+00
        -11   -1    0    0    0    0  0.00000000000E+00  0.00000000000E+00  0.45593999997E+02  0.45594000000E+02  0.51100000000E-03 0.  1.
         11   -1    0    0    0    0 -0.00000000000E+00 -0.00000000000E+00 -0.45593999997E+02  0.45594000000E+02  0.51100000000E-03 0. -1.
    9900012    2    1    2    0    0 -0.44557154230E+02 -0.10648194771E+01  0.65299101351E+01  0.46142316966E+02  0.99999927534E+01 0.  0.
         12    1    1    2    0    0  0.44557154230E+02  0.10648194771E+01 -0.65299101351E+01  0.45045683034E+02  0.00000000000E+00 0. -1.
         11    1    3    3    0    0 -0.84358307342E+01 -0.25835773821E+01  0.35487847632E+01  0.95095733775E+01  0.51100000000E-03 0. -1.
        -11    1    3    3    0    0 -0.10624109871E+02  0.75039280911E+00  0.32070728756E+01  0.11122954491E+02  0.51100000000E-03 0.  1.
         12    1    3    3    0    0 -0.25497213624E+02  0.76836509585E+00 -0.22594750364E+00  0.25509789098E+02  0.00000000000E+00 0. -1.
</event>
<event>
 7    1  0.1442665E-008  0.4614232E+02  0.7816164E-02  0.1320468E+00
        -11   -1    0    0    0    0  0.00000000000E+00  0.00000000000E+00  0.45593999997E+02  0.45594000000E+02  0.51100000000E-03 0. -1.
         11   -1    0    0    0    0 -0.00000000000E+00 -0.00000000000E+00 -0.45593999997E+02  0.45594000000E+02  0.51100000000E-03 0.  1.
    9900012    2    1    2    0    0  0.28695247040E+02  0.25313297836E+02 -0.23768324452E+02  0.46142317662E+02  0.99999990988E+01 0.  0.
         12    1    1    2    0    0 -0.28695247040E+02 -0.25313297836E+02  0.23768324452E+02  0.45045682338E+02  0.00000000000E+00 0. -1.
         11    1    3    3    0    0  0.80000404970E+01  0.42610529135E+01 -0.81336881814E+01  0.12178427796E+02  0.51100000000E-03 0. -1.
        -11    1    3    3    0    0  0.19476930308E+02  0.16982470452E+02 -0.14164953337E+02  0.29468644696E+02  0.51100000000E-03 0.  1.
         12    1    3    3    0    0  0.12182762347E+01  0.40697744698E+01 -0.14696829339E+01  0.44952451707E+01  0.00000000000E+00 0. -1.
</event>
<event>
 7    1  0.1442665E-008  0.4614232E+02  0.7816164E-02  0.1320468E+00
        -11   -1    0    0    0    0  0.00000000000E+00  0.00000000000E+00  0.45593999997E+02  0.45594000000E+02  0.51100000000E-03 0. -1.
         11   -1    0    0    0    0 -0.00000000000E+00 -0.00000000000E+00 -0.45593999997E+02  0.45594000000E+02  0.51100000000E-03 0.  1.
    9900012    2    1    2    0    0 -0.23703524460E+02 -0.35158982796E+02 -0.15202050040E+02  0.46142317982E+02  0.10000002011E+02 0.  0.
         12    1    1    2    0    0  0.23703524460E+02  0.35158982796E+02  0.15202050040E+02  0.45045682018E+02  0.00000000000E+00 0. -1.
         11    1    3    3    0    0 -0.23400001508E+02 -0.28716179486E+02 -0.11985414419E+02  0.38933651176E+02  0.51100000000E-03 0.  1.
        -11    1    3    3    0    0 -0.18827379793E+00 -0.48571993230E+01 -0.24653176364E+01  0.54502865609E+01  0.51100000000E-03 0. -1.
        -12    1    3    3    0    0 -0.11524915418E+00 -0.15856039866E+01 -0.75131798502E+00  0.17583802445E+01  0.00000000000E+00 0.  1.
</event>
<event>
 7    1  0.1442665E-008  0.4614232E+02  0.7816164E-02  0.1320468E+00
        -11   -1    0    0    0    0  0.00000000000E+00  0.00000000000E+00  0.45593999997E+02  0.45594000000E+02  0.51100000000E-03 0.  1.
         11   -1    0    0    0    0 -0.00000000000E+00 -0.00000000000E+00 -0.45593999997E+02  0.45594000000E+02  0.51100000000E-03 0. -1.
    9900012    2    1    2    0    0  0.13593597127E+00 -0.86862694095E+01  0.44200043999E+02  0.46142316029E+02  0.99999842074E+01 0.  0.
         12    1    1    2    0    0 -0.13593597127E+00  0.86862694095E+01 -0.44200043999E+02  0.45045683971E+02  0.00000000000E+00 0. -1.
         11    1    3    3    0    0  0.17679882144E+01 -0.44208336786E+01  0.74918762222E+01  0.88768103692E+01  0.51100000000E-03 0. -1.
        -11    1    3    3    0    0  0.96187223243E+00 -0.33919873246E+01  0.24632033529E+02  0.24883083656E+02  0.51100000000E-03 0.  1.
         12    1    3    3    0    0 -0.25939244756E+01 -0.87344840635E+00  0.12076134249E+02  0.12382422004E+02  0.00000000000E+00 0. -1.
</event>
<event>
 7    1  0.1442665E-008  0.4614232E+02  0.7816164E-02  0.1320468E+00
        -11   -1    0    0    0    0  0.00000000000E+00  0.00000000000E+00  0.45593999997E+02  0.45594000000E+02  0.51100000000E-03 0.  1.
         11   -1    0    0    0    0 -0.00000000000E+00 -0.00000000000E+00 -0.45593999997E+02  0.45594000000E+02  0.51100000000E-03 0. -1.
    9900012    2    1    2    0    0 -0.34833960576E+02 -0.28305744697E+02  0.38070115955E+01  0.46142319524E+02  0.10000016074E+02 0.  0.
         12    1    1    2    0    0  0.34833960576E+02  0.28305744697E+02 -0.38070115955E+01  0.45045680476E+02  0.00000000000E+00 0. -1.
         11    1    3    3    0    0 -0.23816131381E+01 -0.28786811312E+01 -0.20892098583E+01  0.42806172789E+01  0.51100000000E-03 0. -1.
        -11    1    3    3    0    0 -0.23854508217E+02 -0.17970866882E+02  0.24296427818E+01  0.29964859136E+02  0.51100000000E-03 0.  1.
        -12    1    3    3    0    0 -0.85978392205E+01 -0.74561966846E+01  0.34665786720E+01  0.11896843109E+02  0.00000000000E+00 0.  1.
</event>
<event>
 7    1  0.1442665E-008  0.4614232E+02  0.7816164E-02  0.1320468E+00
        -11   -1    0    0    0    0  0.00000000000E+00  0.00000000000E+00  0.45593999997E+02  0.45594000000E+02  0.51100000000E-03 0.  1.
         11   -1    0    0    0    0 -0.00000000000E+00 -0.00000000000E+00 -0.45593999997E+02  0.45594000000E+02  0.51100000000E-03 0. -1.
    9900012    2    1    2    0    0  0.27630818888E+02 -0.25476395074E+00  0.35575082485E+02  0.46142317067E+02  0.99999936686E+01 0.  0.
         12    1    1    2    0    0 -0.27630818888E+02  0.25476395074E+00 -0.35575082485E+02  0.45045682933E+02  0.00000000000E+00 0. -1.
         11    1    3    3    0    0  0.13041386244E+01 -0.83496639213E+00  0.36409006721E+01  0.39565268093E+01  0.51100000000E-03 0. -1.
        -11    1    3    3    0    0  0.82608895882E+01  0.39833185870E+01  0.11187551095E+02  0.14466182064E+02  0.51100000000E-03 0.  1.
        -12    1    3    3    0    0  0.18065790675E+02 -0.34031161457E+01  0.20746630718E+02  0.27719608193E+02  0.00000000000E+00 0.  1.
</event>
<event>
 7    1  0.1442665E-008  0.4614232E+02  0.7816164E-02  0.1320468E+00
        -11   -1    0    0    0    0  0.00000000000E+00  0.00000000000E+00  0.45593999997E+02  0.45594000000E+02  0.51100000000E-03 0.  1.
         11   -1    0    0    0    0 -0.00000000000E+00 -0.00000000000E+00 -0.45593999997E+02  0.45594000000E+02  0.51100000000E-03 0. -1.
    9900012    2    1    2    0    0 -0.16482288451E+02  0.38726655808E+02  0.16052843055E+02  0.46142317934E+02  0.10000001578E+02 0.  0.
         12    1    1    2    0    0  0.16482288451E+02 -0.38726655808E+02 -0.16052843055E+02  0.45045682066E+02  0.00000000000E+00 0. -1.
         11    1    3    3    0    0 -0.13173066086E+02  0.28957708558E+02  0.11572302094E+02  0.33852573478E+02  0.51100000000E-03 0. -1.
        -11    1    3    3    0    0 -0.25803051332E+01  0.97986599834E+01  0.28851241975E+01  0.10535447496E+02  0.51100000000E-03 0.  1.
         12    1    3    3    0    0 -0.72891723143E+00 -0.29712733874E-01  0.15954167626E+01  0.17542969598E+01  0.00000000000E+00 0. -1.
</event>
<event>
 7    1  0.1442665E-008  0.4614232E+02  0.7816164E-02  0.1320468E+00
        -11   -1    0    0    0    0  0.00000000000E+00  0.00000000000E+00  0.45593999997E+02  0.45594000000E+02  0.51100000000E-03 0.  1.
         11   -1    0    0    0    0 -0.00000000000E+00 -0.00000000000E+00 -0.45593999997E+02  0.45594000000E+02  0.51100000000E-03 0. -1.
    9900012    2    1    2    0    0  0.20235292265E+02  0.39300835445E+02  0.86654859523E+01  0.46142319114E+02  0.10000012334E+02 0.  0.
         12    1    1    2    0    0 -0.20235292265E+02 -0.39300835445E+02 -0.86654859523E+01  0.45045680886E+02  0.00000000000E+00 0. -1.
         11    1    3    3    0    0  0.39080983657E+01  0.11748781823E+02 -0.56407736423E+00  0.12394566983E+02  0.51100000000E-03 0. -1.
        -11    1    3    3    0    0  0.16053910263E+02  0.27334769399E+02  0.83208735056E+01  0.32774297688E+02  0.51100000000E-03 0.  1.
        -12    1    3    3    0    0  0.27328363601E+00  0.21728422365E+00  0.90868981087E+00  0.97345444266E+00  0.00000000000E+00 0.  1.
</event>
<event>
 7    1  0.1442665E-008  0.4614232E+02  0.7816164E-02  0.1320468E+00
        -11   -1    0    0    0    0  0.00000000000E+00  0.00000000000E+00  0.45593999997E+02  0.45594000000E+02  0.51100000000E-03 0.  1.
         11   -1    0    0    0    0 -0.00000000000E+00 -0.00000000000E+00 -0.45593999997E+02  0.45594000000E+02  0.51100000000E-03 0. -1.
    9900012    2    1    2    0    0 -0.40856002870E+02 -0.27329373028E+01  0.18773160900E+02  0.46142317777E+02  0.10000000145E+02 0.  0.
         12    1    1    2    0    0  0.40856002870E+02  0.27329373028E+01 -0.18773160900E+02  0.45045682223E+02  0.00000000000E+00 0. -1.
         11    1    3    3    0    0 -0.10140722569E+01 -0.10819297928E+01  0.22111857610E+01  0.26623781380E+01  0.51100000000E-03 0. -1.
        -11    1    3    3    0    0 -0.33868155831E+02  0.26494739146E+00  0.13098005399E+02  0.36313632732E+02  0.51100000000E-03 0.  1.
        -12    1    3    3    0    0 -0.59737747814E+01 -0.19159549015E+01  0.34639697395E+01  0.71663069066E+01  0.00000000000E+00 0.  1.
</event>
<event>
 7    1  0.1442665E-008  0.4614232E+02  0.7816164E-02  0.1320468E+00
        -11   -1    0    0    0    0  0.00000000000E+00  0.00000000000E+00  0.45593999997E+02  0.45594000000E+02  0.51100000000E-03 0.  1.
         11   -1    0    0    0    0 -0.00000000000E+00 -0.00000000000E+00 -0.45593999997E+02  0.45594000000E+02  0.51100000000E-03 0. -1.
    9900012    2    1    2    0    0 -0.34416707136E+02  0.14168802833E+01  0.29027507171E+02  0.46142318161E+02  0.10000003646E+02 0.  0.
         12    1    1    2    0    0  0.34416707136E+02 -0.14168802833E+01 -0.29027507171E+02  0.45045681839E+02  0.00000000000E+00 0. -1.
         11    1    3    3    0    0 -0.69194152087E+01 -0.20623327764E+01  0.53475484040E+01  0.89848649130E+01  0.51100000000E-03 0. -1.
        -11    1    3    3    0    0 -0.62088661364E+00 -0.99746259291E+00  0.20749471294E+01  0.23844994574E+01  0.51100000000E-03 0.  1.
        -12    1    3    3    0    0 -0.26876405313E+02  0.44766756527E+01  0.21605011637E+02  0.34772953791E+02  0.00000000000E+00 0.  1.
</event>
<event>
 7    1  0.1442665E-008  0.4614232E+02  0.7816164E-02  0.1320468E+00
        -11   -1    0    0    0    0  0.00000000000E+00  0.00000000000E+00  0.45593999997E+02  0.45594000000E+02  0.51100000000E-03 0.  1.
         11   -1    0    0    0    0 -0.00000000000E+00 -0.00000000000E+00 -0.45593999997E+02  0.45594000000E+02  0.51100000000E-03 0. -1.
    9900012    2    1    2    0    0 -0.11902388249E+02 -0.31612263133E+02  0.29801196349E+02  0.46142319516E+02  0.10000016005E+02 0.  0.
         12    1    1    2    0    0  0.11902388249E+02  0.31612263133E+02 -0.29801196349E+02  0.45045680484E+02  0.00000000000E+00 0. -1.
         11    1    3    3    0    0 -0.40073359898E+01 -0.12464774394E+02  0.82077276622E+01  0.15453029996E+02  0.51100000000E-03 0. -1.
        -11    1    3    3    0    0 -0.21808808480E+00  0.26346429106E+00  0.21028721108E+01  0.21305039828E+01  0.51100000000E-03 0.  1.
        -12    1    3    3    0    0 -0.76769641748E+01 -0.19410953030E+02  0.19490596576E+02  0.28558785537E+02  0.00000000000E+00 0.  1.
</event>
<event>
 7    1  0.1442665E-008  0.4614232E+02  0.7816164E-02  0.1320468E+00
        -11   -1    0    0    0    0  0.00000000000E+00  0.00000000000E+00  0.45593999997E+02  0.45594000000E+02  0.51100000000E-03 0. -1.
         11   -1    0    0    0    0 -0.00000000000E+00 -0.00000000000E+00 -0.45593999997E+02  0.45594000000E+02  0.51100000000E-03 0.  1.
    9900012    2    1    2    0    0 -0.39796142680E+01  0.44826267438E+02  0.19702685123E+01  0.46142317186E+02  0.99999947599E+01 0.  0.
         12    1    1    2    0    0  0.39796142680E+01 -0.44826267438E+02 -0.19702685123E+01  0.45045682814E+02  0.00000000000E+00 0. -1.
         11    1    3    3    0    0 -0.27479015921E+01  0.27474499766E+02 -0.32077702763E+00  0.27613438734E+02  0.51100000000E-03 0.  1.
        -11    1    3    3    0    0 -0.13894991396E+01  0.68939092392E+01  0.37478155053E+01  0.79688652756E+01  0.51100000000E-03 0. -1.
         12    1    3    3    0    0  0.15778646375E+00  0.10457858433E+02 -0.14567699654E+01  0.10560013177E+02  0.00000000000E+00 0. -1.
</event>
<event>
 7    1  0.1442665E-008  0.4614232E+02  0.7816164E-02  0.1320468E+00
        -11   -1    0    0    0    0  0.00000000000E+00  0.00000000000E+00  0.45593999997E+02  0.45594000000E+02  0.51100000000E-03 0.  1.
         11   -1    0    0    0    0 -0.00000000000E+00 -0.00000000000E+00 -0.45593999997E+02  0.45594000000E+02  0.51100000000E-03 0. -1.
    9900012    2    1    2    0    0  0.49407286106E+01  0.44336381799E+02  0.62440377839E+01  0.46142316988E+02  0.99999929484E+01 0.  0.
         12    1    1    2    0    0 -0.49407286106E+01 -0.44336381799E+02 -0.62440377839E+01  0.45045683012E+02  0.00000000000E+00 0. -1.
         11    1    3    3    0    0 -0.86052787901E+00  0.57475904033E+01  0.22750846032E+01  0.62410987724E+01  0.51100000000E-03 0. -1.
        -11    1    3    3    0    0  0.71360453705E+01  0.29478699191E+02  0.14934256888E+01  0.30366876199E+02  0.51100000000E-03 0.  1.
        -12    1    3    3    0    0 -0.13347888809E+01  0.91100922043E+01  0.24755274918E+01  0.95343420166E+01  0.00000000000E+00 0.  1.
</event>
<event>
 7    1  0.1442665E-008  0.4614232E+02  0.7816164E-02  0.1320468E+00
        -11   -1    0    0    0    0  0.00000000000E+00  0.00000000000E+00  0.45593999997E+02  0.45594000000E+02  0.51100000000E-03 0. -1.
         11   -1    0    0    0    0 -0.00000000000E+00 -0.00000000000E+00 -0.45593999997E+02  0.45594000000E+02  0.51100000000E-03 0.  1.
    9900012    2    1    2    0    0  0.28310384644E+02  0.26037441722E+02  0.23445410201E+02  0.46142317525E+02  0.99999978476E+01 0.  0.
         12    1    1    2    0    0 -0.28310384644E+02 -0.26037441722E+02 -0.23445410201E+02  0.45045682475E+02  0.00000000000E+00 0. -1.
         11    1    3    3    0    0  0.27086770712E+02  0.20312198427E+02  0.20317731145E+02  0.39485297918E+02  0.51100000000E-03 0. -1.
        -11    1    3    3    0    0  0.19750290471E+00  0.18336993255E+01  0.82655638890E+00  0.20210532746E+01  0.51100000000E-03 0.  1.
         12    1    3    3    0    0  0.10261110280E+01  0.38915439691E+01  0.23011226674E+01  0.46359663325E+01  0.00000000000E+00 0. -1.
</event>
<event>
 7    1  0.1442665E-008  0.4614232E+02  0.7816164E-02  0.1320468E+00
        -11   -1    0    0    0    0  0.00000000000E+00  0.00000000000E+00  0.45593999997E+02  0.45594000000E+02  0.51100000000E-03 0. -1.
         11   -1    0    0    0    0 -0.00000000000E+00 -0.00000000000E+00 -0.45593999997E+02  0.45594000000E+02  0.51100000000E-03 0.  1.
    9900012    2    1    2    0    0  0.25482707736E+02  0.37144801926E+02 -0.93484877477E-01  0.46142318264E+02  0.10000004585E+02 0.  0.
         12    1    1    2    0    0 -0.25482707736E+02 -0.37144801926E+02  0.93484877477E-01  0.45045681736E+02  0.00000000000E+00 0. -1.
         11    1    3    3    0    0  0.15098399460E+02  0.27637996177E+02  0.12652205865E+01  0.31518586300E+02  0.51100000000E-03 0. -1.
        -11    1    3    3    0    0  0.37293200347E+01  0.19644466778E+01 -0.17346994725E+01  0.45580764794E+01  0.51100000000E-03 0.  1.
        -12    1    3    3    0    0  0.66549882413E+01  0.75423590705E+01  0.37599400857E+00  0.10065655485E+02  0.00000000000E+00 0.  1.
</event>
<event>
 7    1  0.1442665E-008  0.4614232E+02  0.7816164E-02  0.1320468E+00
        -11   -1    0    0    0    0  0.00000000000E+00  0.00000000000E+00  0.45593999997E+02  0.45594000000E+02  0.51100000000E-03 0. -1.
         11   -1    0    0    0    0 -0.00000000000E+00 -0.00000000000E+00 -0.45593999997E+02  0.45594000000E+02  0.51100000000E-03 0.  1.
    9900012    2    1    2    0    0 -0.32960789683E+02 -0.26836925538E+02  0.14915738678E+02  0.46142317752E+02  0.99999999174E+01 0.  0.
         12    1    1    2    0    0  0.32960789683E+02  0.26836925538E+02 -0.14915738678E+02  0.45045682248E+02  0.00000000000E+00 0. -1.
         11    1    3    3    0    0 -0.11662036483E+02 -0.75127308533E+01  0.70341932209E+01  0.15553909294E+02  0.51100000000E-03 0. -1.
        -11    1    3    3    0    0 -0.14251906190E+02 -0.92075401218E+01  0.25582875186E+01  0.17159267480E+02  0.51100000000E-03 0.  1.
         12    1    3    3    0    0 -0.70468470096E+01 -0.10116654563E+02  0.53232579389E+01  0.13429140978E+02  0.00000000000E+00 0. -1.
</event>
<event>
 7    1  0.1442665E-008  0.4614232E+02  0.7816164E-02  0.1320468E+00
        -11   -1    0    0    0    0  0.00000000000E+00  0.00000000000E+00  0.45593999997E+02  0.45594000000E+02  0.51100000000E-03 0.  1.
         11   -1    0    0    0    0 -0.00000000000E+00 -0.00000000000E+00 -0.45593999997E+02  0.45594000000E+02  0.51100000000E-03 0. -1.
    9900012    2    1    2    0    0 -0.32207281686E+02 -0.19948522126E+02  0.24369261996E+02  0.46142318089E+02  0.10000002991E+02 0.  0.
         12    1    1    2    0    0  0.32207281686E+02  0.19948522126E+02 -0.24369261996E+02  0.45045681911E+02  0.00000000000E+00 0. -1.
         11    1    3    3    0    0 -0.95495753080E+01 -0.11791768026E+01  0.63971512887E+01  0.11554583133E+02  0.51100000000E-03 0. -1.
        -11    1    3    3    0    0 -0.20694384039E+02 -0.18036698957E+02  0.16856937470E+02  0.32213915954E+02  0.51100000000E-03 0.  1.
        -12    1    3    3    0    0 -0.19633223394E+01 -0.73264636618E+00  0.11151732373E+01  0.23738190022E+01  0.00000000000E+00 0.  1.
</event>
<event>
 7    1  0.1442665E-008  0.4614233E+02  0.7816164E-02  0.1320468E+00
        -11   -1    0    0    0    0  0.00000000000E+00  0.00000000000E+00  0.45593999997E+02  0.45594000000E+02  0.51100000000E-03 0.  1.
         11   -1    0    0    0    0 -0.00000000000E+00 -0.00000000000E+00 -0.45593999997E+02  0.45594000000E+02  0.51100000000E-03 0. -1.
    9900012    2    1    2    0    0 -0.15973475678E+02 -0.29862857360E+02  0.29701356770E+02  0.46142325747E+02  0.10000072820E+02 0.  0.
         12    1    1    2    0    0  0.15973475678E+02  0.29862857360E+02 -0.29701356770E+02  0.45045674253E+02  0.00000000000E+00 0. -1.
         11    1    3    3    0    0  0.58047978229E+00 -0.40712888305E+01  0.58647385112E+01  0.71629259095E+01  0.51100000000E-03 0. -1.
        -11    1    3    3    0    0 -0.92244453868E+01 -0.11857375985E+02  0.12993291837E+02  0.19862361163E+02  0.51100000000E-03 0.  1.
        -12    1    3    3    0    0 -0.73295100737E+01 -0.13934192545E+02  0.10843326421E+02  0.19117038674E+02  0.00000000000E+00 0.  1.
</event>
<event>
 7    1  0.1442665E-008  0.4614232E+02  0.7816164E-02  0.1320468E+00
        -11   -1    0    0    0    0  0.00000000000E+00  0.00000000000E+00  0.45593999997E+02  0.45594000000E+02  0.51100000000E-03 0.  1.
         11   -1    0    0    0    0 -0.00000000000E+00 -0.00000000000E+00 -0.45593999997E+02  0.45594000000E+02  0.51100000000E-03 0. -1.
    9900012    2    1    2    0    0  0.27549049700E+02 -0.17305542742E+02  0.31155763944E+02  0.46142316790E+02  0.99999911411E+01 0.  0.
         12    1    1    2    0    0 -0.27549049700E+02  0.17305542742E+02 -0.31155763944E+02  0.45045683210E+02  0.00000000000E+00 0. -1.
         11    1    3    3    0    0  0.47439104355E+00  0.26400152833E+00  0.12487679350E+01  0.13616773795E+01  0.51100000000E-03 0. -1.
        -11    1    3    3    0    0  0.23494067916E+00  0.71162970337E+00  0.13131566180E+01  0.15119505686E+01  0.51100000000E-03 0.  1.
        -12    1    3    3    0    0  0.26839717977E+02 -0.18281173974E+02  0.28593839391E+02  0.43268688842E+02  0.00000000000E+00 0.  1.
</event>
<event>
 7    1  0.1442665E-008  0.4614232E+02  0.7816164E-02  0.1320468E+00
        -11   -1    0    0    0    0  0.00000000000E+00  0.00000000000E+00  0.45593999997E+02  0.45594000000E+02  0.51100000000E-03 0. -1.
         11   -1    0    0    0    0 -0.00000000000E+00 -0.00000000000E+00 -0.45593999997E+02  0.45594000000E+02  0.51100000000E-03 0.  1.
    9900012    2    1    2    0    0 -0.16590926945E+02  0.16098568221E+02 -0.38661230651E+02  0.46142317509E+02  0.99999976987E+01 0.  0.
         12    1    1    2    0    0  0.16590926945E+02 -0.16098568221E+02  0.38661230651E+02  0.45045682491E+02  0.00000000000E+00 0. -1.
         11    1    3    3    0    0 -0.39893834164E+01  0.51453498701E+01 -0.19614156914E+02  0.20666517778E+02  0.51100000000E-03 0. -1.
        -11    1    3    3    0    0 -0.73786981649E+01  0.70745136207E+01 -0.97330740008E+01  0.14114767421E+02  0.51100000000E-03 0.  1.
         12    1    3    3    0    0 -0.52228453641E+01  0.38787047297E+01 -0.93139997358E+01  0.11361032310E+02  0.00000000000E+00 0. -1.
</event>
<event>
 7    1  0.1442665E-008  0.4614232E+02  0.7816164E-02  0.1320468E+00
        -11   -1    0    0    0    0  0.00000000000E+00  0.00000000000E+00  0.45593999997E+02  0.45594000000E+02  0.51100000000E-03 0. -1.
         11   -1    0    0    0    0 -0.00000000000E+00 -0.00000000000E+00 -0.45593999997E+02  0.45594000000E+02  0.51100000000E-03 0.  1.
    9900012    2    1    2    0    0  0.16101264893E+02  0.37499718225E+02 -0.19069190591E+02  0.46142316213E+02  0.99999858809E+01 0.  0.
         12    1    1    2    0    0 -0.16101264893E+02 -0.37499718225E+02  0.19069190591E+02  0.45045683787E+02  0.00000000000E+00 0. -1.
         11    1    3    3    0    0  0.46471224954E+01  0.47362581497E+01 -0.79573784687E+00  0.66828951607E+01  0.51100000000E-03 0. -1.
        -11    1    3    3    0    0  0.87745948472E+01  0.20832416378E+02 -0.13521294699E+02  0.26340244826E+02  0.51100000000E-03 0.  1.
         12    1    3    3    0    0  0.26795475500E+01  0.11931043697E+02 -0.47521580448E+01  0.13119176226E+02  0.00000000000E+00 0. -1.
</event>
<event>
 7    1  0.1442665E-008  0.4614232E+02  0.7816164E-02  0.1320468E+00
        -11   -1    0    0    0    0  0.00000000000E+00  0.00000000000E+00  0.45593999997E+02  0.45594000000E+02  0.51100000000E-03 0. -1.
         11   -1    0    0    0    0 -0.00000000000E+00 -0.00000000000E+00 -0.45593999997E+02  0.45594000000E+02  0.51100000000E-03 0.  1.
    9900012    2    1    2    0    0 -0.35545011263E+02 -0.11557042527E+02  0.25141608419E+02  0.46142317282E+02  0.99999956352E+01 0.  0.
         12    1    1    2    0    0  0.35545011263E+02  0.11557042527E+02 -0.25141608419E+02  0.45045682718E+02  0.00000000000E+00 0. -1.
         11    1    3    3    0    0 -0.35795696895E+01  0.79074617488E+00  0.30573709036E+01  0.47734804680E+01  0.51100000000E-03 0. -1.
        -11    1    3    3    0    0 -0.52226943387E+01 -0.28957962152E+01  0.71421923125E+01  0.93098379774E+01  0.51100000000E-03 0.  1.
        -12    1    3    3    0    0 -0.26742747234E+02 -0.94519924863E+01  0.14942045202E+02  0.32058998837E+02  0.00000000000E+00 0.  1.
</event>
<event>
 7    1  0.1442665E-008  0.4614232E+02  0.7816164E-02  0.1320468E+00
        -11   -1    0    0    0    0  0.00000000000E+00  0.00000000000E+00  0.45593999997E+02  0.45594000000E+02  0.51100000000E-03 0. -1.
         11   -1    0    0    0    0 -0.00000000000E+00 -0.00000000000E+00 -0.45593999997E+02  0.45594000000E+02  0.51100000000E-03 0.  1.
    9900012    2    1    2    0    0 -0.34464252990E+00 -0.26447323141E+02 -0.36462774232E+02  0.46142316694E+02  0.99999902678E+01 0.  0.
         12    1    1    2    0    0  0.34464252990E+00  0.26447323141E+02  0.36462774232E+02  0.45045683306E+02  0.00000000000E+00 0. -1.
         11    1    3    3    0    0 -0.88484570857E-01 -0.29759271550E+01 -0.28124375308E+01  0.40955801881E+01  0.51100000000E-03 0. -1.
        -11    1    3    3    0    0  0.42199139156E+01 -0.13298467593E+02 -0.20943130656E+02  0.25164888947E+02  0.51100000000E-03 0.  1.
        -12    1    3    3    0    0 -0.44760718747E+01 -0.10172928392E+02 -0.12707206046E+02  0.16881847559E+02  0.00000000000E+00 0.  1.
</event>
<event>
 7    1  0.1442665E-008  0.4614232E+02  0.7816164E-02  0.1320468E+00
        -11   -1    0    0    0    0  0.00000000000E+00  0.00000000000E+00  0.45593999997E+02  0.45594000000E+02  0.51100000000E-03 0.  1.
         11   -1    0    0    0    0 -0.00000000000E+00 -0.00000000000E+00 -0.45593999997E+02  0.45594000000E+02  0.51100000000E-03 0. -1.
    9900012    2    1    2    0    0  0.40467227801E+02  0.15070172683E+02  0.12822119241E+02  0.46142319048E+02  0.10000011731E+02 0.  0.
         12    1    1    2    0    0 -0.40467227801E+02 -0.15070172683E+02 -0.12822119241E+02  0.45045680952E+02  0.00000000000E+00 0. -1.
         11    1    3    3    0    0  0.13847402713E+01  0.22774986375E+01  0.30519504122E+00  0.26828436289E+01  0.51100000000E-03 0. -1.
        -11    1    3    3    0    0  0.18491936156E+02  0.92940146475E+01  0.53249160854E+01  0.21370192855E+02  0.51100000000E-03 0.  1.
        -12    1    3    3    0    0  0.20590551374E+02  0.34986593985E+01  0.71920081149E+01  0.22089282564E+02  0.00000000000E+00 0.  1.
</event>
<event>
 7    1  0.1442665E-008  0.4614232E+02  0.7816164E-02  0.1320468E+00
        -11   -1    0    0    0    0  0.00000000000E+00  0.00000000000E+00  0.45593999997E+02  0.45594000000E+02  0.51100000000E-03 0. -1.
         11   -1    0    0    0    0 -0.00000000000E+00 -0.00000000000E+00 -0.45593999997E+02  0.45594000000E+02  0.51100000000E-03 0.  1.
    9900012    2    1    2    0    0 -0.11693661060E+02 -0.29387078217E+02 -0.32074466028E+02  0.46142318230E+02  0.10000004277E+02 0.  0.
         12    1    1    2    0    0  0.11693661060E+02  0.29387078217E+02  0.32074466028E+02  0.45045681770E+02  0.00000000000E+00 0. -1.
         11    1    3    3    0    0 -0.38021464823E+01 -0.13088705551E+02 -0.78196777005E+01  0.15713621177E+02  0.51100000000E-03 0. -1.
        -11    1    3    3    0    0 -0.30705418304E+01 -0.61130159892E+01 -0.11744166392E+02  0.13591270585E+02  0.51100000000E-03 0.  1.
        -12    1    3    3    0    0 -0.48209727470E+01 -0.10185356677E+02 -0.12510621936E+02  0.16837426469E+02  0.00000000000E+00 0.  1.
</event>
<event>
 7    1  0.1442665E-008  0.4614231E+02  0.7816164E-02  0.1320468E+00
        -11   -1    0    0    0    0  0.00000000000E+00  0.00000000000E+00  0.45593999997E+02  0.45594000000E+02  0.51100000000E-03 0. -1.
         11   -1    0    0    0    0 -0.00000000000E+00 -0.00000000000E+00 -0.45593999997E+02  0.45594000000E+02  0.51100000000E-03 0.  1.
    9900012    2    1    2    0    0 -0.36591744427E+02 -0.19294440525E+02  0.17829262361E+02  0.46142314394E+02  0.99999692932E+01 0.  0.
         12    1    1    2    0    0  0.36591744427E+02  0.19294440525E+02 -0.17829262361E+02  0.45045685606E+02  0.00000000000E+00 0. -1.
         11    1    3    3    0    0 -0.23638610603E+02 -0.17018909472E+02  0.12451235774E+02  0.31677444080E+02  0.51100000000E-03 0. -1.
        -11    1    3    3    0    0 -0.66581035194E+01 -0.24941838313E+01  0.24656944657E+01  0.75253534747E+01  0.51100000000E-03 0.  1.
         12    1    3    3    0    0 -0.62950303048E+01  0.21865277858E+00  0.29123321219E+01  0.69395168394E+01  0.00000000000E+00 0. -1.
</event>
<event>
 7    1  0.1442665E-008  0.4614232E+02  0.7816164E-02  0.1320468E+00
        -11   -1    0    0    0    0  0.00000000000E+00  0.00000000000E+00  0.45593999997E+02  0.45594000000E+02  0.51100000000E-03 0.  1.
         11   -1    0    0    0    0 -0.00000000000E+00 -0.00000000000E+00 -0.45593999997E+02  0.45594000000E+02  0.51100000000E-03 0. -1.
    9900012    2    1    2    0    0 -0.11174606344E+02  0.22853739790E+02  0.37174562183E+02  0.46142319598E+02  0.10000016755E+02 0.  0.
         12    1    1    2    0    0  0.11174606344E+02 -0.22853739790E+02 -0.37174562183E+02  0.45045680402E+02  0.00000000000E+00 0. -1.
         11    1    3    3    0    0 -0.36296150755E+01  0.84719851716E+01  0.77450249337E+01  0.12038855836E+02  0.51100000000E-03 0. -1.
        -11    1    3    3    0    0 -0.65684839397E+01  0.79712221699E+01  0.21560270962E+02  0.23906707184E+02  0.51100000000E-03 0.  1.
         12    1    3    3    0    0 -0.97650732872E+00  0.64105324485E+01  0.78692662875E+01  0.10196756579E+02  0.00000000000E+00 0. -1.
</event>
<event>
 7    1  0.1442665E-008  0.4614232E+02  0.7816164E-02  0.1320468E+00
        -11   -1    0    0    0    0  0.00000000000E+00  0.00000000000E+00  0.45593999997E+02  0.45594000000E+02  0.51100000000E-03 0. -1.
         11   -1    0    0    0    0 -0.00000000000E+00 -0.00000000000E+00 -0.45593999997E+02  0.45594000000E+02  0.51100000000E-03 0.  1.
    9900012    2    1    2    0    0  0.24712634245E+02 -0.30479199775E+02 -0.22122780803E+02  0.46142319400E+02  0.10000014944E+02 0.  0.
         12    1    1    2    0    0 -0.24712634245E+02  0.30479199775E+02  0.22122780803E+02  0.45045680600E+02  0.00000000000E+00 0. -1.
         11    1    3    3    0    0  0.20757042724E+02 -0.23055367532E+02 -0.17433259436E+02  0.35585437042E+02  0.51100000000E-03 0. -1.
        -11    1    3    3    0    0  0.34367804935E+01 -0.79740409355E+01 -0.41247640986E+01  0.96130363638E+01  0.51100000000E-03 0.  1.
         12    1    3    3    0    0  0.51881102761E+00  0.55020869224E+00 -0.56475726843E+00  0.94384599360E+00  0.00000000000E+00 0. -1.
</event>
<event>
 7    1  0.1442665E-008  0.4614232E+02  0.7816164E-02  0.1320468E+00
        -11   -1    0    0    0    0  0.00000000000E+00  0.00000000000E+00  0.45593999997E+02  0.45594000000E+02  0.51100000000E-03 0.  1.
         11   -1    0    0    0    0 -0.00000000000E+00 -0.00000000000E+00 -0.45593999997E+02  0.45594000000E+02  0.51100000000E-03 0. -1.
    9900012    2    1    2    0    0  0.11713476984E+01  0.29564533504E+02  0.33965861896E+02  0.46142317952E+02  0.10000001745E+02 0.  0.
         12    1    1    2    0    0 -0.11713476984E+01 -0.29564533504E+02 -0.33965861896E+02  0.45045682048E+02  0.00000000000E+00 0. -1.
         11    1    3    3    0    0  0.14557265249E+01  0.16269223760E+02  0.23683716189E+02  0.28770213664E+02  0.51100000000E-03 0. -1.
        -11    1    3    3    0    0 -0.92302796917E+00  0.25927275444E+01  0.38156625303E+00  0.27784545737E+01  0.51100000000E-03 0.  1.
        -12    1    3    3    0    0  0.63864914265E+00  0.10702582200E+02  0.99005794540E+01  0.14593649715E+02  0.00000000000E+00 0.  1.
</event>
<event>
 7    1  0.1442665E-008  0.4614232E+02  0.7816164E-02  0.1320468E+00
        -11   -1    0    0    0    0  0.00000000000E+00  0.00000000000E+00  0.45593999997E+02  0.45594000000E+02  0.51100000000E-03 0.  1.
         11   -1    0    0    0    0 -0.00000000000E+00 -0.00000000000E+00 -0.45593999997E+02  0.45594000000E+02  0.51100000000E-03 0. -1.
    9900012    2    1    2    0    0  0.86743718588E+01  0.10446794023E+02  0.42950358415E+02  0.46142317404E+02  0.99999967477E+01 0.  0.
         12    1    1    2    0    0 -0.86743718588E+01 -0.10446794023E+02 -0.42950358415E+02  0.45045682596E+02  0.00000000000E+00 0. -1.
         11    1    3    3    0    0  0.15833564265E+01  0.18831994528E+01  0.24266008895E+01  0.34556981770E+01  0.51100000000E-03 0. -1.
        -11    1    3    3    0    0  0.44980848609E+01  0.11173098673E+01  0.82410079746E+01  0.94549120278E+01  0.51100000000E-03 0.  1.
        -12    1    3    3    0    0  0.25929305714E+01  0.74462847028E+01  0.32282749551E+02  0.33231707200E+02  0.00000000000E+00 0.  1.
</event>
<event>
 7    1  0.1442665E-008  0.4614232E+02  0.7816164E-02  0.1320468E+00
        -11   -1    0    0    0    0  0.00000000000E+00  0.00000000000E+00  0.45593999997E+02  0.45594000000E+02  0.51100000000E-03 0.  1.
         11   -1    0    0    0    0 -0.00000000000E+00 -0.00000000000E+00 -0.45593999997E+02  0.45594000000E+02  0.51100000000E-03 0. -1.
    9900012    2    1    2    0    0  0.17511113100E+02  0.37097863058E+02 -0.18607067490E+02  0.46142317787E+02  0.10000000235E+02 0.  0.
         12    1    1    2    0    0 -0.17511113100E+02 -0.37097863058E+02  0.18607067490E+02  0.45045682213E+02  0.00000000000E+00 0. -1.
         11    1    3    3    0    0  0.51181606219E+01  0.11021414575E+02 -0.87209997367E+01  0.14957372231E+02  0.51100000000E-03 0. -1.
        -11    1    3    3    0    0  0.73155045133E+01  0.15631701334E+02 -0.91839850527E+01  0.19550249988E+02  0.51100000000E-03 0.  1.
        -12    1    3    3    0    0  0.50774479646E+01  0.10444747150E+02 -0.70208270053E+00  0.11634695568E+02  0.00000000000E+00 0.  1.
</event>
<event>
 7    1  0.1442665E-008  0.4614231E+02  0.7816164E-02  0.1320468E+00
        -11   -1    0    0    0    0  0.00000000000E+00  0.00000000000E+00  0.45593999997E+02  0.45594000000E+02  0.51100000000E-03 0.  1.
         11   -1    0    0    0    0 -0.00000000000E+00 -0.00000000000E+00 -0.45593999997E+02  0.45594000000E+02  0.51100000000E-03 0. -1.
    9900012    2    1    2    0    0 -0.22103409843E+01  0.34181724045E+02  0.29254712878E+02  0.46142311066E+02  0.99999389492E+01 0.  0.
         12    1    1    2    0    0  0.22103409843E+01 -0.34181724045E+02 -0.29254712878E+02  0.45045688934E+02  0.00000000000E+00 0. -1.
         11    1    3    3    0    0 -0.21466646055E-01  0.10701660407E+02  0.73470359515E+01  0.12980945028E+02  0.51100000000E-03 0. -1.
        -11    1    3    3    0    0 -0.40175876402E+01  0.18045442334E+02  0.19702485818E+02  0.27017900495E+02  0.51100000000E-03 0.  1.
        -12    1    3    3    0    0  0.18287133019E+01  0.54346213036E+01  0.22051911084E+01  0.61434655430E+01  0.00000000000E+00 0.  1.
</event>
<event>
 7    1  0.1442665E-008  0.4614232E+02  0.7816164E-02  0.1320468E+00
        -11   -1    0    0    0    0  0.00000000000E+00  0.00000000000E+00  0.45593999997E+02  0.45594000000E+02  0.51100000000E-03 0. -1.
         11   -1    0    0    0    0 -0.00000000000E+00 -0.00000000000E+00 -0.45593999997E+02  0.45594000000E+02  0.51100000000E-03 0.  1.
    9900012    2    1    2    0    0  0.19024050336E+02 -0.28762633855E+02 -0.28981198750E+02  0.46142317871E+02  0.10000001002E+02 0.  0.
         12    1    1    2    0    0 -0.19024050336E+02  0.28762633855E+02  0.28981198750E+02  0.45045682129E+02  0.00000000000E+00 0. -1.
         11    1    3    3    0    0  0.13513420262E+02 -0.17023217428E+02 -0.14673593902E+02  0.26224355417E+02  0.51100000000E-03 0. -1.
        -11    1    3    3    0    0  0.56969372904E+01 -0.74156967846E+01 -0.11196724115E+02  0.14588155622E+02  0.51100000000E-03 0.  1.
        -12    1    3    3    0    0 -0.18630721622E+00 -0.43237196432E+01 -0.31108807323E+01  0.53298068316E+01  0.00000000000E+00 0.  1.
</event>
<event>
 7    1  0.1442665E-008  0.4614232E+02  0.7816164E-02  0.1320468E+00
        -11   -1    0    0    0    0  0.00000000000E+00  0.00000000000E+00  0.45593999997E+02  0.45594000000E+02  0.51100000000E-03 0.  1.
         11   -1    0    0    0    0 -0.00000000000E+00 -0.00000000000E+00 -0.45593999997E+02  0.45594000000E+02  0.51100000000E-03 0. -1.
    9900012    2    1    2    0    0  0.14114434242E+02 -0.39312639880E+02  0.16864536325E+02  0.46142317701E+02  0.99999994544E+01 0.  0.
         12    1    1    2    0    0 -0.14114434242E+02  0.39312639880E+02 -0.16864536325E+02  0.45045682299E+02  0.00000000000E+00 0. -1.
         11    1    3    3    0    0  0.15068717030E+01 -0.15880299722E+02  0.45894471636E+01  0.16598723057E+02  0.51100000000E-03 0. -1.
        -11    1    3    3    0    0  0.82608511946E+01 -0.18529454535E+02  0.86415083799E+01  0.22051258811E+02  0.51100000000E-03 0.  1.
         12    1    3    3    0    0  0.43467113441E+01 -0.49028856235E+01  0.36335807814E+01  0.74923358334E+01  0.00000000000E+00 0. -1.
</event>
<event>
 7    1  0.1442665E-008  0.4614231E+02  0.7816164E-02  0.1320468E+00
        -11   -1    0    0    0    0  0.00000000000E+00  0.00000000000E+00  0.45593999997E+02  0.45594000000E+02  0.51100000000E-03 0.  1.
         11   -1    0    0    0    0 -0.00000000000E+00 -0.00000000000E+00 -0.45593999997E+02  0.45594000000E+02  0.51100000000E-03 0. -1.
    9900012    2    1    2    0    0  0.42677624283E+02 -0.24830592384E+01  0.14197491487E+02  0.46142312503E+02  0.99999520491E+01 0.  0.
         12    1    1    2    0    0 -0.42677624283E+02  0.24830592384E+01 -0.14197491487E+02  0.45045687497E+02  0.00000000000E+00 0. -1.
         11    1    3    3    0    0  0.18563858401E+02 -0.18643832619E+01  0.91732969793E+01  0.20790433892E+02  0.51100000000E-03 0. -1.
        -11    1    3    3    0    0  0.15668879729E+02  0.82948387368E+00  0.58428758074E+00  0.15701695058E+02  0.51100000000E-03 0.  1.
        -12    1    3    3    0    0  0.84448861521E+01 -0.14481598501E+01  0.44399069268E+01  0.96501835523E+01  0.00000000000E+00 0.  1.
</event>
<event>
 7    1  0.1442665E-008  0.4614232E+02  0.7816164E-02  0.1320468E+00
        -11   -1    0    0    0    0  0.00000000000E+00  0.00000000000E+00  0.45593999997E+02  0.45594000000E+02  0.51100000000E-03 0.  1.
         11   -1    0    0    0    0 -0.00000000000E+00 -0.00000000000E+00 -0.45593999997E+02  0.45594000000E+02  0.51100000000E-03 0. -1.
    9900012    2    1    2    0    0 -0.11391614655E+02  0.24627450145E+02  0.35955990904E+02  0.46142317998E+02  0.10000002163E+02 0.  0.
         12    1    1    2    0    0  0.11391614655E+02 -0.24627450145E+02 -0.35955990904E+02  0.45045682002E+02  0.00000000000E+00 0. -1.
         11    1    3    3    0    0 -0.76001259098E+00 -0.23333980358E+00 -0.27574680578E+00  0.84148865970E+00  0.51100000000E-03 0. -1.
        -11    1    3    3    0    0 -0.65604452902E+01  0.16538407878E+02  0.21623956683E+02  0.28002747730E+02  0.51100000000E-03 0.  1.
         12    1    3    3    0    0 -0.40711567738E+01  0.83223820704E+01  0.14607781027E+02  0.17298081609E+02  0.00000000000E+00 0. -1.
</event>
<event>
 7    1  0.1442665E-008  0.4614232E+02  0.7816164E-02  0.1320468E+00
        -11   -1    0    0    0    0  0.00000000000E+00  0.00000000000E+00  0.45593999997E+02  0.45594000000E+02  0.51100000000E-03 0.  1.
         11   -1    0    0    0    0 -0.00000000000E+00 -0.00000000000E+00 -0.45593999997E+02  0.45594000000E+02  0.51100000000E-03 0. -1.
    9900012    2    1    2    0    0  0.22471799997E+02 -0.39031652928E+02  0.81348138343E+00  0.46142317883E+02  0.10000001110E+02 0.  0.
         12    1    1    2    0    0 -0.22471799997E+02  0.39031652928E+02 -0.81348138343E+00  0.45045682117E+02  0.00000000000E+00 0. -1.
         11    1    3    3    0    0  0.18422443627E+01 -0.12806065381E+01 -0.77680880614E+00  0.23742892788E+01  0.51100000000E-03 0. -1.
        -11    1    3    3    0    0  0.90441204547E+01 -0.20088920853E+02 -0.27562539672E+01  0.22202652816E+02  0.51100000000E-03 0.  1.
        -12    1    3    3    0    0  0.11585435180E+02 -0.17662125537E+02  0.43465441567E+01  0.21565375788E+02  0.00000000000E+00 0.  1.
</event>
<event>
 7    1  0.1442665E-008  0.4614232E+02  0.7816164E-02  0.1320468E+00
        -11   -1    0    0    0    0  0.00000000000E+00  0.00000000000E+00  0.45593999997E+02  0.45594000000E+02  0.51100000000E-03 0. -1.
         11   -1    0    0    0    0 -0.00000000000E+00 -0.00000000000E+00 -0.45593999997E+02  0.45594000000E+02  0.51100000000E-03 0.  1.
    9900012    2    1    2    0    0 -0.33879662562E+02 -0.15197192214E+02 -0.25501514074E+02  0.46142318669E+02  0.10000008278E+02 0.  0.
         12    1    1    2    0    0  0.33879662562E+02  0.15197192214E+02  0.25501514074E+02  0.45045681331E+02  0.00000000000E+00 0. -1.
         11    1    3    3    0    0 -0.61168039389E+01 -0.12017872613E+01 -0.13461136742E+01  0.63774293672E+01  0.51100000000E-03 0. -1.
        -11    1    3    3    0    0 -0.32612310933E+01 -0.36946774288E+01 -0.48529630477E+01  0.69164673172E+01  0.51100000000E-03 0.  1.
        -12    1    3    3    0    0 -0.24501627530E+02 -0.10300727524E+02 -0.19302437352E+02  0.32848421985E+02  0.00000000000E+00 0.  1.
</event>
<event>
 7    1  0.1442665E-008  0.4614232E+02  0.7816164E-02  0.1320468E+00
        -11   -1    0    0    0    0  0.00000000000E+00  0.00000000000E+00  0.45593999997E+02  0.45594000000E+02  0.51100000000E-03 0. -1.
         11   -1    0    0    0    0 -0.00000000000E+00 -0.00000000000E+00 -0.45593999997E+02  0.45594000000E+02  0.51100000000E-03 0.  1.
    9900012    2    1    2    0    0  0.40749951410E+02 -0.17840870369E+02  0.70892992149E+01  0.46142319199E+02  0.10000013114E+02 0.  0.
         12    1    1    2    0    0 -0.40749951410E+02  0.17840870369E+02 -0.70892992149E+01  0.45045680801E+02  0.00000000000E+00 0. -1.
         11    1    3    3    0    0  0.24896932261E+02 -0.93575808578E+01  0.59293381250E+01  0.27250295528E+02  0.51100000000E-03 0. -1.
        -11    1    3    3    0    0  0.12388926086E+02 -0.38658413340E+01 -0.12346072756E+00  0.12978654075E+02  0.51100000000E-03 0.  1.
         12    1    3    3    0    0  0.34640930633E+01 -0.46174481773E+01  0.12834218174E+01  0.59133695963E+01  0.00000000000E+00 0. -1.
</event>
<event>
 7    1  0.1442665E-008  0.4614232E+02  0.7816164E-02  0.1320468E+00
        -11   -1    0    0    0    0  0.00000000000E+00  0.00000000000E+00  0.45593999997E+02  0.45594000000E+02  0.51100000000E-03 0.  1.
         11   -1    0    0    0    0 -0.00000000000E+00 -0.00000000000E+00 -0.45593999997E+02  0.45594000000E+02  0.51100000000E-03 0. -1.
    9900012    2    1    2    0    0 -0.25949880022E+02 -0.36601307355E+02  0.40076906753E+01  0.46142316990E+02  0.99999929695E+01 0.  0.
         12    1    1    2    0    0  0.25949880022E+02  0.36601307355E+02 -0.40076906753E+01  0.45045683010E+02  0.00000000000E+00 0. -1.
         11    1    3    3    0    0 -0.25513421603E+01 -0.73774414712E+00 -0.42158584239E+00  0.26891166076E+01  0.51100000000E-03 0. -1.
        -11    1    3    3    0    0 -0.16553168207E+02 -0.24647482469E+02  0.34179557632E+00  0.29692130173E+02  0.51100000000E-03 0.  1.
        -12    1    3    3    0    0 -0.68453696548E+01 -0.11216080739E+02  0.40874809414E+01  0.13761070209E+02  0.00000000000E+00 0.  1.
</event>
<event>
 7    1  0.1442665E-008  0.4614232E+02  0.7816164E-02  0.1320468E+00
        -11   -1    0    0    0    0  0.00000000000E+00  0.00000000000E+00  0.45593999997E+02  0.45594000000E+02  0.51100000000E-03 0.  1.
         11   -1    0    0    0    0 -0.00000000000E+00 -0.00000000000E+00 -0.45593999997E+02  0.45594000000E+02  0.51100000000E-03 0. -1.
    9900012    2    1    2    0    0  0.42484425908E+02  0.14842608645E+02 -0.19708063298E+01  0.46142317036E+02  0.99999933887E+01 0.  0.
         12    1    1    2    0    0 -0.42484425908E+02 -0.14842608645E+02  0.19708063298E+01  0.45045682964E+02  0.00000000000E+00 0. -1.
         11    1    3    3    0    0  0.63233394826E+00 -0.38118412198E+00  0.55713996126E+00  0.92496094757E+00  0.51100000000E-03 0. -1.
        -11    1    3    3    0    0  0.31674139860E+02  0.95094001988E+01 -0.45130683834E+01  0.33377351820E+02  0.51100000000E-03 0.  1.
        -12    1    3    3    0    0  0.10177952099E+02  0.57143925680E+01  0.19851220923E+01  0.11840004269E+02  0.00000000000E+00 0.  1.
</event>
<event>
 7    1  0.1442665E-008  0.4614231E+02  0.7816164E-02  0.1320468E+00
        -11   -1    0    0    0    0  0.00000000000E+00  0.00000000000E+00  0.45593999997E+02  0.45594000000E+02  0.51100000000E-03 0.  1.
         11   -1    0    0    0    0 -0.00000000000E+00 -0.00000000000E+00 -0.45593999997E+02  0.45594000000E+02  0.51100000000E-03 0. -1.
    9900012    2    1    2    0    0  0.35095468870E+02 -0.79985126348E+01  0.27082205020E+02  0.46142312434E+02  0.99999514188E+01 0.  0.
         12    1    1    2    0    0 -0.35095468870E+02  0.79985126348E+01 -0.27082205020E+02  0.45045687566E+02  0.00000000000E+00 0. -1.
         11    1    3    3    0    0  0.95782596831E+01  0.52907290608E-01  0.48066308356E+01  0.10716788604E+02  0.51100000000E-03 0. -1.
        -11    1    3    3    0    0  0.10120318756E+02 -0.96316034874E+00  0.54176942773E+01  0.11519546047E+02  0.51100000000E-03 0.  1.
         12    1    3    3    0    0  0.15396890431E+02 -0.70882595766E+01  0.16857879907E+02  0.23905977783E+02  0.00000000000E+00 0. -1.
</event>
<event>
 7    1  0.1442665E-008  0.4614232E+02  0.7816164E-02  0.1320468E+00
        -11   -1    0    0    0    0  0.00000000000E+00  0.00000000000E+00  0.45593999997E+02  0.45594000000E+02  0.51100000000E-03 0.  1.
         11   -1    0    0    0    0 -0.00000000000E+00 -0.00000000000E+00 -0.45593999997E+02  0.45594000000E+02  0.51100000000E-03 0. -1.
    9900012    2    1    2    0    0 -0.18257847390E+02 -0.19522758109E+02  0.36257776993E+02  0.46142317987E+02  0.10000002064E+02 0.  0.
         12    1    1    2    0    0  0.18257847390E+02  0.19522758109E+02 -0.36257776993E+02  0.45045682013E+02  0.00000000000E+00 0. -1.
         11    1    3    3    0    0 -0.40529094110E+00 -0.43432762781E+01  0.51128397752E+01  0.67208214083E+01  0.51100000000E-03 0. -1.
        -11    1    3    3    0    0 -0.88395374192E+01 -0.10694625317E+02  0.20652985048E+02  0.24880880694E+02  0.51100000000E-03 0.  1.
         12    1    3    3    0    0 -0.90130190299E+01 -0.44848565137E+01  0.10491952170E+02  0.14540615885E+02  0.00000000000E+00 0. -1.
</event>
<event>
 7    1  0.1442665E-008  0.4614232E+02  0.7816164E-02  0.1320468E+00
        -11   -1    0    0    0    0  0.00000000000E+00  0.00000000000E+00  0.45593999997E+02  0.45594000000E+02  0.51100000000E-03 0.  1.
         11   -1    0    0    0    0 -0.00000000000E+00 -0.00000000000E+00 -0.45593999997E+02  0.45594000000E+02  0.51100000000E-03 0. -1.
    9900012    2    1    2    0    0  0.19041408441E+02  0.76868318103E+01  0.40093028478E+02  0.46142317064E+02  0.99999936409E+01 0.  0.
         12    1    1    2    0    0 -0.19041408441E+02 -0.76868318103E+01 -0.40093028478E+02  0.45045682936E+02  0.00000000000E+00 0. -1.
         11    1    3    3    0    0  0.17039792729E+01  0.13013202540E+01  0.26525369971E+01  0.34107085111E+01  0.51100000000E-03 0. -1.
        -11    1    3    3    0    0  0.10014636627E+02  0.73133812954E+01  0.28870245158E+02  0.31420845763E+02  0.51100000000E-03 0.  1.
        -12    1    3    3    0    0  0.73227925405E+01 -0.92786973906E+00  0.85702463227E+01  0.11310762789E+02  0.00000000000E+00 0.  1.
</event>
<event>
 7    1  0.1442665E-008  0.4614232E+02  0.7816164E-02  0.1320468E+00
        -11   -1    0    0    0    0  0.00000000000E+00  0.00000000000E+00  0.45593999997E+02  0.45594000000E+02  0.51100000000E-03 0.  1.
         11   -1    0    0    0    0 -0.00000000000E+00 -0.00000000000E+00 -0.45593999997E+02  0.45594000000E+02  0.51100000000E-03 0. -1.
    9900012    2    1    2    0    0  0.43770859939E+02  0.48884717441E+01  0.94513677811E+01  0.46142315538E+02  0.99999797241E+01 0.  0.
         12    1    1    2    0    0 -0.43770859939E+02 -0.48884717441E+01 -0.94513677811E+01  0.45045684462E+02  0.00000000000E+00 0. -1.
         11    1    3    3    0    0  0.99669145051E+01  0.49385603235E+01  0.13076646480E+01  0.11199944192E+02  0.51100000000E-03 0. -1.
        -11    1    3    3    0    0  0.56352320645E+01 -0.35108400196E+00  0.10345607426E+00  0.56471057912E+01  0.51100000000E-03 0.  1.
         12    1    3    3    0    0  0.28168713369E+02  0.30099542256E+00  0.80402470589E+01  0.29295265554E+02  0.00000000000E+00 0. -1.
</event>
<event>
 7    1  0.1442665E-008  0.4614232E+02  0.7816164E-02  0.1320468E+00
        -11   -1    0    0    0    0  0.00000000000E+00  0.00000000000E+00  0.45593999997E+02  0.45594000000E+02  0.51100000000E-03 0.  1.
         11   -1    0    0    0    0 -0.00000000000E+00 -0.00000000000E+00 -0.45593999997E+02  0.45594000000E+02  0.51100000000E-03 0. -1.
    9900012    2    1    2    0    0  0.27070494468E+01 -0.25183314076E+02  0.37250315940E+02  0.46142318052E+02  0.10000002652E+02 0.  0.
         12    1    1    2    0    0 -0.27070494468E+01  0.25183314076E+02 -0.37250315940E+02  0.45045681948E+02  0.00000000000E+00 0. -1.
         11    1    3    3    0    0  0.35210429566E+00  0.21288689377E+00  0.22026317242E+01  0.22407331475E+01  0.51100000000E-03 0. -1.
        -11    1    3    3    0    0  0.28671410701E+01 -0.18338722061E+02  0.20075252548E+02  0.27341268988E+02  0.51100000000E-03 0.  1.
         12    1    3    3    0    0 -0.51219591900E+00 -0.70574789083E+01  0.14972431668E+02  0.16560315916E+02  0.00000000000E+00 0. -1.
</event>
<event>
 7    1  0.1442665E-008  0.4614232E+02  0.7816164E-02  0.1320468E+00
        -11   -1    0    0    0    0  0.00000000000E+00  0.00000000000E+00  0.45593999997E+02  0.45594000000E+02  0.51100000000E-03 0.  1.
         11   -1    0    0    0    0 -0.00000000000E+00 -0.00000000000E+00 -0.45593999997E+02  0.45594000000E+02  0.51100000000E-03 0. -1.
    9900012    2    1    2    0    0  0.29913386843E+02  0.30614945435E+02  0.14036668148E+02  0.46142315977E+02  0.99999837293E+01 0.  0.
         12    1    1    2    0    0 -0.29913386843E+02 -0.30614945435E+02 -0.14036668148E+02  0.45045684023E+02  0.00000000000E+00 0. -1.
         11    1    3    3    0    0  0.56556591558E+01  0.80368328755E+01  0.26131792879E+00  0.98308417989E+01  0.51100000000E-03 0. -1.
        -11    1    3    3    0    0  0.61556473618E+01  0.52331475152E+01  0.90414681553E+00  0.81299021571E+01  0.51100000000E-03 0.  1.
         12    1    3    3    0    0  0.18102080326E+02  0.17344965044E+02  0.12871203404E+02  0.28181572021E+02  0.00000000000E+00 0. -1.
</event>
<event>
 7    1  0.1442665E-008  0.4614232E+02  0.7816164E-02  0.1320468E+00
        -11   -1    0    0    0    0  0.00000000000E+00  0.00000000000E+00  0.45593999997E+02  0.45594000000E+02  0.51100000000E-03 0. -1.
         11   -1    0    0    0    0 -0.00000000000E+00 -0.00000000000E+00 -0.45593999997E+02  0.45594000000E+02  0.51100000000E-03 0.  1.
    9900012    2    1    2    0    0 -0.17272161009E+02  0.36058378928E+02 -0.20750403497E+02  0.46142317831E+02  0.10000000636E+02 0.  0.
         12    1    1    2    0    0  0.17272161009E+02 -0.36058378928E+02  0.20750403497E+02  0.45045682169E+02  0.00000000000E+00 0. -1.
         11    1    3    3    0    0 -0.30754123478E+01  0.10616317309E+02 -0.15286506819E+01  0.11158007326E+02  0.51100000000E-03 0. -1.
        -11    1    3    3    0    0 -0.98476338681E+01  0.15550936223E+02 -0.12714221925E+02  0.22370939847E+02  0.51100000000E-03 0.  1.
         12    1    3    3    0    0 -0.43491147932E+01  0.98911253952E+01 -0.65075308899E+01  0.12613370658E+02  0.00000000000E+00 0. -1.
</event>
<event>
 7    1  0.1442665E-008  0.4614232E+02  0.7816164E-02  0.1320468E+00
        -11   -1    0    0    0    0  0.00000000000E+00  0.00000000000E+00  0.45593999997E+02  0.45594000000E+02  0.51100000000E-03 0.  1.
         11   -1    0    0    0    0 -0.00000000000E+00 -0.00000000000E+00 -0.45593999997E+02  0.45594000000E+02  0.51100000000E-03 0. -1.
    9900012    2    1    2    0    0  0.85475230388E+01  0.45724965809E+01  0.43990289672E+02  0.46142318071E+02  0.10000002822E+02 0.  0.
         12    1    1    2    0    0 -0.85475230388E+01 -0.45724965809E+01 -0.43990289672E+02  0.45045681929E+02  0.00000000000E+00 0. -1.
         11    1    3    3    0    0  0.51634393807E-01  0.20126264197E+01  0.13352465820E+02  0.13503394942E+02  0.51100000000E-03 0. -1.
        -11    1    3    3    0    0  0.49834340261E+01 -0.16945230801E+01  0.19664471303E+02  0.20356754531E+02  0.51100000000E-03 0.  1.
         12    1    3    3    0    0  0.35124546190E+01  0.42543932413E+01  0.10973352549E+02  0.12282168598E+02  0.00000000000E+00 0. -1.
</event>
<event>
 7    1  0.1442665E-008  0.4614232E+02  0.7816164E-02  0.1320468E+00
        -11   -1    0    0    0    0  0.00000000000E+00  0.00000000000E+00  0.45593999997E+02  0.45594000000E+02  0.51100000000E-03 0.  1.
         11   -1    0    0    0    0 -0.00000000000E+00 -0.00000000000E+00 -0.45593999997E+02  0.45594000000E+02  0.51100000000E-03 0. -1.
    9900012    2    1    2    0    0 -0.97090540727E+01  0.79418284599E+01  0.43264016706E+02  0.46142317501E+02  0.99999976275E+01 0.  0.
         12    1    1    2    0    0  0.97090540727E+01 -0.79418284599E+01 -0.43264016706E+02  0.45045682499E+02  0.00000000000E+00 0. -1.
         11    1    3    3    0    0  0.12042230190E+01  0.47952115784E+00  0.31160354370E+01  0.33748734386E+01  0.51100000000E-03 0. -1.
        -11    1    3    3    0    0 -0.35849163611E+01  0.21783180664E+01  0.23056377302E+02  0.23434872081E+02  0.51100000000E-03 0.  1.
         12    1    3    3    0    0 -0.73283607306E+01  0.52839892356E+01  0.17091603967E+02  0.19332571981E+02  0.00000000000E+00 0. -1.
</event>
<event>
 7    1  0.1442665E-008  0.4614232E+02  0.7816164E-02  0.1320468E+00
        -11   -1    0    0    0    0  0.00000000000E+00  0.00000000000E+00  0.45593999997E+02  0.45594000000E+02  0.51100000000E-03 0.  1.
         11   -1    0    0    0    0 -0.00000000000E+00 -0.00000000000E+00 -0.45593999997E+02  0.45594000000E+02  0.51100000000E-03 0. -1.
    9900012    2    1    2    0    0  0.32114806856E+01  0.24142310131E+02  0.37893914058E+02  0.46142317973E+02  0.10000001934E+02 0.  0.
         12    1    1    2    0    0 -0.32114806856E+01 -0.24142310131E+02 -0.37893914058E+02  0.45045682027E+02  0.00000000000E+00 0. -1.
         11    1    3    3    0    0  0.28807442725E+01  0.70736676057E+01  0.16972213593E+02  0.18611595726E+02  0.51100000000E-03 0. -1.
        -11    1    3    3    0    0  0.12567289701E+01  0.41166071671E+01  0.24530935454E+01  0.49541387219E+01  0.51100000000E-03 0.  1.
        -12    1    3    3    0    0 -0.92599255697E+00  0.12952035358E+02  0.18468606919E+02  0.22576583525E+02  0.00000000000E+00 0.  1.
</event>
<event>
 7    1  0.1442665E-008  0.4614231E+02  0.7816164E-02  0.1320468E+00
        -11   -1    0    0    0    0  0.00000000000E+00  0.00000000000E+00  0.45593999997E+02  0.45594000000E+02  0.51100000000E-03 0.  1.
         11   -1    0    0    0    0 -0.00000000000E+00 -0.00000000000E+00 -0.45593999997E+02  0.45594000000E+02  0.51100000000E-03 0. -1.
    9900012    2    1    2    0    0 -0.40924194895E+02  0.18339418678E+02 -0.42415204354E+01  0.46142306523E+02  0.99998975205E+01 0.  0.
         12    1    1    2    0    0  0.40924194895E+02 -0.18339418678E+02  0.42415204354E+01  0.45045693477E+02  0.00000000000E+00 0. -1.
         11    1    3    3    0    0 -0.27937894334E+01  0.31574121057E+01  0.39667699232E+00  0.42346031102E+01  0.51100000000E-03 0. -1.
        -11    1    3    3    0    0 -0.30708653706E+02  0.15084569256E+02 -0.33896332579E+01  0.34381030467E+02  0.51100000000E-03 0.  1.
        -12    1    3    3    0    0 -0.74217517553E+01  0.97437316221E-01 -0.12485641699E+01  0.75266729459E+01  0.00000000000E+00 0.  1.
</event>
<event>
 7    1  0.1442665E-008  0.4614232E+02  0.7816164E-02  0.1320468E+00
        -11   -1    0    0    0    0  0.00000000000E+00  0.00000000000E+00  0.45593999997E+02  0.45594000000E+02  0.51100000000E-03 0. -1.
         11   -1    0    0    0    0 -0.00000000000E+00 -0.00000000000E+00 -0.45593999997E+02  0.45594000000E+02  0.51100000000E-03 0.  1.
    9900012    2    1    2    0    0  0.36161917391E+02 -0.21607434046E+02 -0.15954561264E+02  0.46142317625E+02  0.99999987612E+01 0.  0.
         12    1    1    2    0    0 -0.36161917391E+02  0.21607434046E+02  0.15954561264E+02  0.45045682375E+02  0.00000000000E+00 0. -1.
         11    1    3    3    0    0  0.22283024972E+01 -0.23409723362E+01  0.88759498605E-01  0.32331659419E+01  0.51100000000E-03 0. -1.
        -11    1    3    3    0    0  0.27711044506E+02 -0.11911661047E+02 -0.12079154073E+02  0.32491469956E+02  0.51100000000E-03 0.  1.
        -12    1    3    3    0    0  0.62225703875E+01 -0.73548006634E+01 -0.39641666900E+01  0.10417681727E+02  0.00000000000E+00 0.  1.
</event>
<event>
 7    1  0.1442665E-008  0.4614232E+02  0.7816164E-02  0.1320468E+00
        -11   -1    0    0    0    0  0.00000000000E+00  0.00000000000E+00  0.45593999997E+02  0.45594000000E+02  0.51100000000E-03 0.  1.
         11   -1    0    0    0    0 -0.00000000000E+00 -0.00000000000E+00 -0.45593999997E+02  0.45594000000E+02  0.51100000000E-03 0. -1.
    9900012    2    1    2    0    0  0.34606115739E+02  0.40278077308E+01  0.28553581766E+02  0.46142317484E+02  0.99999974728E+01 0.  0.
         12    1    1    2    0    0 -0.34606115739E+02 -0.40278077308E+01 -0.28553581766E+02  0.45045682516E+02  0.00000000000E+00 0. -1.
         11    1    3    3    0    0  0.27951752021E+02  0.26920376464E+01  0.25354359458E+02  0.37833729019E+02  0.51100000000E-03 0. -1.
        -11    1    3    3    0    0  0.38064715526E+01  0.14017015851E+01  0.42518108545E-01  0.40565750412E+01  0.51100000000E-03 0.  1.
         12    1    3    3    0    0  0.28478921661E+01 -0.65931500656E-01  0.31567041992E+01  0.42520134235E+01  0.00000000000E+00 0. -1.
</event>
<event>
 7    1  0.1442665E-008  0.4614232E+02  0.7816164E-02  0.1320468E+00
        -11   -1    0    0    0    0  0.00000000000E+00  0.00000000000E+00  0.45593999997E+02  0.45594000000E+02  0.51100000000E-03 0.  1.
         11   -1    0    0    0    0 -0.00000000000E+00 -0.00000000000E+00 -0.45593999997E+02  0.45594000000E+02  0.51100000000E-03 0. -1.
    9900012    2    1    2    0    0 -0.31664829161E+02 -0.32031239529E+02  0.67207816691E+00  0.46142318736E+02  0.10000008885E+02 0.  0.
         12    1    1    2    0    0  0.31664829161E+02  0.32031239529E+02 -0.67207816691E+00  0.45045681264E+02  0.00000000000E+00 0. -1.
         11    1    3    3    0    0 -0.21045583975E+02 -0.17619677157E+02 -0.42005446565E+00  0.27450793686E+02  0.51100000000E-03 0.  1.
        -11    1    3    3    0    0 -0.97332501787E+01 -0.14485993510E+02  0.23099961861E+00  0.17453753983E+02  0.51100000000E-03 0. -1.
        -12    1    3    3    0    0 -0.88599500637E+00  0.74431137895E-01  0.86113301395E+00  0.12377710666E+01  0.00000000000E+00 0.  1.
</event>
<event>
 7    1  0.1442665E-008  0.4614232E+02  0.7816164E-02  0.1320468E+00
        -11   -1    0    0    0    0  0.00000000000E+00  0.00000000000E+00  0.45593999997E+02  0.45594000000E+02  0.51100000000E-03 0.  1.
         11   -1    0    0    0    0 -0.00000000000E+00 -0.00000000000E+00 -0.45593999997E+02  0.45594000000E+02  0.51100000000E-03 0. -1.
    9900012    2    1    2    0    0 -0.11667361098E+02  0.30094232261E+02  0.31421702951E+02  0.46142317113E+02  0.99999940941E+01 0.  0.
         12    1    1    2    0    0  0.11667361098E+02 -0.30094232261E+02 -0.31421702951E+02  0.45045682887E+02  0.00000000000E+00 0. -1.
         11    1    3    3    0    0 -0.20941287045E+01  0.90976689326E+00  0.49635994266E+01  0.54635492457E+01  0.51100000000E-03 0. -1.
        -11    1    3    3    0    0 -0.16977899241E+01  0.30781516177E+01  0.19756934253E+01  0.40324772509E+01  0.51100000000E-03 0.  1.
         12    1    3    3    0    0 -0.78754424690E+01  0.26106313750E+02  0.24482410099E+02  0.36646290617E+02  0.00000000000E+00 0. -1.
</event>
<event>
 7    1  0.1442665E-008  0.4614232E+02  0.7816164E-02  0.1320468E+00
        -11   -1    0    0    0    0  0.00000000000E+00  0.00000000000E+00  0.45593999997E+02  0.45594000000E+02  0.51100000000E-03 0. -1.
         11   -1    0    0    0    0 -0.00000000000E+00 -0.00000000000E+00 -0.45593999997E+02  0.45594000000E+02  0.51100000000E-03 0.  1.
    9900012    2    1    2    0    0  0.10989244156E+02 -0.32270362279E+02 -0.29444418805E+02  0.46142316883E+02  0.99999919927E+01 0.  0.
         12    1    1    2    0    0 -0.10989244156E+02  0.32270362279E+02  0.29444418805E+02  0.45045683117E+02  0.00000000000E+00 0. -1.
         11    1    3    3    0    0  0.74493688913E+01 -0.14235315788E+02 -0.13375677772E+02  0.20905646811E+02  0.51100000000E-03 0. -1.
        -11    1    3    3    0    0  0.47745346109E+01 -0.16542972798E+02 -0.12867060181E+02  0.21494821882E+02  0.51100000000E-03 0.  1.
        -12    1    3    3    0    0 -0.12346593457E+01 -0.14920736919E+01 -0.32016808517E+01  0.37418481901E+01  0.00000000000E+00 0.  1.
</event>
<event>
 7    1  0.1442665E-008  0.4614232E+02  0.7816164E-02  0.1320468E+00
        -11   -1    0    0    0    0  0.00000000000E+00  0.00000000000E+00  0.45593999997E+02  0.45594000000E+02  0.51100000000E-03 0. -1.
         11   -1    0    0    0    0 -0.00000000000E+00 -0.00000000000E+00 -0.45593999997E+02  0.45594000000E+02  0.51100000000E-03 0.  1.
    9900012    2    1    2    0    0  0.49836064987E+01  0.16785916223E+02 -0.41503134083E+02  0.46142318122E+02  0.10000003287E+02 0.  0.
         12    1    1    2    0    0 -0.49836064987E+01 -0.16785916223E+02  0.41503134083E+02  0.45045681878E+02  0.00000000000E+00 0. -1.
         11    1    3    3    0    0 -0.10071715308E+01  0.48078349308E+01 -0.48986830226E+01  0.69373458059E+01  0.51100000000E-03 0. -1.
        -11    1    3    3    0    0  0.16716722826E+01  0.45629322252E+00 -0.42475843756E+01  0.45874464590E+01  0.51100000000E-03 0.  1.
        -12    1    3    3    0    0  0.43191057469E+01  0.11521788069E+02 -0.32356866685E+02  0.34617525857E+02  0.00000000000E+00 0.  1.
</event>
<event>
 7    1  0.1442665E-008  0.4614232E+02  0.7816164E-02  0.1320468E+00
        -11   -1    0    0    0    0  0.00000000000E+00  0.00000000000E+00  0.45593999997E+02  0.45594000000E+02  0.51100000000E-03 0. -1.
         11   -1    0    0    0    0 -0.00000000000E+00 -0.00000000000E+00 -0.45593999997E+02  0.45594000000E+02  0.51100000000E-03 0.  1.
    9900012    2    1    2    0    0  0.38714318131E+02 -0.14831757133E+02 -0.17616296315E+02  0.46142319365E+02  0.10000014626E+02 0.  0.
         12    1    1    2    0    0 -0.38714318131E+02  0.14831757133E+02  0.17616296315E+02  0.45045680635E+02  0.00000000000E+00 0. -1.
         11    1    3    3    0    0 -0.12764107016E+00  0.16334865866E+00 -0.11032329115E+01  0.11225409326E+01  0.51100000000E-03 0. -1.
        -11    1    3    3    0    0  0.22594275905E+02 -0.65574276916E+01 -0.10346403126E+02  0.25701152105E+02  0.51100000000E-03 0.  1.
        -12    1    3    3    0    0  0.16247683297E+02 -0.84376780999E+01 -0.61666602770E+01  0.19318626328E+02  0.00000000000E+00 0.  1.
</event>
<event>
 7    1  0.1442665E-008  0.4614232E+02  0.7816164E-02  0.1320468E+00
        -11   -1    0    0    0    0  0.00000000000E+00  0.00000000000E+00  0.45593999997E+02  0.45594000000E+02  0.51100000000E-03 0.  1.
         11   -1    0    0    0    0 -0.00000000000E+00 -0.00000000000E+00 -0.45593999997E+02  0.45594000000E+02  0.51100000000E-03 0. -1.
    9900012    2    1    2    0    0 -0.10115442696E+02  0.37259196361E+02  0.23206543171E+02  0.46142317184E+02  0.99999947364E+01 0.  0.
         12    1    1    2    0    0  0.10115442696E+02 -0.37259196361E+02 -0.23206543171E+02  0.45045682816E+02  0.00000000000E+00 0. -1.
         11    1    3    3    0    0 -0.56525489341E+01  0.10818665398E+02  0.54258128541E+01  0.13357929324E+02  0.51100000000E-03 0. -1.
        -11    1    3    3    0    0 -0.60366365863E+00  0.51920621003E+01  0.74911865802E+00  0.52804448384E+01  0.51100000000E-03 0.  1.
        -12    1    3    3    0    0 -0.38592301028E+01  0.21248468863E+02  0.17031611659E+02  0.27503943021E+02  0.00000000000E+00 0.  1.
</event>
<event>
 7    1  0.1442665E-008  0.4614232E+02  0.7816164E-02  0.1320468E+00
        -11   -1    0    0    0    0  0.00000000000E+00  0.00000000000E+00  0.45593999997E+02  0.45594000000E+02  0.51100000000E-03 0. -1.
         11   -1    0    0    0    0 -0.00000000000E+00 -0.00000000000E+00 -0.45593999997E+02  0.45594000000E+02  0.51100000000E-03 0.  1.
    9900012    2    1    2    0    0  0.18210775565E+02 -0.33804645051E+02 -0.23552644997E+02  0.46142318075E+02  0.10000002863E+02 0.  0.
         12    1    1    2    0    0 -0.18210775565E+02  0.33804645051E+02  0.23552644997E+02  0.45045681925E+02  0.00000000000E+00 0. -1.
         11    1    3    3    0    0  0.65597434484E+01 -0.10964961189E+02 -0.35198564468E+01  0.13253301387E+02  0.51100000000E-03 0. -1.
        -11    1    3    3    0    0  0.52155954754E+01 -0.15130588998E+02 -0.13161281543E+02  0.20720919181E+02  0.51100000000E-03 0.  1.
         12    1    3    3    0    0  0.64354366413E+01 -0.77090948637E+01 -0.68715070074E+01  0.12168097507E+02  0.00000000000E+00 0. -1.
</event>
<event>
 7    1  0.1442665E-008  0.4614232E+02  0.7816164E-02  0.1320468E+00
        -11   -1    0    0    0    0  0.00000000000E+00  0.00000000000E+00  0.45593999997E+02  0.45594000000E+02  0.51100000000E-03 0.  1.
         11   -1    0    0    0    0 -0.00000000000E+00 -0.00000000000E+00 -0.45593999997E+02  0.45594000000E+02  0.51100000000E-03 0. -1.
    9900012    2    1    2    0    0 -0.23574860663E+02 -0.17433091109E+02  0.34196882210E+02  0.46142317923E+02  0.10000001476E+02 0.  0.
         12    1    1    2    0    0  0.23574860663E+02  0.17433091109E+02 -0.34196882210E+02  0.45045682077E+02  0.00000000000E+00 0. -1.
         11    1    3    3    0    0 -0.19299789227E+01 -0.28316875389E+01  0.57396951466E+01  0.66848615242E+01  0.51100000000E-03 0. -1.
        -11    1    3    3    0    0 -0.13425154282E+02 -0.11749940910E+02  0.14406733463E+02  0.22931416184E+02  0.51100000000E-03 0.  1.
        -12    1    3    3    0    0 -0.82197274574E+01 -0.28514626606E+01  0.14050453601E+02  0.16526040215E+02  0.00000000000E+00 0.  1.
</event>
<event>
 7    1  0.1442665E-008  0.4614232E+02  0.7816164E-02  0.1320468E+00
        -11   -1    0    0    0    0  0.00000000000E+00  0.00000000000E+00  0.45593999997E+02  0.45594000000E+02  0.51100000000E-03 0. -1.
         11   -1    0    0    0    0 -0.00000000000E+00 -0.00000000000E+00 -0.45593999997E+02  0.45594000000E+02  0.51100000000E-03 0.  1.
    9900012    2    1    2    0    0  0.17879520059E+02 -0.30153894241E+02  0.28287435185E+02  0.46142316913E+02  0.99999922664E+01 0.  0.
         12    1    1    2    0    0 -0.17879520059E+02  0.30153894241E+02 -0.28287435185E+02  0.45045683087E+02  0.00000000000E+00 0. -1.
         11    1    3    3    0    0  0.20939646549E+01 -0.83121650875E+00  0.23131652911E+01  0.32289847918E+01  0.51100000000E-03 0. -1.
        -11    1    3    3    0    0  0.41187868734E+01 -0.88578911239E+01  0.12185467303E+02  0.15617690422E+02  0.51100000000E-03 0.  1.
         12    1    3    3    0    0  0.11666768531E+02 -0.20464786609E+02  0.13788802591E+02  0.27295641699E+02  0.00000000000E+00 0. -1.
</event>
<event>
 7    1  0.1442665E-008  0.4614232E+02  0.7816164E-02  0.1320468E+00
        -11   -1    0    0    0    0  0.00000000000E+00  0.00000000000E+00  0.45593999997E+02  0.45594000000E+02  0.51100000000E-03 0.  1.
         11   -1    0    0    0    0 -0.00000000000E+00 -0.00000000000E+00 -0.45593999997E+02  0.45594000000E+02  0.51100000000E-03 0. -1.
    9900012    2    1    2    0    0  0.10055140936E+02  0.10978770140E+02  0.42514400265E+02  0.46142317821E+02  0.10000000549E+02 0.  0.
         12    1    1    2    0    0 -0.10055140936E+02 -0.10978770140E+02 -0.42514400265E+02  0.45045682179E+02  0.00000000000E+00 0. -1.
         11    1    3    3    0    0  0.15785792643E+00  0.49825578220E+00 -0.34540703552E+00  0.62648561894E+00  0.51100000000E-03 0. -1.
        -11    1    3    3    0    0  0.59412483802E+01  0.33554684001E+01  0.24420961527E+02  0.25356280537E+02  0.51100000000E-03 0.  1.
        -12    1    3    3    0    0  0.39560346292E+01  0.71250459581E+01  0.18438845774E+02  0.20159551666E+02  0.00000000000E+00 0.  1.
</event>
<event>
 7    1  0.1442665E-008  0.4614231E+02  0.7816164E-02  0.1320468E+00
        -11   -1    0    0    0    0  0.00000000000E+00  0.00000000000E+00  0.45593999997E+02  0.45594000000E+02  0.51100000000E-03 0.  1.
         11   -1    0    0    0    0 -0.00000000000E+00 -0.00000000000E+00 -0.45593999997E+02  0.45594000000E+02  0.51100000000E-03 0. -1.
    9900012    2    1    2    0    0  0.10067469182E+02 -0.38364822847E+01  0.43738327490E+02  0.46142314039E+02  0.99999660613E+01 0.  0.
         12    1    1    2    0    0 -0.10067469182E+02  0.38364822847E+01 -0.43738327490E+02  0.45045685961E+02  0.00000000000E+00 0. -1.
         11    1    3    3    0    0  0.36553450746E+01  0.34635965598E+00  0.61848122918E+01  0.71925945230E+01  0.51100000000E-03 0. -1.
        -11    1    3    3    0    0  0.72518735781E+01 -0.13534069970E+01  0.26183889669E+02  0.27203261925E+02  0.51100000000E-03 0.  1.
        -12    1    3    3    0    0 -0.83974947074E+00 -0.28294349437E+01  0.11369625529E+02  0.11746457592E+02  0.00000000000E+00 0.  1.
</event>
<event>
 7    1  0.1442665E-008  0.4614232E+02  0.7816164E-02  0.1320468E+00
        -11   -1    0    0    0    0  0.00000000000E+00  0.00000000000E+00  0.45593999997E+02  0.45594000000E+02  0.51100000000E-03 0.  1.
         11   -1    0    0    0    0 -0.00000000000E+00 -0.00000000000E+00 -0.45593999997E+02  0.45594000000E+02  0.51100000000E-03 0. -1.
    9900012    2    1    2    0    0  0.87277810728E+01 -0.27828608578E+02  0.34329399654E+02  0.46142319869E+02  0.10000019224E+02 0.  0.
         12    1    1    2    0    0 -0.87277810728E+01  0.27828608578E+02 -0.34329399654E+02  0.45045680131E+02  0.00000000000E+00 0. -1.
         11    1    3    3    0    0  0.33376530035E+01 -0.14349198110E+02  0.11577882367E+02  0.18737309688E+02  0.51100000000E-03 0. -1.
        -11    1    3    3    0    0  0.40575662045E+01 -0.39764589537E+01  0.83645680202E+01  0.10111481975E+02  0.51100000000E-03 0.  1.
         12    1    3    3    0    0  0.13325618648E+01 -0.95029515141E+01  0.14386949266E+02  0.17293528206E+02  0.00000000000E+00 0. -1.
</event>
<event>
 7    1  0.1442665E-008  0.4614232E+02  0.7816164E-02  0.1320468E+00
        -11   -1    0    0    0    0  0.00000000000E+00  0.00000000000E+00  0.45593999997E+02  0.45594000000E+02  0.51100000000E-03 0.  1.
         11   -1    0    0    0    0 -0.00000000000E+00 -0.00000000000E+00 -0.45593999997E+02  0.45594000000E+02  0.51100000000E-03 0. -1.
    9900012    2    1    2    0    0  0.13318899643E+02 -0.14072934898E+02  0.40665377362E+02  0.46142317628E+02  0.99999987870E+01 0.  0.
         12    1    1    2    0    0 -0.13318899643E+02  0.14072934898E+02 -0.40665377362E+02  0.45045682372E+02  0.00000000000E+00 0. -1.
         11    1    3    3    0    0  0.57871976113E+01 -0.81764116498E+01  0.16792379788E+02  0.19553244817E+02  0.51100000000E-03 0.  1.
        -11    1    3    3    0    0  0.37871513830E+01 -0.60409382214E+01  0.19847639308E+02  0.21089434240E+02  0.51100000000E-03 0. -1.
         12    1    3    3    0    0  0.37445506487E+01  0.14441497308E+00  0.40253582653E+01  0.54996385708E+01  0.00000000000E+00 0. -1.
</event>
<event>
 7    1  0.1442665E-008  0.4614232E+02  0.7816164E-02  0.1320468E+00
        -11   -1    0    0    0    0  0.00000000000E+00  0.00000000000E+00  0.45593999997E+02  0.45594000000E+02  0.51100000000E-03 0.  1.
         11   -1    0    0    0    0 -0.00000000000E+00 -0.00000000000E+00 -0.45593999997E+02  0.45594000000E+02  0.51100000000E-03 0. -1.
    9900012    2    1    2    0    0  0.88031105822E+01  0.35985511249E+02  0.25625413080E+02  0.46142316840E+02  0.99999916042E+01 0.  0.
         12    1    1    2    0    0 -0.88031105822E+01 -0.35985511249E+02 -0.25625413080E+02  0.45045683160E+02  0.00000000000E+00 0. -1.
         11    1    3    3    0    0  0.10888721048E+01  0.43195555788E+01  0.22237544074E+01  0.49788840903E+01  0.51100000000E-03 0. -1.
        -11    1    3    3    0    0  0.26450965561E+01  0.58900676054E+01  0.79448106639E+00  0.65054310090E+01  0.51100000000E-03 0.  1.
        -12    1    3    3    0    0  0.50691419213E+01  0.25775888065E+02  0.22607177607E+02  0.34658001741E+02  0.00000000000E+00 0.  1.
</event>
<event>
 7    1  0.1442665E-008  0.4614232E+02  0.7816164E-02  0.1320468E+00
        -11   -1    0    0    0    0  0.00000000000E+00  0.00000000000E+00  0.45593999997E+02  0.45594000000E+02  0.51100000000E-03 0. -1.
         11   -1    0    0    0    0 -0.00000000000E+00 -0.00000000000E+00 -0.45593999997E+02  0.45594000000E+02  0.51100000000E-03 0.  1.
    9900012    2    1    2    0    0  0.25627182538E+02  0.11837344027E+02 -0.35103252350E+02  0.46142317366E+02  0.99999963943E+01 0.  0.
         12    1    1    2    0    0 -0.25627182538E+02 -0.11837344027E+02  0.35103252350E+02  0.45045682634E+02  0.00000000000E+00 0. -1.
         11    1    3    3    0    0  0.18062569164E+02  0.77700378560E+01 -0.25042741878E+02  0.31839736402E+02  0.51100000000E-03 0. -1.
        -11    1    3    3    0    0  0.27846133178E+01  0.45641510270E+01 -0.49252446047E+01  0.72693590229E+01  0.51100000000E-03 0.  1.
         12    1    3    3    0    0  0.47800000559E+01 -0.49684485615E+00 -0.51352658670E+01  0.70332219409E+01  0.00000000000E+00 0. -1.
</event>
<event>
 7    1  0.1442665E-008  0.4614231E+02  0.7816164E-02  0.1320468E+00
        -11   -1    0    0    0    0  0.00000000000E+00  0.00000000000E+00  0.45593999997E+02  0.45594000000E+02  0.51100000000E-03 0.  1.
         11   -1    0    0    0    0 -0.00000000000E+00 -0.00000000000E+00 -0.45593999997E+02  0.45594000000E+02  0.51100000000E-03 0. -1.
    9900012    2    1    2    0    0  0.27842107990E+02  0.25931681138E+02  0.24113869058E+02  0.46142314914E+02  0.99999740350E+01 0.  0.
         12    1    1    2    0    0 -0.27842107990E+02 -0.25931681138E+02 -0.24113869058E+02  0.45045685086E+02  0.00000000000E+00 0. -1.
         11    1    3    3    0    0  0.10307520462E+02  0.83457325465E+01  0.13028033647E+02  0.18591016400E+02  0.51100000000E-03 0. -1.
        -11    1    3    3    0    0  0.98427812549E+01  0.12390864098E+02  0.82499689053E+01  0.17845891492E+02  0.51100000000E-03 0.  1.
         12    1    3    3    0    0  0.76918062726E+01  0.51950844934E+01  0.28358665057E+01  0.97054070222E+01  0.00000000000E+00 0. -1.
</event>
<event>
 7    1  0.1442665E-008  0.4614232E+02  0.7816164E-02  0.1320468E+00
        -11   -1    0    0    0    0  0.00000000000E+00  0.00000000000E+00  0.45593999997E+02  0.45594000000E+02  0.51100000000E-03 0. -1.
         11   -1    0    0    0    0 -0.00000000000E+00 -0.00000000000E+00 -0.45593999997E+02  0.45594000000E+02  0.51100000000E-03 0.  1.
    9900012    2    1    2    0    0 -0.27977936508E+02  0.35051702817E+02 -0.42103065905E+01  0.46142317818E+02  0.10000000521E+02 0.  0.
         12    1    1    2    0    0  0.27977936508E+02 -0.35051702817E+02  0.42103065905E+01  0.45045682182E+02  0.00000000000E+00 0. -1.
         11    1    3    3    0    0 -0.46268703776E+01  0.11829373293E+02 -0.22189010248E+01  0.12894398940E+02  0.51100000000E-03 0. -1.
        -11    1    3    3    0    0 -0.22293113807E+02  0.22198186717E+02 -0.10061900230E+01  0.31476258280E+02  0.51100000000E-03 0.  1.
        -12    1    3    3    0    0 -0.10579523242E+01  0.10241428074E+01 -0.98521554271E+00  0.17716605983E+01  0.00000000000E+00 0.  1.
</event>
<event>
 7    1  0.1442665E-008  0.4614232E+02  0.7816164E-02  0.1320468E+00
        -11   -1    0    0    0    0  0.00000000000E+00  0.00000000000E+00  0.45593999997E+02  0.45594000000E+02  0.51100000000E-03 0.  1.
         11   -1    0    0    0    0 -0.00000000000E+00 -0.00000000000E+00 -0.45593999997E+02  0.45594000000E+02  0.51100000000E-03 0. -1.
    9900012    2    1    2    0    0 -0.60472138606E+01  0.34731649627E+02  0.28040277663E+02  0.46142318157E+02  0.10000003610E+02 0.  0.
         12    1    1    2    0    0  0.60472138606E+01 -0.34731649627E+02 -0.28040277663E+02  0.45045681843E+02  0.00000000000E+00 0. -1.
         11    1    3    3    0    0 -0.54471301662E+00  0.19526312171E+02  0.17793666457E+02  0.26423250094E+02  0.51100000000E-03 0.  1.
        -11    1    3    3    0    0 -0.30131038222E+01  0.80494300668E+01  0.81810794577E+01  0.11866009455E+02  0.51100000000E-03 0. -1.
        -12    1    3    3    0    0 -0.24893970218E+01  0.71559073892E+01  0.20655317481E+01  0.78530586078E+01  0.00000000000E+00 0.  1.
</event>
<event>
 7    1  0.1442665E-008  0.4614232E+02  0.7816164E-02  0.1320468E+00
        -11   -1    0    0    0    0  0.00000000000E+00  0.00000000000E+00  0.45593999997E+02  0.45594000000E+02  0.51100000000E-03 0. -1.
         11   -1    0    0    0    0 -0.00000000000E+00 -0.00000000000E+00 -0.45593999997E+02  0.45594000000E+02  0.51100000000E-03 0.  1.
    9900012    2    1    2    0    0  0.25023733468E+02  0.31969748342E+02 -0.19515671085E+02  0.46142318036E+02  0.10000002505E+02 0.  0.
         12    1    1    2    0    0 -0.25023733468E+02 -0.31969748342E+02  0.19515671085E+02  0.45045681964E+02  0.00000000000E+00 0. -1.
         11    1    3    3    0    0  0.96066124315E+01  0.97600489841E+01 -0.47555755012E+01  0.14496932682E+02  0.51100000000E-03 0. -1.
        -11    1    3    3    0    0  0.15193205833E+02  0.17881353819E+02 -0.11031752813E+02  0.25928283559E+02  0.51100000000E-03 0.  1.
        -12    1    3    3    0    0  0.22391520296E+00  0.43283455393E+01 -0.37283427700E+01  0.57171017951E+01  0.00000000000E+00 0.  1.
</event>
<event>
 7    1  0.1442665E-008  0.4614232E+02  0.7816164E-02  0.1320468E+00
        -11   -1    0    0    0    0  0.00000000000E+00  0.00000000000E+00  0.45593999997E+02  0.45594000000E+02  0.51100000000E-03 0. -1.
         11   -1    0    0    0    0 -0.00000000000E+00 -0.00000000000E+00 -0.45593999997E+02  0.45594000000E+02  0.51100000000E-03 0.  1.
    9900012    2    1    2    0    0  0.29718449019E+02 -0.23966546577E+02 -0.23906733662E+02  0.46142317840E+02  0.10000000718E+02 0.  0.
         12    1    1    2    0    0 -0.29718449019E+02  0.23966546577E+02  0.23906733662E+02  0.45045682160E+02  0.00000000000E+00 0. -1.
         11    1    3    3    0    0  0.58353794968E+01 -0.20579364692E+01 -0.30645873293E+01  0.69049585185E+01  0.51100000000E-03 0. -1.
        -11    1    3    3    0    0 -0.32923420357E-01  0.46416291119E+00 -0.11262942128E+00  0.47876592129E+00  0.51100000000E-03 0.  1.
        -12    1    3    3    0    0  0.23915992942E+02 -0.22372773019E+02 -0.20729516911E+02  0.38758593400E+02  0.00000000000E+00 0.  1.
</event>
<event>
 7    1  0.1442665E-008  0.4614232E+02  0.7816164E-02  0.1320468E+00
        -11   -1    0    0    0    0  0.00000000000E+00  0.00000000000E+00  0.45593999997E+02  0.45594000000E+02  0.51100000000E-03 0. -1.
         11   -1    0    0    0    0 -0.00000000000E+00 -0.00000000000E+00 -0.45593999997E+02  0.45594000000E+02  0.51100000000E-03 0.  1.
    9900012    2    1    2    0    0  0.34549743399E+02 -0.23901128660E+02 -0.16253143495E+02  0.46142318812E+02  0.10000009586E+02 0.  0.
         12    1    1    2    0    0 -0.34549743399E+02  0.23901128660E+02  0.16253143495E+02  0.45045681188E+02  0.00000000000E+00 0. -1.
         11    1    3    3    0    0  0.34581594546E+01 -0.24441103680E+01  0.61898452351E+00  0.42796827459E+01  0.51100000000E-03 0. -1.
        -11    1    3    3    0    0  0.27482375407E+02 -0.16972007022E+02 -0.15978931556E+02  0.36036873260E+02  0.51100000000E-03 0.  1.
         12    1    3    3    0    0  0.36092085373E+01 -0.44850112705E+01 -0.89319646188E+00  0.58257628069E+01  0.00000000000E+00 0. -1.
</event>
<event>
 7    1  0.1442665E-008  0.4614232E+02  0.7816164E-02  0.1320468E+00
        -11   -1    0    0    0    0  0.00000000000E+00  0.00000000000E+00  0.45593999997E+02  0.45594000000E+02  0.51100000000E-03 0. -1.
         11   -1    0    0    0    0 -0.00000000000E+00 -0.00000000000E+00 -0.45593999997E+02  0.45594000000E+02  0.51100000000E-03 0.  1.
    9900012    2    1    2    0    0  0.25383377695E+01  0.19036974430E+02 -0.40746335983E+02  0.46142318185E+02  0.10000003867E+02 0.  0.
         12    1    1    2    0    0 -0.25383377695E+01 -0.19036974430E+02  0.40746335983E+02  0.45045681815E+02  0.00000000000E+00 0. -1.
         11    1    3    3    0    0  0.17798033144E+01  0.12000319383E+01 -0.11714456537E+02  0.11909503294E+02  0.51100000000E-03 0.  1.
        -11    1    3    3    0    0 -0.12053376541E+00  0.14939188068E+02 -0.22187027928E+02  0.26748048098E+02  0.51100000000E-03 0. -1.
         12    1    3    3    0    0  0.87906822057E+00  0.28977544242E+01 -0.68448515179E+01  0.74847667927E+01  0.00000000000E+00 0. -1.
</event>
<event>
 7    1  0.1442665E-008  0.4614232E+02  0.7816164E-02  0.1320468E+00
        -11   -1    0    0    0    0  0.00000000000E+00  0.00000000000E+00  0.45593999997E+02  0.45594000000E+02  0.51100000000E-03 0.  1.
         11   -1    0    0    0    0 -0.00000000000E+00 -0.00000000000E+00 -0.45593999997E+02  0.45594000000E+02  0.51100000000E-03 0. -1.
    9900012    2    1    2    0    0  0.14151352397E+02  0.29219942630E+02  0.31225753657E+02  0.46142317483E+02  0.99999974619E+01 0.  0.
         12    1    1    2    0    0 -0.14151352397E+02 -0.29219942630E+02 -0.31225753657E+02  0.45045682517E+02  0.00000000000E+00 0. -1.
         11    1    3    3    0    0  0.29203824684E+01  0.12461833306E+01  0.44104261507E+01  0.54344701441E+01  0.51100000000E-03 0. -1.
        -11    1    3    3    0    0  0.31120145579E+01  0.85602776917E+01  0.49703705095E+01  0.10376298571E+02  0.51100000000E-03 0.  1.
         12    1    3    3    0    0  0.81189553707E+01  0.19413481608E+02  0.21844956997E+02  0.30331548768E+02  0.00000000000E+00 0. -1.
</event>
<event>
 7    1  0.1442665E-008  0.4614232E+02  0.7816164E-02  0.1320468E+00
        -11   -1    0    0    0    0  0.00000000000E+00  0.00000000000E+00  0.45593999997E+02  0.45594000000E+02  0.51100000000E-03 0. -1.
         11   -1    0    0    0    0 -0.00000000000E+00 -0.00000000000E+00 -0.45593999997E+02  0.45594000000E+02  0.51100000000E-03 0.  1.
    9900012    2    1    2    0    0  0.14839453997E+02  0.42530683364E+02  0.21231302679E+00  0.46142317642E+02  0.99999989121E+01 0.  0.
         12    1    1    2    0    0 -0.14839453997E+02 -0.42530683364E+02 -0.21231302679E+00  0.45045682358E+02  0.00000000000E+00 0. -1.
         11    1    3    3    0    0  0.22001945331E+01  0.12461165203E+02 -0.28561427748E+01  0.12972241364E+02  0.51100000000E-03 0. -1.
        -11    1    3    3    0    0  0.27837676678E+01  0.75310338750E+01  0.29991211490E+01  0.85709136959E+01  0.51100000000E-03 0.  1.
         12    1    3    3    0    0  0.98554917956E+01  0.22538484286E+02  0.69334652516E-01  0.24599162582E+02  0.00000000000E+00 0. -1.
</event>
<event>
 7    1  0.1442665E-008  0.4614232E+02  0.7816164E-02  0.1320468E+00
        -11   -1    0    0    0    0  0.00000000000E+00  0.00000000000E+00  0.45593999997E+02  0.45594000000E+02  0.51100000000E-03 0.  1.
         11   -1    0    0    0    0 -0.00000000000E+00 -0.00000000000E+00 -0.45593999997E+02  0.45594000000E+02  0.51100000000E-03 0. -1.
    9900012    2    1    2    0    0 -0.29577123517E+02  0.16106430658E+02  0.29914715578E+02  0.46142317052E+02  0.99999935357E+01 0.  0.
         12    1    1    2    0    0  0.29577123517E+02 -0.16106430658E+02 -0.29914715578E+02  0.45045682948E+02  0.00000000000E+00 0. -1.
         11    1    3    3    0    0 -0.52356359666E+00  0.20863647419E+01  0.28638728944E+01  0.35817321079E+01  0.51100000000E-03 0. -1.
        -11    1    3    3    0    0 -0.29022538719E+02  0.14193522687E+02  0.27271068361E+02  0.42278540772E+02  0.51100000000E-03 0.  1.
        -12    1    3    3    0    0 -0.31021201861E-01 -0.17345677141E+00 -0.22022567711E+00  0.28204417273E+00  0.00000000000E+00 0.  1.
</event>
<event>
 7    1  0.1442665E-008  0.4614232E+02  0.7816164E-02  0.1320468E+00
        -11   -1    0    0    0    0  0.00000000000E+00  0.00000000000E+00  0.45593999997E+02  0.45594000000E+02  0.51100000000E-03 0. -1.
         11   -1    0    0    0    0 -0.00000000000E+00 -0.00000000000E+00 -0.45593999997E+02  0.45594000000E+02  0.51100000000E-03 0.  1.
    9900012    2    1    2    0    0  0.21278481547E+01  0.17942476139E+02 -0.41263218282E+02  0.46142319066E+02  0.10000011902E+02 0.  0.
         12    1    1    2    0    0 -0.21278481547E+01 -0.17942476139E+02  0.41263218282E+02  0.45045680934E+02  0.00000000000E+00 0. -1.
         11    1    3    3    0    0  0.10648999612E+01  0.21455051017E+01 -0.62273653950E+00  0.24748747701E+01  0.51100000000E-03 0. -1.
        -11    1    3    3    0    0  0.11689787473E+01  0.12135351953E+02 -0.33347373173E+02  0.35506063935E+02  0.51100000000E-03 0.  1.
        -12    1    3    3    0    0 -0.10603055377E+00  0.36616190839E+01 -0.72931085699E+01  0.81613803615E+01  0.00000000000E+00 0.  1.
</event>
<event>
 7    1  0.1442665E-008  0.4614232E+02  0.7816164E-02  0.1320468E+00
        -11   -1    0    0    0    0  0.00000000000E+00  0.00000000000E+00  0.45593999997E+02  0.45594000000E+02  0.51100000000E-03 0.  1.
         11   -1    0    0    0    0 -0.00000000000E+00 -0.00000000000E+00 -0.45593999997E+02  0.45594000000E+02  0.51100000000E-03 0. -1.
    9900012    2    1    2    0    0 -0.63095693279E+01  0.17598013879E+02  0.40983075573E+02  0.46142320506E+02  0.10000025034E+02 0.  0.
         12    1    1    2    0    0  0.63095693279E+01 -0.17598013879E+02 -0.40983075573E+02  0.45045679494E+02  0.00000000000E+00 0. -1.
         11    1    3    3    0    0  0.15385699925E+01  0.22946991686E+01  0.11507509150E+02  0.11834509242E+02  0.51100000000E-03 0. -1.
        -11    1    3    3    0    0 -0.73838985972E+01  0.13980994517E+02  0.24668293497E+02  0.29300424408E+02  0.51100000000E-03 0.  1.
        -12    1    3    3    0    0 -0.46424072314E+00  0.13223201935E+01  0.48072729265E+01  0.50073868567E+01  0.00000000000E+00 0.  1.
</event>
<event>
 7    1  0.1442665E-008  0.4614232E+02  0.7816164E-02  0.1320468E+00
        -11   -1    0    0    0    0  0.00000000000E+00  0.00000000000E+00  0.45593999997E+02  0.45594000000E+02  0.51100000000E-03 0.  1.
         11   -1    0    0    0    0 -0.00000000000E+00 -0.00000000000E+00 -0.45593999997E+02  0.45594000000E+02  0.51100000000E-03 0. -1.
    9900012    2    1    2    0    0  0.21804802925E+02 -0.16733156431E+02  0.35688448912E+02  0.46142319403E+02  0.10000014973E+02 0.  0.
         12    1    1    2    0    0 -0.21804802925E+02  0.16733156431E+02 -0.35688448912E+02  0.45045680597E+02  0.00000000000E+00 0. -1.
         11    1    3    3    0    0  0.83848958636E+01 -0.44159410647E+01  0.11042711450E+02  0.14551580346E+02  0.51100000000E-03 0. -1.
        -11    1    3    3    0    0 -0.53590901425E+00 -0.28431589568E+01  0.34663560658E+01  0.45151274579E+01  0.51100000000E-03 0.  1.
        -12    1    3    3    0    0  0.13955816075E+02 -0.94740564091E+01  0.21179381396E+02  0.27075611599E+02  0.00000000000E+00 0.  1.
</event>
<event>
 7    1  0.1442665E-008  0.4614232E+02  0.7816164E-02  0.1320468E+00
        -11   -1    0    0    0    0  0.00000000000E+00  0.00000000000E+00  0.45593999997E+02  0.45594000000E+02  0.51100000000E-03 0. -1.
         11   -1    0    0    0    0 -0.00000000000E+00 -0.00000000000E+00 -0.45593999997E+02  0.45594000000E+02  0.51100000000E-03 0.  1.
    9900012    2    1    2    0    0 -0.31308553372E+02 -0.11236882923E+02 -0.30374667425E+02  0.46142317929E+02  0.10000001530E+02 0.  0.
         12    1    1    2    0    0  0.31308553372E+02  0.11236882923E+02  0.30374667425E+02  0.45045682071E+02  0.00000000000E+00 0. -1.
         11    1    3    3    0    0 -0.71918065591E+01 -0.55472566548E+01 -0.66423706062E+01  0.11252343112E+02  0.51100000000E-03 0. -1.
        -11    1    3    3    0    0 -0.12635496726E+02 -0.22832550958E+01 -0.80389052122E+01  0.15149027316E+02  0.51100000000E-03 0.  1.
         12    1    3    3    0    0 -0.11481250087E+02 -0.34063711720E+01 -0.15693391607E+02  0.19740947501E+02  0.00000000000E+00 0. -1.
</event>
<event>
 7    1  0.1442665E-008  0.4614232E+02  0.7816164E-02  0.1320468E+00
        -11   -1    0    0    0    0  0.00000000000E+00  0.00000000000E+00  0.45593999997E+02  0.45594000000E+02  0.51100000000E-03 0.  1.
         11   -1    0    0    0    0 -0.00000000000E+00 -0.00000000000E+00 -0.45593999997E+02  0.45594000000E+02  0.51100000000E-03 0. -1.
    9900012    2    1    2    0    0 -0.14472859152E+02  0.33781683160E+02  0.26047028871E+02  0.46142317830E+02  0.10000000626E+02 0.  0.
         12    1    1    2    0    0  0.14472859152E+02 -0.33781683160E+02 -0.26047028871E+02  0.45045682170E+02  0.00000000000E+00 0. -1.
         11    1    3    3    0    0 -0.37810806573E+01  0.60605508342E+01  0.23478909724E+01  0.75192712167E+01  0.51100000000E-03 0.  1.
        -11    1    3    3    0    0 -0.37593229707E+01  0.46264760751E+01  0.74718239781E+01  0.95585011321E+01  0.51100000000E-03 0. -1.
        -12    1    3    3    0    0 -0.69324555244E+01  0.23094656251E+02  0.16227313920E+02  0.29064545481E+02  0.00000000000E+00 0.  1.
</event>
<event>
 7    1  0.1442665E-008  0.4614233E+02  0.7816164E-02  0.1320468E+00
        -11   -1    0    0    0    0  0.00000000000E+00  0.00000000000E+00  0.45593999997E+02  0.45594000000E+02  0.51100000000E-03 0.  1.
         11   -1    0    0    0    0 -0.00000000000E+00 -0.00000000000E+00 -0.45593999997E+02  0.45594000000E+02  0.51100000000E-03 0. -1.
    9900012    2    1    2    0    0  0.17799650780E+02  0.33729330439E+02  0.23971165735E+02  0.46142333322E+02  0.10000141898E+02 0.  0.
         12    1    1    2    0    0 -0.17799650780E+02 -0.33729330439E+02 -0.23971165735E+02  0.45045666678E+02  0.00000000000E+00 0. -1.
         11    1    3    3    0    0  0.12320106968E+01 -0.28429467969E+00  0.12683976260E+00  0.12707330201E+01  0.51100000000E-03 0. -1.
        -11    1    3    3    0    0  0.59173884323E+01  0.15371415220E+02  0.89992858680E+01  0.18769204515E+02  0.51100000000E-03 0.  1.
        -12    1    3    3    0    0  0.10650251651E+02  0.18642209899E+02  0.14845040105E+02  0.26102395787E+02  0.00000000000E+00 0.  1.
</event>
<event>
 7    1  0.1442665E-008  0.4614232E+02  0.7816164E-02  0.1320468E+00
        -11   -1    0    0    0    0  0.00000000000E+00  0.00000000000E+00  0.45593999997E+02  0.45594000000E+02  0.51100000000E-03 0.  1.
         11   -1    0    0    0    0 -0.00000000000E+00 -0.00000000000E+00 -0.45593999997E+02  0.45594000000E+02  0.51100000000E-03 0. -1.
    9900012    2    1    2    0    0  0.11417702767E+02  0.30819447570E+02  0.30804400672E+02  0.46142318900E+02  0.10000010383E+02 0.  0.
         12    1    1    2    0    0 -0.11417702767E+02 -0.30819447570E+02 -0.30804400672E+02  0.45045681100E+02  0.00000000000E+00 0. -1.
         11    1    3    3    0    0  0.44695578598E+01  0.59719064755E+01  0.55103629283E+01  0.92738726689E+01  0.51100000000E-03 0. -1.
        -11    1    3    3    0    0  0.46410406080E+01  0.13105257095E+02  0.18386827928E+02  0.23051300679E+02  0.51100000000E-03 0.  1.
         12    1    3    3    0    0  0.23071042989E+01  0.11742284000E+02  0.69072098159E+01  0.13817145552E+02  0.00000000000E+00 0. -1.
</event>
<event>
 7    1  0.1442665E-008  0.4614232E+02  0.7816164E-02  0.1320468E+00
        -11   -1    0    0    0    0  0.00000000000E+00  0.00000000000E+00  0.45593999997E+02  0.45594000000E+02  0.51100000000E-03 0.  1.
         11   -1    0    0    0    0 -0.00000000000E+00 -0.00000000000E+00 -0.45593999997E+02  0.45594000000E+02  0.51100000000E-03 0. -1.
    9900012    2    1    2    0    0 -0.10208953822E+02 -0.19298530595E+02  0.39401237620E+02  0.46142317108E+02  0.99999940421E+01 0.  0.
         12    1    1    2    0    0  0.10208953822E+02  0.19298530595E+02 -0.39401237620E+02  0.45045682892E+02  0.00000000000E+00 0. -1.
         11    1    3    3    0    0 -0.45725463244E+01 -0.34801367513E+01  0.45211334608E+01  0.73116468547E+01  0.51100000000E-03 0. -1.
        -11    1    3    3    0    0 -0.16136155250E+01 -0.38078494157E+01  0.59172445012E+01  0.72192281432E+01  0.51100000000E-03 0.  1.
         12    1    3    3    0    0 -0.40227919727E+01 -0.12010544428E+02  0.28962859658E+02  0.31611442110E+02  0.00000000000E+00 0. -1.
</event>
<event>
 7    1  0.1442665E-008  0.4614232E+02  0.7816164E-02  0.1320468E+00
        -11   -1    0    0    0    0  0.00000000000E+00  0.00000000000E+00  0.45593999997E+02  0.45594000000E+02  0.51100000000E-03 0. -1.
         11   -1    0    0    0    0 -0.00000000000E+00 -0.00000000000E+00 -0.45593999997E+02  0.45594000000E+02  0.51100000000E-03 0.  1.
    9900012    2    1    2    0    0 -0.18701801194E+02  0.21201537638E+02 -0.35069230541E+02  0.46142317667E+02  0.99999991456E+01 0.  0.
         12    1    1    2    0    0  0.18701801194E+02 -0.21201537638E+02  0.35069230541E+02  0.45045682333E+02  0.00000000000E+00 0. -1.
         11    1    3    3    0    0 -0.19971311943E+01  0.39497921648E+01 -0.18427117942E+01  0.47942651335E+01  0.51100000000E-03 0. -1.
        -11    1    3    3    0    0 -0.14149964026E+01 -0.14846608897E+00 -0.15234184166E+01  0.20844809743E+01  0.51100000000E-03 0.  1.
         12    1    3    3    0    0 -0.15289673597E+02  0.17400211562E+02 -0.31703100330E+02  0.39263571560E+02  0.00000000000E+00 0. -1.
</event>
<event>
 7    1  0.1442665E-008  0.4614232E+02  0.7816164E-02  0.1320468E+00
        -11   -1    0    0    0    0  0.00000000000E+00  0.00000000000E+00  0.45593999997E+02  0.45594000000E+02  0.51100000000E-03 0.  1.
         11   -1    0    0    0    0 -0.00000000000E+00 -0.00000000000E+00 -0.45593999997E+02  0.45594000000E+02  0.51100000000E-03 0. -1.
    9900012    2    1    2    0    0  0.34461384365E+02  0.27461897893E+02 -0.93472202539E+01  0.46142319023E+02  0.10000011505E+02 0.  0.
         12    1    1    2    0    0 -0.34461384365E+02 -0.27461897893E+02  0.93472202539E+01  0.45045680977E+02  0.00000000000E+00 0. -1.
         11    1    3    3    0    0  0.11699731719E+02  0.13211243284E+02 -0.12999647888E+01  0.17694930916E+02  0.51100000000E-03 0. -1.
        -11    1    3    3    0    0  0.16546292604E+02  0.10741050567E+02 -0.80590733326E+01  0.21309590082E+02  0.51100000000E-03 0.  1.
        -12    1    3    3    0    0  0.62153600418E+01  0.35096040413E+01  0.11817867516E-01  0.71377980245E+01  0.00000000000E+00 0.  1.
</event>
<event>
 7    1  0.1442665E-008  0.4614232E+02  0.7816164E-02  0.1320468E+00
        -11   -1    0    0    0    0  0.00000000000E+00  0.00000000000E+00  0.45593999997E+02  0.45594000000E+02  0.51100000000E-03 0.  1.
         11   -1    0    0    0    0 -0.00000000000E+00 -0.00000000000E+00 -0.45593999997E+02  0.45594000000E+02  0.51100000000E-03 0. -1.
    9900012    2    1    2    0    0  0.15565456725E+02  0.21425640876E+02  0.36438601956E+02  0.46142320490E+02  0.10000024880E+02 0.  0.
         12    1    1    2    0    0 -0.15565456725E+02 -0.21425640876E+02 -0.36438601956E+02  0.45045679510E+02  0.00000000000E+00 0. -1.
         11    1    3    3    0    0  0.64978936262E+01  0.45945803967E+01  0.11530307228E+02  0.14010024113E+02  0.51100000000E-03 0. -1.
        -11    1    3    3    0    0  0.84717844356E+01  0.16054724718E+02  0.19521559186E+02  0.26657392795E+02  0.51100000000E-03 0.  1.
        -12    1    3    3    0    0  0.59577866359E+00  0.77633576085E+00  0.53867355423E+01  0.54749035820E+01  0.00000000000E+00 0.  1.
</event>
<event>
 7    1  0.1442665E-008  0.4614231E+02  0.7816164E-02  0.1320468E+00
        -11   -1    0    0    0    0  0.00000000000E+00  0.00000000000E+00  0.45593999997E+02  0.45594000000E+02  0.51100000000E-03 0.  1.
         11   -1    0    0    0    0 -0.00000000000E+00 -0.00000000000E+00 -0.45593999997E+02  0.45594000000E+02  0.51100000000E-03 0. -1.
    9900012    2    1    2    0    0  0.12253538398E+02  0.12083878433E+02  0.41628654290E+02  0.46142310092E+02  0.99999300712E+01 0.  0.
         12    1    1    2    0    0 -0.12253538398E+02 -0.12083878433E+02 -0.41628654290E+02  0.45045689908E+02  0.00000000000E+00 0. -1.
         11    1    3    3    0    0  0.72070354423E+01  0.55581685515E+01  0.27202380205E+02  0.28684561816E+02  0.51100000000E-03 0. -1.
        -11    1    3    3    0    0  0.39188306118E+01  0.33809419722E+01  0.12663524167E+02  0.13680381813E+02  0.51100000000E-03 0.  1.
         12    1    3    3    0    0  0.11276723441E+01  0.31447679094E+01  0.17627499182E+01  0.37773664627E+01  0.00000000000E+00 0. -1.
</event>
<event>
 7    1  0.1442665E-008  0.4614232E+02  0.7816164E-02  0.1320468E+00
        -11   -1    0    0    0    0  0.00000000000E+00  0.00000000000E+00  0.45593999997E+02  0.45594000000E+02  0.51100000000E-03 0.  1.
         11   -1    0    0    0    0 -0.00000000000E+00 -0.00000000000E+00 -0.45593999997E+02  0.45594000000E+02  0.51100000000E-03 0. -1.
    9900012    2    1    2    0    0 -0.13508267449E+02  0.14425831597E+02  0.40478826368E+02  0.46142319953E+02  0.10000019989E+02 0.  0.
         12    1    1    2    0    0  0.13508267449E+02 -0.14425831597E+02 -0.40478826368E+02  0.45045680047E+02  0.00000000000E+00 0. -1.
         11    1    3    3    0    0 -0.96961786742E+01  0.11576578522E+02  0.22162167247E+02  0.26817805811E+02  0.51100000000E-03 0. -1.
        -11    1    3    3    0    0 -0.73592441056E+00  0.19719479649E+01  0.12592506702E+02  0.12767199725E+02  0.51100000000E-03 0.  1.
         12    1    3    3    0    0 -0.30761643639E+01  0.87730510982E+00  0.57241524190E+01  0.65573144171E+01  0.00000000000E+00 0. -1.
</event>
<event>
 7    1  0.1442665E-008  0.4614232E+02  0.7816164E-02  0.1320468E+00
        -11   -1    0    0    0    0  0.00000000000E+00  0.00000000000E+00  0.45593999997E+02  0.45594000000E+02  0.51100000000E-03 0.  1.
         11   -1    0    0    0    0 -0.00000000000E+00 -0.00000000000E+00 -0.45593999997E+02  0.45594000000E+02  0.51100000000E-03 0. -1.
    9900012    2    1    2    0    0 -0.42668664524E+02 -0.12288386479E+02  0.75824869393E+01  0.46142317824E+02  0.10000000572E+02 0.  0.
         12    1    1    2    0    0  0.42668664524E+02  0.12288386479E+02 -0.75824869393E+01  0.45045682176E+02  0.00000000000E+00 0. -1.
         11    1    3    3    0    0 -0.24437274575E+02 -0.42089040061E+01  0.14508889475E+01  0.24839491553E+02  0.51100000000E-03 0. -1.
        -11    1    3    3    0    0 -0.16008002198E+02 -0.85188137204E+01  0.55278137316E+01  0.18957400837E+02  0.51100000000E-03 0.  1.
        -12    1    3    3    0    0 -0.22233877505E+01  0.43933124740E+00  0.60378426019E+00  0.23454254341E+01  0.00000000000E+00 0.  1.
</event>
<event>
 7    1  0.1442665E-008  0.4614232E+02  0.7816164E-02  0.1320468E+00
        -11   -1    0    0    0    0  0.00000000000E+00  0.00000000000E+00  0.45593999997E+02  0.45594000000E+02  0.51100000000E-03 0. -1.
         11   -1    0    0    0    0 -0.00000000000E+00 -0.00000000000E+00 -0.45593999997E+02  0.45594000000E+02  0.51100000000E-03 0.  1.
    9900012    2    1    2    0    0  0.26206608119E+02  0.72675906295E+01 -0.35909737909E+02  0.46142318083E+02  0.10000002933E+02 0.  0.
         12    1    1    2    0    0 -0.26206608119E+02 -0.72675906295E+01  0.35909737909E+02  0.45045681917E+02  0.00000000000E+00 0. -1.
         11    1    3    3    0    0  0.57969073425E+01 -0.55935281444E-01 -0.11856529002E+02  0.13197899216E+02  0.51100000000E-03 0. -1.
        -11    1    3    3    0    0  0.74272924992E+01 -0.34064435203E+00 -0.80702409698E+01  0.10973126356E+02  0.51100000000E-03 0.  1.
        -12    1    3    3    0    0  0.12982408278E+02  0.76641702629E+01 -0.15982967938E+02  0.21971292511E+02  0.00000000000E+00 0.  1.
</event>
<event>
 7    1  0.1442665E-008  0.4614232E+02  0.7816164E-02  0.1320468E+00
        -11   -1    0    0    0    0  0.00000000000E+00  0.00000000000E+00  0.45593999997E+02  0.45594000000E+02  0.51100000000E-03 0. -1.
         11   -1    0    0    0    0 -0.00000000000E+00 -0.00000000000E+00 -0.45593999997E+02  0.45594000000E+02  0.51100000000E-03 0.  1.
    9900012    2    1    2    0    0 -0.39837321846E+02  0.51207856169E+01 -0.20393107360E+02  0.46142317799E+02  0.10000000344E+02 0.  0.
         12    1    1    2    0    0  0.39837321846E+02 -0.51207856169E+01  0.20393107360E+02  0.45045682201E+02  0.00000000000E+00 0. -1.
         11    1    3    3    0    0 -0.13223408196E+02  0.66996093930E+00 -0.10643861993E+02  0.16988206803E+02  0.51100000000E-03 0.  1.
        -11    1    3    3    0    0 -0.20530457640E+02  0.22996521358E+01 -0.93866165626E+01  0.22691334504E+02  0.51100000000E-03 0. -1.
         12    1    3    3    0    0 -0.60834560102E+01  0.21511725418E+01 -0.36262880400E+00  0.64627764918E+01  0.00000000000E+00 0. -1.
</event>
<event>
 7    1  0.1442665E-008  0.4614232E+02  0.7816164E-02  0.1320468E+00
        -11   -1    0    0    0    0  0.00000000000E+00  0.00000000000E+00  0.45593999997E+02  0.45594000000E+02  0.51100000000E-03 0. -1.
         11   -1    0    0    0    0 -0.00000000000E+00 -0.00000000000E+00 -0.45593999997E+02  0.45594000000E+02  0.51100000000E-03 0.  1.
    9900012    2    1    2    0    0  0.21426580575E+02  0.16928355036E+02 -0.35825213353E+02  0.46142317953E+02  0.10000001746E+02 0.  0.
         12    1    1    2    0    0 -0.21426580575E+02 -0.16928355036E+02  0.35825213353E+02  0.45045682047E+02  0.00000000000E+00 0. -1.
         11    1    3    3    0    0  0.10328207194E+02  0.67629125370E+01 -0.17959561877E+02  0.21793455735E+02  0.51100000000E-03 0. -1.
        -11    1    3    3    0    0  0.51884131963E+01  0.51556940236E+00 -0.61006081537E+01  0.80251394636E+01  0.51100000000E-03 0.  1.
         12    1    3    3    0    0  0.59099601852E+01  0.96498730965E+01 -0.11765043322E+02  0.16323722754E+02  0.00000000000E+00 0. -1.
</event>
<event>
 7    1  0.1442665E-008  0.4614232E+02  0.7816164E-02  0.1320468E+00
        -11   -1    0    0    0    0  0.00000000000E+00  0.00000000000E+00  0.45593999997E+02  0.45594000000E+02  0.51100000000E-03 0.  1.
         11   -1    0    0    0    0 -0.00000000000E+00 -0.00000000000E+00 -0.45593999997E+02  0.45594000000E+02  0.51100000000E-03 0. -1.
    9900012    2    1    2    0    0  0.54633182869E+01  0.10330259157E+01  0.44701213441E+02  0.46142317939E+02  0.10000001618E+02 0.  0.
         12    1    1    2    0    0 -0.54633182869E+01 -0.10330259157E+01 -0.44701213441E+02  0.45045682061E+02  0.00000000000E+00 0. -1.
         11    1    3    3    0    0 -0.11038250802E+01  0.36216380996E+01  0.19310335384E+02  0.19678001556E+02  0.51100000000E-03 0. -1.
        -11    1    3    3    0    0  0.56599060358E+01 -0.12939792332E+01  0.21345610769E+02  0.22121121535E+02  0.51100000000E-03 0.  1.
        -12    1    3    3    0    0  0.90723733136E+00 -0.12946329507E+01  0.40452672879E+01  0.43431948475E+01  0.00000000000E+00 0.  1.
</event>
<event>
 7    1  0.1442665E-008  0.4614232E+02  0.7816164E-02  0.1320468E+00
        -11   -1    0    0    0    0  0.00000000000E+00  0.00000000000E+00  0.45593999997E+02  0.45594000000E+02  0.51100000000E-03 0. -1.
         11   -1    0    0    0    0 -0.00000000000E+00 -0.00000000000E+00 -0.45593999997E+02  0.45594000000E+02  0.51100000000E-03 0.  1.
    9900012    2    1    2    0    0  0.10284692071E+01 -0.23721016886E+02 -0.38280142058E+02  0.46142315778E+02  0.99999819191E+01 0.  0.
         12    1    1    2    0    0 -0.10284692071E+01  0.23721016886E+02  0.38280142058E+02  0.45045684222E+02  0.00000000000E+00 0. -1.
         11    1    3    3    0    0 -0.17260447633E+00  0.55337323445E+00 -0.36455482982E+01  0.36913462175E+01  0.51100000000E-03 0. -1.
        -11    1    3    3    0    0 -0.29702070676E+00 -0.18443034053E+02 -0.27533963865E+02  0.33141407526E+02  0.51100000000E-03 0.  1.
         12    1    3    3    0    0  0.14980943901E+01 -0.58313560674E+01 -0.71006298944E+01  0.93095620350E+01  0.00000000000E+00 0. -1.
</event>
<event>
 7    1  0.1442665E-008  0.4614232E+02  0.7816164E-02  0.1320468E+00
        -11   -1    0    0    0    0  0.00000000000E+00  0.00000000000E+00  0.45593999997E+02  0.45594000000E+02  0.51100000000E-03 0. -1.
         11   -1    0    0    0    0 -0.00000000000E+00 -0.00000000000E+00 -0.45593999997E+02  0.45594000000E+02  0.51100000000E-03 0.  1.
    9900012    2    1    2    0    0 -0.12432951932E+02  0.40505695005E+02 -0.15291298390E+02  0.46142318431E+02  0.10000006105E+02 0.  0.
         12    1    1    2    0    0  0.12432951932E+02 -0.40505695005E+02  0.15291298390E+02  0.45045681569E+02  0.00000000000E+00 0. -1.
         11    1    3    3    0    0 -0.37237375199E+01  0.63766906550E+01 -0.28212749114E+00  0.73897226612E+01  0.51100000000E-03 0. -1.
        -11    1    3    3    0    0 -0.36468513160E+01  0.70066410578E+01 -0.52602266093E+01  0.94901279062E+01  0.51100000000E-03 0.  1.
         12    1    3    3    0    0 -0.50623630963E+01  0.27122363292E+02 -0.97489442895E+01  0.29262467863E+02  0.00000000000E+00 0. -1.
</event>
<event>
 7    1  0.1442665E-008  0.4614232E+02  0.7816164E-02  0.1320468E+00
        -11   -1    0    0    0    0  0.00000000000E+00  0.00000000000E+00  0.45593999997E+02  0.45594000000E+02  0.51100000000E-03 0. -1.
         11   -1    0    0    0    0 -0.00000000000E+00 -0.00000000000E+00 -0.45593999997E+02  0.45594000000E+02  0.51100000000E-03 0.  1.
    9900012    2    1    2    0    0  0.37285425958E+02 -0.54842175051E+01 -0.24674550494E+02  0.46142322376E+02  0.10000042083E+02 0.  0.
         12    1    1    2    0    0 -0.37285425958E+02  0.54842175051E+01  0.24674550494E+02  0.45045677624E+02  0.00000000000E+00 0. -1.
         11    1    3    3    0    0  0.24982432382E+02 -0.10840243633E+01 -0.13207240754E+02  0.28279466847E+02  0.51100000000E-03 0. -1.
        -11    1    3    3    0    0  0.11979454876E+02 -0.31299735543E+01 -0.10244917085E+02  0.16070544481E+02  0.51100000000E-03 0.  1.
        -12    1    3    3    0    0  0.32353870014E+00 -0.12702195875E+01 -0.12223926547E+01  0.17923110482E+01  0.00000000000E+00 0.  1.
</event>
<event>
 7    1  0.1442665E-008  0.4614232E+02  0.7816164E-02  0.1320468E+00
        -11   -1    0    0    0    0  0.00000000000E+00  0.00000000000E+00  0.45593999997E+02  0.45594000000E+02  0.51100000000E-03 0. -1.
         11   -1    0    0    0    0 -0.00000000000E+00 -0.00000000000E+00 -0.45593999997E+02  0.45594000000E+02  0.51100000000E-03 0.  1.
    9900012    2    1    2    0    0  0.15813781879E+02  0.37614133883E+02 -0.19084410892E+02  0.46142317586E+02  0.99999984021E+01 0.  0.
         12    1    1    2    0    0 -0.15813781879E+02 -0.37614133883E+02  0.19084410892E+02  0.45045682414E+02  0.00000000000E+00 0. -1.
         11    1    3    3    0    0  0.63296159785E+00 -0.23442508691E+00 -0.69673339189E+00  0.97006865026E+00  0.51100000000E-03 0. -1.
        -11    1    3    3    0    0  0.60616966303E+01  0.13044213524E+02 -0.97179299595E+01  0.17358969884E+02  0.51100000000E-03 0.  1.
        -12    1    3    3    0    0  0.91191236507E+01  0.24804345446E+02 -0.86697475403E+01  0.27813279051E+02  0.00000000000E+00 0.  1.
</event>
<event>
 7    1  0.1442665E-008  0.4614232E+02  0.7816164E-02  0.1320468E+00
        -11   -1    0    0    0    0  0.00000000000E+00  0.00000000000E+00  0.45593999997E+02  0.45594000000E+02  0.51100000000E-03 0. -1.
         11   -1    0    0    0    0 -0.00000000000E+00 -0.00000000000E+00 -0.45593999997E+02  0.45594000000E+02  0.51100000000E-03 0.  1.
    9900012    2    1    2    0    0 -0.27673014517E+02 -0.19458881378E+02 -0.29743395087E+02  0.46142319316E+02  0.10000014182E+02 0.  0.
         12    1    1    2    0    0  0.27673014517E+02  0.19458881378E+02  0.29743395087E+02  0.45045680684E+02  0.00000000000E+00 0. -1.
         11    1    3    3    0    0 -0.10292885887E+02 -0.68478566828E+01 -0.68588434868E+01  0.14137905618E+02  0.51100000000E-03 0. -1.
        -11    1    3    3    0    0 -0.12823698292E+02 -0.57286106652E+01 -0.15654837208E+02  0.21031836494E+02  0.51100000000E-03 0.  1.
         12    1    3    3    0    0 -0.45564303377E+01 -0.68824140304E+01 -0.72297143924E+01  0.10972577204E+02  0.00000000000E+00 0. -1.
</event>
<event>
 7    1  0.1442665E-008  0.4614231E+02  0.7816164E-02  0.1320468E+00
        -11   -1    0    0    0    0  0.00000000000E+00  0.00000000000E+00  0.45593999997E+02  0.45594000000E+02  0.51100000000E-03 0. -1.
         11   -1    0    0    0    0 -0.00000000000E+00 -0.00000000000E+00 -0.45593999997E+02  0.45594000000E+02  0.51100000000E-03 0.  1.
    9900012    2    1    2    0    0  0.34922279358E+02 -0.24368458389E+02 -0.14687652608E+02  0.46142306544E+02  0.99998977113E+01 0.  0.
         12    1    1    2    0    0 -0.34922279358E+02  0.24368458389E+02  0.14687652608E+02  0.45045693456E+02  0.00000000000E+00 0. -1.
         11    1    3    3    0    0  0.21387719681E+01 -0.30791212168E+01  0.73197271394E-01  0.37497588057E+01  0.51100000000E-03 0. -1.
        -11    1    3    3    0    0  0.21208931191E+02 -0.15106422189E+02 -0.13151854551E+02  0.29171802001E+02  0.51100000000E-03 0.  1.
        -12    1    3    3    0    0  0.11574576199E+02 -0.61829149832E+01 -0.16089953291E+01  0.13220745737E+02  0.00000000000E+00 0.  1.
</event>
<event>
 7    1  0.1442665E-008  0.4614232E+02  0.7816164E-02  0.1320468E+00
        -11   -1    0    0    0    0  0.00000000000E+00  0.00000000000E+00  0.45593999997E+02  0.45594000000E+02  0.51100000000E-03 0.  1.
         11   -1    0    0    0    0 -0.00000000000E+00 -0.00000000000E+00 -0.45593999997E+02  0.45594000000E+02  0.51100000000E-03 0. -1.
    9900012    2    1    2    0    0  0.71599876814E+01 -0.40323291308E+02  0.18758470613E+02  0.46142318017E+02  0.10000002335E+02 0.  0.
         12    1    1    2    0    0 -0.71599876814E+01  0.40323291308E+02 -0.18758470613E+02  0.45045681983E+02  0.00000000000E+00 0. -1.
         11    1    3    3    0    0 -0.80332435781E+00 -0.10349811011E+02  0.19295951238E+01  0.10558752558E+02  0.51100000000E-03 0. -1.
        -11    1    3    3    0    0  0.16346867789E+01 -0.14984505061E+02  0.85156045254E+01  0.17312513206E+02  0.51100000000E-03 0.  1.
         12    1    3    3    0    0  0.63286252603E+01 -0.14988975236E+02  0.83132709641E+01  0.18271052253E+02  0.00000000000E+00 0. -1.
</event>
<event>
 7    1  0.1442665E-008  0.4614232E+02  0.7816164E-02  0.1320468E+00
        -11   -1    0    0    0    0  0.00000000000E+00  0.00000000000E+00  0.45593999997E+02  0.45594000000E+02  0.51100000000E-03 0.  1.
         11   -1    0    0    0    0 -0.00000000000E+00 -0.00000000000E+00 -0.45593999997E+02  0.45594000000E+02  0.51100000000E-03 0. -1.
    9900012    2    1    2    0    0 -0.27145871040E+02 -0.35809014482E+02  0.31510807967E+01  0.46142321596E+02  0.10000034970E+02 0.  0.
         12    1    1    2    0    0  0.27145871040E+02  0.35809014482E+02 -0.31510807967E+01  0.45045678404E+02  0.00000000000E+00 0. -1.
         11    1    3    3    0    0 -0.27893631894E+01 -0.54244846917E+01 -0.10698396397E+01  0.61927488475E+01  0.51100000000E-03 0. -1.
        -11    1    3    3    0    0 -0.44991048958E+01 -0.10005636236E+02 -0.10172271711E+01  0.11017688175E+02  0.51100000000E-03 0.  1.
        -12    1    3    3    0    0 -0.19857402955E+02 -0.20378893554E+02  0.52381476076E+01  0.28931884573E+02  0.00000000000E+00 0.  1.
</event>
<event>
 7    1  0.1442665E-008  0.4614232E+02  0.7816164E-02  0.1320468E+00
        -11   -1    0    0    0    0  0.00000000000E+00  0.00000000000E+00  0.45593999997E+02  0.45594000000E+02  0.51100000000E-03 0.  1.
         11   -1    0    0    0    0 -0.00000000000E+00 -0.00000000000E+00 -0.45593999997E+02  0.45594000000E+02  0.51100000000E-03 0. -1.
    9900012    2    1    2    0    0  0.21429055447E+02  0.25176450846E+02 -0.30595023555E+02  0.46142316956E+02  0.99999926608E+01 0.  0.
         12    1    1    2    0    0 -0.21429055447E+02 -0.25176450846E+02  0.30595023555E+02  0.45045683044E+02  0.00000000000E+00 0. -1.
         11    1    3    3    0    0  0.15479841200E+01  0.23971232171E+00 -0.43609813823E+00  0.16260069742E+01  0.51100000000E-03 0. -1.
        -11    1    3    3    0    0  0.19173538391E+02  0.25098151963E+02 -0.27894379792E+02  0.42138322589E+02  0.51100000000E-03 0.  1.
        -12    1    3    3    0    0  0.70753293596E+00 -0.16141343864E+00 -0.22645456252E+01  0.23779873932E+01  0.00000000000E+00 0.  1.
</event>
<event>
 7    1  0.1442665E-008  0.4614232E+02  0.7816164E-02  0.1320468E+00
        -11   -1    0    0    0    0  0.00000000000E+00  0.00000000000E+00  0.45593999997E+02  0.45594000000E+02  0.51100000000E-03 0. -1.
         11   -1    0    0    0    0 -0.00000000000E+00 -0.00000000000E+00 -0.45593999997E+02  0.45594000000E+02  0.51100000000E-03 0.  1.
    9900012    2    1    2    0    0  0.20263562707E+02 -0.30007196717E+02 -0.26796824325E+02  0.46142316274E+02  0.99999864429E+01 0.  0.
         12    1    1    2    0    0 -0.20263562707E+02  0.30007196717E+02  0.26796824325E+02  0.45045683726E+02  0.00000000000E+00 0. -1.
         11    1    3    3    0    0  0.78945685281E+01 -0.12100457236E+02 -0.67944277964E+01  0.15965886349E+02  0.51100000000E-03 0.  1.
        -11    1    3    3    0    0  0.40524616203E+00 -0.48966142183E+01 -0.40517524722E+01  0.63684969665E+01  0.51100000000E-03 0. -1.
        -12    1    3    3    0    0  0.11963748017E+02 -0.13010125263E+02 -0.15950644056E+02  0.23807932959E+02  0.00000000000E+00 0.  1.
</event>
<event>
 7    1  0.1442665E-008  0.4614232E+02  0.7816164E-02  0.1320468E+00
        -11   -1    0    0    0    0  0.00000000000E+00  0.00000000000E+00  0.45593999997E+02  0.45594000000E+02  0.51100000000E-03 0.  1.
         11   -1    0    0    0    0 -0.00000000000E+00 -0.00000000000E+00 -0.45593999997E+02  0.45594000000E+02  0.51100000000E-03 0. -1.
    9900012    2    1    2    0    0  0.22807752144E+01 -0.21933703289E+02  0.39278801391E+02  0.46142317474E+02  0.99999973790E+01 0.  0.
         12    1    1    2    0    0 -0.22807752144E+01  0.21933703289E+02 -0.39278801391E+02  0.45045682526E+02  0.00000000000E+00 0. -1.
         11    1    3    3    0    0  0.36304528444E+00 -0.17403924472E+02  0.29673685293E+02  0.34402848546E+02  0.51100000000E-03 0. -1.
        -11    1    3    3    0    0  0.33210747321E+01 -0.41098437850E+01  0.75934388418E+01  0.92509819488E+01  0.51100000000E-03 0.  1.
         12    1    3    3    0    0 -0.14033448021E+01 -0.41993503278E+00  0.20116772555E+01  0.24884869792E+01  0.00000000000E+00 0. -1.
</event>
<event>
 7    1  0.1442665E-008  0.4614232E+02  0.7816164E-02  0.1320468E+00
        -11   -1    0    0    0    0  0.00000000000E+00  0.00000000000E+00  0.45593999997E+02  0.45594000000E+02  0.51100000000E-03 0.  1.
         11   -1    0    0    0    0 -0.00000000000E+00 -0.00000000000E+00 -0.45593999997E+02  0.45594000000E+02  0.51100000000E-03 0. -1.
    9900012    2    1    2    0    0  0.14278999098E+02 -0.29612874780E+02  0.30794500299E+02  0.46142318557E+02  0.10000007256E+02 0.  0.
         12    1    1    2    0    0 -0.14278999098E+02  0.29612874780E+02 -0.30794500299E+02  0.45045681443E+02  0.00000000000E+00 0. -1.
         11    1    3    3    0    0  0.94380565677E+01 -0.21620230162E+02  0.25341657230E+02  0.34622403953E+02  0.51100000000E-03 0. -1.
        -11    1    3    3    0    0 -0.62472573582E+00 -0.58972777915E+00  0.93137528926E+00  0.12670916656E+01  0.51100000000E-03 0.  1.
         12    1    3    3    0    0  0.54656682664E+01 -0.74029168387E+01  0.45214677800E+01  0.10252822938E+02  0.00000000000E+00 0. -1.
</event>
<event>
 7    1  0.1442665E-008  0.4614232E+02  0.7816164E-02  0.1320468E+00
        -11   -1    0    0    0    0  0.00000000000E+00  0.00000000000E+00  0.45593999997E+02  0.45594000000E+02  0.51100000000E-03 0.  1.
         11   -1    0    0    0    0 -0.00000000000E+00 -0.00000000000E+00 -0.45593999997E+02  0.45594000000E+02  0.51100000000E-03 0. -1.
    9900012    2    1    2    0    0  0.17444428284E+01 -0.13703295429E+02  0.42875285752E+02  0.46142317469E+02  0.99999973366E+01 0.  0.
         12    1    1    2    0    0 -0.17444428284E+01  0.13703295429E+02 -0.42875285752E+02  0.45045682531E+02  0.00000000000E+00 0. -1.
         11    1    3    3    0    0  0.28149826361E+00  0.16027162075E+00 -0.26620223979E+00  0.41927575463E+00  0.51100000000E-03 0. -1.
        -11    1    3    3    0    0 -0.19407242387E+01 -0.23703708981E+01  0.68654186491E+01  0.75179147543E+01  0.51100000000E-03 0.  1.
         12    1    3    3    0    0  0.34036688034E+01 -0.11493196152E+02  0.36276069342E+02  0.38205126960E+02  0.00000000000E+00 0. -1.
</event>
<event>
 7    1  0.1442665E-008  0.4614232E+02  0.7816164E-02  0.1320468E+00
        -11   -1    0    0    0    0  0.00000000000E+00  0.00000000000E+00  0.45593999997E+02  0.45594000000E+02  0.51100000000E-03 0.  1.
         11   -1    0    0    0    0 -0.00000000000E+00 -0.00000000000E+00 -0.45593999997E+02  0.45594000000E+02  0.51100000000E-03 0. -1.
    9900012    2    1    2    0    0  0.42308503988E+02 -0.13089019253E+02  0.82329532048E+01  0.46142318152E+02  0.10000003563E+02 0.  0.
         12    1    1    2    0    0 -0.42308503988E+02  0.13089019253E+02 -0.82329532048E+01  0.45045681848E+02  0.00000000000E+00 0. -1.
         11    1    3    3    0    0  0.80948496377E+01 -0.82853861620E+00  0.42718149768E+01  0.91902921799E+01  0.51100000000E-03 0. -1.
        -11    1    3    3    0    0  0.29000888711E+02 -0.11563255065E+02  0.49191243145E+01  0.31606299973E+02  0.51100000000E-03 0.  1.
        -12    1    3    3    0    0  0.52127656395E+01 -0.69722557127E+00 -0.95798608655E+00  0.53457259986E+01  0.00000000000E+00 0.  1.
</event>
<event>
 7    1  0.1442665E-008  0.4614232E+02  0.7816164E-02  0.1320468E+00
        -11   -1    0    0    0    0  0.00000000000E+00  0.00000000000E+00  0.45593999997E+02  0.45594000000E+02  0.51100000000E-03 0.  1.
         11   -1    0    0    0    0 -0.00000000000E+00 -0.00000000000E+00 -0.45593999997E+02  0.45594000000E+02  0.51100000000E-03 0. -1.
    9900012    2    1    2    0    0 -0.12735100026E+02 -0.24539371652E+01  0.43138249289E+02  0.46142321717E+02  0.10000036069E+02 0.  0.
         12    1    1    2    0    0  0.12735100026E+02  0.24539371652E+01 -0.43138249289E+02  0.45045678283E+02  0.00000000000E+00 0. -1.
         11    1    3    3    0    0 -0.15027966563E+01 -0.30406446414E+01  0.11447547636E+02  0.11939441560E+02  0.51100000000E-03 0. -1.
        -11    1    3    3    0    0 -0.45828582329E+01  0.16812600771E+00  0.21801974266E+02  0.22279069507E+02  0.51100000000E-03 0.  1.
         12    1    3    3    0    0 -0.66494451365E+01  0.41858146848E+00  0.98887273874E+01  0.11923810650E+02  0.00000000000E+00 0. -1.
</event>
<event>
 7    1  0.1442665E-008  0.4614232E+02  0.7816164E-02  0.1320468E+00
        -11   -1    0    0    0    0  0.00000000000E+00  0.00000000000E+00  0.45593999997E+02  0.45594000000E+02  0.51100000000E-03 0.  1.
         11   -1    0    0    0    0 -0.00000000000E+00 -0.00000000000E+00 -0.45593999997E+02  0.45594000000E+02  0.51100000000E-03 0. -1.
    9900012    2    1    2    0    0 -0.28792525169E+02  0.34638660389E+02  0.51691093080E+00  0.46142317676E+02  0.99999992211E+01 0.  0.
         12    1    1    2    0    0  0.28792525169E+02 -0.34638660389E+02 -0.51691093080E+00  0.45045682324E+02  0.00000000000E+00 0. -1.
         11    1    3    3    0    0 -0.25000900211E+00  0.17544030077E+00 -0.10991408551E+01  0.11407868691E+01  0.51100000000E-03 0. -1.
        -11    1    3    3    0    0 -0.22480343175E+02  0.24791192763E+02  0.24554091024E+01  0.33555895190E+02  0.51100000000E-03 0.  1.
        -12    1    3    3    0    0 -0.60621729920E+01  0.96720273250E+01 -0.83935731650E+00  0.11445635616E+02  0.00000000000E+00 0.  1.
</event>
<event>
 7    1  0.1442665E-008  0.4614232E+02  0.7816164E-02  0.1320468E+00
        -11   -1    0    0    0    0  0.00000000000E+00  0.00000000000E+00  0.45593999997E+02  0.45594000000E+02  0.51100000000E-03 0.  1.
         11   -1    0    0    0    0 -0.00000000000E+00 -0.00000000000E+00 -0.45593999997E+02  0.45594000000E+02  0.51100000000E-03 0. -1.
    9900012    2    1    2    0    0 -0.25979299791E+02 -0.18666642411E+02  0.31713496194E+02  0.46142318771E+02  0.10000009206E+02 0.  0.
         12    1    1    2    0    0  0.25979299791E+02  0.18666642411E+02 -0.31713496194E+02  0.45045681229E+02  0.00000000000E+00 0. -1.
         11    1    3    3    0    0 -0.14735874075E+01  0.10529947237E+00  0.14830391652E+01  0.20933115518E+01  0.51100000000E-03 0. -1.
        -11    1    3    3    0    0 -0.41903985709E+01 -0.11210295700E+01  0.81717792778E+01  0.92517092640E+01  0.51100000000E-03 0.  1.
        -12    1    3    3    0    0 -0.20315313813E+02 -0.17650912314E+02  0.22058677751E+02  0.34797297955E+02  0.00000000000E+00 0.  1.
</event>
<event>
 7    1  0.1442665E-008  0.4614232E+02  0.7816164E-02  0.1320468E+00
        -11   -1    0    0    0    0  0.00000000000E+00  0.00000000000E+00  0.45593999997E+02  0.45594000000E+02  0.51100000000E-03 0. -1.
         11   -1    0    0    0    0 -0.00000000000E+00 -0.00000000000E+00 -0.45593999997E+02  0.45594000000E+02  0.51100000000E-03 0.  1.
    9900012    2    1    2    0    0 -0.14033997812E+02  0.44126937808E+01 -0.42575680161E+02  0.46142317608E+02  0.99999986044E+01 0.  0.
         12    1    1    2    0    0  0.14033997812E+02 -0.44126937808E+01  0.42575680161E+02  0.45045682392E+02  0.00000000000E+00 0. -1.
         11    1    3    3    0    0 -0.38865787051E+01  0.15407205128E+01 -0.51474582153E+01  0.66314131276E+01  0.51100000000E-03 0.  1.
        -11    1    3    3    0    0  0.13191491873E+00 -0.11455932195E+01 -0.13155911400E+01  0.17494472496E+01  0.51100000000E-03 0. -1.
        -12    1    3    3    0    0 -0.10279334025E+02  0.40175664875E+01 -0.36112630806E+02  0.37761457231E+02  0.00000000000E+00 0.  1.
</event>
<event>
 7    1  0.1442665E-008  0.4614232E+02  0.7816164E-02  0.1320468E+00
        -11   -1    0    0    0    0  0.00000000000E+00  0.00000000000E+00  0.45593999997E+02  0.45594000000E+02  0.51100000000E-03 0. -1.
         11   -1    0    0    0    0 -0.00000000000E+00 -0.00000000000E+00 -0.45593999997E+02  0.45594000000E+02  0.51100000000E-03 0.  1.
    9900012    2    1    2    0    0  0.99039829815E+01 -0.36349552537E+02 -0.24692805179E+02  0.46142317896E+02  0.10000001233E+02 0.  0.
         12    1    1    2    0    0 -0.99039829815E+01  0.36349552537E+02  0.24692805179E+02  0.45045682104E+02  0.00000000000E+00 0. -1.
         11    1    3    3    0    0  0.55142598146E+01 -0.64053270539E+01 -0.44980607198E+01  0.95743316462E+01  0.51100000000E-03 0. -1.
        -11    1    3    3    0    0  0.31880841406E+01 -0.16204859502E+02 -0.90258934704E+01  0.18820948572E+02  0.51100000000E-03 0.  1.
         12    1    3    3    0    0  0.12016390263E+01 -0.13739365982E+02 -0.11168850989E+02  0.17747037678E+02  0.00000000000E+00 0. -1.
</event>
<event>
 7    1  0.1442665E-008  0.4614232E+02  0.7816164E-02  0.1320468E+00
        -11   -1    0    0    0    0  0.00000000000E+00  0.00000000000E+00  0.45593999997E+02  0.45594000000E+02  0.51100000000E-03 0. -1.
         11   -1    0    0    0    0 -0.00000000000E+00 -0.00000000000E+00 -0.45593999997E+02  0.45594000000E+02  0.51100000000E-03 0.  1.
    9900012    2    1    2    0    0 -0.22425335374E+02  0.38971935807E+02 -0.27214141938E+01  0.46142317161E+02  0.99999945305E+01 0.  0.
         12    1    1    2    0    0  0.22425335374E+02 -0.38971935807E+02  0.27214141938E+01  0.45045682839E+02  0.00000000000E+00 0. -1.
         11    1    3    3    0    0 -0.60616999122E+01  0.48674224914E+01 -0.20596428061E+01  0.80422718361E+01  0.51100000000E-03 0. -1.
        -11    1    3    3    0    0 -0.65078877972E+01  0.17550003424E+02  0.11222716351E+01  0.18751392419E+02  0.51100000000E-03 0.  1.
        -12    1    3    3    0    0 -0.98557476642E+01  0.16554509892E+02 -0.17840430228E+01  0.19348652907E+02  0.00000000000E+00 0.  1.
</event>
<event>
 7    1  0.1442665E-008  0.4614232E+02  0.7816164E-02  0.1320468E+00
        -11   -1    0    0    0    0  0.00000000000E+00  0.00000000000E+00  0.45593999997E+02  0.45594000000E+02  0.51100000000E-03 0. -1.
         11   -1    0    0    0    0 -0.00000000000E+00 -0.00000000000E+00 -0.45593999997E+02  0.45594000000E+02  0.51100000000E-03 0.  1.
    9900012    2    1    2    0    0 -0.42035470264E+02 -0.15864776794E+01  0.16112600413E+02  0.46142316924E+02  0.99999923644E+01 0.  0.
         12    1    1    2    0    0  0.42035470264E+02  0.15864776794E+01 -0.16112600413E+02  0.45045683076E+02  0.00000000000E+00 0. -1.
         11    1    3    3    0    0 -0.27301116244E+01  0.24496062594E+01  0.15675775996E+01  0.39889071310E+01  0.51100000000E-03 0. -1.
        -11    1    3    3    0    0 -0.32334599442E+02 -0.38292565313E+01  0.11344596247E+02  0.34480275390E+02  0.51100000000E-03 0.  1.
         12    1    3    3    0    0 -0.69707591974E+01 -0.20682740751E+00  0.32004265662E+01  0.76731344032E+01  0.00000000000E+00 0. -1.
</event>
<event>
 7    1  0.1442665E-008  0.4614232E+02  0.7816164E-02  0.1320468E+00
        -11   -1    0    0    0    0  0.00000000000E+00  0.00000000000E+00  0.45593999997E+02  0.45594000000E+02  0.51100000000E-03 0.  1.
         11   -1    0    0    0    0 -0.00000000000E+00 -0.00000000000E+00 -0.45593999997E+02  0.45594000000E+02  0.51100000000E-03 0. -1.
    9900012    2    1    2    0    0  0.17719433823E+02 -0.31570681753E+02  0.26803494378E+02  0.46142316608E+02  0.99999894888E+01 0.  0.
         12    1    1    2    0    0 -0.17719433823E+02  0.31570681753E+02 -0.26803494378E+02  0.45045683392E+02  0.00000000000E+00 0. -1.
         11    1    3    3    0    0  0.19811193197E+01 -0.10685685560E+01  0.18375349935E+01  0.29057198129E+01  0.51100000000E-03 0.  1.
        -11    1    3    3    0    0  0.12511621867E+02 -0.26325704088E+02  0.17190847793E+02  0.33839453683E+02  0.51100000000E-03 0. -1.
        -12    1    3    3    0    0  0.32266926361E+01 -0.41764091091E+01  0.77751115919E+01  0.93971431127E+01  0.00000000000E+00 0.  1.
</event>
<event>
 7    1  0.1442665E-008  0.4614232E+02  0.7816164E-02  0.1320468E+00
        -11   -1    0    0    0    0  0.00000000000E+00  0.00000000000E+00  0.45593999997E+02  0.45594000000E+02  0.51100000000E-03 0. -1.
         11   -1    0    0    0    0 -0.00000000000E+00 -0.00000000000E+00 -0.45593999997E+02  0.45594000000E+02  0.51100000000E-03 0.  1.
    9900012    2    1    2    0    0 -0.95566643845E+01  0.11904845130E+02 -0.42379928225E+02  0.46142317765E+02  0.10000000032E+02 0.  0.
         12    1    1    2    0    0  0.95566643845E+01 -0.11904845130E+02  0.42379928225E+02  0.45045682235E+02  0.00000000000E+00 0. -1.
         11    1    3    3    0    0  0.18216005531E+01  0.14391445904E+01 -0.56596432782E+01  0.61172647503E+01  0.51100000000E-03 0. -1.
        -11    1    3    3    0    0 -0.88952399202E+01  0.59347767452E+01 -0.23003212513E+02  0.25367196425E+02  0.51100000000E-03 0.  1.
         12    1    3    3    0    0 -0.24830250174E+01  0.45309237940E+01 -0.13717072433E+02  0.14657856590E+02  0.00000000000E+00 0. -1.
</event>
<event>
 7    1  0.1442665E-008  0.4614232E+02  0.7816164E-02  0.1320468E+00
        -11   -1    0    0    0    0  0.00000000000E+00  0.00000000000E+00  0.45593999997E+02  0.45594000000E+02  0.51100000000E-03 0. -1.
         11   -1    0    0    0    0 -0.00000000000E+00 -0.00000000000E+00 -0.45593999997E+02  0.45594000000E+02  0.51100000000E-03 0.  1.
    9900012    2    1    2    0    0 -0.10258579816E+02 -0.39699137952E+02  0.18650829556E+02  0.46142318108E+02  0.10000003166E+02 0.  0.
         12    1    1    2    0    0  0.10258579816E+02  0.39699137952E+02 -0.18650829556E+02  0.45045681892E+02  0.00000000000E+00 0. -1.
         11    1    3    3    0    0 -0.18659115428E+01 -0.17966498270E+02  0.84910139545E+01  0.19959308711E+02  0.51100000000E-03 0. -1.
        -11    1    3    3    0    0 -0.71342929094E+01 -0.19683400186E+02  0.10981609849E+02  0.23641703266E+02  0.51100000000E-03 0.  1.
         12    1    3    3    0    0 -0.12583753641E+01 -0.20492394960E+01 -0.82179424720E+00  0.25413061314E+01  0.00000000000E+00 0. -1.
</event>
<event>
 7    1  0.1442665E-008  0.4614232E+02  0.7816164E-02  0.1320468E+00
        -11   -1    0    0    0    0  0.00000000000E+00  0.00000000000E+00  0.45593999997E+02  0.45594000000E+02  0.51100000000E-03 0.  1.
         11   -1    0    0    0    0 -0.00000000000E+00 -0.00000000000E+00 -0.45593999997E+02  0.45594000000E+02  0.51100000000E-03 0. -1.
    9900012    2    1    2    0    0  0.25687072527E+02 -0.28450328715E+02  0.23661500078E+02  0.46142317799E+02  0.10000000350E+02 0.  0.
         12    1    1    2    0    0 -0.25687072527E+02  0.28450328715E+02 -0.23661500078E+02  0.45045682201E+02  0.00000000000E+00 0. -1.
         11    1    3    3    0    0  0.66362565701E+01 -0.56878931641E+01  0.59276075513E+01  0.10560708378E+02  0.51100000000E-03 0. -1.
        -11    1    3    3    0    0  0.19078608723E+02 -0.23402550591E+02  0.17211908835E+02  0.34755179341E+02  0.51100000000E-03 0.  1.
         12    1    3    3    0    0 -0.27792766366E-01  0.64011504091E+00  0.52198369159E+00  0.82643008038E+00  0.00000000000E+00 0. -1.
</event>
<event>
 7    1  0.1442665E-008  0.4614232E+02  0.7816164E-02  0.1320468E+00
        -11   -1    0    0    0    0  0.00000000000E+00  0.00000000000E+00  0.45593999997E+02  0.45594000000E+02  0.51100000000E-03 0. -1.
         11   -1    0    0    0    0 -0.00000000000E+00 -0.00000000000E+00 -0.45593999997E+02  0.45594000000E+02  0.51100000000E-03 0.  1.
    9900012    2    1    2    0    0 -0.76141487192E+00  0.24847863205E+02 -0.37564843251E+02  0.46142317555E+02  0.99999981213E+01 0.  0.
         12    1    1    2    0    0  0.76141487192E+00 -0.24847863205E+02  0.37564843251E+02  0.45045682445E+02  0.00000000000E+00 0. -1.
         11    1    3    3    0    0 -0.34431751383E+01  0.89427284443E+01 -0.12068759124E+02  0.15410476765E+02  0.51100000000E-03 0. -1.
        -11    1    3    3    0    0  0.34130177082E+01  0.15941366089E+02 -0.23461457852E+02  0.28569491550E+02  0.51100000000E-03 0.  1.
        -12    1    3    3    0    0 -0.73125744181E+00 -0.36231328348E-01 -0.20346262756E+01  0.21623492402E+01  0.00000000000E+00 0.  1.
</event>
<event>
 7    1  0.1442665E-008  0.4614232E+02  0.7816164E-02  0.1320468E+00
        -11   -1    0    0    0    0  0.00000000000E+00  0.00000000000E+00  0.45593999997E+02  0.45594000000E+02  0.51100000000E-03 0.  1.
         11   -1    0    0    0    0 -0.00000000000E+00 -0.00000000000E+00 -0.45593999997E+02  0.45594000000E+02  0.51100000000E-03 0. -1.
    9900012    2    1    2    0    0  0.19383606731E+02 -0.28117253838E+02  0.29373617641E+02  0.46142316670E+02  0.99999900533E+01 0.  0.
         12    1    1    2    0    0 -0.19383606731E+02  0.28117253838E+02 -0.29373617641E+02  0.45045683330E+02  0.00000000000E+00 0. -1.
         11    1    3    3    0    0 -0.98159870605E+00 -0.16026735638E+01  0.13893789744E+01  0.23371933526E+01  0.51100000000E-03 0. -1.
        -11    1    3    3    0    0  0.95053990309E+01 -0.15280593163E+02  0.16483181080E+02  0.24403778333E+02  0.51100000000E-03 0.  1.
        -12    1    3    3    0    0  0.10859806406E+02 -0.11233987112E+02  0.11501057586E+02  0.19401344985E+02  0.00000000000E+00 0.  1.
</event>
<event>
 7    1  0.1442665E-008  0.4614232E+02  0.7816164E-02  0.1320468E+00
        -11   -1    0    0    0    0  0.00000000000E+00  0.00000000000E+00  0.45593999997E+02  0.45594000000E+02  0.51100000000E-03 0.  1.
         11   -1    0    0    0    0 -0.00000000000E+00 -0.00000000000E+00 -0.45593999997E+02  0.45594000000E+02  0.51100000000E-03 0. -1.
    9900012    2    1    2    0    0  0.41828521742E+01 -0.67291595506E+01  0.44343382249E+02  0.46142318855E+02  0.10000009973E+02 0.  0.
         12    1    1    2    0    0 -0.41828521742E+01  0.67291595506E+01 -0.44343382249E+02  0.45045681145E+02  0.00000000000E+00 0. -1.
         11    1    3    3    0    0 -0.30215056657E+00 -0.52131398976E+01  0.11329896971E+02  0.12475363249E+02  0.51100000000E-03 0. -1.
        -11    1    3    3    0    0  0.24646801588E+01 -0.31077753285E+01  0.22219900258E+02  0.22571151577E+02  0.51100000000E-03 0.  1.
         12    1    3    3    0    0  0.20203225819E+01  0.15917556754E+01  0.10793585020E+02  0.11095804029E+02  0.00000000000E+00 0. -1.
</event>
<event>
 7    1  0.1442665E-008  0.4614232E+02  0.7816164E-02  0.1320468E+00
        -11   -1    0    0    0    0  0.00000000000E+00  0.00000000000E+00  0.45593999997E+02  0.45594000000E+02  0.51100000000E-03 0.  1.
         11   -1    0    0    0    0 -0.00000000000E+00 -0.00000000000E+00 -0.45593999997E+02  0.45594000000E+02  0.51100000000E-03 0. -1.
    9900012    2    1    2    0    0  0.13563567596E+02 -0.35691742785E+02  0.23900685720E+02  0.46142316002E+02  0.99999839574E+01 0.  0.
         12    1    1    2    0    0 -0.13563567596E+02  0.35691742785E+02 -0.23900685720E+02  0.45045683998E+02  0.00000000000E+00 0. -1.
         11    1    3    3    0    0  0.77082830481E+01 -0.15237564168E+02  0.76130992242E+01  0.18696530945E+02  0.51100000000E-03 0.  1.
        -11    1    3    3    0    0  0.32177902809E+01 -0.11660843381E+02  0.12836516260E+02  0.17638185638E+02  0.51100000000E-03 0. -1.
         12    1    3    3    0    0  0.26374942667E+01 -0.87933352368E+01  0.34510702360E+01  0.98075994192E+01  0.00000000000E+00 0. -1.
</event>
<event>
 7    1  0.1442665E-008  0.4614231E+02  0.7816164E-02  0.1320468E+00
        -11   -1    0    0    0    0  0.00000000000E+00  0.00000000000E+00  0.45593999997E+02  0.45594000000E+02  0.51100000000E-03 0.  1.
         11   -1    0    0    0    0 -0.00000000000E+00 -0.00000000000E+00 -0.45593999997E+02  0.45594000000E+02  0.51100000000E-03 0. -1.
    9900012    2    1    2    0    0 -0.13902408402E+02  0.27901698581E+02  0.32516644253E+02  0.46142313230E+02  0.99999586824E+01 0.  0.
         12    1    1    2    0    0  0.13902408402E+02 -0.27901698581E+02 -0.32516644253E+02  0.45045686770E+02  0.00000000000E+00 0. -1.
         11    1    3    3    0    0 -0.13882213864E+02  0.20494473804E+02  0.24304390838E+02  0.34690672126E+02  0.51100000000E-03 0. -1.
        -11    1    3    3    0    0  0.76576919287E+00  0.19504179564E+01  0.39925581612E+01  0.45089969609E+01  0.51100000000E-03 0.  1.
        -12    1    3    3    0    0 -0.78596373118E+00  0.54568068213E+01  0.42196952533E+01  0.69426441435E+01  0.00000000000E+00 0.  1.
</event>
<event>
 7    1  0.1442665E-008  0.4614232E+02  0.7816164E-02  0.1320468E+00
        -11   -1    0    0    0    0  0.00000000000E+00  0.00000000000E+00  0.45593999997E+02  0.45594000000E+02  0.51100000000E-03 0.  1.
         11   -1    0    0    0    0 -0.00000000000E+00 -0.00000000000E+00 -0.45593999997E+02  0.45594000000E+02  0.51100000000E-03 0. -1.
    9900012    2    1    2    0    0 -0.14532254851E+02 -0.12357795149E+02  0.40807007796E+02  0.46142318550E+02  0.10000007194E+02 0.  0.
         12    1    1    2    0    0  0.14532254851E+02  0.12357795149E+02 -0.40807007796E+02  0.45045681450E+02  0.00000000000E+00 0. -1.
         11    1    3    3    0    0 -0.22198918544E+01 -0.89558347321E+00  0.15010510566E+01  0.28254458300E+01  0.51100000000E-03 0. -1.
        -11    1    3    3    0    0 -0.60000391287E+01 -0.66029757616E+01  0.12535325233E+02  0.15386167080E+02  0.51100000000E-03 0.  1.
        -12    1    3    3    0    0 -0.63123238676E+01 -0.48592359143E+01  0.26770631507E+02  0.27930705640E+02  0.00000000000E+00 0.  1.
</event>
<event>
 7    1  0.1442665E-008  0.4614232E+02  0.7816164E-02  0.1320468E+00
        -11   -1    0    0    0    0  0.00000000000E+00  0.00000000000E+00  0.45593999997E+02  0.45594000000E+02  0.51100000000E-03 0.  1.
         11   -1    0    0    0    0 -0.00000000000E+00 -0.00000000000E+00 -0.45593999997E+02  0.45594000000E+02  0.51100000000E-03 0. -1.
    9900012    2    1    2    0    0 -0.28929911615E+02  0.10597795167E+02  0.32861229904E+02  0.46142317862E+02  0.10000000922E+02 0.  0.
         12    1    1    2    0    0  0.28929911615E+02 -0.10597795167E+02 -0.32861229904E+02  0.45045682138E+02  0.00000000000E+00 0. -1.
         11    1    3    3    0    0 -0.76130302139E+01  0.17013002403E+01  0.11501616842E+02  0.13897476094E+02  0.51100000000E-03 0. -1.
        -11    1    3    3    0    0 -0.72586897901E+01  0.52734640234E+01  0.46361186263E+01  0.10099088892E+02  0.51100000000E-03 0.  1.
        -12    1    3    3    0    0 -0.14058191611E+02  0.36230309029E+01  0.16723494436E+02  0.22145752876E+02  0.00000000000E+00 0.  1.
</event>
<event>
 7    1  0.1442665E-008  0.4614232E+02  0.7816164E-02  0.1320468E+00
        -11   -1    0    0    0    0  0.00000000000E+00  0.00000000000E+00  0.45593999997E+02  0.45594000000E+02  0.51100000000E-03 0.  1.
         11   -1    0    0    0    0 -0.00000000000E+00 -0.00000000000E+00 -0.45593999997E+02  0.45594000000E+02  0.51100000000E-03 0. -1.
    9900012    2    1    2    0    0 -0.37892873275E+02 -0.15751702271E+02  0.18577608099E+02  0.46142317719E+02  0.99999996202E+01 0.  0.
         12    1    1    2    0    0  0.37892873275E+02  0.15751702271E+02 -0.18577608099E+02  0.45045682281E+02  0.00000000000E+00 0. -1.
         11    1    3    3    0    0 -0.29089859258E+02 -0.14963282933E+02  0.11986763897E+02  0.34839664992E+02  0.51100000000E-03 0. -1.
        -11    1    3    3    0    0 -0.79646445526E+01 -0.12671648249E+01  0.51521506898E+01  0.95700536328E+01  0.51100000000E-03 0.  1.
        -12    1    3    3    0    0 -0.83836946353E+00  0.47874548685E+00  0.14386935124E+01  0.17325990942E+01  0.00000000000E+00 0.  1.
</event>
<event>
 7    1  0.1442665E-008  0.4614232E+02  0.7816164E-02  0.1320468E+00
        -11   -1    0    0    0    0  0.00000000000E+00  0.00000000000E+00  0.45593999997E+02  0.45594000000E+02  0.51100000000E-03 0. -1.
         11   -1    0    0    0    0 -0.00000000000E+00 -0.00000000000E+00 -0.45593999997E+02  0.45594000000E+02  0.51100000000E-03 0.  1.
    9900012    2    1    2    0    0  0.37658513597E+01  0.43984383994E+02 -0.89613566476E+01  0.46142316691E+02  0.99999902419E+01 0.  0.
         12    1    1    2    0    0 -0.37658513597E+01 -0.43984383994E+02  0.89613566476E+01  0.45045683309E+02  0.00000000000E+00 0. -1.
         11    1    3    3    0    0  0.19937216856E+01  0.35576760771E+01 -0.39181790935E+00  0.40970119312E+01  0.51100000000E-03 0. -1.
        -11    1    3    3    0    0 -0.17720482574E+01  0.31391394791E+02 -0.60519614553E+01  0.32018526819E+02  0.51100000000E-03 0.  1.
        -12    1    3    3    0    0  0.35441779314E+01  0.90353131262E+01 -0.25175772830E+01  0.10026777941E+02  0.00000000000E+00 0.  1.
</event>
<event>
 7    1  0.1442665E-008  0.4614232E+02  0.7816164E-02  0.1320468E+00
        -11   -1    0    0    0    0  0.00000000000E+00  0.00000000000E+00  0.45593999997E+02  0.45594000000E+02  0.51100000000E-03 0.  1.
         11   -1    0    0    0    0 -0.00000000000E+00 -0.00000000000E+00 -0.45593999997E+02  0.45594000000E+02  0.51100000000E-03 0. -1.
    9900012    2    1    2    0    0  0.30096327405E+02 -0.28585457567E+02  0.17498459692E+02  0.46142318752E+02  0.10000009033E+02 0.  0.
         12    1    1    2    0    0 -0.30096327405E+02  0.28585457567E+02 -0.17498459692E+02  0.45045681248E+02  0.00000000000E+00 0. -1.
         11    1    3    3    0    0  0.97558169085E+01 -0.54734020993E+01  0.40625734684E+01  0.11901201517E+02  0.51100000000E-03 0. -1.
        -11    1    3    3    0    0  0.19614406695E+01 -0.58559507336E+01  0.15388212036E+01  0.63645407888E+01  0.51100000000E-03 0.  1.
        -12    1    3    3    0    0  0.18379069827E+02 -0.17256104734E+02  0.11897065020E+02  0.27876576446E+02  0.00000000000E+00 0.  1.
</event>
<event>
 7    1  0.1442665E-008  0.4614232E+02  0.7816164E-02  0.1320468E+00
        -11   -1    0    0    0    0  0.00000000000E+00  0.00000000000E+00  0.45593999997E+02  0.45594000000E+02  0.51100000000E-03 0. -1.
         11   -1    0    0    0    0 -0.00000000000E+00 -0.00000000000E+00 -0.45593999997E+02  0.45594000000E+02  0.51100000000E-03 0.  1.
    9900012    2    1    2    0    0 -0.99935512101E+01  0.41564039198E+02 -0.14201163984E+02  0.46142317868E+02  0.10000000976E+02 0.  0.
         12    1    1    2    0    0  0.99935512101E+01 -0.41564039198E+02  0.14201163984E+02  0.45045682132E+02  0.00000000000E+00 0. -1.
         11    1    3    3    0    0 -0.37972853194E+01  0.60773073563E+01 -0.11407077702E+01  0.72563251704E+01  0.51100000000E-03 0. -1.
        -11    1    3    3    0    0 -0.49599328425E+01  0.28049729088E+02 -0.13085826161E+02  0.31346883135E+02  0.51100000000E-03 0.  1.
        -12    1    3    3    0    0 -0.12363330482E+01  0.74370027541E+01  0.25369947441E-01  0.75391095631E+01  0.00000000000E+00 0.  1.
</event>
<event>
 7    1  0.1442665E-008  0.4614232E+02  0.7816164E-02  0.1320468E+00
        -11   -1    0    0    0    0  0.00000000000E+00  0.00000000000E+00  0.45593999997E+02  0.45594000000E+02  0.51100000000E-03 0. -1.
         11   -1    0    0    0    0 -0.00000000000E+00 -0.00000000000E+00 -0.45593999997E+02  0.45594000000E+02  0.51100000000E-03 0.  1.
    9900012    2    1    2    0    0 -0.30378053144E+02 -0.13916056129E+02 -0.30209778118E+02  0.46142318465E+02  0.10000006417E+02 0.  0.
         12    1    1    2    0    0  0.30378053144E+02  0.13916056129E+02  0.30209778118E+02  0.45045681535E+02  0.00000000000E+00 0. -1.
         11    1    3    3    0    0 -0.53785144980E+01 -0.17961489484E+01 -0.23309814398E+01  0.61309089036E+01  0.51100000000E-03 0. -1.
        -11    1    3    3    0    0 -0.92778368809E+01 -0.79766398155E+01 -0.14368640513E+02  0.18872277828E+02  0.51100000000E-03 0.  1.
        -12    1    3    3    0    0 -0.15721701766E+02 -0.41432673653E+01 -0.13510156165E+02  0.21139131734E+02  0.00000000000E+00 0.  1.
</event>
<event>
 7    1  0.1442665E-008  0.4614232E+02  0.7816164E-02  0.1320468E+00
        -11   -1    0    0    0    0  0.00000000000E+00  0.00000000000E+00  0.45593999997E+02  0.45594000000E+02  0.51100000000E-03 0.  1.
         11   -1    0    0    0    0 -0.00000000000E+00 -0.00000000000E+00 -0.45593999997E+02  0.45594000000E+02  0.51100000000E-03 0. -1.
    9900012    2    1    2    0    0  0.13088882512E+02 -0.54434989215E+01  0.42757022710E+02  0.46142317444E+02  0.99999971043E+01 0.  0.
         12    1    1    2    0    0 -0.13088882512E+02  0.54434989215E+01 -0.42757022710E+02  0.45045682556E+02  0.00000000000E+00 0. -1.
         11    1    3    3    0    0 -0.26659178453E-01 -0.37920528380E+01  0.11228146895E+02  0.11851230248E+02  0.51100000000E-03 0. -1.
        -11    1    3    3    0    0  0.70269200271E+00  0.43640705684E+00  0.29347598876E+01  0.30491052833E+01  0.51100000000E-03 0.  1.
         12    1    3    3    0    0  0.12412849687E+02 -0.20878531403E+01  0.28594115928E+02  0.31241981912E+02  0.00000000000E+00 0. -1.
</event>
<event>
 7    1  0.1442665E-008  0.4614232E+02  0.7816164E-02  0.1320468E+00
        -11   -1    0    0    0    0  0.00000000000E+00  0.00000000000E+00  0.45593999997E+02  0.45594000000E+02  0.51100000000E-03 0.  1.
         11   -1    0    0    0    0 -0.00000000000E+00 -0.00000000000E+00 -0.45593999997E+02  0.45594000000E+02  0.51100000000E-03 0. -1.
    9900012    2    1    2    0    0 -0.22926142479E+02  0.37900128344E+02 -0.81905825015E+01  0.46142318973E+02  0.10000011053E+02 0.  0.
         12    1    1    2    0    0  0.22926142479E+02 -0.37900128344E+02  0.81905825015E+01  0.45045681027E+02  0.00000000000E+00 0. -1.
         11    1    3    3    0    0 -0.12971787747E+02  0.23569044066E+02 -0.80197880285E+01  0.28072835906E+02  0.51100000000E-03 0. -1.
        -11    1    3    3    0    0 -0.67340117970E+01  0.12365672987E+02 -0.12763756226E+01  0.14138101651E+02  0.51100000000E-03 0.  1.
         12    1    3    3    0    0 -0.32203429347E+01  0.19654112915E+01  0.11055811496E+01  0.39313814162E+01  0.00000000000E+00 0. -1.
</event>
<event>
 7    1  0.1442665E-008  0.4614232E+02  0.7816164E-02  0.1320468E+00
        -11   -1    0    0    0    0  0.00000000000E+00  0.00000000000E+00  0.45593999997E+02  0.45594000000E+02  0.51100000000E-03 0. -1.
         11   -1    0    0    0    0 -0.00000000000E+00 -0.00000000000E+00 -0.45593999997E+02  0.45594000000E+02  0.51100000000E-03 0.  1.
    9900012    2    1    2    0    0 -0.41972834418E+02  0.92556822335E+01 -0.13480613454E+02  0.46142318500E+02  0.10000006740E+02 0.  0.
         12    1    1    2    0    0  0.41972834418E+02 -0.92556822335E+01  0.13480613454E+02  0.45045681500E+02  0.00000000000E+00 0. -1.
         11    1    3    3    0    0 -0.16419777489E+02  0.45262073018E+01 -0.39295166808E+01  0.17479609462E+02  0.51100000000E-03 0. -1.
        -11    1    3    3    0    0 -0.13554607439E+02  0.52973159687E+01 -0.25964310156E+01  0.14782773541E+02  0.51100000000E-03 0.  1.
         12    1    3    3    0    0 -0.11998449490E+02 -0.56784103702E+00 -0.69546657572E+01  0.13879935497E+02  0.00000000000E+00 0. -1.
</event>
<event>
 7    1  0.1442665E-008  0.4614232E+02  0.7816164E-02  0.1320468E+00
        -11   -1    0    0    0    0  0.00000000000E+00  0.00000000000E+00  0.45593999997E+02  0.45594000000E+02  0.51100000000E-03 0.  1.
         11   -1    0    0    0    0 -0.00000000000E+00 -0.00000000000E+00 -0.45593999997E+02  0.45594000000E+02  0.51100000000E-03 0. -1.
    9900012    2    1    2    0    0  0.64224470535E+01  0.20297236681E+02  0.39697453650E+02  0.46142317972E+02  0.10000001926E+02 0.  0.
         12    1    1    2    0    0 -0.64224470535E+01 -0.20297236681E+02 -0.39697453650E+02  0.45045682028E+02  0.00000000000E+00 0. -1.
         11    1    3    3    0    0 -0.15897642990E+01  0.40213800184E+01  0.12681923173E+02  0.13398881424E+02  0.51100000000E-03 0. -1.
        -11    1    3    3    0    0  0.67031425497E+01  0.10000756838E+02  0.18770028828E+02  0.22299355144E+02  0.51100000000E-03 0.  1.
         12    1    3    3    0    0  0.13090688028E+01  0.62750998249E+01  0.82455016494E+01  0.10444081405E+02  0.00000000000E+00 0. -1.
</event>
<event>
 7    1  0.1442665E-008  0.4614232E+02  0.7816164E-02  0.1320468E+00
        -11   -1    0    0    0    0  0.00000000000E+00  0.00000000000E+00  0.45593999997E+02  0.45594000000E+02  0.51100000000E-03 0.  1.
         11   -1    0    0    0    0 -0.00000000000E+00 -0.00000000000E+00 -0.45593999997E+02  0.45594000000E+02  0.51100000000E-03 0. -1.
    9900012    2    1    2    0    0 -0.81073763451E+01  0.34915766678E+02  0.27281369892E+02  0.46142318108E+02  0.10000003163E+02 0.  0.
         12    1    1    2    0    0  0.81073763451E+01 -0.34915766678E+02 -0.27281369892E+02  0.45045681892E+02  0.00000000000E+00 0. -1.
         11    1    3    3    0    0  0.35163318028E+00  0.46134378087E+01  0.39913908873E+00  0.46440032926E+01  0.51100000000E-03 0. -1.
        -11    1    3    3    0    0 -0.64790984895E+01  0.25591651777E+02  0.23712939449E+02  0.35485417505E+02  0.51100000000E-03 0.  1.
        -12    1    3    3    0    0 -0.19799110359E+01  0.47106770929E+01  0.31692913541E+01  0.60128973108E+01  0.00000000000E+00 0.  1.
</event>
<event>
 7    1  0.1442665E-008  0.4614232E+02  0.7816164E-02  0.1320468E+00
        -11   -1    0    0    0    0  0.00000000000E+00  0.00000000000E+00  0.45593999997E+02  0.45594000000E+02  0.51100000000E-03 0. -1.
         11   -1    0    0    0    0 -0.00000000000E+00 -0.00000000000E+00 -0.45593999997E+02  0.45594000000E+02  0.51100000000E-03 0.  1.
    9900012    2    1    2    0    0  0.21116545876E+02 -0.37987785947E+02 -0.11837779863E+02  0.46142318487E+02  0.10000006617E+02 0.  0.
         12    1    1    2    0    0 -0.21116545876E+02  0.37987785947E+02  0.11837779863E+02  0.45045681513E+02  0.00000000000E+00 0. -1.
         11    1    3    3    0    0 -0.14419437268E+00 -0.45402475544E+01 -0.16710999667E+01  0.48401668600E+01  0.51100000000E-03 0. -1.
        -11    1    3    3    0    0  0.20707402216E+02 -0.29821883046E+02 -0.98624218714E+01  0.37621916224E+02  0.51100000000E-03 0.  1.
         12    1    3    3    0    0  0.55333803242E+00 -0.36256553473E+01 -0.30425802489E+00  0.36802354029E+01  0.00000000000E+00 0. -1.
</event>
<event>
 7    1  0.1442665E-008  0.4614232E+02  0.7816164E-02  0.1320468E+00
        -11   -1    0    0    0    0  0.00000000000E+00  0.00000000000E+00  0.45593999997E+02  0.45594000000E+02  0.51100000000E-03 0. -1.
         11   -1    0    0    0    0 -0.00000000000E+00 -0.00000000000E+00 -0.45593999997E+02  0.45594000000E+02  0.51100000000E-03 0.  1.
    9900012    2    1    2    0    0 -0.10531573547E+02  0.35464169445E+02 -0.25700042224E+02  0.46142317342E+02  0.99999961804E+01 0.  0.
         12    1    1    2    0    0  0.10531573547E+02 -0.35464169445E+02  0.25700042224E+02  0.45045682658E+02  0.00000000000E+00 0. -1.
         11    1    3    3    0    0 -0.19919628823E+01  0.30594798845E+01 -0.66088085293E+01  0.75501446163E+01  0.51100000000E-03 0. -1.
        -11    1    3    3    0    0 -0.16446545438E+01  0.66187843345E+01 -0.45222642567E+01  0.81831576365E+01  0.51100000000E-03 0.  1.
         12    1    3    3    0    0 -0.68949561207E+01  0.25785905226E+02 -0.14568969438E+02  0.30409015089E+02  0.00000000000E+00 0. -1.
</event>
<event>
 7    1  0.1442665E-008  0.4614232E+02  0.7816164E-02  0.1320468E+00
        -11   -1    0    0    0    0  0.00000000000E+00  0.00000000000E+00  0.45593999997E+02  0.45594000000E+02  0.51100000000E-03 0.  1.
         11   -1    0    0    0    0 -0.00000000000E+00 -0.00000000000E+00 -0.45593999997E+02  0.45594000000E+02  0.51100000000E-03 0. -1.
    9900012    2    1    2    0    0  0.43312838512E+02  0.10017478815E+02  0.72637242499E+01  0.46142317057E+02  0.99999935800E+01 0.  0.
         12    1    1    2    0    0 -0.43312838512E+02 -0.10017478815E+02 -0.72637242499E+01  0.45045682943E+02  0.00000000000E+00 0. -1.
         11    1    3    3    0    0  0.13151411583E+02  0.57543993135E+01  0.10987917108E+01  0.14397224787E+02  0.51100000000E-03 0. -1.
        -11    1    3    3    0    0  0.25188091777E+02  0.18150837075E+01  0.31900537339E+01  0.25454094746E+02  0.51100000000E-03 0.  1.
         12    1    3    3    0    0  0.49733351523E+01  0.24479957939E+01  0.29748788052E+01  0.62909975242E+01  0.00000000000E+00 0. -1.
</event>
<event>
 7    1  0.1442665E-008  0.4614231E+02  0.7816164E-02  0.1320468E+00
        -11   -1    0    0    0    0  0.00000000000E+00  0.00000000000E+00  0.45593999997E+02  0.45594000000E+02  0.51100000000E-03 0. -1.
         11   -1    0    0    0    0 -0.00000000000E+00 -0.00000000000E+00 -0.45593999997E+02  0.45594000000E+02  0.51100000000E-03 0.  1.
    9900012    2    1    2    0    0 -0.17214466917E+01  0.26884269359E+02 -0.36102453639E+02  0.46142306793E+02  0.99998999874E+01 0.  0.
         12    1    1    2    0    0  0.17214466917E+01 -0.26884269359E+02  0.36102453639E+02  0.45045693207E+02  0.00000000000E+00 0. -1.
         11    1    3    3    0    0 -0.47827835493E+00 -0.40650630384E+00 -0.12274412550E+01  0.13786260753E+01  0.51100000000E-03 0. -1.
        -11    1    3    3    0    0  0.35285513292E+00  0.20091443653E+02 -0.29257808878E+02  0.35493802211E+02  0.51100000000E-03 0.  1.
         12    1    3    3    0    0 -0.15960234696E+01  0.71993320096E+01 -0.56172035066E+01  0.92698785071E+01  0.00000000000E+00 0. -1.
</event>
<event>
 7    1  0.1442665E-008  0.4614232E+02  0.7816164E-02  0.1320468E+00
        -11   -1    0    0    0    0  0.00000000000E+00  0.00000000000E+00  0.45593999997E+02  0.45594000000E+02  0.51100000000E-03 0. -1.
         11   -1    0    0    0    0 -0.00000000000E+00 -0.00000000000E+00 -0.45593999997E+02  0.45594000000E+02  0.51100000000E-03 0.  1.
    9900012    2    1    2    0    0 -0.27674006494E+02  0.33587942868E+02 -0.11623807223E+02  0.46142318344E+02  0.10000005314E+02 0.  0.
         12    1    1    2    0    0  0.27674006494E+02 -0.33587942868E+02  0.11623807223E+02  0.45045681656E+02  0.00000000000E+00 0. -1.
         11    1    3    3    0    0 -0.10578988228E+02  0.75277108356E+01 -0.60710859939E+01  0.14333161122E+02  0.51100000000E-03 0. -1.
        -11    1    3    3    0    0 -0.66099160503E+01  0.76163369346E+01 -0.12560581158E+01  0.10162542041E+02  0.51100000000E-03 0.  1.
         12    1    3    3    0    0 -0.10485102216E+02  0.18443895098E+02 -0.42966631132E+01  0.21646615180E+02  0.00000000000E+00 0. -1.
</event>
<event>
 7    1  0.1442665E-008  0.4614232E+02  0.7816164E-02  0.1320468E+00
        -11   -1    0    0    0    0  0.00000000000E+00  0.00000000000E+00  0.45593999997E+02  0.45594000000E+02  0.51100000000E-03 0.  1.
         11   -1    0    0    0    0 -0.00000000000E+00 -0.00000000000E+00 -0.45593999997E+02  0.45594000000E+02  0.51100000000E-03 0. -1.
    9900012    2    1    2    0    0 -0.23614001619E+02  0.15322393610E+02  0.35166981923E+02  0.46142318342E+02  0.10000005300E+02 0.  0.
         12    1    1    2    0    0  0.23614001619E+02 -0.15322393610E+02 -0.35166981923E+02  0.45045681658E+02  0.00000000000E+00 0. -1.
         11    1    3    3    0    0 -0.18522422390E+02  0.11985369022E+02  0.22689171084E+02  0.31646922229E+02  0.51100000000E-03 0.  1.
        -11    1    3    3    0    0  0.66973483208E+00  0.88921051328E+00  0.20613471720E+01  0.23427318470E+01  0.51100000000E-03 0. -1.
         12    1    3    3    0    0 -0.57613140613E+01  0.24478140746E+01  0.10416463667E+02  0.12152664267E+02  0.00000000000E+00 0. -1.
</event>
<event>
 7    1  0.1442665E-008  0.4614232E+02  0.7816164E-02  0.1320468E+00
        -11   -1    0    0    0    0  0.00000000000E+00  0.00000000000E+00  0.45593999997E+02  0.45594000000E+02  0.51100000000E-03 0.  1.
         11   -1    0    0    0    0 -0.00000000000E+00 -0.00000000000E+00 -0.45593999997E+02  0.45594000000E+02  0.51100000000E-03 0. -1.
    9900012    2    1    2    0    0  0.27419711874E+02 -0.30651511383E+02  0.18378186420E+02  0.46142317794E+02  0.10000000302E+02 0.  0.
         12    1    1    2    0    0 -0.27419711874E+02  0.30651511383E+02 -0.18378186420E+02  0.45045682206E+02  0.00000000000E+00 0. -1.
         11    1    3    3    0    0  0.67455380316E+01 -0.64080209722E+01  0.69555731087E+01  0.11616583562E+02  0.51100000000E-03 0. -1.
        -11    1    3    3    0    0  0.75076746937E+01 -0.75472563855E+01  0.71881310216E+01  0.12845056874E+02  0.51100000000E-03 0.  1.
         12    1    3    3    0    0  0.13166499149E+02 -0.16696234025E+02  0.42344822892E+01  0.21680677358E+02  0.00000000000E+00 0. -1.
</event>
<event>
 7    1  0.1442665E-008  0.4614232E+02  0.7816164E-02  0.1320468E+00
        -11   -1    0    0    0    0  0.00000000000E+00  0.00000000000E+00  0.45593999997E+02  0.45594000000E+02  0.51100000000E-03 0. -1.
         11   -1    0    0    0    0 -0.00000000000E+00 -0.00000000000E+00 -0.45593999997E+02  0.45594000000E+02  0.51100000000E-03 0.  1.
    9900012    2    1    2    0    0  0.39131189706E+02 -0.52777424403E+01 -0.21679689257E+02  0.46142317639E+02  0.99999988884E+01 0.  0.
         12    1    1    2    0    0 -0.39131189706E+02  0.52777424403E+01  0.21679689257E+02  0.45045682361E+02  0.00000000000E+00 0. -1.
         11    1    3    3    0    0  0.24774272233E+02 -0.66597347696E+01 -0.16902088706E+02  0.30721283091E+02  0.51100000000E-03 0. -1.
        -11    1    3    3    0    0  0.67518382985E+01 -0.18419920632E+00 -0.11531157933E+01  0.68520745800E+01  0.51100000000E-03 0.  1.
         12    1    3    3    0    0  0.76050791746E+01  0.15661915356E+01 -0.36244847579E+01  0.85689599683E+01  0.00000000000E+00 0. -1.
</event>
<event>
 7    1  0.1442665E-008  0.4614232E+02  0.7816164E-02  0.1320468E+00
        -11   -1    0    0    0    0  0.00000000000E+00  0.00000000000E+00  0.45593999997E+02  0.45594000000E+02  0.51100000000E-03 0. -1.
         11   -1    0    0    0    0 -0.00000000000E+00 -0.00000000000E+00 -0.45593999997E+02  0.45594000000E+02  0.51100000000E-03 0.  1.
    9900012    2    1    2    0    0 -0.37311691491E+02 -0.88838513776E+01 -0.23622622368E+02  0.46142318467E+02  0.10000006436E+02 0.  0.
         12    1    1    2    0    0  0.37311691491E+02  0.88838513776E+01  0.23622622368E+02  0.45045681533E+02  0.00000000000E+00 0. -1.
         11    1    3    3    0    0 -0.57650896854E+01  0.13029238521E+01 -0.24588451927E+01  0.64015458749E+01  0.51100000000E-03 0. -1.
        -11    1    3    3    0    0 -0.20873035963E+02 -0.51643250467E+01 -0.16295174592E+02  0.26979373580E+02  0.51100000000E-03 0.  1.
        -12    1    3    3    0    0 -0.10673565843E+02 -0.50224501830E+01 -0.48686025834E+01  0.12761399012E+02  0.00000000000E+00 0.  1.
</event>
<event>
 7    1  0.1442665E-008  0.4614232E+02  0.7816164E-02  0.1320468E+00
        -11   -1    0    0    0    0  0.00000000000E+00  0.00000000000E+00  0.45593999997E+02  0.45594000000E+02  0.51100000000E-03 0.  1.
         11   -1    0    0    0    0 -0.00000000000E+00 -0.00000000000E+00 -0.45593999997E+02  0.45594000000E+02  0.51100000000E-03 0. -1.
    9900012    2    1    2    0    0 -0.25596738364E+02  0.58619282257E+01  0.36599975895E+02  0.46142318155E+02  0.10000003589E+02 0.  0.
         12    1    1    2    0    0  0.25596738364E+02 -0.58619282257E+01 -0.36599975895E+02  0.45045681845E+02  0.00000000000E+00 0. -1.
         11    1    3    3    0    0 -0.14082083571E+02  0.46135445165E+01  0.24675206525E+02  0.28782906177E+02  0.51100000000E-03 0. -1.
        -11    1    3    3    0    0 -0.50452817660E+01  0.30552566432E+01  0.55256731958E+01  0.80822351972E+01  0.51100000000E-03 0.  1.
         12    1    3    3    0    0 -0.64693730276E+01 -0.18068729341E+01  0.63990961739E+01  0.92771767803E+01  0.00000000000E+00 0. -1.
</event>
<event>
 7    1  0.1442665E-008  0.4614232E+02  0.7816164E-02  0.1320468E+00
        -11   -1    0    0    0    0  0.00000000000E+00  0.00000000000E+00  0.45593999997E+02  0.45594000000E+02  0.51100000000E-03 0. -1.
         11   -1    0    0    0    0 -0.00000000000E+00 -0.00000000000E+00 -0.45593999997E+02  0.45594000000E+02  0.51100000000E-03 0.  1.
    9900012    2    1    2    0    0  0.36026190759E+02 -0.19222371569E+02 -0.19019133365E+02  0.46142318484E+02  0.10000006588E+02 0.  0.
         12    1    1    2    0    0 -0.36026190759E+02  0.19222371569E+02  0.19019133365E+02  0.45045681516E+02  0.00000000000E+00 0. -1.
         11    1    3    3    0    0  0.28395836105E+02 -0.13754130794E+02 -0.10325914378E+02  0.33198254924E+02  0.51100000000E-03 0. -1.
        -11    1    3    3    0    0  0.27783151407E+01 -0.23955608909E+01 -0.22093105373E+01  0.42823825512E+01  0.51100000000E-03 0.  1.
         12    1    3    3    0    0  0.48520395131E+01 -0.30726798834E+01 -0.64839084496E+01  0.86616810081E+01  0.00000000000E+00 0. -1.
</event>
<event>
 7    1  0.1442665E-008  0.4614232E+02  0.7816164E-02  0.1320468E+00
        -11   -1    0    0    0    0  0.00000000000E+00  0.00000000000E+00  0.45593999997E+02  0.45594000000E+02  0.51100000000E-03 0. -1.
         11   -1    0    0    0    0 -0.00000000000E+00 -0.00000000000E+00 -0.45593999997E+02  0.45594000000E+02  0.51100000000E-03 0.  1.
    9900012    2    1    2    0    0 -0.43715276646E+02  0.23516064070E+01  0.10609339729E+02  0.46142317028E+02  0.99999933173E+01 0.  0.
         12    1    1    2    0    0  0.43715276646E+02 -0.23516064070E+01 -0.10609339729E+02  0.45045682972E+02  0.00000000000E+00 0. -1.
         11    1    3    3    0    0 -0.97410256076E+00  0.40684100670E+00  0.11799950249E+01  0.15832826417E+01  0.51100000000E-03 0. -1.
        -11    1    3    3    0    0 -0.17690601984E+02 -0.20324999570E+00 -0.41776523106E-01  0.17691818863E+02  0.51100000000E-03 0.  1.
        -12    1    3    3    0    0 -0.25050572101E+02  0.21480153960E+01  0.94711212269E+01  0.26867215524E+02  0.00000000000E+00 0.  1.
</event>
<event>
 7    1  0.1442665E-008  0.4614231E+02  0.7816164E-02  0.1320468E+00
        -11   -1    0    0    0    0  0.00000000000E+00  0.00000000000E+00  0.45593999997E+02  0.45594000000E+02  0.51100000000E-03 0.  1.
         11   -1    0    0    0    0 -0.00000000000E+00 -0.00000000000E+00 -0.45593999997E+02  0.45594000000E+02  0.51100000000E-03 0. -1.
    9900012    2    1    2    0    0  0.41768624147E+02 -0.82035153080E+01 -0.14737662637E+02  0.46142308457E+02  0.99999151617E+01 0.  0.
         12    1    1    2    0    0 -0.41768624147E+02  0.82035153080E+01  0.14737662637E+02  0.45045691543E+02  0.00000000000E+00 0. -1.
         11    1    3    3    0    0  0.49572804449E+01 -0.38960264633E+01 -0.12153096616E+01  0.64211081167E+01  0.51100000000E-03 0. -1.
        -11    1    3    3    0    0  0.30797427117E+02 -0.53016666816E+01 -0.11489793681E+02  0.33295713624E+02  0.51100000000E-03 0.  1.
         12    1    3    3    0    0  0.60139165847E+01  0.99417783687E+00 -0.20325592943E+01  0.64254867165E+01  0.00000000000E+00 0. -1.
</event>
<event>
 7    1  0.1442665E-008  0.4614232E+02  0.7816164E-02  0.1320468E+00
        -11   -1    0    0    0    0  0.00000000000E+00  0.00000000000E+00  0.45593999997E+02  0.45594000000E+02  0.51100000000E-03 0.  1.
         11   -1    0    0    0    0 -0.00000000000E+00 -0.00000000000E+00 -0.45593999997E+02  0.45594000000E+02  0.51100000000E-03 0. -1.
    9900012    2    1    2    0    0  0.40091663865E+02 -0.47579336870E+01  0.19978338709E+02  0.46142318053E+02  0.10000002665E+02 0.  0.
         12    1    1    2    0    0 -0.40091663865E+02  0.47579336870E+01 -0.19978338709E+02  0.45045681947E+02  0.00000000000E+00 0. -1.
         11    1    3    3    0    0  0.82843982076E+01 -0.21305651972E+01  0.13376959248E+01  0.86579438881E+01  0.51100000000E-03 0. -1.
        -11    1    3    3    0    0  0.28575042477E+02 -0.42321213348E+01  0.16093079597E+02  0.33067069944E+02  0.51100000000E-03 0.  1.
        -12    1    3    3    0    0  0.32322231813E+01  0.16047528451E+01  0.25475631874E+01  0.44173042211E+01  0.00000000000E+00 0.  1.
</event>
<event>
 7    1  0.1442665E-008  0.4614232E+02  0.7816164E-02  0.1320468E+00
        -11   -1    0    0    0    0  0.00000000000E+00  0.00000000000E+00  0.45593999997E+02  0.45594000000E+02  0.51100000000E-03 0.  1.
         11   -1    0    0    0    0 -0.00000000000E+00 -0.00000000000E+00 -0.45593999997E+02  0.45594000000E+02  0.51100000000E-03 0. -1.
    9900012    2    1    2    0    0  0.12292453599E+02 -0.24174554469E+02  0.35966652144E+02  0.46142316903E+02  0.99999921713E+01 0.  0.
         12    1    1    2    0    0 -0.12292453599E+02  0.24174554469E+02 -0.35966652144E+02  0.45045683097E+02  0.00000000000E+00 0. -1.
         11    1    3    3    0    0  0.50705396049E+01 -0.13657826959E+02  0.12908924152E+02  0.19465018164E+02  0.51100000000E-03 0. -1.
        -11    1    3    3    0    0  0.67677356124E+01 -0.10798300792E+02  0.21117632607E+02  0.24664953933E+02  0.51100000000E-03 0.  1.
         12    1    3    3    0    0  0.45417838166E+00  0.28157328087E+00  0.19400953849E+01  0.20123448058E+01  0.00000000000E+00 0. -1.
</event>
<event>
 7    1  0.1442665E-008  0.4614232E+02  0.7816164E-02  0.1320468E+00
        -11   -1    0    0    0    0  0.00000000000E+00  0.00000000000E+00  0.45593999997E+02  0.45594000000E+02  0.51100000000E-03 0. -1.
         11   -1    0    0    0    0 -0.00000000000E+00 -0.00000000000E+00 -0.45593999997E+02  0.45594000000E+02  0.51100000000E-03 0.  1.
    9900012    2    1    2    0    0  0.29955860644E+01 -0.44457315535E+02 -0.66096285277E+01  0.46142316193E+02  0.99999856967E+01 0.  0.
         12    1    1    2    0    0 -0.29955860644E+01  0.44457315535E+02  0.66096285277E+01  0.45045683807E+02  0.00000000000E+00 0. -1.
         11    1    3    3    0    0 -0.33380889583E+01 -0.95164601694E+01 -0.13203104765E+01  0.10170991695E+02  0.51100000000E-03 0. -1.
        -11    1    3    3    0    0  0.30015721377E+01 -0.13496757310E+02 -0.11086685522E+01  0.13870870174E+02  0.51100000000E-03 0.  1.
        -12    1    3    3    0    0  0.33321028849E+01 -0.21444098055E+02 -0.41806494990E+01  0.22100454323E+02  0.00000000000E+00 0.  1.
</event>
<event>
 7    1  0.1442665E-008  0.4614232E+02  0.7816164E-02  0.1320468E+00
        -11   -1    0    0    0    0  0.00000000000E+00  0.00000000000E+00  0.45593999997E+02  0.45594000000E+02  0.51100000000E-03 0. -1.
         11   -1    0    0    0    0 -0.00000000000E+00 -0.00000000000E+00 -0.45593999997E+02  0.45594000000E+02  0.51100000000E-03 0.  1.
    9900012    2    1    2    0    0  0.42099398128E+02  0.14445784751E+02 -0.69334881668E+01  0.46142320096E+02  0.10000021292E+02 0.  0.
         12    1    1    2    0    0 -0.42099398128E+02 -0.14445784751E+02  0.69334881668E+01  0.45045679904E+02  0.00000000000E+00 0. -1.
         11    1    3    3    0    0  0.13414663246E+02  0.52115274163E+01 -0.53093341093E+01  0.15339564432E+02  0.51100000000E-03 0. -1.
        -11    1    3    3    0    0  0.22264958137E+02  0.61439860876E+01  0.12244792163E+01  0.23129554157E+02  0.51100000000E-03 0.  1.
        -12    1    3    3    0    0  0.64197767455E+01  0.30902712476E+01 -0.28486332738E+01  0.76732015075E+01  0.00000000000E+00 0.  1.
</event>
<event>
 7    1  0.1442665E-008  0.4614232E+02  0.7816164E-02  0.1320468E+00
        -11   -1    0    0    0    0  0.00000000000E+00  0.00000000000E+00  0.45593999997E+02  0.45594000000E+02  0.51100000000E-03 0.  1.
         11   -1    0    0    0    0 -0.00000000000E+00 -0.00000000000E+00 -0.45593999997E+02  0.45594000000E+02  0.51100000000E-03 0. -1.
    9900012    2    1    2    0    0 -0.25513940887E+02  0.17960287393E+02  0.32489695972E+02  0.46142318218E+02  0.10000004165E+02 0.  0.
         12    1    1    2    0    0  0.25513940887E+02 -0.17960287393E+02 -0.32489695972E+02  0.45045681782E+02  0.00000000000E+00 0. -1.
         11    1    3    3    0    0 -0.13414148066E+02  0.87196859485E+01  0.15807426515E+02  0.22491043210E+02  0.51100000000E-03 0. -1.
        -11    1    3    3    0    0 -0.12282677588E+02  0.93684171613E+01  0.17181243626E+02  0.23104686573E+02  0.51100000000E-03 0.  1.
         12    1    3    3    0    0  0.18288476717E+00 -0.12781571698E+00 -0.49897416894E+00  0.54658843460E+00  0.00000000000E+00 0. -1.
</event>
<event>
 7    1  0.1442665E-008  0.4614232E+02  0.7816164E-02  0.1320468E+00
        -11   -1    0    0    0    0  0.00000000000E+00  0.00000000000E+00  0.45593999997E+02  0.45594000000E+02  0.51100000000E-03 0.  1.
         11   -1    0    0    0    0 -0.00000000000E+00 -0.00000000000E+00 -0.45593999997E+02  0.45594000000E+02  0.51100000000E-03 0. -1.
    9900012    2    1    2    0    0 -0.24187553902E+02 -0.37121495957E+02  0.81283583833E+01  0.46142318344E+02  0.10000005317E+02 0.  0.
         12    1    1    2    0    0  0.24187553902E+02  0.37121495957E+02 -0.81283583833E+01  0.45045681656E+02  0.00000000000E+00 0. -1.
         11    1    3    3    0    0  0.41506498032E+00 -0.10110280317E+01  0.13856695304E+01  0.17648050678E+01  0.51100000000E-03 0. -1.
        -11    1    3    3    0    0 -0.20499145111E+02 -0.27310980207E+02  0.49780808862E+01  0.34509214417E+02  0.51100000000E-03 0.  1.
        -12    1    3    3    0    0 -0.41034737716E+01 -0.87994877182E+01  0.17646079666E+01  0.98682988591E+01  0.00000000000E+00 0.  1.
</event>
<event>
 7    1  0.1442665E-008  0.4614232E+02  0.7816164E-02  0.1320468E+00
        -11   -1    0    0    0    0  0.00000000000E+00  0.00000000000E+00  0.45593999997E+02  0.45594000000E+02  0.51100000000E-03 0. -1.
         11   -1    0    0    0    0 -0.00000000000E+00 -0.00000000000E+00 -0.45593999997E+02  0.45594000000E+02  0.51100000000E-03 0.  1.
    9900012    2    1    2    0    0  0.30252720613E+02 -0.33171950643E+02  0.36753450216E+01  0.46142316799E+02  0.99999912288E+01 0.  0.
         12    1    1    2    0    0 -0.30252720613E+02  0.33171950643E+02 -0.36753450216E+01  0.45045683201E+02  0.00000000000E+00 0. -1.
         11    1    3    3    0    0  0.96840662001E+01 -0.83459345715E+01  0.31380358245E+01  0.13163701270E+02  0.51100000000E-03 0. -1.
        -11    1    3    3    0    0  0.17456870437E+02 -0.21947817828E+02  0.27834496144E+01  0.28181494369E+02  0.51100000000E-03 0.  1.
        -12    1    3    3    0    0  0.31117839763E+01 -0.28781982439E+01 -0.22461404173E+01  0.47971211597E+01  0.00000000000E+00 0.  1.
</event>
<event>
 7    1  0.1442665E-008  0.4614232E+02  0.7816164E-02  0.1320468E+00
        -11   -1    0    0    0    0  0.00000000000E+00  0.00000000000E+00  0.45593999997E+02  0.45594000000E+02  0.51100000000E-03 0.  1.
         11   -1    0    0    0    0 -0.00000000000E+00 -0.00000000000E+00 -0.45593999997E+02  0.45594000000E+02  0.51100000000E-03 0. -1.
    9900012    2    1    2    0    0  0.20647710687E+02  0.18996563241E+02  0.35240829900E+02  0.46142318036E+02  0.10000002506E+02 0.  0.
         12    1    1    2    0    0 -0.20647710687E+02 -0.18996563241E+02 -0.35240829900E+02  0.45045681964E+02  0.00000000000E+00 0. -1.
         11    1    3    3    0    0 -0.10986182211E+00  0.13146212344E+01  0.44893005790E+00  0.13934981406E+01  0.51100000000E-03 0. -1.
        -11    1    3    3    0    0  0.15292494448E+01 -0.51650241296E+00  0.14125865243E+01  0.21449427864E+01  0.51100000000E-03 0.  1.
        -12    1    3    3    0    0  0.19228323064E+02  0.18198444419E+02  0.33379313318E+02  0.42603877109E+02  0.00000000000E+00 0.  1.
</event>
<event>
 7    1  0.1442665E-008  0.4614232E+02  0.7816164E-02  0.1320468E+00
        -11   -1    0    0    0    0  0.00000000000E+00  0.00000000000E+00  0.45593999997E+02  0.45594000000E+02  0.51100000000E-03 0. -1.
         11   -1    0    0    0    0 -0.00000000000E+00 -0.00000000000E+00 -0.45593999997E+02  0.45594000000E+02  0.51100000000E-03 0.  1.
    9900012    2    1    2    0    0  0.15218577696E+01  0.36820226103E+02 -0.25904986619E+02  0.46142318375E+02  0.10000005596E+02 0.  0.
         12    1    1    2    0    0 -0.15218577696E+01 -0.36820226103E+02  0.25904986619E+02  0.45045681625E+02  0.00000000000E+00 0. -1.
         11    1    3    3    0    0  0.35571057166E+01  0.64339146611E+01 -0.33646862697E+01  0.80851328313E+01  0.51100000000E-03 0. -1.
        -11    1    3    3    0    0  0.75939266910E+00  0.12397952271E+02 -0.82086233939E+01  0.14888498783E+02  0.51100000000E-03 0.  1.
         12    1    3    3    0    0 -0.27946406161E+01  0.17988359171E+02 -0.14331676955E+02  0.23168686760E+02  0.00000000000E+00 0. -1.
</event>
<event>
 7    1  0.1442665E-008  0.4614232E+02  0.7816164E-02  0.1320468E+00
        -11   -1    0    0    0    0  0.00000000000E+00  0.00000000000E+00  0.45593999997E+02  0.45594000000E+02  0.51100000000E-03 0.  1.
         11   -1    0    0    0    0 -0.00000000000E+00 -0.00000000000E+00 -0.45593999997E+02  0.45594000000E+02  0.51100000000E-03 0. -1.
    9900012    2    1    2    0    0 -0.17640798983E+02 -0.90569031729E+01  0.40446114806E+02  0.46142317779E+02  0.10000000160E+02 0.  0.
         12    1    1    2    0    0  0.17640798983E+02  0.90569031729E+01 -0.40446114806E+02  0.45045682221E+02  0.00000000000E+00 0. -1.
         11    1    3    3    0    0 -0.20351165499E+01 -0.93348433002E+00  0.80506578496E+00  0.23793325840E+01  0.51100000000E-03 0. -1.
        -11    1    3    3    0    0 -0.45553402753E+01 -0.51294055619E+01  0.11629753417E+02  0.13502336510E+02  0.51100000000E-03 0.  1.
         12    1    3    3    0    0 -0.11050342158E+02 -0.29940132811E+01  0.28011295604E+02  0.30260648684E+02  0.00000000000E+00 0. -1.
</event>
<event>
 7    1  0.1442665E-008  0.4614232E+02  0.7816164E-02  0.1320468E+00
        -11   -1    0    0    0    0  0.00000000000E+00  0.00000000000E+00  0.45593999997E+02  0.45594000000E+02  0.51100000000E-03 0.  1.
         11   -1    0    0    0    0 -0.00000000000E+00 -0.00000000000E+00 -0.45593999997E+02  0.45594000000E+02  0.51100000000E-03 0. -1.
    9900012    2    1    2    0    0  0.91366439420E+01 -0.26132619812E+02  0.35534788201E+02  0.46142320371E+02  0.10000023798E+02 0.  0.
         12    1    1    2    0    0 -0.91366439420E+01  0.26132619812E+02 -0.35534788201E+02  0.45045679629E+02  0.00000000000E+00 0. -1.
         11    1    3    3    0    0  0.49069580989E+01 -0.34504620866E+01  0.73908723090E+01  0.95188717894E+01  0.51100000000E-03 0. -1.
        -11    1    3    3    0    0  0.38440272413E+01 -0.12412087399E+02  0.13544078930E+02  0.18769084510E+02  0.51100000000E-03 0.  1.
        -12    1    3    3    0    0  0.38565860183E+00 -0.10270070326E+02  0.14599836962E+02  0.17854364071E+02  0.00000000000E+00 0.  1.
</event>
<event>
 7    1  0.1442665E-008  0.4614232E+02  0.7816164E-02  0.1320468E+00
        -11   -1    0    0    0    0  0.00000000000E+00  0.00000000000E+00  0.45593999997E+02  0.45594000000E+02  0.51100000000E-03 0.  1.
         11   -1    0    0    0    0 -0.00000000000E+00 -0.00000000000E+00 -0.45593999997E+02  0.45594000000E+02  0.51100000000E-03 0. -1.
    9900012    2    1    2    0    0 -0.11910687809E+02 -0.40985274703E+02  0.14403342453E+02  0.46142317628E+02  0.99999987836E+01 0.  0.
         12    1    1    2    0    0  0.11910687809E+02  0.40985274703E+02 -0.14403342453E+02  0.45045682372E+02  0.00000000000E+00 0. -1.
         11    1    3    3    0    0 -0.12139193597E+01 -0.18216070119E+02  0.63640375937E+01  0.19333902492E+02  0.51100000000E-03 0. -1.
        -11    1    3    3    0    0 -0.10234876344E+02 -0.17413246713E+02  0.62874536047E+01  0.21154335914E+02  0.51100000000E-03 0.  1.
        -12    1    3    3    0    0 -0.46189210501E+00 -0.53559578710E+01  0.17518512550E+01  0.56540792223E+01  0.00000000000E+00 0.  1.
</event>
<event>
 7    1  0.1442665E-008  0.4614232E+02  0.7816164E-02  0.1320468E+00
        -11   -1    0    0    0    0  0.00000000000E+00  0.00000000000E+00  0.45593999997E+02  0.45594000000E+02  0.51100000000E-03 0.  1.
         11   -1    0    0    0    0 -0.00000000000E+00 -0.00000000000E+00 -0.45593999997E+02  0.45594000000E+02  0.51100000000E-03 0. -1.
    9900012    2    1    2    0    0 -0.36369405602E+02  0.96711956109E+01  0.24755762713E+02  0.46142317900E+02  0.10000001267E+02 0.  0.
         12    1    1    2    0    0  0.36369405602E+02 -0.96711956109E+01 -0.24755762713E+02  0.45045682100E+02  0.00000000000E+00 0. -1.
         11    1    3    3    0    0 -0.46315331966E+00 -0.10916854662E-01  0.19861573059E+01  0.20394732850E+01  0.51100000000E-03 0. -1.
        -11    1    3    3    0    0 -0.80023580645E+00  0.92976098105E+00  0.21061030745E+01  0.24373147621E+01  0.51100000000E-03 0.  1.
        -12    1    3    3    0    0 -0.35106016476E+02  0.87523514845E+01  0.20663502332E+02  0.41665529853E+02  0.00000000000E+00 0.  1.
</event>
<event>
 7    1  0.1442665E-008  0.4614232E+02  0.7816164E-02  0.1320468E+00
        -11   -1    0    0    0    0  0.00000000000E+00  0.00000000000E+00  0.45593999997E+02  0.45594000000E+02  0.51100000000E-03 0.  1.
         11   -1    0    0    0    0 -0.00000000000E+00 -0.00000000000E+00 -0.45593999997E+02  0.45594000000E+02  0.51100000000E-03 0. -1.
    9900012    2    1    2    0    0 -0.84759902975E+01  0.31955300759E+02  0.30596238312E+02  0.46142318110E+02  0.10000003180E+02 0.  0.
         12    1    1    2    0    0  0.84759902975E+01 -0.31955300759E+02 -0.30596238312E+02  0.45045681890E+02  0.00000000000E+00 0. -1.
         11    1    3    3    0    0 -0.62971782500E+00  0.20714763739E+01 -0.13773982470E+00  0.21694541773E+01  0.51100000000E-03 0. -1.
        -11    1    3    3    0    0 -0.26887519266E+01  0.20797454077E+02  0.21413323521E+02  0.29971551637E+02  0.51100000000E-03 0.  1.
        -12    1    3    3    0    0 -0.51575205459E+01  0.90863703078E+01  0.93206546153E+01  0.14001312296E+02  0.00000000000E+00 0.  1.
</event>
<event>
 7    1  0.1442665E-008  0.4614233E+02  0.7816164E-02  0.1320468E+00
        -11   -1    0    0    0    0  0.00000000000E+00  0.00000000000E+00  0.45593999997E+02  0.45594000000E+02  0.51100000000E-03 0.  1.
         11   -1    0    0    0    0 -0.00000000000E+00 -0.00000000000E+00 -0.45593999997E+02  0.45594000000E+02  0.51100000000E-03 0. -1.
    9900012    2    1    2    0    0 -0.83000161367E+01  0.38976000826E+02  0.21002226768E+02  0.46142329426E+02  0.10000106369E+02 0.  0.
         12    1    1    2    0    0  0.83000161367E+01 -0.38976000826E+02 -0.21002226768E+02  0.45045670574E+02  0.00000000000E+00 0. -1.
         11    1    3    3    0    0  0.87358772164E+00  0.12980410959E+01  0.28919268923E+01  0.32880552924E+01  0.51100000000E-03 0. -1.
        -11    1    3    3    0    0 -0.63639245956E-01  0.10846737652E+01  0.19142496822E+00  0.11032728177E+01  0.51100000000E-03 0.  1.
         12    1    3    3    0    0 -0.91099646124E+01  0.36593285965E+02  0.17918874907E+02  0.41751001316E+02  0.00000000000E+00 0. -1.
</event>
<event>
 7    1  0.1442665E-008  0.4614232E+02  0.7816164E-02  0.1320468E+00
        -11   -1    0    0    0    0  0.00000000000E+00  0.00000000000E+00  0.45593999997E+02  0.45594000000E+02  0.51100000000E-03 0. -1.
         11   -1    0    0    0    0 -0.00000000000E+00 -0.00000000000E+00 -0.45593999997E+02  0.45594000000E+02  0.51100000000E-03 0.  1.
    9900012    2    1    2    0    0  0.17947365111E+02 -0.31237144829E+02 -0.27041562886E+02  0.46142320353E+02  0.10000023638E+02 0.  0.
         12    1    1    2    0    0 -0.17947365111E+02  0.31237144829E+02  0.27041562886E+02  0.45045679647E+02  0.00000000000E+00 0. -1.
         11    1    3    3    0    0  0.11424865057E+02 -0.24316051110E+02 -0.15604555652E+02  0.31069278081E+02  0.51100000000E-03 0. -1.
        -11    1    3    3    0    0  0.32225529466E+01 -0.51312295151E+01 -0.72842126601E+01  0.94749204835E+01  0.51100000000E-03 0.  1.
         12    1    3    3    0    0  0.32999471074E+01 -0.17898642042E+01 -0.41527945743E+01  0.55981217884E+01  0.00000000000E+00 0. -1.
</event>
<event>
 7    1  0.1442665E-008  0.4614232E+02  0.7816164E-02  0.1320468E+00
        -11   -1    0    0    0    0  0.00000000000E+00  0.00000000000E+00  0.45593999997E+02  0.45594000000E+02  0.51100000000E-03 0.  1.
         11   -1    0    0    0    0 -0.00000000000E+00 -0.00000000000E+00 -0.45593999997E+02  0.45594000000E+02  0.51100000000E-03 0. -1.
    9900012    2    1    2    0    0 -0.19324925746E+02 -0.89808379821E+01  0.39686337607E+02  0.46142316538E+02  0.99999888452E+01 0.  0.
         12    1    1    2    0    0  0.19324925746E+02  0.89808379821E+01 -0.39686337607E+02  0.45045683462E+02  0.00000000000E+00 0. -1.
         11    1    3    3    0    0  0.10294918380E+01 -0.46957470963E+00  0.22966947832E+01  0.25603048726E+01  0.51100000000E-03 0. -1.
        -11    1    3    3    0    0 -0.17212620437E+02 -0.75013969035E+01  0.28797671411E+02  0.34378061853E+02  0.51100000000E-03 0.  1.
         12    1    3    3    0    0 -0.31417971473E+01 -0.10098663689E+01  0.85919714124E+01  0.92039498125E+01  0.00000000000E+00 0. -1.
</event>
<event>
 7    1  0.1442665E-008  0.4614232E+02  0.7816164E-02  0.1320468E+00
        -11   -1    0    0    0    0  0.00000000000E+00  0.00000000000E+00  0.45593999997E+02  0.45594000000E+02  0.51100000000E-03 0.  1.
         11   -1    0    0    0    0 -0.00000000000E+00 -0.00000000000E+00 -0.45593999997E+02  0.45594000000E+02  0.51100000000E-03 0. -1.
    9900012    2    1    2    0    0  0.24031165719E+02 -0.38009841326E+02 -0.26207932112E+01  0.46142317405E+02  0.99999967496E+01 0.  0.
         12    1    1    2    0    0 -0.24031165719E+02  0.38009841326E+02  0.26207932112E+01  0.45045682595E+02  0.00000000000E+00 0. -1.
         11    1    3    3    0    0  0.99134190284E+00 -0.19561135595E+01  0.21362564591E+01  0.30614916211E+01  0.51100000000E-03 0. -1.
        -11    1    3    3    0    0  0.18762397432E+02 -0.30369207100E+02 -0.42285462632E+01  0.35947140374E+02  0.51100000000E-03 0.  1.
         12    1    3    3    0    0  0.42774263840E+01 -0.56845206664E+01 -0.52850340704E+00  0.71336854100E+01  0.00000000000E+00 0. -1.
</event>
<event>
 7    1  0.1442665E-008  0.4614232E+02  0.7816164E-02  0.1320468E+00
        -11   -1    0    0    0    0  0.00000000000E+00  0.00000000000E+00  0.45593999997E+02  0.45594000000E+02  0.51100000000E-03 0. -1.
         11   -1    0    0    0    0 -0.00000000000E+00 -0.00000000000E+00 -0.45593999997E+02  0.45594000000E+02  0.51100000000E-03 0.  1.
    9900012    2    1    2    0    0 -0.23725044534E+02 -0.38006993141E+02  0.46587874819E+01  0.46142316894E+02  0.99999920896E+01 0.  0.
         12    1    1    2    0    0  0.23725044534E+02  0.38006993141E+02 -0.46587874819E+01  0.45045683106E+02  0.00000000000E+00 0. -1.
         11    1    3    3    0    0 -0.77924024154E+01 -0.13966342400E+02  0.46655264873E+01  0.16659753692E+02  0.51100000000E-03 0.  1.
        -11    1    3    3    0    0 -0.13425849284E+02 -0.15210207833E+02  0.43342396856E+00  0.20292651574E+02  0.51100000000E-03 0. -1.
         12    1    3    3    0    0 -0.25067928342E+01 -0.88304429081E+01 -0.44016297398E+00  0.91899116269E+01  0.00000000000E+00 0. -1.
</event>
<event>
 7    1  0.1442665E-008  0.4614232E+02  0.7816164E-02  0.1320468E+00
        -11   -1    0    0    0    0  0.00000000000E+00  0.00000000000E+00  0.45593999997E+02  0.45594000000E+02  0.51100000000E-03 0. -1.
         11   -1    0    0    0    0 -0.00000000000E+00 -0.00000000000E+00 -0.45593999997E+02  0.45594000000E+02  0.51100000000E-03 0.  1.
    9900012    2    1    2    0    0 -0.50065308272E+01  0.26515401513E+01 -0.44688001149E+02  0.46142318045E+02  0.10000002587E+02 0.  0.
         12    1    1    2    0    0  0.50065308272E+01 -0.26515401513E+01  0.44688001149E+02  0.45045681955E+02  0.00000000000E+00 0. -1.
         11    1    3    3    0    0 -0.48476091366E+00  0.39746988361E+01 -0.12392888848E+02  0.13023706010E+02  0.51100000000E-03 0. -1.
        -11    1    3    3    0    0 -0.70404781880E+00  0.15832367758E+00 -0.22373099794E+02  0.22384734628E+02  0.51100000000E-03 0.  1.
        -12    1    3    3    0    0 -0.38177220948E+01 -0.14814823624E+01 -0.99220125071E+01  0.10733877406E+02  0.00000000000E+00 0.  1.
</event>
<event>
 7    1  0.1442665E-008  0.4614232E+02  0.7816164E-02  0.1320468E+00
        -11   -1    0    0    0    0  0.00000000000E+00  0.00000000000E+00  0.45593999997E+02  0.45594000000E+02  0.51100000000E-03 0. -1.
         11   -1    0    0    0    0 -0.00000000000E+00 -0.00000000000E+00 -0.45593999997E+02  0.45594000000E+02  0.51100000000E-03 0.  1.
    9900012    2    1    2    0    0 -0.30104930914E+02  0.25903216194E-01 -0.33508296839E+02  0.46142317705E+02  0.99999994926E+01 0.  0.
         12    1    1    2    0    0  0.30104930914E+02 -0.25903216194E-01  0.33508296839E+02  0.45045682295E+02  0.00000000000E+00 0. -1.
         11    1    3    3    0    0 -0.21503133507E+02 -0.40236324887E+01 -0.22012653738E+02  0.31034356669E+02  0.51100000000E-03 0. -1.
        -11    1    3    3    0    0 -0.42063211093E+01  0.15436374592E+01 -0.71519616411E+01  0.84395799337E+01  0.51100000000E-03 0.  1.
        -12    1    3    3    0    0 -0.43954762984E+01  0.25058982457E+01 -0.43436814597E+01  0.66683811027E+01  0.00000000000E+00 0.  1.
</event>
<event>
 7    1  0.1442665E-008  0.4614232E+02  0.7816164E-02  0.1320468E+00
        -11   -1    0    0    0    0  0.00000000000E+00  0.00000000000E+00  0.45593999997E+02  0.45594000000E+02  0.51100000000E-03 0.  1.
         11   -1    0    0    0    0 -0.00000000000E+00 -0.00000000000E+00 -0.45593999997E+02  0.45594000000E+02  0.51100000000E-03 0. -1.
    9900012    2    1    2    0    0 -0.28260148103E+02 -0.18523488295E+02  0.29788552873E+02  0.46142317946E+02  0.10000001687E+02 0.  0.
         12    1    1    2    0    0  0.28260148103E+02  0.18523488295E+02 -0.29788552873E+02  0.45045682054E+02  0.00000000000E+00 0. -1.
         11    1    3    3    0    0 -0.81264615618E+01 -0.42463127836E+01  0.13285016537E+02  0.16141939612E+02  0.51100000000E-03 0. -1.
        -11    1    3    3    0    0 -0.64013873489E+01 -0.32814354522E+01  0.68523068322E+01  0.99347716532E+01  0.51100000000E-03 0.  1.
         12    1    3    3    0    0 -0.13732299192E+02 -0.10995740059E+02  0.96512295041E+01  0.20065606681E+02  0.00000000000E+00 0. -1.
</event>
<event>
 7    1  0.1442665E-008  0.4614232E+02  0.7816164E-02  0.1320468E+00
        -11   -1    0    0    0    0  0.00000000000E+00  0.00000000000E+00  0.45593999997E+02  0.45594000000E+02  0.51100000000E-03 0. -1.
         11   -1    0    0    0    0 -0.00000000000E+00 -0.00000000000E+00 -0.45593999997E+02  0.45594000000E+02  0.51100000000E-03 0.  1.
    9900012    2    1    2    0    0  0.16689837585E+02  0.41765601069E+02 -0.24893940583E+01  0.46142321028E+02  0.10000029786E+02 0.  0.
         12    1    1    2    0    0 -0.16689837585E+02 -0.41765601069E+02  0.24893940583E+01  0.45045678972E+02  0.00000000000E+00 0. -1.
         11    1    3    3    0    0  0.11030179100E+02  0.25134357759E+02  0.14880577893E+01  0.27488454070E+02  0.51100000000E-03 0. -1.
        -11    1    3    3    0    0 -0.85379563033E-01  0.70644130652E+01 -0.16201010838E+01  0.72483066580E+01  0.51100000000E-03 0.  1.
        -12    1    3    3    0    0  0.57450380477E+01  0.95668302456E+01 -0.23573507638E+01  0.11405560299E+02  0.00000000000E+00 0.  1.
</event>
<event>
 7    1  0.1442665E-008  0.4614232E+02  0.7816164E-02  0.1320468E+00
        -11   -1    0    0    0    0  0.00000000000E+00  0.00000000000E+00  0.45593999997E+02  0.45594000000E+02  0.51100000000E-03 0.  1.
         11   -1    0    0    0    0 -0.00000000000E+00 -0.00000000000E+00 -0.45593999997E+02  0.45594000000E+02  0.51100000000E-03 0. -1.
    9900012    2    1    2    0    0  0.11706623724E+02  0.42816960963E+02  0.76665614644E+01  0.46142319299E+02  0.10000014025E+02 0.  0.
         12    1    1    2    0    0 -0.11706623724E+02 -0.42816960963E+02 -0.76665614644E+01  0.45045680701E+02  0.00000000000E+00 0. -1.
         11    1    3    3    0    0  0.60210953951E+01  0.21921683443E+02  0.25758630291E+01  0.22879004902E+02  0.51100000000E-03 0. -1.
        -11    1    3    3    0    0 -0.79909331497E+00  0.76482038996E+01  0.92640711779E-01  0.76903937206E+01  0.51100000000E-03 0.  1.
         12    1    3    3    0    0  0.64846216438E+01  0.13247073621E+02  0.49980577235E+01  0.15572920676E+02  0.00000000000E+00 0. -1.
</event>
<event>
 7    1  0.1442665E-008  0.4614232E+02  0.7816164E-02  0.1320468E+00
        -11   -1    0    0    0    0  0.00000000000E+00  0.00000000000E+00  0.45593999997E+02  0.45594000000E+02  0.51100000000E-03 0.  1.
         11   -1    0    0    0    0 -0.00000000000E+00 -0.00000000000E+00 -0.45593999997E+02  0.45594000000E+02  0.51100000000E-03 0. -1.
    9900012    2    1    2    0    0  0.14866310132E+02  0.24832284701E+02  0.34517587716E+02  0.46142318717E+02  0.10000008721E+02 0.  0.
         12    1    1    2    0    0 -0.14866310132E+02 -0.24832284701E+02 -0.34517587716E+02  0.45045681283E+02  0.00000000000E+00 0. -1.
         11    1    3    3    0    0  0.56826289773E+01  0.47616588489E+01  0.12354349301E+02  0.14408178719E+02  0.51100000000E-03 0. -1.
        -11    1    3    3    0    0  0.25984758146E+01  0.91558261439E+01  0.64347521056E+01  0.11488571010E+02  0.51100000000E-03 0.  1.
         12    1    3    3    0    0  0.65852053404E+01  0.10914799709E+02  0.15728486309E+02  0.20245568988E+02  0.00000000000E+00 0. -1.
</event>
<event>
 7    1  0.1442665E-008  0.4614232E+02  0.7816164E-02  0.1320468E+00
        -11   -1    0    0    0    0  0.00000000000E+00  0.00000000000E+00  0.45593999997E+02  0.45594000000E+02  0.51100000000E-03 0.  1.
         11   -1    0    0    0    0 -0.00000000000E+00 -0.00000000000E+00 -0.45593999997E+02  0.45594000000E+02  0.51100000000E-03 0. -1.
    9900012    2    1    2    0    0  0.32236634776E+02  0.10188452570E+02  0.29767571909E+02  0.46142317357E+02  0.99999963137E+01 0.  0.
         12    1    1    2    0    0 -0.32236634776E+02 -0.10188452570E+02 -0.29767571909E+02  0.45045682643E+02  0.00000000000E+00 0. -1.
         11    1    3    3    0    0  0.36221060394E+00 -0.41100288521E+00  0.23324793890E+01  0.23959508038E+01  0.51100000000E-03 0. -1.
        -11    1    3    3    0    0  0.26366793295E+02  0.10960335799E+02  0.22880716832E+02  0.36590489919E+02  0.51100000000E-03 0.  1.
        -12    1    3    3    0    0  0.55076308767E+01 -0.36088034401E+00  0.45543756879E+01  0.71558766341E+01  0.00000000000E+00 0.  1.
</event>
<event>
 7    1  0.1442665E-008  0.4614232E+02  0.7816164E-02  0.1320468E+00
        -11   -1    0    0    0    0  0.00000000000E+00  0.00000000000E+00  0.45593999997E+02  0.45594000000E+02  0.51100000000E-03 0.  1.
         11   -1    0    0    0    0 -0.00000000000E+00 -0.00000000000E+00 -0.45593999997E+02  0.45594000000E+02  0.51100000000E-03 0. -1.
    9900012    2    1    2    0    0  0.13893334030E+02 -0.97154281740E+01  0.41733669217E+02  0.46142318505E+02  0.10000006780E+02 0.  0.
         12    1    1    2    0    0 -0.13893334030E+02  0.97154281740E+01 -0.41733669217E+02  0.45045681495E+02  0.00000000000E+00 0. -1.
         11    1    3    3    0    0  0.96582365342E-02  0.55066399382E+00  0.40640601800E+01  0.41012083004E+01  0.51100000000E-03 0. -1.
        -11    1    3    3    0    0  0.14164914063E+02 -0.93951068948E+01  0.31402862861E+02  0.35707878964E+02  0.51100000000E-03 0.  1.
        -12    1    3    3    0    0 -0.28123826910E+00 -0.87098527301E+00  0.62667461762E+01  0.63332312406E+01  0.00000000000E+00 0.  1.
</event>
<event>
 7    1  0.1442665E-008  0.4614232E+02  0.7816164E-02  0.1320468E+00
        -11   -1    0    0    0    0  0.00000000000E+00  0.00000000000E+00  0.45593999997E+02  0.45594000000E+02  0.51100000000E-03 0.  1.
         11   -1    0    0    0    0 -0.00000000000E+00 -0.00000000000E+00 -0.45593999997E+02  0.45594000000E+02  0.51100000000E-03 0. -1.
    9900012    2    1    2    0    0  0.14542235608E+02 -0.34726960778E+02  0.24732066319E+02  0.46142317346E+02  0.99999962117E+01 0.  0.
         12    1    1    2    0    0 -0.14542235608E+02  0.34726960778E+02 -0.24732066319E+02  0.45045682654E+02  0.00000000000E+00 0. -1.
         11    1    3    3    0    0 -0.10000671118E+00  0.10519317196E+00 -0.48503262656E+00  0.50628436244E+00  0.51100000000E-03 0. -1.
        -11    1    3    3    0    0  0.10967191110E+02 -0.27669293046E+02  0.17743277768E+02  0.34651016792E+02  0.51100000000E-03 0.  1.
         12    1    3    3    0    0  0.36750512095E+01 -0.71628609044E+01  0.74738211777E+01  0.10985016191E+02  0.00000000000E+00 0. -1.
</event>
<event>
 7    1  0.1442665E-008  0.4614232E+02  0.7816164E-02  0.1320468E+00
        -11   -1    0    0    0    0  0.00000000000E+00  0.00000000000E+00  0.45593999997E+02  0.45594000000E+02  0.51100000000E-03 0.  1.
         11   -1    0    0    0    0 -0.00000000000E+00 -0.00000000000E+00 -0.45593999997E+02  0.45594000000E+02  0.51100000000E-03 0. -1.
    9900012    2    1    2    0    0 -0.21165268067E+02 -0.13571134770E+02  0.37376051407E+02  0.46142317742E+02  0.99999998283E+01 0.  0.
         12    1    1    2    0    0  0.21165268067E+02  0.13571134770E+02 -0.37376051407E+02  0.45045682258E+02  0.00000000000E+00 0. -1.
         11    1    3    3    0    0 -0.56043436178E+01 -0.89848873327E+00  0.33851486613E+01  0.66087200811E+01  0.51100000000E-03 0. -1.
        -11    1    3    3    0    0 -0.12277074803E+02 -0.89462684917E+01  0.24669084615E+02  0.28971123928E+02  0.51100000000E-03 0.  1.
         12    1    3    3    0    0 -0.32838496462E+01 -0.37263775445E+01  0.93218181307E+01  0.10562473733E+02  0.00000000000E+00 0. -1.
</event>
<event>
 7    1  0.1442665E-008  0.4614232E+02  0.7816164E-02  0.1320468E+00
        -11   -1    0    0    0    0  0.00000000000E+00  0.00000000000E+00  0.45593999997E+02  0.45594000000E+02  0.51100000000E-03 0.  1.
         11   -1    0    0    0    0 -0.00000000000E+00 -0.00000000000E+00 -0.45593999997E+02  0.45594000000E+02  0.51100000000E-03 0. -1.
    9900012    2    1    2    0    0  0.28395906041E+02 -0.16673651772E+00  0.34967959187E+02  0.46142318180E+02  0.10000003821E+02 0.  0.
         12    1    1    2    0    0 -0.28395906041E+02  0.16673651772E+00 -0.34967959187E+02  0.45045681820E+02  0.00000000000E+00 0. -1.
         11    1    3    3    0    0  0.22469452405E+02 -0.15062222963E+01  0.32452242788E+02  0.39500545050E+02  0.51100000000E-03 0.  1.
        -11    1    3    3    0    0  0.96368149230E+00  0.51928599281E+00  0.23923888370E+00  0.11205246385E+01  0.51100000000E-03 0. -1.
         12    1    3    3    0    0  0.49627721432E+01  0.82019978577E+00  0.22764775151E+01  0.55212484920E+01  0.00000000000E+00 0. -1.
</event>
<event>
 7    1  0.1442665E-008  0.4614232E+02  0.7816164E-02  0.1320468E+00
        -11   -1    0    0    0    0  0.00000000000E+00  0.00000000000E+00  0.45593999997E+02  0.45594000000E+02  0.51100000000E-03 0.  1.
         11   -1    0    0    0    0 -0.00000000000E+00 -0.00000000000E+00 -0.45593999997E+02  0.45594000000E+02  0.51100000000E-03 0. -1.
    9900012    2    1    2    0    0  0.15501663852E+01 -0.38740016847E+02  0.22932967443E+02  0.46142324104E+02  0.10000057842E+02 0.  0.
         12    1    1    2    0    0 -0.15501663852E+01  0.38740016847E+02 -0.22932967443E+02  0.45045675896E+02  0.00000000000E+00 0. -1.
         11    1    3    3    0    0 -0.83305165737E+00 -0.62206205290E+00 -0.11076200060E+00  0.10455643182E+01  0.51100000000E-03 0. -1.
        -11    1    3    3    0    0  0.45470104851E+00 -0.26591371300E+02  0.12623518389E+02  0.29439106601E+02  0.51100000000E-03 0.  1.
        -12    1    3    3    0    0  0.19285169941E+01 -0.11526583494E+02  0.10420211055E+02  0.15657653185E+02  0.00000000000E+00 0.  1.
</event>
<event>
 7    1  0.1442665E-008  0.4614232E+02  0.7816164E-02  0.1320468E+00
        -11   -1    0    0    0    0  0.00000000000E+00  0.00000000000E+00  0.45593999997E+02  0.45594000000E+02  0.51100000000E-03 0.  1.
         11   -1    0    0    0    0 -0.00000000000E+00 -0.00000000000E+00 -0.45593999997E+02  0.45594000000E+02  0.51100000000E-03 0. -1.
    9900012    2    1    2    0    0  0.34021607334E+02 -0.22982810787E+02  0.18531974587E+02  0.46142318305E+02  0.10000004960E+02 0.  0.
         12    1    1    2    0    0 -0.34021607334E+02  0.22982810787E+02 -0.18531974587E+02  0.45045681695E+02  0.00000000000E+00 0. -1.
         11    1    3    3    0    0  0.71004064314E+01 -0.24136098431E+01  0.67384463798E+01  0.10082060496E+02  0.51100000000E-03 0. -1.
        -11    1    3    3    0    0  0.24154992952E+02 -0.17326799443E+02  0.11154034471E+02  0.31750498400E+02  0.51100000000E-03 0.  1.
        -12    1    3    3    0    0  0.27662079512E+01 -0.32424015011E+01  0.63949373568E+00  0.43097594088E+01  0.00000000000E+00 0.  1.
</event>
<event>
 7    1  0.1442665E-008  0.4614232E+02  0.7816164E-02  0.1320468E+00
        -11   -1    0    0    0    0  0.00000000000E+00  0.00000000000E+00  0.45593999997E+02  0.45594000000E+02  0.51100000000E-03 0.  1.
         11   -1    0    0    0    0 -0.00000000000E+00 -0.00000000000E+00 -0.45593999997E+02  0.45594000000E+02  0.51100000000E-03 0. -1.
    9900012    2    1    2    0    0  0.30471554175E+02  0.32654413289E+02 -0.58555241787E+01  0.46142317804E+02  0.10000000388E+02 0.  0.
         12    1    1    2    0    0 -0.30471554175E+02 -0.32654413289E+02  0.58555241787E+01  0.45045682196E+02  0.00000000000E+00 0. -1.
         11    1    3    3    0    0  0.15024021243E+02  0.16701466351E+02 -0.41107889055E+01  0.22837661401E+02  0.51100000000E-03 0. -1.
        -11    1    3    3    0    0  0.11554375028E+02  0.86055694897E+01  0.12633079173E+01  0.14462204385E+02  0.51100000000E-03 0.  1.
        -12    1    3    3    0    0  0.38931579045E+01  0.73473774484E+01 -0.30080431905E+01  0.88424520171E+01  0.00000000000E+00 0.  1.
</event>
<event>
 7    1  0.1442665E-008  0.4614232E+02  0.7816164E-02  0.1320468E+00
        -11   -1    0    0    0    0  0.00000000000E+00  0.00000000000E+00  0.45593999997E+02  0.45594000000E+02  0.51100000000E-03 0. -1.
         11   -1    0    0    0    0 -0.00000000000E+00 -0.00000000000E+00 -0.45593999997E+02  0.45594000000E+02  0.51100000000E-03 0.  1.
    9900012    2    1    2    0    0 -0.32599250748E+02 -0.10171926005E+02 -0.29375742962E+02  0.46142317604E+02  0.99999985628E+01 0.  0.
         12    1    1    2    0    0  0.32599250748E+02  0.10171926005E+02  0.29375742962E+02  0.45045682396E+02  0.00000000000E+00 0. -1.
         11    1    3    3    0    0 -0.16147912849E+01  0.77421226636E+00 -0.29033496228E+01  0.34112160326E+01  0.51100000000E-03 0. -1.
        -11    1    3    3    0    0 -0.24519166682E+02 -0.57250711227E+01 -0.20934036569E+02  0.32744463066E+02  0.51100000000E-03 0.  1.
         12    1    3    3    0    0 -0.64652927818E+01 -0.52210671485E+01 -0.55383567700E+01  0.99866385053E+01  0.00000000000E+00 0. -1.
</event>
<event>
 7    1  0.1442665E-008  0.4614232E+02  0.7816164E-02  0.1320468E+00
        -11   -1    0    0    0    0  0.00000000000E+00  0.00000000000E+00  0.45593999997E+02  0.45594000000E+02  0.51100000000E-03 0.  1.
         11   -1    0    0    0    0 -0.00000000000E+00 -0.00000000000E+00 -0.45593999997E+02  0.45594000000E+02  0.51100000000E-03 0. -1.
    9900012    2    1    2    0    0 -0.54673183940E+00 -0.31736175397E+01  0.44930421438E+02  0.46142317248E+02  0.99999953197E+01 0.  0.
         12    1    1    2    0    0  0.54673183940E+00  0.31736175397E+01 -0.44930421438E+02  0.45045682752E+02  0.00000000000E+00 0. -1.
         11    1    3    3    0    0  0.35420777415E+01 -0.27263968160E+00  0.11352379917E+02  0.11895258600E+02  0.51100000000E-03 0. -1.
        -11    1    3    3    0    0 -0.45417342026E+01 -0.36275009553E+01  0.27381548137E+02  0.27991700402E+02  0.51100000000E-03 0.  1.
         12    1    3    3    0    0  0.45292462167E+00  0.72652309722E+00  0.61964933836E+01  0.62553582453E+01  0.00000000000E+00 0. -1.
</event>
<event>
 7    1  0.1442665E-008  0.4614232E+02  0.7816164E-02  0.1320468E+00
        -11   -1    0    0    0    0  0.00000000000E+00  0.00000000000E+00  0.45593999997E+02  0.45594000000E+02  0.51100000000E-03 0.  1.
         11   -1    0    0    0    0 -0.00000000000E+00 -0.00000000000E+00 -0.45593999997E+02  0.45594000000E+02  0.51100000000E-03 0. -1.
    9900012    2    1    2    0    0  0.81116937244E+01  0.42227284658E+02  0.13422755862E+02  0.46142317414E+02  0.99999968379E+01 0.  0.
         12    1    1    2    0    0 -0.81116937244E+01 -0.42227284658E+02 -0.13422755862E+02  0.45045682586E+02  0.00000000000E+00 0. -1.
         11    1    3    3    0    0  0.87060464321E+01  0.28062453164E+02  0.10609538055E+02  0.31238739092E+02  0.51100000000E-03 0. -1.
        -11    1    3    3    0    0  0.10714476365E+01  0.60524688763E+01 -0.32531261093E-01  0.61466607259E+01  0.51100000000E-03 0.  1.
         12    1    3    3    0    0 -0.16658003442E+01  0.81123626183E+01  0.28457490685E+01  0.87569175969E+01  0.00000000000E+00 0. -1.
</event>
<event>
 7    1  0.1442665E-008  0.4614232E+02  0.7816164E-02  0.1320468E+00
        -11   -1    0    0    0    0  0.00000000000E+00  0.00000000000E+00  0.45593999997E+02  0.45594000000E+02  0.51100000000E-03 0. -1.
         11   -1    0    0    0    0 -0.00000000000E+00 -0.00000000000E+00 -0.45593999997E+02  0.45594000000E+02  0.51100000000E-03 0.  1.
    9900012    2    1    2    0    0  0.35296854489E+02  0.27831432487E+02 -0.29422684019E+01  0.46142317472E+02  0.99999973626E+01 0.  0.
         12    1    1    2    0    0 -0.35296854489E+02 -0.27831432487E+02  0.29422684019E+01  0.45045682528E+02  0.00000000000E+00 0. -1.
         11    1    3    3    0    0  0.25529473845E+01  0.37043701995E+01  0.11402108128E+01  0.46411183869E+01  0.51100000000E-03 0. -1.
        -11    1    3    3    0    0  0.18803803949E+02  0.97164471921E+01 -0.34212436591E+01  0.21440552638E+02  0.51100000000E-03 0.  1.
        -12    1    3    3    0    0  0.13940103155E+02  0.14410615095E+02 -0.66123555559E+00  0.20060646447E+02  0.00000000000E+00 0.  1.
</event>
<event>
 7    1  0.1442665E-008  0.4614232E+02  0.7816164E-02  0.1320468E+00
        -11   -1    0    0    0    0  0.00000000000E+00  0.00000000000E+00  0.45593999997E+02  0.45594000000E+02  0.51100000000E-03 0. -1.
         11   -1    0    0    0    0 -0.00000000000E+00 -0.00000000000E+00 -0.45593999997E+02  0.45594000000E+02  0.51100000000E-03 0.  1.
    9900012    2    1    2    0    0  0.32125688811E+02 -0.12800255610E+02  0.28865327306E+02  0.46142317124E+02  0.99999941896E+01 0.  0.
         12    1    1    2    0    0 -0.32125688811E+02  0.12800255610E+02 -0.28865327306E+02  0.45045682876E+02  0.00000000000E+00 0. -1.
         11    1    3    3    0    0  0.14558061932E+02 -0.94259021000E+01  0.12357686528E+02  0.21295474031E+02  0.51100000000E-03 0. -1.
        -11    1    3    3    0    0  0.76623089375E+01  0.89326744744E+00  0.79624666938E+01  0.11086468378E+02  0.51100000000E-03 0.  1.
         12    1    3    3    0    0  0.99053179421E+01 -0.42676209574E+01  0.85451740846E+01  0.13760374715E+02  0.00000000000E+00 0. -1.
</event>
<event>
 7    1  0.1442665E-008  0.4614232E+02  0.7816164E-02  0.1320468E+00
        -11   -1    0    0    0    0  0.00000000000E+00  0.00000000000E+00  0.45593999997E+02  0.45594000000E+02  0.51100000000E-03 0.  1.
         11   -1    0    0    0    0 -0.00000000000E+00 -0.00000000000E+00 -0.45593999997E+02  0.45594000000E+02  0.51100000000E-03 0. -1.
    9900012    2    1    2    0    0 -0.24558514453E+02  0.16524167825E+01  0.37726151606E+02  0.46142316207E+02  0.99999858298E+01 0.  0.
         12    1    1    2    0    0  0.24558514453E+02 -0.16524167825E+01 -0.37726151606E+02  0.45045683793E+02  0.00000000000E+00 0. -1.
         11    1    3    3    0    0 -0.68130064551E+01  0.42199037450E+01  0.13510537959E+02  0.15708573480E+02  0.51100000000E-03 0. -1.
        -11    1    3    3    0    0 -0.21500994241E+01  0.10382720149E+01  0.38539041633E+01  0.45335983359E+01  0.51100000000E-03 0.  1.
         12    1    3    3    0    0 -0.15595408574E+02 -0.36057589774E+01  0.20361709484E+02  0.25900144392E+02  0.00000000000E+00 0. -1.
</event>
<event>
 7    1  0.1442665E-008  0.4614232E+02  0.7816164E-02  0.1320468E+00
        -11   -1    0    0    0    0  0.00000000000E+00  0.00000000000E+00  0.45593999997E+02  0.45594000000E+02  0.51100000000E-03 0. -1.
         11   -1    0    0    0    0 -0.00000000000E+00 -0.00000000000E+00 -0.45593999997E+02  0.45594000000E+02  0.51100000000E-03 0.  1.
    9900012    2    1    2    0    0 -0.85084449125E+01  0.17146865618E+02 -0.40776278789E+02  0.46142317108E+02  0.99999940451E+01 0.  0.
         12    1    1    2    0    0  0.85084449125E+01 -0.17146865618E+02  0.40776278789E+02  0.45045682892E+02  0.00000000000E+00 0. -1.
         11    1    3    3    0    0  0.19145326380E+01  0.37663798864E+01 -0.85778034127E+01  0.95618912522E+01  0.51100000000E-03 0. -1.
        -11    1    3    3    0    0 -0.66640484929E+01  0.98502592557E+01 -0.25410368737E+02  0.28055730062E+02  0.51100000000E-03 0.  1.
         12    1    3    3    0    0 -0.37589290576E+01  0.35302264760E+01 -0.67881066391E+01  0.85246957937E+01  0.00000000000E+00 0. -1.
</event>
<event>
 7    1  0.1442665E-008  0.4614232E+02  0.7816164E-02  0.1320468E+00
        -11   -1    0    0    0    0  0.00000000000E+00  0.00000000000E+00  0.45593999997E+02  0.45594000000E+02  0.51100000000E-03 0.  1.
         11   -1    0    0    0    0 -0.00000000000E+00 -0.00000000000E+00 -0.45593999997E+02  0.45594000000E+02  0.51100000000E-03 0. -1.
    9900012    2    1    2    0    0 -0.16465369770E+02 -0.14760048118E+02  0.39244695298E+02  0.46142317287E+02  0.99999956734E+01 0.  0.
         12    1    1    2    0    0  0.16465369770E+02  0.14760048118E+02 -0.39244695298E+02  0.45045682713E+02  0.00000000000E+00 0. -1.
         11    1    3    3    0    0 -0.75210285521E+01 -0.69677850684E+01  0.97988403501E+01  0.14182142705E+02  0.51100000000E-03 0. -1.
        -11    1    3    3    0    0 -0.53327130109E+01 -0.58456493586E+01  0.15212521481E+02  0.17147310417E+02  0.51100000000E-03 0.  1.
         12    1    3    3    0    0 -0.36116282065E+01 -0.19466136905E+01  0.14233333467E+02  0.14812864164E+02  0.00000000000E+00 0. -1.
</event>
<event>
 7    1  0.1442665E-008  0.4614232E+02  0.7816164E-02  0.1320468E+00
        -11   -1    0    0    0    0  0.00000000000E+00  0.00000000000E+00  0.45593999997E+02  0.45594000000E+02  0.51100000000E-03 0. -1.
         11   -1    0    0    0    0 -0.00000000000E+00 -0.00000000000E+00 -0.45593999997E+02  0.45594000000E+02  0.51100000000E-03 0.  1.
    9900012    2    1    2    0    0  0.18992294507E+02  0.39488359521E+02 -0.10443931143E+02  0.46142317787E+02  0.10000000239E+02 0.  0.
         12    1    1    2    0    0 -0.18992294507E+02 -0.39488359521E+02  0.10443931143E+02  0.45045682213E+02  0.00000000000E+00 0. -1.
         11    1    3    3    0    0  0.98645561688E+01  0.21026976554E+02 -0.76732929607E+01  0.24460634426E+02  0.51100000000E-03 0.  1.
        -11    1    3    3    0    0  0.81702522740E+01  0.96655262140E+01 -0.16575847471E+01  0.12764129687E+02  0.51100000000E-03 0. -1.
        -12    1    3    3    0    0  0.95748606395E+00  0.87958567529E+01 -0.11130534355E+01  0.89175536741E+01  0.00000000000E+00 0.  1.
</event>
<event>
 7    1  0.1442665E-008  0.4614232E+02  0.7816164E-02  0.1320468E+00
        -11   -1    0    0    0    0  0.00000000000E+00  0.00000000000E+00  0.45593999997E+02  0.45594000000E+02  0.51100000000E-03 0.  1.
         11   -1    0    0    0    0 -0.00000000000E+00 -0.00000000000E+00 -0.45593999997E+02  0.45594000000E+02  0.51100000000E-03 0. -1.
    9900012    2    1    2    0    0  0.24538290256E+02 -0.10060968746E+02  0.36411024484E+02  0.46142317801E+02  0.10000000363E+02 0.  0.
         12    1    1    2    0    0 -0.24538290256E+02  0.10060968746E+02 -0.36411024484E+02  0.45045682199E+02  0.00000000000E+00 0. -1.
         11    1    3    3    0    0  0.64276481081E+01 -0.75605916104E+01  0.12686618406E+02  0.16106753010E+02  0.51100000000E-03 0. -1.
        -11    1    3    3    0    0  0.15225998809E+02 -0.12564655087E+01  0.19768591146E+02  0.24984133794E+02  0.51100000000E-03 0.  1.
         12    1    3    3    0    0  0.28846433389E+01 -0.12439116273E+01  0.39558149325E+01  0.50514309962E+01  0.00000000000E+00 0. -1.
</event>
<event>
 7    1  0.1442665E-008  0.4614232E+02  0.7816164E-02  0.1320468E+00
        -11   -1    0    0    0    0  0.00000000000E+00  0.00000000000E+00  0.45593999997E+02  0.45594000000E+02  0.51100000000E-03 0. -1.
         11   -1    0    0    0    0 -0.00000000000E+00 -0.00000000000E+00 -0.45593999997E+02  0.45594000000E+02  0.51100000000E-03 0.  1.
    9900012    2    1    2    0    0 -0.25263780238E+02  0.36818568218E+02 -0.59369945347E+01  0.46142318058E+02  0.10000002703E+02 0.  0.
         12    1    1    2    0    0  0.25263780238E+02 -0.36818568218E+02  0.59369945347E+01  0.45045681942E+02  0.00000000000E+00 0. -1.
         11    1    3    3    0    0 -0.17245559531E+01  0.68156012434E+01 -0.10264437147E+01  0.71049349402E+01  0.51100000000E-03 0. -1.
        -11    1    3    3    0    0 -0.29230476646E+00  0.53325537858E+00 -0.11671697391E+01  0.13160884607E+01  0.51100000000E-03 0.  1.
        -12    1    3    3    0    0 -0.23246919518E+02  0.29469711596E+02 -0.37433810809E+01  0.37721294657E+02  0.00000000000E+00 0.  1.
</event>
<event>
 7    1  0.1442665E-008  0.4614232E+02  0.7816164E-02  0.1320468E+00
        -11   -1    0    0    0    0  0.00000000000E+00  0.00000000000E+00  0.45593999997E+02  0.45594000000E+02  0.51100000000E-03 0.  1.
         11   -1    0    0    0    0 -0.00000000000E+00 -0.00000000000E+00 -0.45593999997E+02  0.45594000000E+02  0.51100000000E-03 0. -1.
    9900012    2    1    2    0    0 -0.32068485234E+01  0.23611127884E+02  0.38227533730E+02  0.46142316828E+02  0.99999914877E+01 0.  0.
         12    1    1    2    0    0  0.32068485234E+01 -0.23611127884E+02 -0.38227533730E+02  0.45045683172E+02  0.00000000000E+00 0. -1.
         11    1    3    3    0    0  0.63775930065E-01 -0.15074294609E+00  0.55871628916E+01  0.55895599329E+01  0.51100000000E-03 0. -1.
        -11    1    3    3    0    0 -0.15405633820E+01  0.17409584632E+02  0.23381897526E+02  0.29192124019E+02  0.51100000000E-03 0.  1.
         12    1    3    3    0    0 -0.17300610715E+01  0.63522861982E+01  0.92584733121E+01  0.11360632875E+02  0.00000000000E+00 0. -1.
</event>
<event>
 7    1  0.1442665E-008  0.4614232E+02  0.7816164E-02  0.1320468E+00
        -11   -1    0    0    0    0  0.00000000000E+00  0.00000000000E+00  0.45593999997E+02  0.45594000000E+02  0.51100000000E-03 0.  1.
         11   -1    0    0    0    0 -0.00000000000E+00 -0.00000000000E+00 -0.45593999997E+02  0.45594000000E+02  0.51100000000E-03 0. -1.
    9900012    2    1    2    0    0 -0.41483395125E+02 -0.17303131816E+02 -0.29737306166E+01  0.46142317460E+02  0.99999972503E+01 0.  0.
         12    1    1    2    0    0  0.41483395125E+02  0.17303131816E+02  0.29737306166E+01  0.45045682540E+02  0.00000000000E+00 0. -1.
         11    1    3    3    0    0 -0.42291586479E+01 -0.79349277345E+00  0.15515440949E+01  0.45741341247E+01  0.51100000000E-03 0. -1.
        -11    1    3    3    0    0 -0.30363783337E+02 -0.13461822870E+02 -0.94806382821E+00  0.33227681815E+02  0.51100000000E-03 0.  1.
        -12    1    3    3    0    0 -0.68904531406E+01 -0.30478161727E+01 -0.35772108833E+01  0.83405015202E+01  0.00000000000E+00 0.  1.
</event>
<event>
 7    1  0.1442665E-008  0.4614232E+02  0.7816164E-02  0.1320468E+00
        -11   -1    0    0    0    0  0.00000000000E+00  0.00000000000E+00  0.45593999997E+02  0.45594000000E+02  0.51100000000E-03 0.  1.
         11   -1    0    0    0    0 -0.00000000000E+00 -0.00000000000E+00 -0.45593999997E+02  0.45594000000E+02  0.51100000000E-03 0. -1.
    9900012    2    1    2    0    0  0.30623391475E+02  0.23754140547E+02  0.22957835258E+02  0.46142317651E+02  0.99999989939E+01 0.  0.
         12    1    1    2    0    0 -0.30623391475E+02 -0.23754140547E+02 -0.22957835258E+02  0.45045682349E+02  0.00000000000E+00 0. -1.
         11    1    3    3    0    0  0.53444563498E+01  0.56029834736E+01  0.13417951368E+01  0.78585655135E+01  0.51100000000E-03 0. -1.
        -11    1    3    3    0    0  0.22438212682E+02  0.14913195388E+02  0.16488853712E+02  0.31587324706E+02  0.51100000000E-03 0.  1.
         12    1    3    3    0    0  0.28407224435E+01  0.32379616848E+01  0.51271864089E+01  0.66964274314E+01  0.00000000000E+00 0. -1.
</event>
<event>
 7    1  0.1442665E-008  0.4614232E+02  0.7816164E-02  0.1320468E+00
        -11   -1    0    0    0    0  0.00000000000E+00  0.00000000000E+00  0.45593999997E+02  0.45594000000E+02  0.51100000000E-03 0.  1.
         11   -1    0    0    0    0 -0.00000000000E+00 -0.00000000000E+00 -0.45593999997E+02  0.45594000000E+02  0.51100000000E-03 0. -1.
    9900012    2    1    2    0    0  0.27423497476E+02  0.12290909101E+02  0.33555905683E+02  0.46142318003E+02  0.10000002207E+02 0.  0.
         12    1    1    2    0    0 -0.27423497476E+02 -0.12290909101E+02 -0.33555905683E+02  0.45045681997E+02  0.00000000000E+00 0. -1.
         11    1    3    3    0    0  0.34149976591E+01  0.23183767915E+01  0.17331426092E+01  0.44767023046E+01  0.51100000000E-03 0. -1.
        -11    1    3    3    0    0  0.32934417688E+01  0.11233952906E+01  0.12651324424E+01  0.37026120538E+01  0.51100000000E-03 0.  1.
        -12    1    3    3    0    0  0.20715058048E+02  0.88491370192E+01  0.30557630632E+02  0.37963003645E+02  0.00000000000E+00 0.  1.
</event>
<event>
 7    1  0.1442665E-008  0.4614232E+02  0.7816164E-02  0.1320468E+00
        -11   -1    0    0    0    0  0.00000000000E+00  0.00000000000E+00  0.45593999997E+02  0.45594000000E+02  0.51100000000E-03 0.  1.
         11   -1    0    0    0    0 -0.00000000000E+00 -0.00000000000E+00 -0.45593999997E+02  0.45594000000E+02  0.51100000000E-03 0. -1.
    9900012    2    1    2    0    0 -0.14737295831E+02 -0.37487269330E+02  0.20165075110E+02  0.46142317583E+02  0.99999983726E+01 0.  0.
         12    1    1    2    0    0  0.14737295831E+02  0.37487269330E+02 -0.20165075110E+02  0.45045682417E+02  0.00000000000E+00 0. -1.
         11    1    3    3    0    0 -0.52079250438E+01 -0.12301182199E+02  0.38556201601E+01  0.13903502214E+02  0.51100000000E-03 0. -1.
        -11    1    3    3    0    0 -0.95042905062E+01 -0.25335249027E+02  0.15035631069E+02  0.30956042757E+02  0.51100000000E-03 0.  1.
         12    1    3    3    0    0 -0.25080281025E-01  0.14916189536E+00  0.12738238811E+01  0.12827726110E+01  0.00000000000E+00 0. -1.
</event>
<event>
 7    1  0.1442665E-008  0.4614232E+02  0.7816164E-02  0.1320468E+00
        -11   -1    0    0    0    0  0.00000000000E+00  0.00000000000E+00  0.45593999997E+02  0.45594000000E+02  0.51100000000E-03 0.  1.
         11   -1    0    0    0    0 -0.00000000000E+00 -0.00000000000E+00 -0.45593999997E+02  0.45594000000E+02  0.51100000000E-03 0. -1.
    9900012    2    1    2    0    0 -0.36622657288E+02 -0.24580240071E+02 -0.91491240190E+01  0.46142315422E+02  0.99999786685E+01 0.  0.
         12    1    1    2    0    0  0.36622657288E+02  0.24580240071E+02  0.91491240190E+01  0.45045684578E+02  0.00000000000E+00 0. -1.
         11    1    3    3    0    0 -0.30933290555E+01 -0.81098818091E+00 -0.71818613314E+00  0.32775262101E+01  0.51100000000E-03 0. -1.
        -11    1    3    3    0    0 -0.18556729654E+02 -0.14536484589E+02 -0.90840449499E+01  0.25262253909E+02  0.51100000000E-03 0.  1.
        -12    1    3    3    0    0 -0.14972598579E+02 -0.92327673008E+01  0.65310706411E+00  0.17602535303E+02  0.00000000000E+00 0.  1.
</event>
<event>
 7    1  0.1442665E-008  0.4614232E+02  0.7816164E-02  0.1320468E+00
        -11   -1    0    0    0    0  0.00000000000E+00  0.00000000000E+00  0.45593999997E+02  0.45594000000E+02  0.51100000000E-03 0.  1.
         11   -1    0    0    0    0 -0.00000000000E+00 -0.00000000000E+00 -0.45593999997E+02  0.45594000000E+02  0.51100000000E-03 0. -1.
    9900012    2    1    2    0    0  0.26058516797E+02 -0.24220305422E+02  0.27630489136E+02  0.46142318495E+02  0.10000006690E+02 0.  0.
         12    1    1    2    0    0 -0.26058516797E+02  0.24220305422E+02 -0.27630489136E+02  0.45045681505E+02  0.00000000000E+00 0. -1.
         11    1    3    3    0    0  0.15983236673E+02 -0.15691040374E+02  0.15106269388E+02  0.27016142909E+02  0.51100000000E-03 0. -1.
        -11    1    3    3    0    0  0.45764299925E+01 -0.59961359702E+01  0.10097098846E+02  0.12603521865E+02  0.51100000000E-03 0.  1.
         12    1    3    3    0    0  0.54988501311E+01 -0.25331290769E+01  0.24271209027E+01  0.65226537208E+01  0.00000000000E+00 0. -1.
</event>
<event>
 7    1  0.1442665E-008  0.4614232E+02  0.7816164E-02  0.1320468E+00
        -11   -1    0    0    0    0  0.00000000000E+00  0.00000000000E+00  0.45593999997E+02  0.45594000000E+02  0.51100000000E-03 0. -1.
         11   -1    0    0    0    0 -0.00000000000E+00 -0.00000000000E+00 -0.45593999997E+02  0.45594000000E+02  0.51100000000E-03 0.  1.
    9900012    2    1    2    0    0 -0.17765610295E+02 -0.33116684339E+02 -0.24835092308E+02  0.46142317624E+02  0.99999987476E+01 0.  0.
         12    1    1    2    0    0  0.17765610295E+02  0.33116684339E+02  0.24835092308E+02  0.45045682376E+02  0.00000000000E+00 0. -1.
         11    1    3    3    0    0 -0.26847539836E+01 -0.12094118249E+02 -0.61170564818E+01  0.13816438775E+02  0.51100000000E-03 0. -1.
        -11    1    3    3    0    0 -0.12969044763E+02 -0.19308125933E+02 -0.18252768336E+02  0.29566254435E+02  0.51100000000E-03 0.  1.
        -12    1    3    3    0    0 -0.21118115480E+01 -0.17144401574E+01 -0.46526749096E+00  0.27596244139E+01  0.00000000000E+00 0.  1.
</event>
<event>
 7    1  0.1442665E-008  0.4614232E+02  0.7816164E-02  0.1320468E+00
        -11   -1    0    0    0    0  0.00000000000E+00  0.00000000000E+00  0.45593999997E+02  0.45594000000E+02  0.51100000000E-03 0.  1.
         11   -1    0    0    0    0 -0.00000000000E+00 -0.00000000000E+00 -0.45593999997E+02  0.45594000000E+02  0.51100000000E-03 0. -1.
    9900012    2    1    2    0    0 -0.97891640408E+01  0.87229476609E+01  0.43095197433E+02  0.46142316629E+02  0.99999896795E+01 0.  0.
         12    1    1    2    0    0  0.97891640408E+01 -0.87229476609E+01 -0.43095197433E+02  0.45045683371E+02  0.00000000000E+00 0. -1.
         11    1    3    3    0    0 -0.71411256194E+01  0.23045844869E+01  0.18154075893E+02  0.19643758717E+02  0.51100000000E-03 0.  1.
        -11    1    3    3    0    0  0.13402893492E+01  0.17333456796E+01  0.11625246437E+02  0.11829928900E+02  0.51100000000E-03 0. -1.
        -12    1    3    3    0    0 -0.39883277706E+01  0.46850174943E+01  0.13315875103E+02  0.14668629012E+02  0.00000000000E+00 0.  1.
</event>
<event>
 7    1  0.1442665E-008  0.4614232E+02  0.7816164E-02  0.1320468E+00
        -11   -1    0    0    0    0  0.00000000000E+00  0.00000000000E+00  0.45593999997E+02  0.45594000000E+02  0.51100000000E-03 0. -1.
         11   -1    0    0    0    0 -0.00000000000E+00 -0.00000000000E+00 -0.45593999997E+02  0.45594000000E+02  0.51100000000E-03 0.  1.
    9900012    2    1    2    0    0 -0.20917555518E+02  0.26584772509E+02 -0.29745911715E+02  0.46142317389E+02  0.99999966037E+01 0.  0.
         12    1    1    2    0    0  0.20917555518E+02 -0.26584772509E+02  0.29745911715E+02  0.45045682611E+02  0.00000000000E+00 0. -1.
         11    1    3    3    0    0 -0.34607124397E+01  0.68698850927E+01 -0.33700729704E+01  0.83981690781E+01  0.51100000000E-03 0. -1.
        -11    1    3    3    0    0 -0.13026538832E+02  0.11013010389E+02 -0.18798655019E+02  0.25384375954E+02  0.51100000000E-03 0.  1.
        -12    1    3    3    0    0 -0.44303042459E+01  0.87018770272E+01 -0.75771837250E+01  0.12359772357E+02  0.00000000000E+00 0.  1.
</event>
<event>
 7    1  0.1442665E-008  0.4614232E+02  0.7816164E-02  0.1320468E+00
        -11   -1    0    0    0    0  0.00000000000E+00  0.00000000000E+00  0.45593999997E+02  0.45594000000E+02  0.51100000000E-03 0.  1.
         11   -1    0    0    0    0 -0.00000000000E+00 -0.00000000000E+00 -0.45593999997E+02  0.45594000000E+02  0.51100000000E-03 0. -1.
    9900012    2    1    2    0    0  0.43961542829E+02  0.90938149157E+01 -0.37146864853E+01  0.46142316375E+02  0.99999873560E+01 0.  0.
         12    1    1    2    0    0 -0.43961542829E+02 -0.90938149157E+01  0.37146864853E+01  0.45045683625E+02  0.00000000000E+00 0. -1.
         11    1    3    3    0    0  0.10992867216E+02  0.29588350147E+01 -0.49861819419E+01  0.12428187515E+02  0.51100000000E-03 0. -1.
        -11    1    3    3    0    0  0.29338114836E+02  0.64716727741E+01  0.10725793694E+01  0.30062567378E+02  0.51100000000E-03 0.  1.
        -12    1    3    3    0    0  0.36305607768E+01 -0.33669287319E+00  0.19891608721E+00  0.36515614817E+01  0.00000000000E+00 0.  1.
</event>
<event>
 7    1  0.1442665E-008  0.4614232E+02  0.7816164E-02  0.1320468E+00
        -11   -1    0    0    0    0  0.00000000000E+00  0.00000000000E+00  0.45593999997E+02  0.45594000000E+02  0.51100000000E-03 0.  1.
         11   -1    0    0    0    0 -0.00000000000E+00 -0.00000000000E+00 -0.45593999997E+02  0.45594000000E+02  0.51100000000E-03 0. -1.
    9900012    2    1    2    0    0  0.29090465913E+02 -0.86837624019E+01 -0.33278378829E+02  0.46142318365E+02  0.10000005507E+02 0.  0.
         12    1    1    2    0    0 -0.29090465913E+02  0.86837624019E+01  0.33278378829E+02  0.45045681635E+02  0.00000000000E+00 0. -1.
         11    1    3    3    0    0  0.63471034257E+01 -0.30699428146E+01 -0.62935214629E+01  0.94508562282E+01  0.51100000000E-03 0. -1.
        -11    1    3    3    0    0  0.11286939826E+02 -0.42895495695E+01 -0.19523157842E+02  0.22955368403E+02  0.51100000000E-03 0.  1.
        -12    1    3    3    0    0  0.11456422662E+02 -0.13242700178E+01 -0.74616995241E+01  0.13736093734E+02  0.00000000000E+00 0.  1.
</event>
<event>
 7    1  0.1442665E-008  0.4614232E+02  0.7816164E-02  0.1320468E+00
        -11   -1    0    0    0    0  0.00000000000E+00  0.00000000000E+00  0.45593999997E+02  0.45594000000E+02  0.51100000000E-03 0. -1.
         11   -1    0    0    0    0 -0.00000000000E+00 -0.00000000000E+00 -0.45593999997E+02  0.45594000000E+02  0.51100000000E-03 0.  1.
    9900012    2    1    2    0    0  0.42871685873E+02  0.13067432722E+02 -0.45137787170E+01  0.46142318233E+02  0.10000004308E+02 0.  0.
         12    1    1    2    0    0 -0.42871685873E+02 -0.13067432722E+02  0.45137787170E+01  0.45045681767E+02  0.00000000000E+00 0. -1.
         11    1    3    3    0    0  0.26279658541E+02  0.89797289120E+01 -0.34648128171E+01  0.27986798897E+02  0.51100000000E-03 0.  1.
        -11    1    3    3    0    0  0.15361129888E+01  0.18849708521E+01 -0.16314063792E+01  0.29281812209E+01  0.51100000000E-03 0. -1.
        -12    1    3    3    0    0  0.15055914343E+02  0.22027329579E+01  0.58244047935E+00  0.15227338116E+02  0.00000000000E+00 0.  1.
</event>
<event>
 7    1  0.1442665E-008  0.4614232E+02  0.7816164E-02  0.1320468E+00
        -11   -1    0    0    0    0  0.00000000000E+00  0.00000000000E+00  0.45593999997E+02  0.45594000000E+02  0.51100000000E-03 0. -1.
         11   -1    0    0    0    0 -0.00000000000E+00 -0.00000000000E+00 -0.45593999997E+02  0.45594000000E+02  0.51100000000E-03 0.  1.
    9900012    2    1    2    0    0 -0.23870802836E+01  0.39863868873E+02 -0.20839560304E+02  0.46142317993E+02  0.10000002112E+02 0.  0.
         12    1    1    2    0    0  0.23870802836E+01 -0.39863868873E+02  0.20839560304E+02  0.45045682007E+02  0.00000000000E+00 0. -1.
         11    1    3    3    0    0 -0.38456891331E+01  0.31506766483E+02 -0.12340158822E+02  0.34055031628E+02  0.51100000000E-03 0. -1.
        -11    1    3    3    0    0  0.10469123330E+01  0.28575025315E+01 -0.35626311059E+01  0.46854761560E+01  0.51100000000E-03 0.  1.
         12    1    3    3    0    0  0.41169651642E+00  0.54995998586E+01 -0.49367703762E+01  0.74018102092E+01  0.00000000000E+00 0. -1.
</event>
<event>
 7    1  0.1442665E-008  0.4614232E+02  0.7816164E-02  0.1320468E+00
        -11   -1    0    0    0    0  0.00000000000E+00  0.00000000000E+00  0.45593999997E+02  0.45594000000E+02  0.51100000000E-03 0.  1.
         11   -1    0    0    0    0 -0.00000000000E+00 -0.00000000000E+00 -0.45593999997E+02  0.45594000000E+02  0.51100000000E-03 0. -1.
    9900012    2    1    2    0    0 -0.22375169267E+02  0.38852331953E+02  0.43544995072E+01  0.46142316924E+02  0.99999923626E+01 0.  0.
         12    1    1    2    0    0  0.22375169267E+02 -0.38852331953E+02 -0.43544995072E+01  0.45045683076E+02  0.00000000000E+00 0. -1.
         11    1    3    3    0    0 -0.64075523742E+01  0.18530786563E+02  0.45538277721E+00  0.19612601862E+02  0.51100000000E-03 0. -1.
        -11    1    3    3    0    0 -0.22605640986E+01  0.31986017361E+01  0.22903810713E+01  0.45372953202E+01  0.51100000000E-03 0.  1.
         12    1    3    3    0    0 -0.13707052794E+02  0.17122943654E+02  0.16087356587E+01  0.21992419742E+02  0.00000000000E+00 0. -1.
</event>
<event>
 7    1  0.1442665E-008  0.4614232E+02  0.7816164E-02  0.1320468E+00
        -11   -1    0    0    0    0  0.00000000000E+00  0.00000000000E+00  0.45593999997E+02  0.45594000000E+02  0.51100000000E-03 0.  1.
         11   -1    0    0    0    0 -0.00000000000E+00 -0.00000000000E+00 -0.45593999997E+02  0.45594000000E+02  0.51100000000E-03 0. -1.
    9900012    2    1    2    0    0 -0.18055281464E+01 -0.15819786468E+02  0.42137721563E+02  0.46142321470E+02  0.10000033817E+02 0.  0.
         12    1    1    2    0    0  0.18055281464E+01  0.15819786468E+02 -0.42137721563E+02  0.45045678530E+02  0.00000000000E+00 0. -1.
         11    1    3    3    0    0  0.28295202062E+01 -0.65980542243E+01  0.21358353810E+02  0.22532638147E+02  0.51100000000E-03 0. -1.
        -11    1    3    3    0    0 -0.21687005627E+01 -0.90321701894E+00  0.63741733008E+01  0.67933164687E+01  0.51100000000E-03 0.  1.
        -12    1    3    3    0    0 -0.24663477899E+01 -0.83185152246E+01  0.14405194452E+02  0.16816366854E+02  0.00000000000E+00 0.  1.
</event>
<event>
 7    1  0.1442665E-008  0.4614232E+02  0.7816164E-02  0.1320468E+00
        -11   -1    0    0    0    0  0.00000000000E+00  0.00000000000E+00  0.45593999997E+02  0.45594000000E+02  0.51100000000E-03 0.  1.
         11   -1    0    0    0    0 -0.00000000000E+00 -0.00000000000E+00 -0.45593999997E+02  0.45594000000E+02  0.51100000000E-03 0. -1.
    9900012    2    1    2    0    0  0.39039696512E+01  0.78341275472E+01  0.44187090161E+02  0.46142317961E+02  0.10000001824E+02 0.  0.
         12    1    1    2    0    0 -0.39039696512E+01 -0.78341275472E+01 -0.44187090161E+02  0.45045682039E+02  0.00000000000E+00 0. -1.
         11    1    3    3    0    0  0.71283785319E+00  0.67424345344E+00  0.22271884649E+00  0.10061540564E+01  0.51100000000E-03 0. -1.
        -11    1    3    3    0    0 -0.13609462309E+01  0.18852122996E+01  0.21260996554E+02  0.21387757591E+02  0.51100000000E-03 0.  1.
         12    1    3    3    0    0  0.45520780289E+01  0.52746717942E+01  0.22703374760E+02  0.23748406313E+02  0.00000000000E+00 0. -1.
</event>
<event>
 7    1  0.1442665E-008  0.4614232E+02  0.7816164E-02  0.1320468E+00
        -11   -1    0    0    0    0  0.00000000000E+00  0.00000000000E+00  0.45593999997E+02  0.45594000000E+02  0.51100000000E-03 0.  1.
         11   -1    0    0    0    0 -0.00000000000E+00 -0.00000000000E+00 -0.45593999997E+02  0.45594000000E+02  0.51100000000E-03 0. -1.
    9900012    2    1    2    0    0 -0.27672397692E+02  0.30248972741E+02 -0.18664176979E+02  0.46142318207E+02  0.10000004063E+02 0.  0.
         12    1    1    2    0    0  0.27672397692E+02 -0.30248972741E+02  0.18664176979E+02  0.45045681793E+02  0.00000000000E+00 0. -1.
         11    1    3    3    0    0 -0.33005510640E+01  0.33956504310E+01 -0.45316338998E+01  0.65543714602E+01  0.51100000000E-03 0. -1.
        -11    1    3    3    0    0 -0.87036375137E+01  0.98026799540E+01 -0.89088204731E+01  0.15849697875E+02  0.51100000000E-03 0.  1.
        -12    1    3    3    0    0 -0.15668209115E+02  0.17050642356E+02 -0.52237226058E+01  0.23738248871E+02  0.00000000000E+00 0.  1.
</event>
<event>
 7    1  0.1442665E-008  0.4614232E+02  0.7816164E-02  0.1320468E+00
        -11   -1    0    0    0    0  0.00000000000E+00  0.00000000000E+00  0.45593999997E+02  0.45594000000E+02  0.51100000000E-03 0.  1.
         11   -1    0    0    0    0 -0.00000000000E+00 -0.00000000000E+00 -0.45593999997E+02  0.45594000000E+02  0.51100000000E-03 0. -1.
    9900012    2    1    2    0    0  0.17657453444E+02  0.41469550842E+00  0.41438579740E+02  0.46142317350E+02  0.99999962544E+01 0.  0.
         12    1    1    2    0    0 -0.17657453444E+02 -0.41469550842E+00 -0.41438579740E+02  0.45045682650E+02  0.00000000000E+00 0. -1.
         11    1    3    3    0    0 -0.73960871739E+00 -0.29039528083E+00  0.51248786300E+01  0.51861094963E+01  0.51100000000E-03 0. -1.
        -11    1    3    3    0    0  0.12675134115E+02 -0.15198371840E+01  0.23334458185E+02  0.26598230560E+02  0.51100000000E-03 0.  1.
        -12    1    3    3    0    0  0.57219280462E+01  0.22249279732E+01  0.12979242925E+02  0.14357977294E+02  0.00000000000E+00 0.  1.
</event>
<event>
 7    1  0.1442665E-008  0.4614232E+02  0.7816164E-02  0.1320468E+00
        -11   -1    0    0    0    0  0.00000000000E+00  0.00000000000E+00  0.45593999997E+02  0.45594000000E+02  0.51100000000E-03 0. -1.
         11   -1    0    0    0    0 -0.00000000000E+00 -0.00000000000E+00 -0.45593999997E+02  0.45594000000E+02  0.51100000000E-03 0.  1.
    9900012    2    1    2    0    0 -0.38680553473E+02 -0.22609430079E+02 -0.46628099774E+01  0.46142319382E+02  0.10000014777E+02 0.  0.
         12    1    1    2    0    0  0.38680553473E+02  0.22609430079E+02  0.46628099774E+01  0.45045680618E+02  0.00000000000E+00 0. -1.
         11    1    3    3    0    0 -0.41875594901E+01 -0.18007764004E-01 -0.33765634164E+00  0.42011892161E+01  0.51100000000E-03 0. -1.
        -11    1    3    3    0    0 -0.28692124177E+02 -0.20171639762E+02 -0.56287110256E+01  0.35522041447E+02  0.51100000000E-03 0.  1.
        -12    1    3    3    0    0 -0.58008698056E+01 -0.24197825526E+01  0.13035573899E+01  0.64190887182E+01  0.00000000000E+00 0.  1.
</event>
<event>
 7    1  0.1442665E-008  0.4614232E+02  0.7816164E-02  0.1320468E+00
        -11   -1    0    0    0    0  0.00000000000E+00  0.00000000000E+00  0.45593999997E+02  0.45594000000E+02  0.51100000000E-03 0. -1.
         11   -1    0    0    0    0 -0.00000000000E+00 -0.00000000000E+00 -0.45593999997E+02  0.45594000000E+02  0.51100000000E-03 0.  1.
    9900012    2    1    2    0    0  0.37988923411E+02 -0.19482115480E+02  0.14366713116E+02  0.46142316841E+02  0.99999916135E+01 0.  0.
         12    1    1    2    0    0 -0.37988923411E+02  0.19482115480E+02 -0.14366713116E+02  0.45045683159E+02  0.00000000000E+00 0. -1.
         11    1    3    3    0    0  0.18837884709E+02 -0.12951858768E+02  0.11690536925E+02  0.25676549607E+02  0.51100000000E-03 0. -1.
        -11    1    3    3    0    0  0.60829518325E+01 -0.27350266203E+01  0.54371417149E+00  0.66916589103E+01  0.51100000000E-03 0.  1.
         12    1    3    3    0    0  0.13068086869E+02 -0.37952300915E+01  0.21324620193E+01  0.13774108324E+02  0.00000000000E+00 0. -1.
</event>
<event>
 7    1  0.1442665E-008  0.4614232E+02  0.7816164E-02  0.1320468E+00
        -11   -1    0    0    0    0  0.00000000000E+00  0.00000000000E+00  0.45593999997E+02  0.45594000000E+02  0.51100000000E-03 0.  1.
         11   -1    0    0    0    0 -0.00000000000E+00 -0.00000000000E+00 -0.45593999997E+02  0.45594000000E+02  0.51100000000E-03 0. -1.
    9900012    2    1    2    0    0 -0.82787768480E+01  0.13755274134E+02  0.42087619362E+02  0.46142318562E+02  0.10000007307E+02 0.  0.
         12    1    1    2    0    0  0.82787768480E+01 -0.13755274134E+02 -0.42087619362E+02  0.45045681438E+02  0.00000000000E+00 0. -1.
         11    1    3    3    0    0 -0.48091442078E+00  0.72804033382E+01  0.18219937052E+02  0.19626554916E+02  0.51100000000E-03 0. -1.
        -11    1    3    3    0    0 -0.46342928878E+01  0.57313701855E+01  0.10978353032E+02  0.13223067357E+02  0.51100000000E-03 0.  1.
         12    1    3    3    0    0 -0.31635695394E+01  0.74350061063E+00  0.12889329278E+02  0.13292696289E+02  0.00000000000E+00 0. -1.
</event>
<event>
 7    1  0.1442665E-008  0.4614232E+02  0.7816164E-02  0.1320468E+00
        -11   -1    0    0    0    0  0.00000000000E+00  0.00000000000E+00  0.45593999997E+02  0.45594000000E+02  0.51100000000E-03 0.  1.
         11   -1    0    0    0    0 -0.00000000000E+00 -0.00000000000E+00 -0.45593999997E+02  0.45594000000E+02  0.51100000000E-03 0. -1.
    9900012    2    1    2    0    0  0.22375856694E+02 -0.25230078252E+02  0.29864321312E+02  0.46142317645E+02  0.99999989454E+01 0.  0.
         12    1    1    2    0    0 -0.22375856694E+02  0.25230078252E+02 -0.29864321312E+02  0.45045682355E+02  0.00000000000E+00 0. -1.
         11    1    3    3    0    0  0.73445408051E+01 -0.95776354701E+01  0.15852697001E+02  0.19924391667E+02  0.51100000000E-03 0. -1.
        -11    1    3    3    0    0  0.75966279638E+01 -0.10050196067E+02  0.99848480916E+01  0.16075210390E+02  0.51100000000E-03 0.  1.
         12    1    3    3    0    0  0.74346879248E+01 -0.56022467147E+01  0.40267762195E+01  0.10142715589E+02  0.00000000000E+00 0. -1.
</event>
<event>
 7    1  0.1442665E-008  0.4614231E+02  0.7816164E-02  0.1320468E+00
        -11   -1    0    0    0    0  0.00000000000E+00  0.00000000000E+00  0.45593999997E+02  0.45594000000E+02  0.51100000000E-03 0.  1.
         11   -1    0    0    0    0 -0.00000000000E+00 -0.00000000000E+00 -0.45593999997E+02  0.45594000000E+02  0.51100000000E-03 0. -1.
    9900012    2    1    2    0    0  0.91535449920E+01  0.37657844667E+02  0.22961122510E+02  0.46142314326E+02  0.99999686783E+01 0.  0.
         12    1    1    2    0    0 -0.91535449920E+01 -0.37657844667E+02 -0.22961122510E+02  0.45045685674E+02  0.00000000000E+00 0. -1.
         11    1    3    3    0    0 -0.89402805804E+00  0.78036785538E+01  0.44877454458E+01  0.90463553206E+01  0.51100000000E-03 0. -1.
        -11    1    3    3    0    0  0.32850318923E+01  0.49770499302E+01  0.59911262956E+01  0.84531683464E+01  0.51100000000E-03 0.  1.
        -12    1    3    3    0    0  0.67625411577E+01  0.24877116183E+02  0.12482250769E+02  0.28642790659E+02  0.00000000000E+00 0.  1.
</event>
<event>
 7    1  0.1442665E-008  0.4614232E+02  0.7816164E-02  0.1320468E+00
        -11   -1    0    0    0    0  0.00000000000E+00  0.00000000000E+00  0.45593999997E+02  0.45594000000E+02  0.51100000000E-03 0.  1.
         11   -1    0    0    0    0 -0.00000000000E+00 -0.00000000000E+00 -0.45593999997E+02  0.45594000000E+02  0.51100000000E-03 0. -1.
    9900012    2    1    2    0    0 -0.32220151857E+02 -0.22377340404E+02  0.22141138428E+02  0.46142316965E+02  0.99999927372E+01 0.  0.
         12    1    1    2    0    0  0.32220151857E+02  0.22377340404E+02 -0.22141138428E+02  0.45045683035E+02  0.00000000000E+00 0. -1.
         11    1    3    3    0    0 -0.84885749025E+01 -0.81350045208E+01  0.53537655367E+01  0.12918862493E+02  0.51100000000E-03 0. -1.
        -11    1    3    3    0    0 -0.20305442649E+02 -0.13019803154E+02  0.11292496128E+02  0.26633564245E+02  0.51100000000E-03 0.  1.
         12    1    3    3    0    0 -0.34261343049E+01 -0.12225327293E+01  0.54948767634E+01  0.65898902263E+01  0.00000000000E+00 0. -1.
</event>
<event>
 7    1  0.1442665E-008  0.4614232E+02  0.7816164E-02  0.1320468E+00
        -11   -1    0    0    0    0  0.00000000000E+00  0.00000000000E+00  0.45593999997E+02  0.45594000000E+02  0.51100000000E-03 0. -1.
         11   -1    0    0    0    0 -0.00000000000E+00 -0.00000000000E+00 -0.45593999997E+02  0.45594000000E+02  0.51100000000E-03 0.  1.
    9900012    2    1    2    0    0 -0.73262579147E+01 -0.43828115034E+02 -0.73848369183E+01  0.46142317201E+02  0.99999948951E+01 0.  0.
         12    1    1    2    0    0  0.73262579147E+01  0.43828115034E+02  0.73848369183E+01  0.45045682799E+02  0.00000000000E+00 0. -1.
         11    1    3    3    0    0 -0.82321188248E+00 -0.14536680040E+01  0.48336355210E+00  0.17391000701E+01  0.51100000000E-03 0. -1.
        -11    1    3    3    0    0 -0.18682996850E+01 -0.23469656569E+02 -0.37734513671E+00  0.23546925761E+02  0.51100000000E-03 0.  1.
        -12    1    3    3    0    0 -0.46347463472E+01 -0.18904790462E+02 -0.74908553337E+01  0.20856291371E+02  0.00000000000E+00 0.  1.
</event>
<event>
 7    1  0.1442665E-008  0.4614232E+02  0.7816164E-02  0.1320468E+00
        -11   -1    0    0    0    0  0.00000000000E+00  0.00000000000E+00  0.45593999997E+02  0.45594000000E+02  0.51100000000E-03 0. -1.
         11   -1    0    0    0    0 -0.00000000000E+00 -0.00000000000E+00 -0.45593999997E+02  0.45594000000E+02  0.51100000000E-03 0.  1.
    9900012    2    1    2    0    0 -0.31927397249E+02  0.27469154958E+01 -0.31657686119E+02  0.46142319516E+02  0.10000016007E+02 0.  0.
         12    1    1    2    0    0  0.31927397249E+02 -0.27469154958E+01  0.31657686119E+02  0.45045680484E+02  0.00000000000E+00 0. -1.
         11    1    3    3    0    0 -0.44095680121E+01  0.31368050659E+01 -0.24708844931E+01  0.59488743905E+01  0.51100000000E-03 0. -1.
        -11    1    3    3    0    0 -0.11163169427E+02  0.44242323524E+00 -0.13412878795E+02  0.17456156731E+02  0.51100000000E-03 0.  1.
         12    1    3    3    0    0 -0.16354659809E+02 -0.83231280542E+00 -0.15773922830E+02  0.22737288395E+02  0.00000000000E+00 0. -1.
</event>
<event>
 7    1  0.1442665E-008  0.4614232E+02  0.7816164E-02  0.1320468E+00
        -11   -1    0    0    0    0  0.00000000000E+00  0.00000000000E+00  0.45593999997E+02  0.45594000000E+02  0.51100000000E-03 0. -1.
         11   -1    0    0    0    0 -0.00000000000E+00 -0.00000000000E+00 -0.45593999997E+02  0.45594000000E+02  0.51100000000E-03 0.  1.
    9900012    2    1    2    0    0 -0.97478497751E+01 -0.22289985657E+02 -0.37911071917E+02  0.46142318634E+02  0.10000007962E+02 0.  0.
         12    1    1    2    0    0  0.97478497751E+01  0.22289985657E+02  0.37911071917E+02  0.45045681366E+02  0.00000000000E+00 0. -1.
         11    1    3    3    0    0  0.27670458961E+00 -0.10679905838E+01  0.51484756449E-01  0.11044547335E+01  0.51100000000E-03 0. -1.
        -11    1    3    3    0    0 -0.79145143577E+01 -0.10588373374E+02 -0.23503523328E+02  0.26966067517E+02  0.51100000000E-03 0.  1.
        -12    1    3    3    0    0 -0.21100400070E+01 -0.10633621699E+02 -0.14459033345E+02  0.18071796384E+02  0.00000000000E+00 0.  1.
</event>
<event>
 7    1  0.1442665E-008  0.4614232E+02  0.7816164E-02  0.1320468E+00
        -11   -1    0    0    0    0  0.00000000000E+00  0.00000000000E+00  0.45593999997E+02  0.45594000000E+02  0.51100000000E-03 0.  1.
         11   -1    0    0    0    0 -0.00000000000E+00 -0.00000000000E+00 -0.45593999997E+02  0.45594000000E+02  0.51100000000E-03 0. -1.
    9900012    2    1    2    0    0 -0.16685568398E+02  0.24059946628E+02  0.34231919241E+02  0.46142317417E+02  0.99999968593E+01 0.  0.
         12    1    1    2    0    0  0.16685568398E+02 -0.24059946628E+02 -0.34231919241E+02  0.45045682583E+02  0.00000000000E+00 0. -1.
         11    1    3    3    0    0  0.55720905690E+00  0.18132010441E+01  0.23096432984E+01  0.29887509743E+01  0.51100000000E-03 0. -1.
        -11    1    3    3    0    0 -0.12966298647E+02  0.11238688200E+02  0.20358603837E+02  0.26625284289E+02  0.51100000000E-03 0.  1.
        -12    1    3    3    0    0 -0.42764788078E+01  0.11008057384E+02  0.11563672106E+02  0.16528282153E+02  0.00000000000E+00 0.  1.
</event>
<event>
 7    1  0.1442665E-008  0.4614232E+02  0.7816164E-02  0.1320468E+00
        -11   -1    0    0    0    0  0.00000000000E+00  0.00000000000E+00  0.45593999997E+02  0.45594000000E+02  0.51100000000E-03 0.  1.
         11   -1    0    0    0    0 -0.00000000000E+00 -0.00000000000E+00 -0.45593999997E+02  0.45594000000E+02  0.51100000000E-03 0. -1.
    9900012    2    1    2    0    0 -0.30555599546E+02 -0.32331847491E+02  0.70795918003E+01  0.46142316013E+02  0.99999840575E+01 0.  0.
         12    1    1    2    0    0  0.30555599546E+02  0.32331847491E+02 -0.70795918003E+01  0.45045683987E+02  0.00000000000E+00 0. -1.
         11    1    3    3    0    0 -0.17732887331E+02 -0.17128845662E+02  0.19010879526E+01  0.24727854385E+02  0.51100000000E-03 0. -1.
        -11    1    3    3    0    0 -0.12822053677E+02 -0.15474574231E+02  0.56453901251E+01  0.20874336829E+02  0.51100000000E-03 0.  1.
        -12    1    3    3    0    0 -0.65853824161E-03  0.27157240148E+00 -0.46688627736E+00  0.54012479938E+00  0.00000000000E+00 0.  1.
</event>
<event>
 7    1  0.1442665E-008  0.4614232E+02  0.7816164E-02  0.1320468E+00
        -11   -1    0    0    0    0  0.00000000000E+00  0.00000000000E+00  0.45593999997E+02  0.45594000000E+02  0.51100000000E-03 0.  1.
         11   -1    0    0    0    0 -0.00000000000E+00 -0.00000000000E+00 -0.45593999997E+02  0.45594000000E+02  0.51100000000E-03 0. -1.
    9900012    2    1    2    0    0  0.42583208009E+02 -0.86709927611E+01  0.11857385493E+02  0.46142319735E+02  0.10000018001E+02 0.  0.
         12    1    1    2    0    0 -0.42583208009E+02  0.86709927611E+01 -0.11857385493E+02  0.45045680265E+02  0.00000000000E+00 0. -1.
         11    1    3    3    0    0  0.79245894365E+01 -0.38384442450E+01  0.11449960003E+01  0.88794024608E+01  0.51100000000E-03 0. -1.
        -11    1    3    3    0    0  0.23855903456E+02 -0.60754089194E+01  0.92185532725E+01  0.26286811293E+02  0.51100000000E-03 0.  1.
         12    1    3    3    0    0  0.10802715116E+02  0.12428604034E+01  0.14938362203E+01  0.10976105982E+02  0.00000000000E+00 0. -1.
</event>
<event>
 7    1  0.1442665E-008  0.4614232E+02  0.7816164E-02  0.1320468E+00
        -11   -1    0    0    0    0  0.00000000000E+00  0.00000000000E+00  0.45593999997E+02  0.45594000000E+02  0.51100000000E-03 0.  1.
         11   -1    0    0    0    0 -0.00000000000E+00 -0.00000000000E+00 -0.45593999997E+02  0.45594000000E+02  0.51100000000E-03 0. -1.
    9900012    2    1    2    0    0  0.26517515452E+02  0.14616370275E+02  0.33351110267E+02  0.46142318056E+02  0.10000002686E+02 0.  0.
         12    1    1    2    0    0 -0.26517515452E+02 -0.14616370275E+02 -0.33351110267E+02  0.45045681944E+02  0.00000000000E+00 0. -1.
         11    1    3    3    0    0  0.18375514628E+02  0.76248702145E+01  0.21127224202E+02  0.29019954968E+02  0.51100000000E-03 0.  1.
        -11    1    3    3    0    0  0.34765391644E+01  0.59409800147E+01  0.91001978703E+01  0.11410309796E+02  0.51100000000E-03 0. -1.
         12    1    3    3    0    0  0.46654616595E+01  0.10505200462E+01  0.31236881954E+01  0.57120532916E+01  0.00000000000E+00 0. -1.
</event>
<event>
 7    1  0.1442665E-008  0.4614232E+02  0.7816164E-02  0.1320468E+00
        -11   -1    0    0    0    0  0.00000000000E+00  0.00000000000E+00  0.45593999997E+02  0.45594000000E+02  0.51100000000E-03 0. -1.
         11   -1    0    0    0    0 -0.00000000000E+00 -0.00000000000E+00 -0.45593999997E+02  0.45594000000E+02  0.51100000000E-03 0.  1.
    9900012    2    1    2    0    0 -0.38507647944E+02  0.19156537771E+01  0.23293879789E+02  0.46142317464E+02  0.99999972872E+01 0.  0.
         12    1    1    2    0    0  0.38507647944E+02 -0.19156537771E+01 -0.23293879789E+02  0.45045682536E+02  0.00000000000E+00 0. -1.
         11    1    3    3    0    0 -0.26965355917E+02 -0.25953381266E+00  0.11384432093E+02  0.29271198675E+02  0.51100000000E-03 0. -1.
        -11    1    3    3    0    0 -0.95850221887E+01  0.19349215545E+01  0.86174532392E+01  0.13033689899E+02  0.51100000000E-03 0.  1.
         12    1    3    3    0    0 -0.19572698381E+01  0.24026603532E+00  0.32919944559E+01  0.38374288898E+01  0.00000000000E+00 0. -1.
</event>
<event>
 7    1  0.1442665E-008  0.4614232E+02  0.7816164E-02  0.1320468E+00
        -11   -1    0    0    0    0  0.00000000000E+00  0.00000000000E+00  0.45593999997E+02  0.45594000000E+02  0.51100000000E-03 0.  1.
         11   -1    0    0    0    0 -0.00000000000E+00 -0.00000000000E+00 -0.45593999997E+02  0.45594000000E+02  0.51100000000E-03 0. -1.
    9900012    2    1    2    0    0  0.23471356036E+02  0.27825207043E+02  0.26532372893E+02  0.46142317494E+02  0.99999975624E+01 0.  0.
         12    1    1    2    0    0 -0.23471356036E+02 -0.27825207043E+02 -0.26532372893E+02  0.45045682506E+02  0.00000000000E+00 0. -1.
         11    1    3    3    0    0  0.20562095790E+01  0.48700938831E+01  0.41369514552E+01  0.67126879763E+01  0.51100000000E-03 0. -1.
        -11    1    3    3    0    0  0.58537430187E+01  0.12108875174E+02  0.84036869051E+01  0.15859165147E+02  0.51100000000E-03 0.  1.
        -12    1    3    3    0    0  0.15561403438E+02  0.10846237986E+02  0.13991734533E+02  0.23570464370E+02  0.00000000000E+00 0.  1.
</event>
<event>
 7    1  0.1442665E-008  0.4614232E+02  0.7816164E-02  0.1320468E+00
        -11   -1    0    0    0    0  0.00000000000E+00  0.00000000000E+00  0.45593999997E+02  0.45594000000E+02  0.51100000000E-03 0.  1.
         11   -1    0    0    0    0 -0.00000000000E+00 -0.00000000000E+00 -0.45593999997E+02  0.45594000000E+02  0.51100000000E-03 0. -1.
    9900012    2    1    2    0    0  0.22087344642E+02  0.37526442546E+02  0.11533814571E+02  0.46142316944E+02  0.99999925454E+01 0.  0.
         12    1    1    2    0    0 -0.22087344642E+02 -0.37526442546E+02 -0.11533814571E+02  0.45045683056E+02  0.00000000000E+00 0. -1.
         11    1    3    3    0    0  0.12246897175E+02  0.22819329622E+02  0.11159457821E+02  0.28200031807E+02  0.51100000000E-03 0. -1.
        -11    1    3    3    0    0  0.78824813718E+01  0.98189967086E+01  0.10415218324E+01  0.12634515303E+02  0.51100000000E-03 0.  1.
         12    1    3    3    0    0  0.19579660953E+01  0.48881162150E+01 -0.66716508249E+00  0.53077698338E+01  0.00000000000E+00 0. -1.
</event>
<event>
 7    1  0.1442665E-008  0.4614232E+02  0.7816164E-02  0.1320468E+00
        -11   -1    0    0    0    0  0.00000000000E+00  0.00000000000E+00  0.45593999997E+02  0.45594000000E+02  0.51100000000E-03 0.  1.
         11   -1    0    0    0    0 -0.00000000000E+00 -0.00000000000E+00 -0.45593999997E+02  0.45594000000E+02  0.51100000000E-03 0. -1.
    9900012    2    1    2    0    0 -0.18120264841E+02  0.39221099554E+02  0.12746567839E+02  0.46142316080E+02  0.99999846699E+01 0.  0.
         12    1    1    2    0    0  0.18120264841E+02 -0.39221099554E+02 -0.12746567839E+02  0.45045683920E+02  0.00000000000E+00 0. -1.
         11    1    3    3    0    0 -0.11230931389E+02  0.17069409675E+02  0.65123786697E+01  0.21445504021E+02  0.51100000000E-03 0. -1.
        -11    1    3    3    0    0 -0.47402176650E+01  0.76950187648E+01  0.41070994061E+01  0.99272978748E+01  0.51100000000E-03 0.  1.
         12    1    3    3    0    0 -0.21491157875E+01  0.14456671115E+02  0.21270897628E+01  0.14769514184E+02  0.00000000000E+00 0. -1.
</event>
<event>
 7    1  0.1442665E-008  0.4614232E+02  0.7816164E-02  0.1320468E+00
        -11   -1    0    0    0    0  0.00000000000E+00  0.00000000000E+00  0.45593999997E+02  0.45594000000E+02  0.51100000000E-03 0. -1.
         11   -1    0    0    0    0 -0.00000000000E+00 -0.00000000000E+00 -0.45593999997E+02  0.45594000000E+02  0.51100000000E-03 0.  1.
    9900012    2    1    2    0    0 -0.37211870815E+02 -0.24843598956E+02 -0.52139936750E+01  0.46142317979E+02  0.10000001988E+02 0.  0.
         12    1    1    2    0    0  0.37211870815E+02  0.24843598956E+02  0.52139936750E+01  0.45045682021E+02  0.00000000000E+00 0. -1.
         11    1    3    3    0    0 -0.69024145426E+01 -0.19673228901E+01  0.15070550247E+01  0.73338189902E+01  0.51100000000E-03 0. -1.
        -11    1    3    3    0    0 -0.18015228792E+02 -0.15181114962E+02 -0.24333526752E+01  0.23684085911E+02  0.51100000000E-03 0.  1.
         12    1    3    3    0    0 -0.12294227480E+02 -0.76951611038E+01 -0.42876960245E+01  0.15124413078E+02  0.00000000000E+00 0. -1.
</event>
<event>
 7    1  0.1442665E-008  0.4614232E+02  0.7816164E-02  0.1320468E+00
        -11   -1    0    0    0    0  0.00000000000E+00  0.00000000000E+00  0.45593999997E+02  0.45594000000E+02  0.51100000000E-03 0.  1.
         11   -1    0    0    0    0 -0.00000000000E+00 -0.00000000000E+00 -0.45593999997E+02  0.45594000000E+02  0.51100000000E-03 0. -1.
    9900012    2    1    2    0    0 -0.16781695916E+02 -0.12671013495E+02  0.39836336852E+02  0.46142316138E+02  0.99999851983E+01 0.  0.
         12    1    1    2    0    0  0.16781695916E+02  0.12671013495E+02 -0.39836336852E+02  0.45045683862E+02  0.00000000000E+00 0. -1.
         11    1    3    3    0    0 -0.24468289461E+01  0.15459384865E+01  0.55683304947E+01  0.62756037522E+01  0.51100000000E-03 0. -1.
        -11    1    3    3    0    0 -0.14455437607E+02 -0.14151592942E+02  0.33943390041E+02  0.39514313697E+02  0.51100000000E-03 0.  1.
         12    1    3    3    0    0  0.12057063769E+00 -0.65359039016E-01  0.32461631641E+00  0.35239868832E+00  0.00000000000E+00 0. -1.
</event>
<event>
 7    1  0.1442665E-008  0.4614232E+02  0.7816164E-02  0.1320468E+00
        -11   -1    0    0    0    0  0.00000000000E+00  0.00000000000E+00  0.45593999997E+02  0.45594000000E+02  0.51100000000E-03 0. -1.
         11   -1    0    0    0    0 -0.00000000000E+00 -0.00000000000E+00 -0.45593999997E+02  0.45594000000E+02  0.51100000000E-03 0.  1.
    9900012    2    1    2    0    0 -0.32518894776E+02 -0.18089057012E+02 -0.25385448424E+02  0.46142317713E+02  0.99999995579E+01 0.  0.
         12    1    1    2    0    0  0.32518894776E+02  0.18089057012E+02  0.25385448424E+02  0.45045682287E+02  0.00000000000E+00 0. -1.
         11    1    3    3    0    0 -0.16315843746E+02 -0.56719150399E+01 -0.79962977489E+01  0.19034656690E+02  0.51100000000E-03 0. -1.
        -11    1    3    3    0    0 -0.85521805689E+01 -0.57300212758E+01 -0.11188595295E+02  0.15203867970E+02  0.51100000000E-03 0.  1.
         12    1    3    3    0    0 -0.76508704615E+01 -0.66871206963E+01 -0.62005553803E+01  0.11903793053E+02  0.00000000000E+00 0. -1.
</event>
<event>
 7    1  0.1442665E-008  0.4614232E+02  0.7816164E-02  0.1320468E+00
        -11   -1    0    0    0    0  0.00000000000E+00  0.00000000000E+00  0.45593999997E+02  0.45594000000E+02  0.51100000000E-03 0.  1.
         11   -1    0    0    0    0 -0.00000000000E+00 -0.00000000000E+00 -0.45593999997E+02  0.45594000000E+02  0.51100000000E-03 0. -1.
    9900012    2    1    2    0    0  0.43423443718E+02 -0.12591887902E+01  0.11913542603E+02  0.46142317431E+02  0.99999969867E+01 0.  0.
         12    1    1    2    0    0 -0.43423443718E+02  0.12591887902E+01 -0.11913542603E+02  0.45045682569E+02  0.00000000000E+00 0. -1.
         11    1    3    3    0    0  0.13081212070E+02 -0.30280572360E+01  0.13001921090E+01  0.13489912514E+02  0.51100000000E-03 0. -1.
        -11    1    3    3    0    0  0.12798255703E+02 -0.17697103306E+01  0.34319216294E+01  0.13368070542E+02  0.51100000000E-03 0.  1.
         12    1    3    3    0    0  0.17543975945E+02  0.35385787764E+01  0.71814288650E+01  0.19284334374E+02  0.00000000000E+00 0. -1.
</event>
<event>
 7    1  0.1442665E-008  0.4614232E+02  0.7816164E-02  0.1320468E+00
        -11   -1    0    0    0    0  0.00000000000E+00  0.00000000000E+00  0.45593999997E+02  0.45594000000E+02  0.51100000000E-03 0.  1.
         11   -1    0    0    0    0 -0.00000000000E+00 -0.00000000000E+00 -0.45593999997E+02  0.45594000000E+02  0.51100000000E-03 0. -1.
    9900012    2    1    2    0    0  0.25530653952E+02  0.25493768819E+02  0.26969740710E+02  0.46142318146E+02  0.10000003507E+02 0.  0.
         12    1    1    2    0    0 -0.25530653952E+02 -0.25493768819E+02 -0.26969740710E+02  0.45045681854E+02  0.00000000000E+00 0. -1.
         11    1    3    3    0    0  0.94306046550E-01  0.30055848925E+01  0.33953090081E+01  0.45354776703E+01  0.51100000000E-03 0. -1.
        -11    1    3    3    0    0  0.21314246563E+02  0.19439327357E+02  0.17856961070E+02  0.33927210519E+02  0.51100000000E-03 0.  1.
        -12    1    3    3    0    0  0.41221013426E+01  0.30488565686E+01  0.57174706311E+01  0.76796299567E+01  0.00000000000E+00 0.  1.
</event>
<event>
 7    1  0.1442665E-008  0.4614232E+02  0.7816164E-02  0.1320468E+00
        -11   -1    0    0    0    0  0.00000000000E+00  0.00000000000E+00  0.45593999997E+02  0.45594000000E+02  0.51100000000E-03 0. -1.
         11   -1    0    0    0    0 -0.00000000000E+00 -0.00000000000E+00 -0.45593999997E+02  0.45594000000E+02  0.51100000000E-03 0.  1.
    9900012    2    1    2    0    0  0.27908944746E+02  0.31507200584E+02 -0.16046823852E+02  0.46142318284E+02  0.10000004770E+02 0.  0.
         12    1    1    2    0    0 -0.27908944746E+02 -0.31507200584E+02  0.16046823852E+02  0.45045681716E+02  0.00000000000E+00 0. -1.
         11    1    3    3    0    0  0.11349969093E+01  0.14176057560E+01 -0.20241445439E+01  0.27193722546E+01  0.51100000000E-03 0. -1.
        -11    1    3    3    0    0  0.14388140554E+02  0.14032567878E+02 -0.11025659593E+02  0.22923715222E+02  0.51100000000E-03 0.  1.
         12    1    3    3    0    0  0.12385807283E+02  0.16057026950E+02 -0.29970197148E+01  0.20499230807E+02  0.00000000000E+00 0. -1.
</event>
<event>
 7    1  0.1442665E-008  0.4614232E+02  0.7816164E-02  0.1320468E+00
        -11   -1    0    0    0    0  0.00000000000E+00  0.00000000000E+00  0.45593999997E+02  0.45594000000E+02  0.51100000000E-03 0.  1.
         11   -1    0    0    0    0 -0.00000000000E+00 -0.00000000000E+00 -0.45593999997E+02  0.45594000000E+02  0.51100000000E-03 0. -1.
    9900012    2    1    2    0    0 -0.99280453398E+01 -0.43724620844E+02 -0.43249180539E+01  0.46142317983E+02  0.10000002019E+02 0.  0.
         12    1    1    2    0    0  0.99280453398E+01  0.43724620844E+02  0.43249180539E+01  0.45045682017E+02  0.00000000000E+00 0. -1.
         11    1    3    3    0    0 -0.52039892367E+01 -0.24527632110E+02 -0.59166979438E+01  0.25762250595E+02  0.51100000000E-03 0. -1.
        -11    1    3    3    0    0 -0.17051498966E+01 -0.15227166446E+02  0.95200804031E+00  0.15351887627E+02  0.51100000000E-03 0.  1.
         12    1    3    3    0    0 -0.30189062065E+01 -0.39698222884E+01  0.63977184966E+00  0.50281797606E+01  0.00000000000E+00 0. -1.
</event>
<event>
 7    1  0.1442665E-008  0.4614232E+02  0.7816164E-02  0.1320468E+00
        -11   -1    0    0    0    0  0.00000000000E+00  0.00000000000E+00  0.45593999997E+02  0.45594000000E+02  0.51100000000E-03 0. -1.
         11   -1    0    0    0    0 -0.00000000000E+00 -0.00000000000E+00 -0.45593999997E+02  0.45594000000E+02  0.51100000000E-03 0.  1.
    9900012    2    1    2    0    0  0.21486463716E+02 -0.38573665241E+02 -0.89172756403E+01  0.46142316766E+02  0.99999909252E+01 0.  0.
         12    1    1    2    0    0 -0.21486463716E+02  0.38573665241E+02  0.89172756403E+01  0.45045683234E+02  0.00000000000E+00 0. -1.
         11    1    3    3    0    0  0.56894089554E+01 -0.51277146579E+01 -0.55069681216E+00  0.76789386711E+01  0.51100000000E-03 0. -1.
        -11    1    3    3    0    0  0.14259182232E+02 -0.32690738480E+02 -0.87159973396E+01  0.36714809957E+02  0.51100000000E-03 0.  1.
        -12    1    3    3    0    0  0.15378725290E+01 -0.75521210342E+00  0.34941851147E+00  0.17485681379E+01  0.00000000000E+00 0.  1.
</event>
<event>
 7    1  0.1442665E-008  0.4614232E+02  0.7816164E-02  0.1320468E+00
        -11   -1    0    0    0    0  0.00000000000E+00  0.00000000000E+00  0.45593999997E+02  0.45594000000E+02  0.51100000000E-03 0.  1.
         11   -1    0    0    0    0 -0.00000000000E+00 -0.00000000000E+00 -0.45593999997E+02  0.45594000000E+02  0.51100000000E-03 0. -1.
    9900012    2    1    2    0    0 -0.17459518076E+02 -0.40967062648E+02  0.67807453139E+01  0.46142317627E+02  0.99999987740E+01 0.  0.
         12    1    1    2    0    0  0.17459518076E+02  0.40967062648E+02 -0.67807453139E+01  0.45045682373E+02  0.00000000000E+00 0. -1.
         11    1    3    3    0    0 -0.53030660562E+01 -0.94101752271E+01  0.11485463696E+01  0.10862461343E+02  0.51100000000E-03 0. -1.
        -11    1    3    3    0    0 -0.10620421116E+02 -0.31412594512E+02  0.47366377552E+01  0.33495972536E+02  0.51100000000E-03 0.  1.
        -12    1    3    3    0    0 -0.15360309038E+01 -0.14429290890E+00  0.89556118905E+00  0.17838837475E+01  0.00000000000E+00 0.  1.
</event>
<event>
 7    1  0.1442665E-008  0.4614232E+02  0.7816164E-02  0.1320468E+00
        -11   -1    0    0    0    0  0.00000000000E+00  0.00000000000E+00  0.45593999997E+02  0.45594000000E+02  0.51100000000E-03 0.  1.
         11   -1    0    0    0    0 -0.00000000000E+00 -0.00000000000E+00 -0.45593999997E+02  0.45594000000E+02  0.51100000000E-03 0. -1.
    9900012    2    1    2    0    0 -0.42249325444E+02  0.67245616930E+01  0.14102774182E+02  0.46142317964E+02  0.10000001854E+02 0.  0.
         12    1    1    2    0    0  0.42249325444E+02 -0.67245616930E+01 -0.14102774182E+02  0.45045682036E+02  0.00000000000E+00 0. -1.
         11    1    3    3    0    0 -0.34356340691E+02  0.80814617243E+01  0.84277655858E+01  0.36286297721E+02  0.51100000000E-03 0. -1.
        -11    1    3    3    0    0 -0.46538207885E+01 -0.66779449136E+00  0.28112621003E+01  0.54778820973E+01  0.51100000000E-03 0.  1.
         12    1    3    3    0    0 -0.32391639644E+01 -0.68910553998E+00  0.28637464959E+01  0.43781381461E+01  0.00000000000E+00 0. -1.
</event>
<event>
 7    1  0.1442665E-008  0.4614232E+02  0.7816164E-02  0.1320468E+00
        -11   -1    0    0    0    0  0.00000000000E+00  0.00000000000E+00  0.45593999997E+02  0.45594000000E+02  0.51100000000E-03 0.  1.
         11   -1    0    0    0    0 -0.00000000000E+00 -0.00000000000E+00 -0.45593999997E+02  0.45594000000E+02  0.51100000000E-03 0. -1.
    9900012    2    1    2    0    0 -0.71872862610E+01  0.40945328437E+02  0.17347509106E+02  0.46142322329E+02  0.10000041655E+02 0.  0.
         12    1    1    2    0    0  0.71872862610E+01 -0.40945328437E+02 -0.17347509106E+02  0.45045677671E+02  0.00000000000E+00 0. -1.
         11    1    3    3    0    0 -0.67979592635E+00  0.10144226720E+02  0.57680558173E+01  0.11689222661E+02  0.51100000000E-03 0. -1.
        -11    1    3    3    0    0 -0.40309034926E+01  0.27233025106E+02  0.75930330505E+01  0.28557660804E+02  0.51100000000E-03 0.  1.
        -12    1    3    3    0    0 -0.24765868420E+01  0.35680766113E+01  0.39864202384E+01  0.58954388647E+01  0.00000000000E+00 0.  1.
</event>
<event>
 7    1  0.1442665E-008  0.4614232E+02  0.7816164E-02  0.1320468E+00
        -11   -1    0    0    0    0  0.00000000000E+00  0.00000000000E+00  0.45593999997E+02  0.45594000000E+02  0.51100000000E-03 0.  1.
         11   -1    0    0    0    0 -0.00000000000E+00 -0.00000000000E+00 -0.45593999997E+02  0.45594000000E+02  0.51100000000E-03 0. -1.
    9900012    2    1    2    0    0  0.37639735783E+02  0.10285707047E+02  0.22507065352E+02  0.46142317964E+02  0.10000001851E+02 0.  0.
         12    1    1    2    0    0 -0.37639735783E+02 -0.10285707047E+02 -0.22507065352E+02  0.45045682036E+02  0.00000000000E+00 0. -1.
         11    1    3    3    0    0  0.26804666150E+02  0.59285356741E+01  0.19891825477E+02  0.33901657536E+02  0.51100000000E-03 0. -1.
        -11    1    3    3    0    0  0.80807806945E+00  0.33418106802E+00  0.98042967481E+00  0.13137388481E+01  0.51100000000E-03 0.  1.
         12    1    3    3    0    0  0.10026991564E+02  0.40229903052E+01  0.16348102010E+01  0.10926921580E+02  0.00000000000E+00 0. -1.
</event>
<event>
 7    1  0.1442665E-008  0.4614232E+02  0.7816164E-02  0.1320468E+00
        -11   -1    0    0    0    0  0.00000000000E+00  0.00000000000E+00  0.45593999997E+02  0.45594000000E+02  0.51100000000E-03 0.  1.
         11   -1    0    0    0    0 -0.00000000000E+00 -0.00000000000E+00 -0.45593999997E+02  0.45594000000E+02  0.51100000000E-03 0. -1.
    9900012    2    1    2    0    0  0.41949368997E+02  0.62375303748E+01  0.15180814426E+02  0.46142317953E+02  0.10000001752E+02 0.  0.
         12    1    1    2    0    0 -0.41949368997E+02 -0.62375303748E+01 -0.15180814426E+02  0.45045682047E+02  0.00000000000E+00 0. -1.
         11    1    3    3    0    0  0.24814872201E+02  0.49992150195E+01  0.90587110056E+01  0.26885503129E+02  0.51100000000E-03 0. -1.
        -11    1    3    3    0    0  0.11736161778E+02  0.29702907464E+01  0.61687369792E+01  0.13587252723E+02  0.51100000000E-03 0.  1.
         12    1    3    3    0    0  0.53983350187E+01 -0.17319753911E+01 -0.46633558664E-01  0.56695621011E+01  0.00000000000E+00 0. -1.
</event>
<event>
 7    1  0.1442665E-008  0.4614232E+02  0.7816164E-02  0.1320468E+00
        -11   -1    0    0    0    0  0.00000000000E+00  0.00000000000E+00  0.45593999997E+02  0.45594000000E+02  0.51100000000E-03 0.  1.
         11   -1    0    0    0    0 -0.00000000000E+00 -0.00000000000E+00 -0.45593999997E+02  0.45594000000E+02  0.51100000000E-03 0. -1.
    9900012    2    1    2    0    0 -0.17188648932E+02  0.21031180398E+02  0.35935404590E+02  0.46142317586E+02  0.99999984030E+01 0.  0.
         12    1    1    2    0    0  0.17188648932E+02 -0.21031180398E+02 -0.35935404590E+02  0.45045682414E+02  0.00000000000E+00 0. -1.
         11    1    3    3    0    0 -0.85624895255E+01  0.13042990244E+02  0.24230774517E+02  0.28819546411E+02  0.51100000000E-03 0. -1.
        -11    1    3    3    0    0 -0.84487086210E+01  0.55138143812E+01  0.80552822935E+01  0.12910089058E+02  0.51100000000E-03 0.  1.
        -12    1    3    3    0    0 -0.17745078575E+00  0.24743757727E+01  0.36493477801E+01  0.44126821170E+01  0.00000000000E+00 0.  1.
</event>
<event>
 7    1  0.1442665E-008  0.4614232E+02  0.7816164E-02  0.1320468E+00
        -11   -1    0    0    0    0  0.00000000000E+00  0.00000000000E+00  0.45593999997E+02  0.45594000000E+02  0.51100000000E-03 0.  1.
         11   -1    0    0    0    0 -0.00000000000E+00 -0.00000000000E+00 -0.45593999997E+02  0.45594000000E+02  0.51100000000E-03 0. -1.
    9900012    2    1    2    0    0  0.16074898556E+02 -0.34253696351E+01  0.41940171533E+02  0.46142317532E+02  0.99999979127E+01 0.  0.
         12    1    1    2    0    0 -0.16074898556E+02  0.34253696351E+01 -0.41940171533E+02  0.45045682468E+02  0.00000000000E+00 0. -1.
         11    1    3    3    0    0  0.39515435359E+01 -0.18005384676E+01  0.66304468259E+01  0.79258728517E+01  0.51100000000E-03 0. -1.
        -11    1    3    3    0    0  0.11533792536E+02 -0.17199850893E+01  0.35663986328E+02  0.37522082032E+02  0.51100000000E-03 0.  1.
        -12    1    3    3    0    0  0.58956248413E+00  0.95153921711E-01 -0.35426162040E+00  0.69436264819E+00  0.00000000000E+00 0.  1.
</event>
<event>
 7    1  0.1442665E-008  0.4614232E+02  0.7816164E-02  0.1320468E+00
        -11   -1    0    0    0    0  0.00000000000E+00  0.00000000000E+00  0.45593999997E+02  0.45594000000E+02  0.51100000000E-03 0.  1.
         11   -1    0    0    0    0 -0.00000000000E+00 -0.00000000000E+00 -0.45593999997E+02  0.45594000000E+02  0.51100000000E-03 0. -1.
    9900012    2    1    2    0    0  0.26743268531E+02 -0.21672318109E+02  0.29055494477E+02  0.46142317152E+02  0.99999944483E+01 0.  0.
         12    1    1    2    0    0 -0.26743268531E+02  0.21672318109E+02 -0.29055494477E+02  0.45045682848E+02  0.00000000000E+00 0. -1.
         11    1    3    3    0    0  0.18331394592E+01 -0.14339324510E+01  0.45466024958E+01  0.51076567099E+01  0.51100000000E-03 0. -1.
        -11    1    3    3    0    0  0.48440315767E+01 -0.52968754326E+01  0.21803955099E+01  0.75017102120E+01  0.51100000000E-03 0.  1.
        -12    1    3    3    0    0  0.20066097495E+02 -0.14941510226E+02  0.22328496471E+02  0.33532950230E+02  0.00000000000E+00 0.  1.
</event>
<event>
 7    1  0.1442665E-008  0.4614232E+02  0.7816164E-02  0.1320468E+00
        -11   -1    0    0    0    0  0.00000000000E+00  0.00000000000E+00  0.45593999997E+02  0.45594000000E+02  0.51100000000E-03 0. -1.
         11   -1    0    0    0    0 -0.00000000000E+00 -0.00000000000E+00 -0.45593999997E+02  0.45594000000E+02  0.51100000000E-03 0.  1.
    9900012    2    1    2    0    0 -0.11636162366E+02 -0.29503712488E+02 -0.31988191146E+02  0.46142315434E+02  0.99999787809E+01 0.  0.
         12    1    1    2    0    0  0.11636162366E+02  0.29503712488E+02  0.31988191146E+02  0.45045684566E+02  0.00000000000E+00 0. -1.
         11    1    3    3    0    0 -0.78826021022E+01 -0.15755917768E+02 -0.20648646245E+02  0.27143156644E+02  0.51100000000E-03 0. -1.
        -11    1    3    3    0    0 -0.42869729381E+01 -0.11989657118E+02 -0.75897178228E+01  0.14823421726E+02  0.51100000000E-03 0.  1.
         12    1    3    3    0    0  0.53341267403E+00 -0.17581376032E+01 -0.37498270783E+01  0.41757370643E+01  0.00000000000E+00 0. -1.
</event>
<event>
 7    1  0.1442665E-008  0.4614232E+02  0.7816164E-02  0.1320468E+00
        -11   -1    0    0    0    0  0.00000000000E+00  0.00000000000E+00  0.45593999997E+02  0.45594000000E+02  0.51100000000E-03 0. -1.
         11   -1    0    0    0    0 -0.00000000000E+00 -0.00000000000E+00 -0.45593999997E+02  0.45594000000E+02  0.51100000000E-03 0.  1.
    9900012    2    1    2    0    0 -0.32573785202E+02  0.72840081613E+01 -0.30249053346E+02  0.46142317792E+02  0.10000000279E+02 0.  0.
         12    1    1    2    0    0  0.32573785202E+02 -0.72840081613E+01  0.30249053346E+02  0.45045682208E+02  0.00000000000E+00 0. -1.
         11    1    3    3    0    0 -0.18570583373E+01  0.51295907976E+00 -0.76437933576E+00  0.20726960017E+01  0.51100000000E-03 0. -1.
        -11    1    3    3    0    0 -0.11852099768E+02  0.55160335774E+01 -0.16865304805E+02  0.21338636362E+02  0.51100000000E-03 0.  1.
        -12    1    3    3    0    0 -0.18864627097E+02  0.12550155041E+01 -0.12619369205E+02  0.22730985428E+02  0.00000000000E+00 0.  1.
</event>
<event>
 7    1  0.1442665E-008  0.4614232E+02  0.7816164E-02  0.1320468E+00
        -11   -1    0    0    0    0  0.00000000000E+00  0.00000000000E+00  0.45593999997E+02  0.45594000000E+02  0.51100000000E-03 0.  1.
         11   -1    0    0    0    0 -0.00000000000E+00 -0.00000000000E+00 -0.45593999997E+02  0.45594000000E+02  0.51100000000E-03 0. -1.
    9900012    2    1    2    0    0 -0.44377524064E+02  0.10037274362E+01 -0.76642927620E+01  0.46142317695E+02  0.99999993961E+01 0.  0.
         12    1    1    2    0    0  0.44377524064E+02 -0.10037274362E+01  0.76642927620E+01  0.45045682305E+02  0.00000000000E+00 0. -1.
         11    1    3    3    0    0 -0.39308170682E+01  0.15705565740E+01  0.12694265111E+01  0.44192097375E+01  0.51100000000E-03 0. -1.
        -11    1    3    3    0    0 -0.21922277955E+02 -0.23960473602E+01 -0.34768872207E+01  0.22325233676E+02  0.51100000000E-03 0.  1.
         12    1    3    3    0    0 -0.18524429041E+02  0.18292182224E+01 -0.54568320524E+01  0.19397874281E+02  0.00000000000E+00 0. -1.
</event>
<event>
 7    1  0.1442665E-008  0.4614232E+02  0.7816164E-02  0.1320468E+00
        -11   -1    0    0    0    0  0.00000000000E+00  0.00000000000E+00  0.45593999997E+02  0.45594000000E+02  0.51100000000E-03 0. -1.
         11   -1    0    0    0    0 -0.00000000000E+00 -0.00000000000E+00 -0.45593999997E+02  0.45594000000E+02  0.51100000000E-03 0.  1.
    9900012    2    1    2    0    0 -0.35230540239E+02  0.18567753920E+01  0.28008479130E+02  0.46142317814E+02  0.10000000484E+02 0.  0.
         12    1    1    2    0    0  0.35230540239E+02 -0.18567753920E+01 -0.28008479130E+02  0.45045682186E+02  0.00000000000E+00 0. -1.
         11    1    3    3    0    0 -0.17422482148E+02  0.23368279061E+01  0.18196991783E+02  0.25300872694E+02  0.51100000000E-03 0. -1.
        -11    1    3    3    0    0 -0.13444239970E+02 -0.22742772480E+01  0.78342140370E+01  0.15725610805E+02  0.51100000000E-03 0.  1.
        -12    1    3    3    0    0 -0.43638181216E+01  0.17942247339E+01  0.19772733098E+01  0.51158343147E+01  0.00000000000E+00 0.  1.
</event>
<event>
 7    1  0.1442665E-008  0.4614232E+02  0.7816164E-02  0.1320468E+00
        -11   -1    0    0    0    0  0.00000000000E+00  0.00000000000E+00  0.45593999997E+02  0.45594000000E+02  0.51100000000E-03 0.  1.
         11   -1    0    0    0    0 -0.00000000000E+00 -0.00000000000E+00 -0.45593999997E+02  0.45594000000E+02  0.51100000000E-03 0. -1.
    9900012    2    1    2    0    0  0.91272812663E+01 -0.74949534832E+01  0.43469896554E+02  0.46142317661E+02  0.99999990849E+01 0.  0.
         12    1    1    2    0    0 -0.91272812663E+01  0.74949534832E+01 -0.43469896554E+02  0.45045682339E+02  0.00000000000E+00 0. -1.
         11    1    3    3    0    0  0.39127405006E+01 -0.78415802103E+01  0.29099783923E+02  0.30390744365E+02  0.51100000000E-03 0. -1.
        -11    1    3    3    0    0  0.16645691669E+01 -0.14277150568E+01  0.75369080831E+01  0.78494677851E+01  0.51100000000E-03 0.  1.
         12    1    3    3    0    0  0.35499715987E+01  0.17743417839E+01  0.68332045477E+01  0.79021055111E+01  0.00000000000E+00 0. -1.
</event>
<event>
 7    1  0.1442665E-008  0.4614232E+02  0.7816164E-02  0.1320468E+00
        -11   -1    0    0    0    0  0.00000000000E+00  0.00000000000E+00  0.45593999997E+02  0.45594000000E+02  0.51100000000E-03 0. -1.
         11   -1    0    0    0    0 -0.00000000000E+00 -0.00000000000E+00 -0.45593999997E+02  0.45594000000E+02  0.51100000000E-03 0.  1.
    9900012    2    1    2    0    0  0.25878737552E+02 -0.27452307154E+02 -0.24612501782E+02  0.46142317972E+02  0.10000001926E+02 0.  0.
         12    1    1    2    0    0 -0.25878737552E+02  0.27452307154E+02  0.24612501782E+02  0.45045682028E+02  0.00000000000E+00 0. -1.
         11    1    3    3    0    0  0.13431736204E+02 -0.11147507779E+02 -0.13567412803E+02  0.22107762382E+02  0.51100000000E-03 0.  1.
        -11    1    3    3    0    0  0.34335667285E+01 -0.98567579507E+00 -0.18595294870E+01  0.40272555700E+01  0.51100000000E-03 0. -1.
         12    1    3    3    0    0  0.90134346199E+01 -0.15319123580E+02 -0.91855594920E+01  0.20007300020E+02  0.00000000000E+00 0. -1.
</event>
<event>
 7    1  0.1442665E-008  0.4614231E+02  0.7816164E-02  0.1320468E+00
        -11   -1    0    0    0    0  0.00000000000E+00  0.00000000000E+00  0.45593999997E+02  0.45594000000E+02  0.51100000000E-03 0.  1.
         11   -1    0    0    0    0 -0.00000000000E+00 -0.00000000000E+00 -0.45593999997E+02  0.45594000000E+02  0.51100000000E-03 0. -1.
    9900012    2    1    2    0    0 -0.83905150623E+01 -0.41602443973E+02  0.15098003597E+02  0.46142314300E+02  0.99999684420E+01 0.  0.
         12    1    1    2    0    0  0.83905150623E+01  0.41602443973E+02 -0.15098003597E+02  0.45045685700E+02  0.00000000000E+00 0. -1.
         11    1    3    3    0    0 -0.35919909483E+00 -0.14033713127E+02  0.76668751327E+01  0.15995471318E+02  0.51100000000E-03 0. -1.
        -11    1    3    3    0    0 -0.89147679122E+00 -0.46178765896E+01 -0.73812977713E+00  0.47607090749E+01  0.51100000000E-03 0.  1.
        -12    1    3    3    0    0 -0.71398391762E+01 -0.22950854256E+02  0.81692582409E+01  0.25386133907E+02  0.00000000000E+00 0.  1.
</event>
<event>
 7    1  0.1442665E-008  0.4614232E+02  0.7816164E-02  0.1320468E+00
        -11   -1    0    0    0    0  0.00000000000E+00  0.00000000000E+00  0.45593999997E+02  0.45594000000E+02  0.51100000000E-03 0.  1.
         11   -1    0    0    0    0 -0.00000000000E+00 -0.00000000000E+00 -0.45593999997E+02  0.45594000000E+02  0.51100000000E-03 0. -1.
    9900012    2    1    2    0    0 -0.52180064784E+00 -0.22630766640E+02  0.38944700271E+02  0.46142317035E+02  0.99999933753E+01 0.  0.
         12    1    1    2    0    0  0.52180064784E+00  0.22630766640E+02 -0.38944700271E+02  0.45045682965E+02  0.00000000000E+00 0. -1.
         11    1    3    3    0    0 -0.10420381996E+00 -0.13988874611E+01  0.57370087532E+00  0.15155452881E+01  0.51100000000E-03 0. -1.
        -11    1    3    3    0    0  0.30514384049E+00 -0.66958542228E+01  0.20563799785E+02  0.21628625439E+02  0.51100000000E-03 0.  1.
        -12    1    3    3    0    0 -0.72274066836E+00 -0.14536024956E+02  0.17807199611E+02  0.22998146307E+02  0.00000000000E+00 0.  1.
</event>
<event>
 7    1  0.1442665E-008  0.4614232E+02  0.7816164E-02  0.1320468E+00
        -11   -1    0    0    0    0  0.00000000000E+00  0.00000000000E+00  0.45593999997E+02  0.45594000000E+02  0.51100000000E-03 0.  1.
         11   -1    0    0    0    0 -0.00000000000E+00 -0.00000000000E+00 -0.45593999997E+02  0.45594000000E+02  0.51100000000E-03 0. -1.
    9900012    2    1    2    0    0  0.33355995454E+02  0.30266813444E+02  0.64115014456E+00  0.46142317607E+02  0.99999985947E+01 0.  0.
         12    1    1    2    0    0 -0.33355995454E+02 -0.30266813444E+02 -0.64115014456E+00  0.45045682393E+02  0.00000000000E+00 0. -1.
         11    1    3    3    0    0  0.22134796566E+00 -0.50589702680E+00  0.57884690102E+00  0.79999419971E+00  0.51100000000E-03 0. -1.
        -11    1    3    3    0    0  0.28338264687E+02  0.24726948136E+02  0.49636846332E+00  0.37612838121E+02  0.51100000000E-03 0.  1.
        -12    1    3    3    0    0  0.47963828012E+01  0.60457623343E+01 -0.43406521978E+00  0.77294852865E+01  0.00000000000E+00 0.  1.
</event>
<event>
 7    1  0.1442665E-008  0.4614232E+02  0.7816164E-02  0.1320468E+00
        -11   -1    0    0    0    0  0.00000000000E+00  0.00000000000E+00  0.45593999997E+02  0.45594000000E+02  0.51100000000E-03 0.  1.
         11   -1    0    0    0    0 -0.00000000000E+00 -0.00000000000E+00 -0.45593999997E+02  0.45594000000E+02  0.51100000000E-03 0. -1.
    9900012    2    1    2    0    0 -0.33370450784E+02  0.11903977710E+02  0.27817646170E+02  0.46142321969E+02  0.10000038368E+02 0.  0.
         12    1    1    2    0    0  0.33370450784E+02 -0.11903977710E+02 -0.27817646170E+02  0.45045678031E+02  0.00000000000E+00 0. -1.
         11    1    3    3    0    0 -0.26058088700E+02  0.11952420474E+02  0.19139901938E+02  0.34470569887E+02  0.51100000000E-03 0.  1.
        -11    1    3    3    0    0 -0.18780646713E+00 -0.11096802003E+00  0.16492323441E+01  0.16635963322E+01  0.51100000000E-03 0. -1.
        -12    1    3    3    0    0 -0.71245556170E+01  0.62525256852E-01  0.70285118885E+01  0.10008155750E+02  0.00000000000E+00 0.  1.
</event>
<event>
 7    1  0.1442665E-008  0.4614232E+02  0.7816164E-02  0.1320468E+00
        -11   -1    0    0    0    0  0.00000000000E+00  0.00000000000E+00  0.45593999997E+02  0.45594000000E+02  0.51100000000E-03 0.  1.
         11   -1    0    0    0    0 -0.00000000000E+00 -0.00000000000E+00 -0.45593999997E+02  0.45594000000E+02  0.51100000000E-03 0. -1.
    9900012    2    1    2    0    0  0.24342005247E+02 -0.32565822632E+02  0.19391944957E+02  0.46142317051E+02  0.99999935251E+01 0.  0.
         12    1    1    2    0    0 -0.24342005247E+02  0.32565822632E+02 -0.19391944957E+02  0.45045682949E+02  0.00000000000E+00 0. -1.
         11    1    3    3    0    0  0.50369124894E+01 -0.86181930124E+01  0.57610324941E+00  0.99987815977E+01  0.51100000000E-03 0. -1.
        -11    1    3    3    0    0  0.10280864343E+02 -0.14667049527E+02  0.11192033692E+02  0.21120609174E+02  0.51100000000E-03 0.  1.
         12    1    3    3    0    0  0.90242284146E+01 -0.92805800926E+01  0.76238080150E+01  0.15022926279E+02  0.00000000000E+00 0. -1.
</event>
<event>
 7    1  0.1442665E-008  0.4614232E+02  0.7816164E-02  0.1320468E+00
        -11   -1    0    0    0    0  0.00000000000E+00  0.00000000000E+00  0.45593999997E+02  0.45594000000E+02  0.51100000000E-03 0.  1.
         11   -1    0    0    0    0 -0.00000000000E+00 -0.00000000000E+00 -0.45593999997E+02  0.45594000000E+02  0.51100000000E-03 0. -1.
    9900012    2    1    2    0    0 -0.18113623539E+02 -0.17186654560E+02  0.37491721063E+02  0.46142316512E+02  0.99999886061E+01 0.  0.
         12    1    1    2    0    0  0.18113623539E+02  0.17186654560E+02 -0.37491721063E+02  0.45045683488E+02  0.00000000000E+00 0. -1.
         11    1    3    3    0    0 -0.14065607910E+01 -0.36394575408E+01  0.93508671387E+01  0.10132264355E+02  0.51100000000E-03 0. -1.
        -11    1    3    3    0    0 -0.13923200969E+02 -0.75915523262E+01  0.18952636811E+02  0.24712135365E+02  0.51100000000E-03 0.  1.
        -12    1    3    3    0    0 -0.27838617792E+01 -0.59556446934E+01  0.91882171127E+01  0.11297916792E+02  0.00000000000E+00 0.  1.
</event>
<event>
 7    1  0.1442665E-008  0.4614232E+02  0.7816164E-02  0.1320468E+00
        -11   -1    0    0    0    0  0.00000000000E+00  0.00000000000E+00  0.45593999997E+02  0.45594000000E+02  0.51100000000E-03 0.  1.
         11   -1    0    0    0    0 -0.00000000000E+00 -0.00000000000E+00 -0.45593999997E+02  0.45594000000E+02  0.51100000000E-03 0. -1.
    9900012    2    1    2    0    0  0.19537313486E+02 -0.23319587238E+02  0.33220530637E+02  0.46142318486E+02  0.10000006613E+02 0.  0.
         12    1    1    2    0    0 -0.19537313486E+02  0.23319587238E+02 -0.33220530637E+02  0.45045681514E+02  0.00000000000E+00 0. -1.
         11    1    3    3    0    0  0.66751584524E+01 -0.11182164389E+02  0.15095603534E+02  0.19936794805E+02  0.51100000000E-03 0. -1.
        -11    1    3    3    0    0  0.10331043785E+02 -0.12050277187E+02  0.13107323731E+02  0.20584984373E+02  0.51100000000E-03 0.  1.
         12    1    3    3    0    0  0.25311112484E+01 -0.87145662328E-01  0.50176033718E+01  0.56205393082E+01  0.00000000000E+00 0. -1.
</event>
<event>
 7    1  0.1442665E-008  0.4614231E+02  0.7816164E-02  0.1320468E+00
        -11   -1    0    0    0    0  0.00000000000E+00  0.00000000000E+00  0.45593999997E+02  0.45594000000E+02  0.51100000000E-03 0. -1.
         11   -1    0    0    0    0 -0.00000000000E+00 -0.00000000000E+00 -0.45593999997E+02  0.45594000000E+02  0.51100000000E-03 0.  1.
    9900012    2    1    2    0    0 -0.21887193166E+02  0.34710044371E+02 -0.18581641177E+02  0.46142314371E+02  0.99999690899E+01 0.  0.
         12    1    1    2    0    0  0.21887193166E+02 -0.34710044371E+02  0.18581641177E+02  0.45045685629E+02  0.00000000000E+00 0. -1.
         11    1    3    3    0    0 -0.12328115451E+02  0.16477438579E+02 -0.12330692013E+02  0.23990297590E+02  0.51100000000E-03 0. -1.
        -11    1    3    3    0    0 -0.93106851373E+01  0.13260464455E+02 -0.55371811319E+01  0.17122767021E+02  0.51100000000E-03 0.  1.
         12    1    3    3    0    0 -0.24839257738E+00  0.49721413370E+01 -0.71376803181E+00  0.50292497603E+01  0.00000000000E+00 0. -1.
</event>
<event>
 7    1  0.1442665E-008  0.4614232E+02  0.7816164E-02  0.1320468E+00
        -11   -1    0    0    0    0  0.00000000000E+00  0.00000000000E+00  0.45593999997E+02  0.45594000000E+02  0.51100000000E-03 0.  1.
         11   -1    0    0    0    0 -0.00000000000E+00 -0.00000000000E+00 -0.45593999997E+02  0.45594000000E+02  0.51100000000E-03 0. -1.
    9900012    2    1    2    0    0  0.36709939545E+02  0.12542141180E+02  0.22895163170E+02  0.46142318039E+02  0.10000002531E+02 0.  0.
         12    1    1    2    0    0 -0.36709939545E+02 -0.12542141180E+02 -0.22895163170E+02  0.45045681961E+02  0.00000000000E+00 0. -1.
         11    1    3    3    0    0  0.11621829964E+02  0.16178408172E+01  0.58180560577E+01  0.13097103388E+02  0.51100000000E-03 0. -1.
        -11    1    3    3    0    0  0.50484848682E+01  0.36292839802E+00  0.73802033304E+00  0.51150357535E+01  0.51100000000E-03 0.  1.
        -12    1    3    3    0    0  0.20039624713E+02  0.10561371964E+02  0.16339086779E+02  0.27930178897E+02  0.00000000000E+00 0.  1.
</event>
<event>
 7    1  0.1442665E-008  0.4614232E+02  0.7816164E-02  0.1320468E+00
        -11   -1    0    0    0    0  0.00000000000E+00  0.00000000000E+00  0.45593999997E+02  0.45594000000E+02  0.51100000000E-03 0.  1.
         11   -1    0    0    0    0 -0.00000000000E+00 -0.00000000000E+00 -0.45593999997E+02  0.45594000000E+02  0.51100000000E-03 0. -1.
    9900012    2    1    2    0    0 -0.15688511182E+02  0.10956865388E+02  0.40779054331E+02  0.46142317028E+02  0.99999933195E+01 0.  0.
         12    1    1    2    0    0  0.15688511182E+02 -0.10956865388E+02 -0.40779054331E+02  0.45045682972E+02  0.00000000000E+00 0. -1.
         11    1    3    3    0    0 -0.83221156748E+00  0.12789007083E+01  0.98070429860E-01  0.15289804397E+01  0.51100000000E-03 0. -1.
        -11    1    3    3    0    0 -0.11878349805E+01  0.23527737661E+01  0.40149293046E+01  0.48027235937E+01  0.51100000000E-03 0.  1.
         12    1    3    3    0    0 -0.13668464634E+02  0.73251909139E+01  0.36666054596E+02  0.39810612995E+02  0.00000000000E+00 0. -1.
</event>
<event>
 7    1  0.1442665E-008  0.4614232E+02  0.7816164E-02  0.1320468E+00
        -11   -1    0    0    0    0  0.00000000000E+00  0.00000000000E+00  0.45593999997E+02  0.45594000000E+02  0.51100000000E-03 0.  1.
         11   -1    0    0    0    0 -0.00000000000E+00 -0.00000000000E+00 -0.45593999997E+02  0.45594000000E+02  0.51100000000E-03 0. -1.
    9900012    2    1    2    0    0  0.13612612450E+02  0.18696998653E+01  0.42898886611E+02  0.46142317990E+02  0.10000002086E+02 0.  0.
         12    1    1    2    0    0 -0.13612612450E+02 -0.18696998653E+01 -0.42898886611E+02  0.45045682010E+02  0.00000000000E+00 0. -1.
         11    1    3    3    0    0  0.67994683821E+01 -0.11671622090E+01  0.22153599041E+02  0.23202952154E+02  0.51100000000E-03 0. -1.
        -11    1    3    3    0    0  0.68745436774E+01  0.51175349460E+00  0.17623115762E+02  0.18923410153E+02  0.51100000000E-03 0.  1.
         12    1    3    3    0    0 -0.61399609007E-01  0.25251085797E+01  0.31221718078E+01  0.40159556831E+01  0.00000000000E+00 0. -1.
</event>
<event>
 7    1  0.1442665E-008  0.4614232E+02  0.7816164E-02  0.1320468E+00
        -11   -1    0    0    0    0  0.00000000000E+00  0.00000000000E+00  0.45593999997E+02  0.45594000000E+02  0.51100000000E-03 0.  1.
         11   -1    0    0    0    0 -0.00000000000E+00 -0.00000000000E+00 -0.45593999997E+02  0.45594000000E+02  0.51100000000E-03 0. -1.
    9900012    2    1    2    0    0  0.57329878112E+01 -0.79749935791E+01  0.43961869444E+02  0.46142316113E+02  0.99999849704E+01 0.  0.
         12    1    1    2    0    0 -0.57329878112E+01  0.79749935791E+01 -0.43961869444E+02  0.45045683887E+02  0.00000000000E+00 0. -1.
         11    1    3    3    0    0  0.94779351550E+00  0.86154152540E+00  0.61501541584E+01  0.62821145151E+01  0.51100000000E-03 0. -1.
        -11    1    3    3    0    0  0.30181649932E+01 -0.68070597619E+01  0.35619062913E+02  0.36389050902E+02  0.51100000000E-03 0.  1.
         12    1    3    3    0    0  0.17670293026E+01 -0.20294753425E+01  0.21926523732E+01  0.34711506956E+01  0.00000000000E+00 0. -1.
</event>
<event>
 7    1  0.1442665E-008  0.4614232E+02  0.7816164E-02  0.1320468E+00
        -11   -1    0    0    0    0  0.00000000000E+00  0.00000000000E+00  0.45593999997E+02  0.45594000000E+02  0.51100000000E-03 0.  1.
         11   -1    0    0    0    0 -0.00000000000E+00 -0.00000000000E+00 -0.45593999997E+02  0.45594000000E+02  0.51100000000E-03 0. -1.
    9900012    2    1    2    0    0 -0.13932558824E+02  0.41947317658E+02  0.86844614952E+01  0.46142317348E+02  0.99999962337E+01 0.  0.
         12    1    1    2    0    0  0.13932558824E+02 -0.41947317658E+02 -0.86844614952E+01  0.45045682652E+02  0.00000000000E+00 0. -1.
         11    1    3    3    0    0 -0.18472567100E+01  0.10757729221E+02 -0.12481716565E+01  0.10986310941E+02  0.51100000000E-03 0. -1.
        -11    1    3    3    0    0 -0.88723462106E+01  0.26573595095E+02  0.91826520280E+01  0.29482123093E+02  0.51100000000E-03 0.  1.
         12    1    3    3    0    0 -0.32129559036E+01  0.46159933422E+01  0.74998112368E+00  0.56738833139E+01  0.00000000000E+00 0. -1.
</event>
<event>
 7    1  0.1442665E-008  0.4614232E+02  0.7816164E-02  0.1320468E+00
        -11   -1    0    0    0    0  0.00000000000E+00  0.00000000000E+00  0.45593999997E+02  0.45594000000E+02  0.51100000000E-03 0.  1.
         11   -1    0    0    0    0 -0.00000000000E+00 -0.00000000000E+00 -0.45593999997E+02  0.45594000000E+02  0.51100000000E-03 0. -1.
    9900012    2    1    2    0    0 -0.29622639622E+02 -0.14355679209E+02  0.30749426757E+02  0.46142317081E+02  0.99999937994E+01 0.  0.
         12    1    1    2    0    0  0.29622639622E+02  0.14355679209E+02 -0.30749426757E+02  0.45045682919E+02  0.00000000000E+00 0. -1.
         11    1    3    3    0    0 -0.12712156760E+02 -0.58262925182E+01  0.16605824695E+02  0.21709399532E+02  0.51100000000E-03 0. -1.
        -11    1    3    3    0    0 -0.89224825531E+01 -0.52577929083E+01  0.11339076318E+02  0.15356748783E+02  0.51100000000E-03 0.  1.
         12    1    3    3    0    0 -0.79880003094E+01 -0.32715937830E+01  0.28045257446E+01  0.90761687664E+01  0.00000000000E+00 0. -1.
</event>
<event>
 7    1  0.1442665E-008  0.4614232E+02  0.7816164E-02  0.1320468E+00
        -11   -1    0    0    0    0  0.00000000000E+00  0.00000000000E+00  0.45593999997E+02  0.45594000000E+02  0.51100000000E-03 0.  1.
         11   -1    0    0    0    0 -0.00000000000E+00 -0.00000000000E+00 -0.45593999997E+02  0.45594000000E+02  0.51100000000E-03 0. -1.
    9900012    2    1    2    0    0  0.77723499239E+01  0.43261085541E+02 -0.98581220206E+01  0.46142317462E+02  0.99999972728E+01 0.  0.
         12    1    1    2    0    0 -0.77723499239E+01 -0.43261085541E+02  0.98581220206E+01  0.45045682538E+02  0.00000000000E+00 0. -1.
         11    1    3    3    0    0  0.27285267188E+01  0.23317326252E+02 -0.99005275667E+01  0.25478677516E+02  0.51100000000E-03 0. -1.
        -11    1    3    3    0    0  0.49765547681E+01  0.17143188256E+02 -0.19754624463E+00  0.17852003409E+02  0.51100000000E-03 0.  1.
        -12    1    3    3    0    0  0.67268436978E-01  0.28005710332E+01  0.23995179078E+00  0.28116365370E+01  0.00000000000E+00 0.  1.
</event>
<event>
 7    1  0.1442665E-008  0.4614230E+02  0.7816164E-02  0.1320468E+00
        -11   -1    0    0    0    0  0.00000000000E+00  0.00000000000E+00  0.45593999997E+02  0.45594000000E+02  0.51100000000E-03 0.  1.
         11   -1    0    0    0    0 -0.00000000000E+00 -0.00000000000E+00 -0.45593999997E+02  0.45594000000E+02  0.51100000000E-03 0. -1.
    9900012    2    1    2    0    0 -0.32241618438E+02 -0.16142306534E+02  0.27000349978E+02  0.46142301885E+02  0.99998552318E+01 0.  0.
         12    1    1    2    0    0  0.32241618438E+02  0.16142306534E+02 -0.27000349978E+02  0.45045698115E+02  0.00000000000E+00 0. -1.
         11    1    3    3    0    0 -0.23826597853E+02 -0.14402696689E+02  0.18496889910E+02  0.33425729218E+02  0.51100000000E-03 0. -1.
        -11    1    3    3    0    0  0.54741103991E-01  0.42281698318E+00  0.13671178538E+01  0.14320552633E+01  0.51100000000E-03 0.  1.
        -12    1    3    3    0    0 -0.84697616892E+01 -0.21624268285E+01  0.71363422134E+01  0.11284517404E+02  0.00000000000E+00 0.  1.
</event>
<event>
 7    1  0.1442665E-008  0.4614232E+02  0.7816164E-02  0.1320468E+00
        -11   -1    0    0    0    0  0.00000000000E+00  0.00000000000E+00  0.45593999997E+02  0.45594000000E+02  0.51100000000E-03 0.  1.
         11   -1    0    0    0    0 -0.00000000000E+00 -0.00000000000E+00 -0.45593999997E+02  0.45594000000E+02  0.51100000000E-03 0. -1.
    9900012    2    1    2    0    0 -0.18719008379E+02  0.25762111859E+02  0.31859471409E+02  0.46142316515E+02  0.99999886405E+01 0.  0.
         12    1    1    2    0    0  0.18719008379E+02 -0.25762111859E+02 -0.31859471409E+02  0.45045683485E+02  0.00000000000E+00 0. -1.
         11    1    3    3    0    0 -0.90089166005E-01  0.43006649997E+01  0.42425832367E+01  0.60418000860E+01  0.51100000000E-03 0. -1.
        -11    1    3    3    0    0 -0.17608447520E+02  0.20753181990E+02  0.24038123129E+02  0.36312303019E+02  0.51100000000E-03 0.  1.
         12    1    3    3    0    0 -0.10204716934E+01  0.70826486952E+00  0.35787650439E+01  0.37882134103E+01  0.00000000000E+00 0. -1.
</event>
<event>
 7    1  0.1442665E-008  0.4614231E+02  0.7816164E-02  0.1320468E+00
        -11   -1    0    0    0    0  0.00000000000E+00  0.00000000000E+00  0.45593999997E+02  0.45594000000E+02  0.51100000000E-03 0.  1.
         11   -1    0    0    0    0 -0.00000000000E+00 -0.00000000000E+00 -0.45593999997E+02  0.45594000000E+02  0.51100000000E-03 0. -1.
    9900012    2    1    2    0    0 -0.72572425908E+01  0.16177952200E+01  0.44427797672E+02  0.46142311667E+02  0.99999444271E+01 0.  0.
         12    1    1    2    0    0  0.72572425908E+01 -0.16177952200E+01 -0.44427797672E+02  0.45045688333E+02  0.00000000000E+00 0. -1.
         11    1    3    3    0    0 -0.59734250632E+00  0.41941519130E+01  0.11770897795E+02  0.12510066487E+02  0.51100000000E-03 0. -1.
        -11    1    3    3    0    0 -0.46400159612E+01 -0.32071383911E+01  0.19249490686E+02  0.20058872767E+02  0.51100000000E-03 0.  1.
        -12    1    3    3    0    0 -0.20198841233E+01  0.63078169818E+00  0.13407409191E+02  0.13573372413E+02  0.00000000000E+00 0.  1.
</event>
<event>
 7    1  0.1442665E-008  0.4614232E+02  0.7816164E-02  0.1320468E+00
        -11   -1    0    0    0    0  0.00000000000E+00  0.00000000000E+00  0.45593999997E+02  0.45594000000E+02  0.51100000000E-03 0.  1.
         11   -1    0    0    0    0 -0.00000000000E+00 -0.00000000000E+00 -0.45593999997E+02  0.45594000000E+02  0.51100000000E-03 0. -1.
    9900012    2    1    2    0    0  0.20609900004E+02  0.29354312662E+02  0.27251967487E+02  0.46142318942E+02  0.10000010770E+02 0.  0.
         12    1    1    2    0    0 -0.20609900004E+02 -0.29354312662E+02 -0.27251967487E+02  0.45045681058E+02  0.00000000000E+00 0. -1.
         11    1    3    3    0    0  0.93578218855E+00  0.53622241449E+01  0.21404670612E+01  0.58489944081E+01  0.51100000000E-03 0.  1.
        -11    1    3    3    0    0  0.13016388136E+02  0.12298362319E+02  0.12392005304E+02  0.21777003273E+02  0.51100000000E-03 0. -1.
        -12    1    3    3    0    0  0.66577296794E+01  0.11693726198E+02  0.12719495122E+02  0.18516321261E+02  0.00000000000E+00 0.  1.
</event>
<event>
 7    1  0.1442665E-008  0.4614232E+02  0.7816164E-02  0.1320468E+00
        -11   -1    0    0    0    0  0.00000000000E+00  0.00000000000E+00  0.45593999997E+02  0.45594000000E+02  0.51100000000E-03 0.  1.
         11   -1    0    0    0    0 -0.00000000000E+00 -0.00000000000E+00 -0.45593999997E+02  0.45594000000E+02  0.51100000000E-03 0. -1.
    9900012    2    1    2    0    0 -0.52935717920E+00  0.38841701800E+02  0.22806917236E+02  0.46142317726E+02  0.99999996814E+01 0.  0.
         12    1    1    2    0    0  0.52935717920E+00 -0.38841701800E+02 -0.22806917236E+02  0.45045682274E+02  0.00000000000E+00 0. -1.
         11    1    3    3    0    0 -0.22355430083E+00  0.10539064432E+01  0.12606840041E+01  0.16583183458E+01  0.51100000000E-03 0. -1.
        -11    1    3    3    0    0  0.25046925965E+01  0.92850012216E+01  0.91538446276E+01  0.13276957649E+02  0.51100000000E-03 0.  1.
        -12    1    3    3    0    0 -0.28104954748E+01  0.28502794135E+02  0.12392388604E+02  0.31207041731E+02  0.00000000000E+00 0.  1.
</event>
<event>
 7    1  0.1442665E-008  0.4614232E+02  0.7816164E-02  0.1320468E+00
        -11   -1    0    0    0    0  0.00000000000E+00  0.00000000000E+00  0.45593999997E+02  0.45594000000E+02  0.51100000000E-03 0.  1.
         11   -1    0    0    0    0 -0.00000000000E+00 -0.00000000000E+00 -0.45593999997E+02  0.45594000000E+02  0.51100000000E-03 0. -1.
    9900012    2    1    2    0    0  0.95544880953E+01 -0.53117062354E+01  0.43699094860E+02  0.46142319214E+02  0.10000013246E+02 0.  0.
         12    1    1    2    0    0 -0.95544880953E+01  0.53117062354E+01 -0.43699094860E+02  0.45045680786E+02  0.00000000000E+00 0. -1.
         11    1    3    3    0    0  0.12985034016E+01  0.17207329576E+00  0.13257846253E+00  0.13165476114E+01  0.51100000000E-03 0. -1.
        -11    1    3    3    0    0  0.81050006683E+01 -0.40611547542E+01  0.35901426374E+02  0.37028319294E+02  0.51100000000E-03 0.  1.
         12    1    3    3    0    0  0.15098402545E+00 -0.14226247770E+01  0.76650900234E+01  0.77974523082E+01  0.00000000000E+00 0. -1.
</event>
<event>
 7    1  0.1442665E-008  0.4614232E+02  0.7816164E-02  0.1320468E+00
        -11   -1    0    0    0    0  0.00000000000E+00  0.00000000000E+00  0.45593999997E+02  0.45594000000E+02  0.51100000000E-03 0.  1.
         11   -1    0    0    0    0 -0.00000000000E+00 -0.00000000000E+00 -0.45593999997E+02  0.45594000000E+02  0.51100000000E-03 0. -1.
    9900012    2    1    2    0    0 -0.33714292637E+02 -0.11656479928E+02  0.27506116663E+02  0.46142317563E+02  0.99999981943E+01 0.  0.
         12    1    1    2    0    0  0.33714292637E+02  0.11656479928E+02 -0.27506116663E+02  0.45045682437E+02  0.00000000000E+00 0. -1.
         11    1    3    3    0    0 -0.19055364879E+02 -0.69898765889E+01  0.17302418855E+02  0.26670939314E+02  0.51100000000E-03 0. -1.
        -11    1    3    3    0    0 -0.14509645950E+02 -0.34984449576E+01  0.10509970739E+02  0.18254545404E+02  0.51100000000E-03 0.  1.
         12    1    3    3    0    0 -0.14928180798E+00 -0.11681583819E+01 -0.30627293142E+00  0.12168328447E+01  0.00000000000E+00 0. -1.
</event>
<event>
 7    1  0.1442665E-008  0.4614232E+02  0.7816164E-02  0.1320468E+00
        -11   -1    0    0    0    0  0.00000000000E+00  0.00000000000E+00  0.45593999997E+02  0.45594000000E+02  0.51100000000E-03 0.  1.
         11   -1    0    0    0    0 -0.00000000000E+00 -0.00000000000E+00 -0.45593999997E+02  0.45594000000E+02  0.51100000000E-03 0. -1.
    9900012    2    1    2    0    0 -0.10064963635E+01 -0.44993829025E+02 -0.19119844959E+01  0.46142319075E+02  0.10000011980E+02 0.  0.
         12    1    1    2    0    0  0.10064963635E+01  0.44993829025E+02  0.19119844959E+01  0.45045680925E+02  0.00000000000E+00 0. -1.
         11    1    3    3    0    0  0.25949585182E+01 -0.21162619880E+02 -0.15630736124E+01  0.21378341593E+02  0.51100000000E-03 0. -1.
        -11    1    3    3    0    0 -0.30722339582E+00 -0.35899769429E+01  0.20023154933E+01  0.41220854263E+01  0.51100000000E-03 0.  1.
        -12    1    3    3    0    0 -0.32942314858E+01 -0.20241232203E+02 -0.23512263768E+01  0.20641892056E+02  0.00000000000E+00 0.  1.
</event>
<event>
 7    1  0.1442665E-008  0.4614231E+02  0.7816164E-02  0.1320468E+00
        -11   -1    0    0    0    0  0.00000000000E+00  0.00000000000E+00  0.45593999997E+02  0.45594000000E+02  0.51100000000E-03 0.  1.
         11   -1    0    0    0    0 -0.00000000000E+00 -0.00000000000E+00 -0.45593999997E+02  0.45594000000E+02  0.51100000000E-03 0. -1.
    9900012    2    1    2    0    0  0.27803015571E+02 -0.32362608972E+02  0.14448795939E+02  0.46142313875E+02  0.99999645673E+01 0.  0.
         12    1    1    2    0    0 -0.27803015571E+02  0.32362608972E+02 -0.14448795939E+02  0.45045686125E+02  0.00000000000E+00 0. -1.
         11    1    3    3    0    0  0.54860622903E+01 -0.32017787984E+01  0.35319117643E+01  0.72679204659E+01  0.51100000000E-03 0. -1.
        -11    1    3    3    0    0  0.17108865244E+02 -0.24226106268E+02  0.11178287197E+02  0.31694977517E+02  0.51100000000E-03 0.  1.
        -12    1    3    3    0    0  0.52080880365E+01 -0.49347239053E+01 -0.26140302218E+00  0.71794158925E+01  0.00000000000E+00 0.  1.
</event>
<event>
 7    1  0.1442665E-008  0.4614232E+02  0.7816164E-02  0.1320468E+00
        -11   -1    0    0    0    0  0.00000000000E+00  0.00000000000E+00  0.45593999997E+02  0.45594000000E+02  0.51100000000E-03 0.  1.
         11   -1    0    0    0    0 -0.00000000000E+00 -0.00000000000E+00 -0.45593999997E+02  0.45594000000E+02  0.51100000000E-03 0. -1.
    9900012    2    1    2    0    0  0.24282664617E+02  0.29720991411E+02  0.23582374784E+02  0.46142317279E+02  0.99999956014E+01 0.  0.
         12    1    1    2    0    0 -0.24282664617E+02 -0.29720991411E+02 -0.23582374784E+02  0.45045682721E+02  0.00000000000E+00 0. -1.
         11    1    3    3    0    0  0.74286586110E+00  0.34265126090E+01  0.87348111050E+00  0.36132821449E+01  0.51100000000E-03 0. -1.
        -11    1    3    3    0    0  0.12169749699E+02  0.13053424748E+02  0.15529630700E+02  0.23657221631E+02  0.51100000000E-03 0.  1.
        -12    1    3    3    0    0  0.11370049057E+02  0.13241054054E+02  0.71792629743E+01  0.18871813503E+02  0.00000000000E+00 0.  1.
</event>
<event>
 7    1  0.1442665E-008  0.4614232E+02  0.7816164E-02  0.1320468E+00
        -11   -1    0    0    0    0  0.00000000000E+00  0.00000000000E+00  0.45593999997E+02  0.45594000000E+02  0.51100000000E-03 0.  1.
         11   -1    0    0    0    0 -0.00000000000E+00 -0.00000000000E+00 -0.45593999997E+02  0.45594000000E+02  0.51100000000E-03 0. -1.
    9900012    2    1    2    0    0 -0.34393939957E+02 -0.21643001737E+02  0.19435816348E+02  0.46142316666E+02  0.99999900103E+01 0.  0.
         12    1    1    2    0    0  0.34393939957E+02  0.21643001737E+02 -0.19435816348E+02  0.45045683334E+02  0.00000000000E+00 0. -1.
         11    1    3    3    0    0 -0.15515531098E+02 -0.97597922812E+01  0.54706472462E+01  0.19128858622E+02  0.51100000000E-03 0. -1.
        -11    1    3    3    0    0 -0.15143288363E+02 -0.82839474596E+01  0.77580785464E+01  0.18924342814E+02  0.51100000000E-03 0.  1.
         12    1    3    3    0    0 -0.37351204965E+01 -0.35992619961E+01  0.62070905549E+01  0.80891152295E+01  0.00000000000E+00 0. -1.
</event>
<event>
 7    1  0.1442665E-008  0.4614232E+02  0.7816164E-02  0.1320468E+00
        -11   -1    0    0    0    0  0.00000000000E+00  0.00000000000E+00  0.45593999997E+02  0.45594000000E+02  0.51100000000E-03 0.  1.
         11   -1    0    0    0    0 -0.00000000000E+00 -0.00000000000E+00 -0.45593999997E+02  0.45594000000E+02  0.51100000000E-03 0. -1.
    9900012    2    1    2    0    0  0.41612737102E+02  0.17246117658E+02 -0.25480673680E+00  0.46142318855E+02  0.10000009972E+02 0.  0.
         12    1    1    2    0    0 -0.41612737102E+02 -0.17246117658E+02  0.25480673680E+00  0.45045681145E+02  0.00000000000E+00 0. -1.
         11    1    3    3    0    0  0.58891511957E+01 -0.44676147026E+00  0.17228399488E+01  0.61522252371E+01  0.51100000000E-03 0. -1.
        -11    1    3    3    0    0  0.22267388429E+02  0.11614213350E+02 -0.17410677624E+00  0.25114873136E+02  0.51100000000E-03 0.  1.
         12    1    3    3    0    0  0.13456197476E+02  0.60786657791E+01 -0.18035399093E+01  0.14875220482E+02  0.00000000000E+00 0. -1.
</event>
<event>
 7    1  0.1442665E-008  0.4614232E+02  0.7816164E-02  0.1320468E+00
        -11   -1    0    0    0    0  0.00000000000E+00  0.00000000000E+00  0.45593999997E+02  0.45594000000E+02  0.51100000000E-03 0.  1.
         11   -1    0    0    0    0 -0.00000000000E+00 -0.00000000000E+00 -0.45593999997E+02  0.45594000000E+02  0.51100000000E-03 0. -1.
    9900012    2    1    2    0    0 -0.44396809864E+02 -0.76037896376E+01 -0.46821172242E+00  0.46142316909E+02  0.99999922265E+01 0.  0.
         12    1    1    2    0    0  0.44396809864E+02  0.76037896376E+01  0.46821172242E+00  0.45045683091E+02  0.00000000000E+00 0. -1.
         11    1    3    3    0    0 -0.73331742300E+00 -0.17608623881E+00 -0.10266507180E+01  0.12738809851E+01  0.51100000000E-03 0. -1.
        -11    1    3    3    0    0 -0.43779752956E+02 -0.70691597063E+01  0.19849796332E+00  0.44347256844E+02  0.51100000000E-03 0.  1.
        -12    1    3    3    0    0  0.11626051503E+00 -0.35854369250E+00  0.35994103223E+00  0.52117908004E+00  0.00000000000E+00 0.  1.
</event>
<event>
 7    1  0.1442665E-008  0.4614231E+02  0.7816164E-02  0.1320468E+00
        -11   -1    0    0    0    0  0.00000000000E+00  0.00000000000E+00  0.45593999997E+02  0.45594000000E+02  0.51100000000E-03 0. -1.
         11   -1    0    0    0    0 -0.00000000000E+00 -0.00000000000E+00 -0.45593999997E+02  0.45594000000E+02  0.51100000000E-03 0.  1.
    9900012    2    1    2    0    0  0.34840980292E+02 -0.19469491908E+02 -0.20884414416E+02  0.46142314431E+02  0.99999696350E+01 0.  0.
         12    1    1    2    0    0 -0.34840980292E+02  0.19469491908E+02  0.20884414416E+02  0.45045685569E+02  0.00000000000E+00 0. -1.
         11    1    3    3    0    0  0.63674601921E+01 -0.30815246029E+01 -0.65784689362E+01  0.96600516035E+01  0.51100000000E-03 0. -1.
        -11    1    3    3    0    0  0.72868066348E+01 -0.72037851736E+01 -0.63687744938E+01  0.12064549746E+02  0.51100000000E-03 0.  1.
         12    1    3    3    0    0  0.21186713465E+02 -0.91841821316E+01 -0.79371709860E+01  0.24417713082E+02  0.00000000000E+00 0. -1.
</event>
<event>
 7    1  0.1442665E-008  0.4614232E+02  0.7816164E-02  0.1320468E+00
        -11   -1    0    0    0    0  0.00000000000E+00  0.00000000000E+00  0.45593999997E+02  0.45594000000E+02  0.51100000000E-03 0.  1.
         11   -1    0    0    0    0 -0.00000000000E+00 -0.00000000000E+00 -0.45593999997E+02  0.45594000000E+02  0.51100000000E-03 0. -1.
    9900012    2    1    2    0    0 -0.12426513731E+02  0.36964590833E+02  0.22545824242E+02  0.46142318634E+02  0.10000007960E+02 0.  0.
         12    1    1    2    0    0  0.12426513731E+02 -0.36964590833E+02 -0.22545824242E+02  0.45045681366E+02  0.00000000000E+00 0. -1.
         11    1    3    3    0    0 -0.14176496735E+01  0.90041875037E+00  0.78231193225E-01  0.16812509936E+01  0.51100000000E-03 0. -1.
        -11    1    3    3    0    0 -0.91373827227E+01  0.22010189184E+02  0.16962427879E+02  0.29251737568E+02  0.51100000000E-03 0.  1.
        -12    1    3    3    0    0 -0.18714813352E+01  0.14053982898E+02  0.55051651697E+01  0.15209330072E+02  0.00000000000E+00 0.  1.
</event>
<event>
 7    1  0.1442665E-008  0.4614232E+02  0.7816164E-02  0.1320468E+00
        -11   -1    0    0    0    0  0.00000000000E+00  0.00000000000E+00  0.45593999997E+02  0.45594000000E+02  0.51100000000E-03 0.  1.
         11   -1    0    0    0    0 -0.00000000000E+00 -0.00000000000E+00 -0.45593999997E+02  0.45594000000E+02  0.51100000000E-03 0. -1.
    9900012    2    1    2    0    0  0.12764595391E+01 -0.10398061880E+02  0.43810545388E+02  0.46142323992E+02  0.10000056821E+02 0.  0.
         12    1    1    2    0    0 -0.12764595391E+01  0.10398061880E+02 -0.43810545388E+02  0.45045676008E+02  0.00000000000E+00 0. -1.
         11    1    3    3    0    0 -0.15583568469E+01  0.37437504820E-01  0.22678040157E+01  0.27518744418E+01  0.51100000000E-03 0. -1.
        -11    1    3    3    0    0  0.34531582956E+01 -0.10857393112E+02  0.35063104615E+02  0.36867717490E+02  0.51100000000E-03 0.  1.
        -12    1    3    3    0    0 -0.61834190965E+00  0.42189372662E+00  0.64796367572E+01  0.65227320609E+01  0.00000000000E+00 0.  1.
</event>
<event>
 7    1  0.1442665E-008  0.4614232E+02  0.7816164E-02  0.1320468E+00
        -11   -1    0    0    0    0  0.00000000000E+00  0.00000000000E+00  0.45593999997E+02  0.45594000000E+02  0.51100000000E-03 0.  1.
         11   -1    0    0    0    0 -0.00000000000E+00 -0.00000000000E+00 -0.45593999997E+02  0.45594000000E+02  0.51100000000E-03 0. -1.
    9900012    2    1    2    0    0  0.50180047620E+01  0.41338221756E+02  0.17178017301E+02  0.46142320650E+02  0.10000026339E+02 0.  0.
         12    1    1    2    0    0 -0.50180047620E+01 -0.41338221756E+02 -0.17178017301E+02  0.45045679350E+02  0.00000000000E+00 0. -1.
         11    1    3    3    0    0  0.53529627241E+01  0.15899215166E+02  0.33644027667E+01  0.17110185828E+02  0.51100000000E-03 0. -1.
        -11    1    3    3    0    0  0.66716495432E+00  0.47347842205E+01  0.20938682354E+01  0.52199209897E+01  0.51100000000E-03 0.  1.
         12    1    3    3    0    0 -0.10021229164E+01  0.20704222369E+02  0.11719746299E+02  0.23812213832E+02  0.00000000000E+00 0. -1.
</event>
<event>
 7    1  0.1442665E-008  0.4614232E+02  0.7816164E-02  0.1320468E+00
        -11   -1    0    0    0    0  0.00000000000E+00  0.00000000000E+00  0.45593999997E+02  0.45594000000E+02  0.51100000000E-03 0.  1.
         11   -1    0    0    0    0 -0.00000000000E+00 -0.00000000000E+00 -0.45593999997E+02  0.45594000000E+02  0.51100000000E-03 0. -1.
    9900012    2    1    2    0    0  0.44598500437E+02  0.39796722053E+01  0.49243788690E+01  0.46142317196E+02  0.99999948451E+01 0.  0.
         12    1    1    2    0    0 -0.44598500437E+02 -0.39796722053E+01 -0.49243788690E+01  0.45045682804E+02  0.00000000000E+00 0. -1.
         11    1    3    3    0    0  0.31161725151E+01  0.11366296231E+01 -0.93236778640E-01  0.33183055016E+01  0.51100000000E-03 0. -1.
        -11    1    3    3    0    0  0.23339278853E+02 -0.13748186498E+01  0.61106190708E+01  0.24165093201E+02  0.51100000000E-03 0.  1.
        -12    1    3    3    0    0  0.18143049068E+02  0.42178612320E+01 -0.10930034232E+01  0.18658918493E+02  0.00000000000E+00 0.  1.
</event>
<event>
 7    1  0.1442665E-008  0.4614232E+02  0.7816164E-02  0.1320468E+00
        -11   -1    0    0    0    0  0.00000000000E+00  0.00000000000E+00  0.45593999997E+02  0.45594000000E+02  0.51100000000E-03 0.  1.
         11   -1    0    0    0    0 -0.00000000000E+00 -0.00000000000E+00 -0.45593999997E+02  0.45594000000E+02  0.51100000000E-03 0. -1.
    9900012    2    1    2    0    0  0.34041050267E+02 -0.83075555724E+01  0.28307329632E+02  0.46142317702E+02  0.99999994578E+01 0.  0.
         12    1    1    2    0    0 -0.34041050267E+02  0.83075555724E+01 -0.28307329632E+02  0.45045682298E+02  0.00000000000E+00 0. -1.
         11    1    3    3    0    0  0.96051869973E+01 -0.46119838927E+01  0.51117894454E+01  0.11817800315E+02  0.51100000000E-03 0. -1.
        -11    1    3    3    0    0  0.18399065711E+02 -0.41645985910E+00  0.17588518250E+02  0.25456925037E+02  0.51100000000E-03 0.  1.
        -12    1    3    3    0    0  0.60367975589E+01 -0.32791118206E+01  0.56070219363E+01  0.88675923504E+01  0.00000000000E+00 0.  1.
</event>
<event>
 7    1  0.1442665E-008  0.4614232E+02  0.7816164E-02  0.1320468E+00
        -11   -1    0    0    0    0  0.00000000000E+00  0.00000000000E+00  0.45593999997E+02  0.45594000000E+02  0.51100000000E-03 0.  1.
         11   -1    0    0    0    0 -0.00000000000E+00 -0.00000000000E+00 -0.45593999997E+02  0.45594000000E+02  0.51100000000E-03 0. -1.
    9900012    2    1    2    0    0  0.25050806672E+02 -0.18201653340E+02  0.32714987629E+02  0.46142317468E+02  0.99999973267E+01 0.  0.
         12    1    1    2    0    0 -0.25050806672E+02  0.18201653340E+02 -0.32714987629E+02  0.45045682532E+02  0.00000000000E+00 0. -1.
         11    1    3    3    0    0  0.15898255051E+01 -0.11269361727E+01  0.73929087400E-02  0.19487393849E+01  0.51100000000E-03 0. -1.
        -11    1    3    3    0    0  0.61734365532E+01 -0.13228778536E+01  0.63189940216E+01  0.89325813961E+01  0.51100000000E-03 0.  1.
        -12    1    3    3    0    0  0.17287544614E+02 -0.15751839314E+02  0.26388600699E+02  0.35260996687E+02  0.00000000000E+00 0.  1.
</event>
<event>
 7    1  0.1442665E-008  0.4614232E+02  0.7816164E-02  0.1320468E+00
        -11   -1    0    0    0    0  0.00000000000E+00  0.00000000000E+00  0.45593999997E+02  0.45594000000E+02  0.51100000000E-03 0. -1.
         11   -1    0    0    0    0 -0.00000000000E+00 -0.00000000000E+00 -0.45593999997E+02  0.45594000000E+02  0.51100000000E-03 0.  1.
    9900012    2    1    2    0    0 -0.23683790912E+01  0.23223356613E+02 -0.38525056419E+02  0.46142317810E+02  0.10000000441E+02 0.  0.
         12    1    1    2    0    0  0.23683790912E+01 -0.23223356613E+02  0.38525056419E+02  0.45045682190E+02  0.00000000000E+00 0. -1.
         11    1    3    3    0    0  0.34365737608E+01  0.12982063117E+02 -0.20491104197E+02  0.24499578638E+02  0.51100000000E-03 0. -1.
        -11    1    3    3    0    0 -0.38381943366E+01  0.46078016194E+01 -0.92412959690E+01  0.11016583998E+02  0.51100000000E-03 0.  1.
        -12    1    3    3    0    0 -0.19667585154E+01  0.56334918765E+01 -0.87926562537E+01  0.10626155174E+02  0.00000000000E+00 0.  1.
</event>
<event>
 7    1  0.1442665E-008  0.4614232E+02  0.7816164E-02  0.1320468E+00
        -11   -1    0    0    0    0  0.00000000000E+00  0.00000000000E+00  0.45593999997E+02  0.45594000000E+02  0.51100000000E-03 0. -1.
         11   -1    0    0    0    0 -0.00000000000E+00 -0.00000000000E+00 -0.45593999997E+02  0.45594000000E+02  0.51100000000E-03 0.  1.
    9900012    2    1    2    0    0 -0.20847387862E+02 -0.39707865850E+02  0.42172641797E+01  0.46142317541E+02  0.99999979970E+01 0.  0.
         12    1    1    2    0    0  0.20847387862E+02  0.39707865850E+02 -0.42172641797E+01  0.45045682459E+02  0.00000000000E+00 0. -1.
         11    1    3    3    0    0 -0.20796273281E+02 -0.34838405740E+02  0.47346336855E+01  0.40848699530E+02  0.51100000000E-03 0. -1.
        -11    1    3    3    0    0 -0.40196138046E+00 -0.41228248459E+01 -0.10972635733E+01  0.42852357312E+01  0.51100000000E-03 0.  1.
         12    1    3    3    0    0  0.35084679963E+00 -0.74663526356E+00  0.57989406752E+00  0.10083822803E+01  0.00000000000E+00 0. -1.
</event>
<event>
 7    1  0.1442665E-008  0.4614232E+02  0.7816164E-02  0.1320468E+00
        -11   -1    0    0    0    0  0.00000000000E+00  0.00000000000E+00  0.45593999997E+02  0.45594000000E+02  0.51100000000E-03 0.  1.
         11   -1    0    0    0    0 -0.00000000000E+00 -0.00000000000E+00 -0.45593999997E+02  0.45594000000E+02  0.51100000000E-03 0. -1.
    9900012    2    1    2    0    0  0.20817156996E+02 -0.24452994357E+02  0.31588141388E+02  0.46142316137E+02  0.99999851879E+01 0.  0.
         12    1    1    2    0    0 -0.20817156996E+02  0.24452994357E+02 -0.31588141388E+02  0.45045683863E+02  0.00000000000E+00 0. -1.
         11    1    3    3    0    0 -0.55995248319E+00 -0.20933065871E+01  0.87872612833E+00  0.23382983387E+01  0.51100000000E-03 0. -1.
        -11    1    3    3    0    0  0.13541567052E+02 -0.15609608325E+02  0.17889542124E+02  0.27332574485E+02  0.51100000000E-03 0.  1.
         12    1    3    3    0    0  0.78355424271E+01 -0.67500794446E+01  0.12819873135E+02  0.16471443314E+02  0.00000000000E+00 0. -1.
</event>
<event>
 7    1  0.1442665E-008  0.4614232E+02  0.7816164E-02  0.1320468E+00
        -11   -1    0    0    0    0  0.00000000000E+00  0.00000000000E+00  0.45593999997E+02  0.45594000000E+02  0.51100000000E-03 0. -1.
         11   -1    0    0    0    0 -0.00000000000E+00 -0.00000000000E+00 -0.45593999997E+02  0.45594000000E+02  0.51100000000E-03 0.  1.
    9900012    2    1    2    0    0  0.43813275742E+02  0.82512263096E+01 -0.64363965059E+01  0.46142322440E+02  0.10000042666E+02 0.  0.
         12    1    1    2    0    0 -0.43813275742E+02 -0.82512263096E+01  0.64363965059E+01  0.45045677560E+02  0.00000000000E+00 0. -1.
         11    1    3    3    0    0  0.47460447745E+01  0.35632758344E+01  0.10800746556E+01  0.60322829175E+01  0.51100000000E-03 0. -1.
        -11    1    3    3    0    0  0.16505230431E+02  0.16101722927E+01 -0.41142391479E+01  0.17086317638E+02  0.51100000000E-03 0.  1.
         12    1    3    3    0    0  0.22562000537E+02  0.30777781826E+01 -0.34022320136E+01  0.23023721885E+02  0.00000000000E+00 0. -1.
</event>
<event>
 7    1  0.1470483E-008  0.4614232E+02  0.7816164E-02  0.1320468E+00
        -11   -1    0    0    0    0  0.00000000000E+00  0.00000000000E+00  0.45593999997E+02  0.45594000000E+02  0.51100000000E-03 0.  1.
         11   -1    0    0    0    0 -0.00000000000E+00 -0.00000000000E+00 -0.45593999997E+02  0.45594000000E+02  0.51100000000E-03 0. -1.
    9900012    2    1    2    0    0  0.22001290938E+02 -0.37766527825E+02 -0.10897070000E+02  0.46142316949E+02  0.99999925962E+01 0.  0.
         12    1    1    2    0    0 -0.22001290938E+02  0.37766527825E+02  0.10897070000E+02  0.45045683051E+02  0.00000000000E+00 0. -1.
         11    1    3    3    0    0  0.14589809349E+01 -0.43969340990E+00  0.10368378284E+01  0.18430921319E+01  0.51100000000E-03 0. -1.
        -11    1    3    3    0    0  0.14838397887E+02 -0.24857525496E+02 -0.81021579766E+01  0.30061929243E+02  0.51100000000E-03 0.  1.
         12    1    3    3    0    0  0.57039121162E+01 -0.12469308919E+02 -0.38317498520E+01  0.14237295575E+02  0.00000000000E+00 0. -1.
</event>
<event>
 7    1  0.1442665E-008  0.4614231E+02  0.7816164E-02  0.1320468E+00
        -11   -1    0    0    0    0  0.00000000000E+00  0.00000000000E+00  0.45593999997E+02  0.45594000000E+02  0.51100000000E-03 0.  1.
         11   -1    0    0    0    0 -0.00000000000E+00 -0.00000000000E+00 -0.45593999997E+02  0.45594000000E+02  0.51100000000E-03 0. -1.
    9900012    2    1    2    0    0  0.91009153534E+01  0.43881536554E+02  0.45494997192E+01  0.46142313655E+02  0.99999625527E+01 0.  0.
         12    1    1    2    0    0 -0.91009153534E+01 -0.43881536554E+02 -0.45494997192E+01  0.45045686345E+02  0.00000000000E+00 0. -1.
         11    1    3    3    0    0  0.95423413450E+00  0.29179757075E+01 -0.20646764569E+01  0.36997343345E+01  0.51100000000E-03 0. -1.
        -11    1    3    3    0    0  0.74743800316E+01  0.29378000444E+02  0.50783003193E+01  0.30736336823E+02  0.51100000000E-03 0.  1.
         12    1    3    3    0    0  0.67230118728E+00  0.11585560403E+02  0.15358758569E+01  0.11706242497E+02  0.00000000000E+00 0. -1.
</event>
<event>
 7    1  0.1442665E-008  0.4614232E+02  0.7816164E-02  0.1320468E+00
        -11   -1    0    0    0    0  0.00000000000E+00  0.00000000000E+00  0.45593999997E+02  0.45594000000E+02  0.51100000000E-03 0.  1.
         11   -1    0    0    0    0 -0.00000000000E+00 -0.00000000000E+00 -0.45593999997E+02  0.45594000000E+02  0.51100000000E-03 0. -1.
    9900012    2    1    2    0    0 -0.51302352685E+01  0.11981905008E+01  0.44736545946E+02  0.46142317437E+02  0.99999970488E+01 0.  0.
         12    1    1    2    0    0  0.51302352685E+01 -0.11981905008E+01 -0.44736545946E+02  0.45045682563E+02  0.00000000000E+00 0. -1.
         11    1    3    3    0    0 -0.27709681313E+01  0.71134977544E+00  0.61127528418E+01  0.67490762668E+01  0.51100000000E-03 0.  1.
        -11    1    3    3    0    0 -0.40267134849E+01 -0.12776797840E+01  0.32979564308E+02  0.33249038322E+02  0.51100000000E-03 0. -1.
         12    1    3    3    0    0  0.16674463477E+01  0.17645205093E+01  0.56442287958E+01  0.61442028490E+01  0.00000000000E+00 0. -1.
</event>
<event>
 7    1  0.1442665E-008  0.4614232E+02  0.7816164E-02  0.1320468E+00
        -11   -1    0    0    0    0  0.00000000000E+00  0.00000000000E+00  0.45593999997E+02  0.45594000000E+02  0.51100000000E-03 0.  1.
         11   -1    0    0    0    0 -0.00000000000E+00 -0.00000000000E+00 -0.45593999997E+02  0.45594000000E+02  0.51100000000E-03 0. -1.
    9900012    2    1    2    0    0  0.30067889475E+01 -0.41456805738E+02  0.17361047183E+02  0.46142317842E+02  0.10000000742E+02 0.  0.
         12    1    1    2    0    0 -0.30067889475E+01  0.41456805738E+02 -0.17361047183E+02  0.45045682158E+02  0.00000000000E+00 0. -1.
         11    1    3    3    0    0  0.57256482823E+01 -0.19362970950E+02  0.87858106371E+01  0.22020403290E+02  0.51100000000E-03 0. -1.
        -11    1    3    3    0    0  0.68876446632E+00 -0.86164716623E+01  0.31901381017E+01  0.92138461983E+01  0.51100000000E-03 0.  1.
         12    1    3    3    0    0 -0.34076238011E+01 -0.13477363126E+02  0.53850984446E+01  0.14908068354E+02  0.00000000000E+00 0. -1.
</event>
<event>
 7    1  0.1442665E-008  0.4614232E+02  0.7816164E-02  0.1320468E+00
        -11   -1    0    0    0    0  0.00000000000E+00  0.00000000000E+00  0.45593999997E+02  0.45594000000E+02  0.51100000000E-03 0.  1.
         11   -1    0    0    0    0 -0.00000000000E+00 -0.00000000000E+00 -0.45593999997E+02  0.45594000000E+02  0.51100000000E-03 0. -1.
    9900012    2    1    2    0    0 -0.36135482153E+02 -0.40237850171E+00  0.26891979122E+02  0.46142317410E+02  0.99999967991E+01 0.  0.
         12    1    1    2    0    0  0.36135482153E+02  0.40237850171E+00 -0.26891979122E+02  0.45045682590E+02  0.00000000000E+00 0. -1.
         11    1    3    3    0    0 -0.23180825012E+02  0.87571819883E+00  0.17289610341E+02  0.28931784539E+02  0.51100000000E-03 0. -1.
        -11    1    3    3    0    0 -0.13359076014E+02 -0.88391391147E+00  0.98218216334E+01  0.16604649837E+02  0.51100000000E-03 0.  1.
         12    1    3    3    0    0  0.40441887323E+00 -0.39418278906E+00 -0.21945285253E+00  0.60588303385E+00  0.00000000000E+00 0. -1.
</event>
<event>
 7    1  0.1442665E-008  0.4614232E+02  0.7816164E-02  0.1320468E+00
        -11   -1    0    0    0    0  0.00000000000E+00  0.00000000000E+00  0.45593999997E+02  0.45594000000E+02  0.51100000000E-03 0. -1.
         11   -1    0    0    0    0 -0.00000000000E+00 -0.00000000000E+00 -0.45593999997E+02  0.45594000000E+02  0.51100000000E-03 0.  1.
    9900012    2    1    2    0    0  0.69899140885E+01  0.32465216706E+02 -0.30434591280E+02  0.46142317176E+02  0.99999946602E+01 0.  0.
         12    1    1    2    0    0 -0.69899140885E+01 -0.32465216706E+02  0.30434591280E+02  0.45045682824E+02  0.00000000000E+00 0. -1.
         11    1    3    3    0    0  0.19252296441E+01  0.11382819359E+02 -0.15673174237E+02  0.19465956865E+02  0.51100000000E-03 0. -1.
        -11    1    3    3    0    0  0.57918334909E+01  0.18470038011E+02 -0.11841962247E+02  0.22691842354E+02  0.51100000000E-03 0.  1.
        -12    1    3    3    0    0 -0.72714904648E+00  0.26123593359E+01 -0.29194547967E+01  0.39845179565E+01  0.00000000000E+00 0.  1.
</event>
<event>
 7    1  0.1442665E-008  0.4614232E+02  0.7816164E-02  0.1320468E+00
        -11   -1    0    0    0    0  0.00000000000E+00  0.00000000000E+00  0.45593999997E+02  0.45594000000E+02  0.51100000000E-03 0.  1.
         11   -1    0    0    0    0 -0.00000000000E+00 -0.00000000000E+00 -0.45593999997E+02  0.45594000000E+02  0.51100000000E-03 0. -1.
    9900012    2    1    2    0    0 -0.26435063124E+02  0.35901146604E+02  0.64349519401E+01  0.46142317673E+02  0.99999991975E+01 0.  0.
         12    1    1    2    0    0  0.26435063124E+02 -0.35901146604E+02 -0.64349519401E+01  0.45045682327E+02  0.00000000000E+00 0. -1.
         11    1    3    3    0    0 -0.98787941517E+01  0.19158925671E+02  0.44577954796E+01  0.22011972823E+02  0.51100000000E-03 0.  1.
        -11    1    3    3    0    0 -0.14367349805E+02  0.14118793736E+02  0.34014446407E+01  0.20428678442E+02  0.51100000000E-03 0. -1.
         12    1    3    3    0    0 -0.21889191671E+01  0.26234271967E+01 -0.14242881803E+01  0.37016664081E+01  0.00000000000E+00 0. -1.
</event>
<event>
 7    1  0.1442665E-008  0.4614232E+02  0.7816164E-02  0.1320468E+00
        -11   -1    0    0    0    0  0.00000000000E+00  0.00000000000E+00  0.45593999997E+02  0.45594000000E+02  0.51100000000E-03 0.  1.
         11   -1    0    0    0    0 -0.00000000000E+00 -0.00000000000E+00 -0.45593999997E+02  0.45594000000E+02  0.51100000000E-03 0. -1.
    9900012    2    1    2    0    0 -0.15316432069E+02 -0.28770688906E+02  0.31092888904E+02  0.46142319055E+02  0.10000011797E+02 0.  0.
         12    1    1    2    0    0  0.15316432069E+02  0.28770688906E+02 -0.31092888904E+02  0.45045680945E+02  0.00000000000E+00 0. -1.
         11    1    3    3    0    0 -0.11075264049E+02 -0.16216871985E+02  0.22643183383E+02  0.29972690315E+02  0.51100000000E-03 0. -1.
        -11    1    3    3    0    0  0.13363734703E+00 -0.41827539326E+01  0.37521302799E+01  0.56206557713E+01  0.51100000000E-03 0.  1.
         12    1    3    3    0    0 -0.43748053672E+01 -0.83710629878E+01  0.46975752406E+01  0.10548972968E+02  0.00000000000E+00 0. -1.
</event>
<event>
 7    1  0.1442665E-008  0.4614232E+02  0.7816164E-02  0.1320468E+00
        -11   -1    0    0    0    0  0.00000000000E+00  0.00000000000E+00  0.45593999997E+02  0.45594000000E+02  0.51100000000E-03 0.  1.
         11   -1    0    0    0    0 -0.00000000000E+00 -0.00000000000E+00 -0.45593999997E+02  0.45594000000E+02  0.51100000000E-03 0. -1.
    9900012    2    1    2    0    0  0.31285919016E+02  0.28377045645E+02  0.15654012720E+02  0.46142316939E+02  0.99999925064E+01 0.  0.
         12    1    1    2    0    0 -0.31285919016E+02 -0.28377045645E+02 -0.15654012720E+02  0.45045683061E+02  0.00000000000E+00 0. -1.
         11    1    3    3    0    0  0.64590867532E+01  0.21690160694E+01  0.42923949356E+01  0.80528930789E+01  0.51100000000E-03 0. -1.
        -11    1    3    3    0    0  0.18049356766E+02  0.19709554267E+02  0.64495247214E+01  0.27492584063E+02  0.51100000000E-03 0.  1.
         12    1    3    3    0    0  0.67774754967E+01  0.64984753083E+01  0.49120930626E+01  0.10596839798E+02  0.00000000000E+00 0. -1.
</event>
<event>
 7    1  0.1442665E-008  0.4614232E+02  0.7816164E-02  0.1320468E+00
        -11   -1    0    0    0    0  0.00000000000E+00  0.00000000000E+00  0.45593999997E+02  0.45594000000E+02  0.51100000000E-03 0.  1.
         11   -1    0    0    0    0 -0.00000000000E+00 -0.00000000000E+00 -0.45593999997E+02  0.45594000000E+02  0.51100000000E-03 0. -1.
    9900012    2    1    2    0    0  0.20819482291E+02  0.38681528332E+02  0.99700537593E+01  0.46142318199E+02  0.10000003991E+02 0.  0.
         12    1    1    2    0    0 -0.20819482291E+02 -0.38681528332E+02 -0.99700537593E+01  0.45045681801E+02  0.00000000000E+00 0. -1.
         11    1    3    3    0    0  0.68117976477E+01  0.78866108354E+01 -0.16168896987E+00  0.10422349123E+02  0.51100000000E-03 0. -1.
        -11    1    3    3    0    0  0.34155482519E+01  0.99867869093E+01  0.55530027740E+01  0.11926345740E+02  0.51100000000E-03 0.  1.
        -12    1    3    3    0    0  0.10592136391E+02  0.20808130588E+02  0.45787399552E+01  0.23793623336E+02  0.00000000000E+00 0.  1.
</event>
<event>
 7    1  0.1442665E-008  0.4614232E+02  0.7816164E-02  0.1320468E+00
        -11   -1    0    0    0    0  0.00000000000E+00  0.00000000000E+00  0.45593999997E+02  0.45594000000E+02  0.51100000000E-03 0.  1.
         11   -1    0    0    0    0 -0.00000000000E+00 -0.00000000000E+00 -0.45593999997E+02  0.45594000000E+02  0.51100000000E-03 0. -1.
    9900012    2    1    2    0    0  0.14329494427E+02 -0.42698181538E+02  0.80274475869E+00  0.46142317451E+02  0.99999971693E+01 0.  0.
         12    1    1    2    0    0 -0.14329494427E+02  0.42698181538E+02 -0.80274475869E+00  0.45045682549E+02  0.00000000000E+00 0. -1.
         11    1    3    3    0    0  0.28570276907E+01 -0.19016312491E+02 -0.16024680939E+01  0.19296389617E+02  0.51100000000E-03 0.  1.
        -11    1    3    3    0    0  0.47540488932E+01 -0.14864184780E+02  0.62549477805E+00  0.15618457480E+02  0.51100000000E-03 0. -1.
         12    1    3    3    0    0  0.67184178426E+01 -0.88176842668E+01  0.17797180745E+01  0.11227470355E+02  0.00000000000E+00 0. -1.
</event>
<event>
 7    1  0.1442665E-008  0.4614232E+02  0.7816164E-02  0.1320468E+00
        -11   -1    0    0    0    0  0.00000000000E+00  0.00000000000E+00  0.45593999997E+02  0.45594000000E+02  0.51100000000E-03 0. -1.
         11   -1    0    0    0    0 -0.00000000000E+00 -0.00000000000E+00 -0.45593999997E+02  0.45594000000E+02  0.51100000000E-03 0.  1.
    9900012    2    1    2    0    0 -0.35624810955E+02 -0.27161405924E+02  0.47164147725E+01  0.46142315460E+02  0.99999790194E+01 0.  0.
         12    1    1    2    0    0  0.35624810955E+02  0.27161405924E+02 -0.47164147725E+01  0.45045684540E+02  0.00000000000E+00 0. -1.
         11    1    3    3    0    0 -0.12960133234E+02 -0.52824377707E+01  0.36532270201E+01  0.14464275653E+02  0.51100000000E-03 0. -1.
        -11    1    3    3    0    0 -0.15903019028E+02 -0.16868605972E+02 -0.93165850950E-01  0.23183281946E+02  0.51100000000E-03 0.  1.
         12    1    3    3    0    0 -0.67616586933E+01 -0.50103621807E+01  0.11563536034E+01  0.84947578613E+01  0.00000000000E+00 0. -1.
</event>
<event>
 7    1  0.1442665E-008  0.4614232E+02  0.7816164E-02  0.1320468E+00
        -11   -1    0    0    0    0  0.00000000000E+00  0.00000000000E+00  0.45593999997E+02  0.45594000000E+02  0.51100000000E-03 0. -1.
         11   -1    0    0    0    0 -0.00000000000E+00 -0.00000000000E+00 -0.45593999997E+02  0.45594000000E+02  0.51100000000E-03 0.  1.
    9900012    2    1    2    0    0  0.30618139342E+02 -0.32555842885E+02 -0.56356101641E+01  0.46142318025E+02  0.10000002404E+02 0.  0.
         12    1    1    2    0    0 -0.30618139342E+02  0.32555842885E+02  0.56356101641E+01  0.45045681975E+02  0.00000000000E+00 0. -1.
         11    1    3    3    0    0  0.11956286354E+02 -0.12159303020E+02 -0.49848223337E-01  0.17052973888E+02  0.51100000000E-03 0. -1.
        -11    1    3    3    0    0  0.18147093935E+02 -0.18795922938E+02 -0.34230812857E+01  0.26349975771E+02  0.51100000000E-03 0.  1.
        -12    1    3    3    0    0  0.51475905254E+00 -0.16006169271E+01 -0.21626806551E+01  0.27393683661E+01  0.00000000000E+00 0.  1.
</event>
<event>
 7    1  0.1442665E-008  0.4614232E+02  0.7816164E-02  0.1320468E+00
        -11   -1    0    0    0    0  0.00000000000E+00  0.00000000000E+00  0.45593999997E+02  0.45594000000E+02  0.51100000000E-03 0.  1.
         11   -1    0    0    0    0 -0.00000000000E+00 -0.00000000000E+00 -0.45593999997E+02  0.45594000000E+02  0.51100000000E-03 0. -1.
    9900012    2    1    2    0    0  0.20529655059E+02 -0.18105509040E+02  0.35774815185E+02  0.46142316567E+02  0.99999891113E+01 0.  0.
         12    1    1    2    0    0 -0.20529655059E+02  0.18105509040E+02 -0.35774815185E+02  0.45045683433E+02  0.00000000000E+00 0. -1.
         11    1    3    3    0    0  0.62739209754E+00 -0.19653598881E+01  0.56756699694E+00  0.21397179465E+01  0.51100000000E-03 0. -1.
        -11    1    3    3    0    0  0.10687275197E+02 -0.47288435259E+01  0.14408403140E+02  0.18552139864E+02  0.51100000000E-03 0.  1.
         12    1    3    3    0    0  0.92149877647E+01 -0.11411305626E+02  0.20798845048E+02  0.25450458756E+02  0.00000000000E+00 0. -1.
</event>
<event>
 7    1  0.1442665E-008  0.4614232E+02  0.7816164E-02  0.1320468E+00
        -11   -1    0    0    0    0  0.00000000000E+00  0.00000000000E+00  0.45593999997E+02  0.45594000000E+02  0.51100000000E-03 0. -1.
         11   -1    0    0    0    0 -0.00000000000E+00 -0.00000000000E+00 -0.45593999997E+02  0.45594000000E+02  0.51100000000E-03 0.  1.
    9900012    2    1    2    0    0 -0.29808577607E+01  0.42015614773E+02 -0.15966089952E+02  0.46142318452E+02  0.10000006301E+02 0.  0.
         12    1    1    2    0    0  0.29808577607E+01 -0.42015614773E+02  0.15966089952E+02  0.45045681548E+02  0.00000000000E+00 0. -1.
         11    1    3    3    0    0 -0.41320568478E+01  0.10577550913E+02 -0.19292672625E+01  0.11518704334E+02  0.51100000000E-03 0. -1.
        -11    1    3    3    0    0  0.10061938494E+01  0.83088666559E+01 -0.22649488740E+01  0.86706219402E+01  0.51100000000E-03 0.  1.
        -12    1    3    3    0    0  0.14500523763E+00  0.23129197205E+02 -0.11771873816E+02  0.25952992178E+02  0.00000000000E+00 0.  1.
</event>
<event>
 7    1  0.1442665E-008  0.4614232E+02  0.7816164E-02  0.1320468E+00
        -11   -1    0    0    0    0  0.00000000000E+00  0.00000000000E+00  0.45593999997E+02  0.45594000000E+02  0.51100000000E-03 0.  1.
         11   -1    0    0    0    0 -0.00000000000E+00 -0.00000000000E+00 -0.45593999997E+02  0.45594000000E+02  0.51100000000E-03 0. -1.
    9900012    2    1    2    0    0  0.61043362624E+01 -0.44555562344E+02  0.25792089863E+01  0.46142319009E+02  0.10000011378E+02 0.  0.
         12    1    1    2    0    0 -0.61043362624E+01  0.44555562344E+02 -0.25792089863E+01  0.45045680991E+02  0.00000000000E+00 0. -1.
         11    1    3    3    0    0  0.52088123059E+01 -0.17667050324E+02  0.56383365576E+00  0.18427541926E+02  0.51100000000E-03 0.  1.
        -11    1    3    3    0    0  0.35088401129E+01 -0.19231155391E+02  0.15671677145E+01  0.19611356698E+02  0.51100000000E-03 0. -1.
         12    1    3    3    0    0 -0.26133161563E+01 -0.76573566282E+01  0.44820761602E+00  0.81034203847E+01  0.00000000000E+00 0. -1.
</event>
<event>
 7    1  0.1442665E-008  0.4614232E+02  0.7816164E-02  0.1320468E+00
        -11   -1    0    0    0    0  0.00000000000E+00  0.00000000000E+00  0.45593999997E+02  0.45594000000E+02  0.51100000000E-03 0.  1.
         11   -1    0    0    0    0 -0.00000000000E+00 -0.00000000000E+00 -0.45593999997E+02  0.45594000000E+02  0.51100000000E-03 0. -1.
    9900012    2    1    2    0    0  0.29937221965E+02  0.13871998076E+02  0.30666658069E+02  0.46142317557E+02  0.99999981404E+01 0.  0.
         12    1    1    2    0    0 -0.29937221965E+02 -0.13871998076E+02 -0.30666658069E+02  0.45045682443E+02  0.00000000000E+00 0. -1.
         11    1    3    3    0    0  0.69689860552E+01  0.33259396639E+01  0.29805095769E+01  0.82772023586E+01  0.51100000000E-03 0. -1.
        -11    1    3    3    0    0  0.12441176713E+02  0.36385694975E+01  0.16808692410E+02  0.21226262195E+02  0.51100000000E-03 0.  1.
        -12    1    3    3    0    0  0.10527059197E+02  0.69074889147E+01  0.10877456082E+02  0.16638853003E+02  0.00000000000E+00 0.  1.
</event>
<event>
 7    1  0.1442665E-008  0.4614232E+02  0.7816164E-02  0.1320468E+00
        -11   -1    0    0    0    0  0.00000000000E+00  0.00000000000E+00  0.45593999997E+02  0.45594000000E+02  0.51100000000E-03 0.  1.
         11   -1    0    0    0    0 -0.00000000000E+00 -0.00000000000E+00 -0.45593999997E+02  0.45594000000E+02  0.51100000000E-03 0. -1.
    9900012    2    1    2    0    0  0.14728195981E+02 -0.28637001759E+02  0.31497871860E+02  0.46142316985E+02  0.99999929241E+01 0.  0.
         12    1    1    2    0    0 -0.14728195981E+02  0.28637001759E+02 -0.31497871860E+02  0.45045683015E+02  0.00000000000E+00 0. -1.
         11    1    3    3    0    0  0.76507768388E+01 -0.85078897984E+01  0.10712514143E+02  0.15674072048E+02  0.51100000000E-03 0. -1.
        -11    1    3    3    0    0  0.25114732698E+01 -0.38540028113E+01  0.81706676663E+01  0.93766009848E+01  0.51100000000E-03 0.  1.
        -12    1    3    3    0    0  0.45659458726E+01 -0.16275109149E+02  0.12614690051E+02  0.21091643952E+02  0.00000000000E+00 0.  1.
</event>
<event>
 7    1  0.1442665E-008  0.4614232E+02  0.7816164E-02  0.1320468E+00
        -11   -1    0    0    0    0  0.00000000000E+00  0.00000000000E+00  0.45593999997E+02  0.45594000000E+02  0.51100000000E-03 0.  1.
         11   -1    0    0    0    0 -0.00000000000E+00 -0.00000000000E+00 -0.45593999997E+02  0.45594000000E+02  0.51100000000E-03 0. -1.
    9900012    2    1    2    0    0  0.14566696010E+02 -0.31376563230E+02  0.28851969648E+02  0.46142317572E+02  0.99999982766E+01 0.  0.
         12    1    1    2    0    0 -0.14566696010E+02  0.31376563230E+02 -0.28851969648E+02  0.45045682428E+02  0.00000000000E+00 0. -1.
         11    1    3    3    0    0  0.19292845483E+01 -0.66868414587E+01  0.28132646251E+01  0.75066933915E+01  0.51100000000E-03 0. -1.
        -11    1    3    3    0    0  0.34884323666E+01 -0.31906804451E+01  0.20629834172E+01  0.51580522409E+01  0.51100000000E-03 0.  1.
         12    1    3    3    0    0  0.91489790953E+01 -0.21499041327E+02  0.23975721606E+02  0.33477571940E+02  0.00000000000E+00 0. -1.
</event>
<event>
 7    1  0.1442665E-008  0.4614232E+02  0.7816164E-02  0.1320468E+00
        -11   -1    0    0    0    0  0.00000000000E+00  0.00000000000E+00  0.45593999997E+02  0.45594000000E+02  0.51100000000E-03 0.  1.
         11   -1    0    0    0    0 -0.00000000000E+00 -0.00000000000E+00 -0.45593999997E+02  0.45594000000E+02  0.51100000000E-03 0. -1.
    9900012    2    1    2    0    0 -0.16282509580E+02  0.27629228074E+02  0.31632564028E+02  0.46142317974E+02  0.10000001942E+02 0.  0.
         12    1    1    2    0    0  0.16282509580E+02 -0.27629228074E+02 -0.31632564028E+02  0.45045682026E+02  0.00000000000E+00 0. -1.
         11    1    3    3    0    0 -0.69157575899E+01  0.45869670688E+01  0.73490378563E+01  0.11084959522E+02  0.51100000000E-03 0. -1.
        -11    1    3    3    0    0 -0.74898417882E+01  0.12529958190E+02  0.13573020043E+02  0.19932999163E+02  0.51100000000E-03 0.  1.
         12    1    3    3    0    0 -0.18769102018E+01  0.10512302815E+02  0.10710506128E+02  0.15124359289E+02  0.00000000000E+00 0. -1.
</event>
<event>
 7    1  0.1442665E-008  0.4614232E+02  0.7816164E-02  0.1320468E+00
        -11   -1    0    0    0    0  0.00000000000E+00  0.00000000000E+00  0.45593999997E+02  0.45594000000E+02  0.51100000000E-03 0.  1.
         11   -1    0    0    0    0 -0.00000000000E+00 -0.00000000000E+00 -0.45593999997E+02  0.45594000000E+02  0.51100000000E-03 0. -1.
    9900012    2    1    2    0    0 -0.17306811291E+02  0.26378311836E+02  0.32152331249E+02  0.46142318108E+02  0.10000003164E+02 0.  0.
         12    1    1    2    0    0  0.17306811291E+02 -0.26378311836E+02 -0.32152331249E+02  0.45045681892E+02  0.00000000000E+00 0. -1.
         11    1    3    3    0    0  0.21795492047E+00  0.62764335865E+00  0.24195632452E+01  0.25091287515E+01  0.51100000000E-03 0. -1.
        -11    1    3    3    0    0 -0.35542651221E+01  0.16454532011E+01  0.52036043062E+01  0.65128960403E+01  0.51100000000E-03 0.  1.
         12    1    3    3    0    0 -0.13970501089E+02  0.24105215276E+02  0.24529163698E+02  0.37120293316E+02  0.00000000000E+00 0. -1.
</event>
<event>
 7    1  0.1442665E-008  0.4614232E+02  0.7816164E-02  0.1320468E+00
        -11   -1    0    0    0    0  0.00000000000E+00  0.00000000000E+00  0.45593999997E+02  0.45594000000E+02  0.51100000000E-03 0.  1.
         11   -1    0    0    0    0 -0.00000000000E+00 -0.00000000000E+00 -0.45593999997E+02  0.45594000000E+02  0.51100000000E-03 0. -1.
    9900012    2    1    2    0    0  0.90552443243E+01  0.20427203223E+01  0.44078830179E+02  0.46142318453E+02  0.10000006310E+02 0.  0.
         12    1    1    2    0    0 -0.90552443243E+01 -0.20427203223E+01 -0.44078830179E+02  0.45045681547E+02  0.00000000000E+00 0. -1.
         11    1    3    3    0    0  0.88945987585E+00 -0.12444117620E+01  0.74975474411E+00  0.17034764283E+01  0.51100000000E-03 0. -1.
        -11    1    3    3    0    0  0.86806734116E+01  0.27174182886E+01  0.39547094993E+02  0.40579689201E+02  0.51100000000E-03 0.  1.
        -12    1    3    3    0    0 -0.51488896317E+00  0.56971379575E+00  0.37819804421E+01  0.38591528238E+01  0.00000000000E+00 0.  1.
</event>
<event>
 7    1  0.1442665E-008  0.4614232E+02  0.7816164E-02  0.1320468E+00
        -11   -1    0    0    0    0  0.00000000000E+00  0.00000000000E+00  0.45593999997E+02  0.45594000000E+02  0.51100000000E-03 0.  1.
         11   -1    0    0    0    0 -0.00000000000E+00 -0.00000000000E+00 -0.45593999997E+02  0.45594000000E+02  0.51100000000E-03 0. -1.
    9900012    2    1    2    0    0 -0.64361209335E+01 -0.35449697469E+02  0.27037174537E+02  0.46142317518E+02  0.99999977871E+01 0.  0.
         12    1    1    2    0    0  0.64361209335E+01  0.35449697469E+02 -0.27037174537E+02  0.45045682482E+02  0.00000000000E+00 0. -1.
         11    1    3    3    0    0 -0.11288420321E+01 -0.96997583456E+00  0.12396753785E+00  0.14934877517E+01  0.51100000000E-03 0. -1.
        -11    1    3    3    0    0  0.81375395992E+00 -0.82220619348E+01  0.36269751918E+01  0.90232725366E+01  0.51100000000E-03 0.  1.
        -12    1    3    3    0    0 -0.61210328613E+01 -0.26257659700E+02  0.23286231807E+02  0.35625557230E+02  0.00000000000E+00 0.  1.
</event>
<event>
 7    1  0.1442665E-008  0.4614232E+02  0.7816164E-02  0.1320468E+00
        -11   -1    0    0    0    0  0.00000000000E+00  0.00000000000E+00  0.45593999997E+02  0.45594000000E+02  0.51100000000E-03 0.  1.
         11   -1    0    0    0    0 -0.00000000000E+00 -0.00000000000E+00 -0.45593999997E+02  0.45594000000E+02  0.51100000000E-03 0. -1.
    9900012    2    1    2    0    0 -0.66302685856E+01 -0.12484400305E+01  0.44537563854E+02  0.46142315877E+02  0.99999828185E+01 0.  0.
         12    1    1    2    0    0  0.66302685856E+01  0.12484400305E+01 -0.44537563854E+02  0.45045684123E+02  0.00000000000E+00 0. -1.
         11    1    3    3    0    0 -0.11290573220E+01 -0.27021199659E+01  0.81640118626E+01  0.86733680137E+01  0.51100000000E-03 0. -1.
        -11    1    3    3    0    0 -0.48667821447E+01  0.16142650596E+01  0.11552746728E+02  0.12639516500E+02  0.51100000000E-03 0.  1.
        -12    1    3    3    0    0 -0.63442911887E+00 -0.16058512419E+00  0.24820805264E+02  0.24829431363E+02  0.00000000000E+00 0.  1.
</event>
<event>
 7    1  0.1442665E-008  0.4614232E+02  0.7816164E-02  0.1320468E+00
        -11   -1    0    0    0    0  0.00000000000E+00  0.00000000000E+00  0.45593999997E+02  0.45594000000E+02  0.51100000000E-03 0. -1.
         11   -1    0    0    0    0 -0.00000000000E+00 -0.00000000000E+00 -0.45593999997E+02  0.45594000000E+02  0.51100000000E-03 0.  1.
    9900012    2    1    2    0    0  0.60777662323E+01 -0.14994447955E+02 -0.42039753275E+02  0.46142316885E+02  0.99999920146E+01 0.  0.
         12    1    1    2    0    0 -0.60777662323E+01  0.14994447955E+02  0.42039753275E+02  0.45045683115E+02  0.00000000000E+00 0. -1.
         11    1    3    3    0    0 -0.21768112824E+00 -0.11512648894E+00 -0.10455276796E+02  0.10458176339E+02  0.51100000000E-03 0. -1.
        -11    1    3    3    0    0  0.55328537677E+01 -0.11803524274E+02 -0.21810901267E+02  0.25409664902E+02  0.51100000000E-03 0.  1.
        -12    1    3    3    0    0  0.76259359284E+00 -0.30757971924E+01 -0.97735752118E+01  0.10274475645E+02  0.00000000000E+00 0.  1.
</event>
<event>
 7    1  0.1442665E-008  0.4614232E+02  0.7816164E-02  0.1320468E+00
        -11   -1    0    0    0    0  0.00000000000E+00  0.00000000000E+00  0.45593999997E+02  0.45594000000E+02  0.51100000000E-03 0.  1.
         11   -1    0    0    0    0 -0.00000000000E+00 -0.00000000000E+00 -0.45593999997E+02  0.45594000000E+02  0.51100000000E-03 0. -1.
    9900012    2    1    2    0    0  0.18701650838E+02 -0.16358104289E+02  0.37573583571E+02  0.46142317606E+02  0.99999985874E+01 0.  0.
         12    1    1    2    0    0 -0.18701650838E+02  0.16358104289E+02 -0.37573583571E+02  0.45045682394E+02  0.00000000000E+00 0. -1.
         11    1    3    3    0    0  0.96584111304E+01 -0.12006429005E+02  0.25128013992E+02  0.29476369017E+02  0.51100000000E-03 0. -1.
        -11    1    3    3    0    0  0.31310622354E+01 -0.19058817313E+01  0.82149343630E+01  0.89956146396E+01  0.51100000000E-03 0.  1.
         12    1    3    3    0    0  0.59121774721E+01 -0.24457935523E+01  0.42306352160E+01  0.76703339493E+01  0.00000000000E+00 0. -1.
</event>
<event>
 7    1  0.1442665E-008  0.4614232E+02  0.7816164E-02  0.1320468E+00
        -11   -1    0    0    0    0  0.00000000000E+00  0.00000000000E+00  0.45593999997E+02  0.45594000000E+02  0.51100000000E-03 0.  1.
         11   -1    0    0    0    0 -0.00000000000E+00 -0.00000000000E+00 -0.45593999997E+02  0.45594000000E+02  0.51100000000E-03 0. -1.
    9900012    2    1    2    0    0 -0.11408785690E+02  0.36300920168E+02  0.24108013182E+02  0.46142317681E+02  0.99999992733E+01 0.  0.
         12    1    1    2    0    0  0.11408785690E+02 -0.36300920168E+02 -0.24108013182E+02  0.45045682319E+02  0.00000000000E+00 0. -1.
         11    1    3    3    0    0 -0.11432835597E+01  0.46062917441E+00  0.21523545704E+01  0.24803038104E+01  0.51100000000E-03 0. -1.
        -11    1    3    3    0    0 -0.75178521108E+01  0.27286938103E+02  0.19426147188E+02  0.34328855009E+02  0.51100000000E-03 0.  1.
        -12    1    3    3    0    0 -0.27476500191E+01  0.85533528911E+01  0.25295114236E+01  0.93331588623E+01  0.00000000000E+00 0.  1.
</event>
<event>
 7    1  0.1442665E-008  0.4614232E+02  0.7816164E-02  0.1320468E+00
        -11   -1    0    0    0    0  0.00000000000E+00  0.00000000000E+00  0.45593999997E+02  0.45594000000E+02  0.51100000000E-03 0.  1.
         11   -1    0    0    0    0 -0.00000000000E+00 -0.00000000000E+00 -0.45593999997E+02  0.45594000000E+02  0.51100000000E-03 0. -1.
    9900012    2    1    2    0    0  0.31426005991E+02  0.69216761423E+01  0.31521581194E+02  0.46142317253E+02  0.99999953677E+01 0.  0.
         12    1    1    2    0    0 -0.31426005991E+02 -0.69216761423E+01 -0.31521581194E+02  0.45045682747E+02  0.00000000000E+00 0. -1.
         11    1    3    3    0    0  0.54907946943E+01 -0.14701958096E+00  0.36088258071E+01  0.65722191913E+01  0.51100000000E-03 0. -1.
        -11    1    3    3    0    0  0.15200238062E+02  0.53033346203E+01  0.21771904406E+02  0.27077452187E+02  0.51100000000E-03 0.  1.
        -12    1    3    3    0    0  0.10734973235E+02  0.17653611029E+01  0.61408509813E+01  0.12492645875E+02  0.00000000000E+00 0.  1.
</event>
<event>
 7    1  0.1442665E-008  0.4614232E+02  0.7816164E-02  0.1320468E+00
        -11   -1    0    0    0    0  0.00000000000E+00  0.00000000000E+00  0.45593999997E+02  0.45594000000E+02  0.51100000000E-03 0.  1.
         11   -1    0    0    0    0 -0.00000000000E+00 -0.00000000000E+00 -0.45593999997E+02  0.45594000000E+02  0.51100000000E-03 0. -1.
    9900012    2    1    2    0    0  0.24737862167E+01  0.40762701027E+02  0.19010417320E+02  0.46142318965E+02  0.10000010979E+02 0.  0.
         12    1    1    2    0    0 -0.24737862167E+01 -0.40762701027E+02 -0.19010417320E+02  0.45045681035E+02  0.00000000000E+00 0. -1.
         11    1    3    3    0    0 -0.17725966237E+01  0.26020754063E+01  0.89831262333E+00  0.32741198879E+01  0.51100000000E-03 0. -1.
        -11    1    3    3    0    0  0.28565111860E+00  0.24787980030E+02  0.13175273262E+02  0.28073357054E+02  0.51100000000E-03 0.  1.
        -12    1    3    3    0    0  0.39607317217E+01  0.13372645591E+02  0.49368314342E+01  0.14794842023E+02  0.00000000000E+00 0.  1.
</event>
<event>
 7    1  0.1442665E-008  0.4614231E+02  0.7816164E-02  0.1320468E+00
        -11   -1    0    0    0    0  0.00000000000E+00  0.00000000000E+00  0.45593999997E+02  0.45594000000E+02  0.51100000000E-03 0.  1.
         11   -1    0    0    0    0 -0.00000000000E+00 -0.00000000000E+00 -0.45593999997E+02  0.45594000000E+02  0.51100000000E-03 0. -1.
    9900012    2    1    2    0    0  0.23408991902E+02 -0.30066801839E+02  0.24023328303E+02  0.46142314552E+02  0.99999707400E+01 0.  0.
         12    1    1    2    0    0 -0.23408991902E+02  0.30066801839E+02 -0.24023328303E+02  0.45045685448E+02  0.00000000000E+00 0. -1.
         11    1    3    3    0    0  0.48360723699E+01 -0.12071614184E+02  0.66116074323E+01  0.14588516651E+02  0.51100000000E-03 0. -1.
        -11    1    3    3    0    0  0.13870613475E+02 -0.10530760622E+02  0.12684457575E+02  0.21544983214E+02  0.51100000000E-03 0.  1.
        -12    1    3    3    0    0  0.47023060576E+01 -0.74644270329E+01  0.47272632954E+01  0.10008814688E+02  0.00000000000E+00 0.  1.
</event>
<event>
 7    1  0.1442665E-008  0.4614232E+02  0.7816164E-02  0.1320468E+00
        -11   -1    0    0    0    0  0.00000000000E+00  0.00000000000E+00  0.45593999997E+02  0.45594000000E+02  0.51100000000E-03 0.  1.
         11   -1    0    0    0    0 -0.00000000000E+00 -0.00000000000E+00 -0.45593999997E+02  0.45594000000E+02  0.51100000000E-03 0. -1.
    9900012    2    1    2    0    0  0.31948680727E+02 -0.22748793978E+02  0.22155984559E+02  0.46142317861E+02  0.10000000908E+02 0.  0.
         12    1    1    2    0    0 -0.31948680727E+02  0.22748793978E+02 -0.22155984559E+02  0.45045682139E+02  0.00000000000E+00 0. -1.
         11    1    3    3    0    0  0.31112740245E+01  0.55112258670E-01  0.85886330418E+00  0.32281124288E+01  0.51100000000E-03 0. -1.
        -11    1    3    3    0    0  0.83269874500E+01 -0.73676410878E+01  0.34204529777E+01  0.11632727712E+02  0.51100000000E-03 0.  1.
        -12    1    3    3    0    0  0.20510419252E+02 -0.15436265149E+02  0.17876668277E+02  0.31281477720E+02  0.00000000000E+00 0.  1.
</event>
<event>
 7    1  0.1442665E-008  0.4614232E+02  0.7816164E-02  0.1320468E+00
        -11   -1    0    0    0    0  0.00000000000E+00  0.00000000000E+00  0.45593999997E+02  0.45594000000E+02  0.51100000000E-03 0.  1.
         11   -1    0    0    0    0 -0.00000000000E+00 -0.00000000000E+00 -0.45593999997E+02  0.45594000000E+02  0.51100000000E-03 0. -1.
    9900012    2    1    2    0    0  0.20977903261E+02 -0.39008755179E+02  0.82071831438E+01  0.46142320285E+02  0.10000023011E+02 0.  0.
         12    1    1    2    0    0 -0.20977903261E+02  0.39008755179E+02 -0.82071831438E+01  0.45045679715E+02  0.00000000000E+00 0. -1.
         11    1    3    3    0    0  0.10611565296E+02 -0.16804121537E+02 -0.10325492016E+01  0.19901004417E+02  0.51100000000E-03 0. -1.
        -11    1    3    3    0    0  0.49816487950E+01 -0.94889669498E+01  0.33458218772E+01  0.11227281184E+02  0.51100000000E-03 0.  1.
         12    1    3    3    0    0  0.53846891702E+01 -0.12715666692E+02  0.58939104682E+01  0.15014034684E+02  0.00000000000E+00 0. -1.
</event>
<event>
 7    1  0.1442665E-008  0.4614232E+02  0.7816164E-02  0.1320468E+00
        -11   -1    0    0    0    0  0.00000000000E+00  0.00000000000E+00  0.45593999997E+02  0.45594000000E+02  0.51100000000E-03 0.  1.
         11   -1    0    0    0    0 -0.00000000000E+00 -0.00000000000E+00 -0.45593999997E+02  0.45594000000E+02  0.51100000000E-03 0. -1.
    9900012    2    1    2    0    0 -0.25212473270E+02  0.32381589966E+02  0.18570871466E+02  0.46142318252E+02  0.10000004476E+02 0.  0.
         12    1    1    2    0    0  0.25212473270E+02 -0.32381589966E+02 -0.18570871466E+02  0.45045681748E+02  0.00000000000E+00 0. -1.
         11    1    3    3    0    0 -0.11554938434E+02  0.10787045161E+02  0.80466875591E+01  0.17737703529E+02  0.51100000000E-03 0. -1.
        -11    1    3    3    0    0 -0.36734877604E+01  0.11130070506E+02  0.64513546095E+01  0.13378824999E+02  0.51100000000E-03 0.  1.
        -12    1    3    3    0    0 -0.99840470753E+01  0.10464474299E+02  0.40728292974E+01  0.15025789724E+02  0.00000000000E+00 0.  1.
</event>
<event>
 7    1  0.1442665E-008  0.4614232E+02  0.7816164E-02  0.1320468E+00
        -11   -1    0    0    0    0  0.00000000000E+00  0.00000000000E+00  0.45593999997E+02  0.45594000000E+02  0.51100000000E-03 0. -1.
         11   -1    0    0    0    0 -0.00000000000E+00 -0.00000000000E+00 -0.45593999997E+02  0.45594000000E+02  0.51100000000E-03 0.  1.
    9900012    2    1    2    0    0  0.41311352481E+01  0.42123538208E+02 -0.15416056086E+02  0.46142317246E+02  0.99999952987E+01 0.  0.
         12    1    1    2    0    0 -0.41311352481E+01 -0.42123538208E+02  0.15416056086E+02  0.45045682754E+02  0.00000000000E+00 0. -1.
         11    1    3    3    0    0  0.27210624025E-01 -0.11439950341E+00 -0.23612522046E+00  0.26378598389E+00  0.51100000000E-03 0. -1.
        -11    1    3    3    0    0  0.13930252332E+01  0.38933785707E+02 -0.12928426124E+02  0.41047830528E+02  0.51100000000E-03 0.  1.
        -12    1    3    3    0    0  0.27108993909E+01  0.33041520042E+01 -0.22515047421E+01  0.48307007337E+01  0.00000000000E+00 0.  1.
</event>
<event>
 7    1  0.1442665E-008  0.4614232E+02  0.7816164E-02  0.1320468E+00
        -11   -1    0    0    0    0  0.00000000000E+00  0.00000000000E+00  0.45593999997E+02  0.45594000000E+02  0.51100000000E-03 0.  1.
         11   -1    0    0    0    0 -0.00000000000E+00 -0.00000000000E+00 -0.45593999997E+02  0.45594000000E+02  0.51100000000E-03 0. -1.
    9900012    2    1    2    0    0  0.66737812641E+01  0.38015968746E+02  0.23224126286E+02  0.46142320098E+02  0.10000021310E+02 0.  0.
         12    1    1    2    0    0 -0.66737812641E+01 -0.38015968746E+02 -0.23224126286E+02  0.45045679902E+02  0.00000000000E+00 0. -1.
         11    1    3    3    0    0 -0.98879558107E+00  0.23014524633E+01  0.27188258084E+01  0.36968113530E+01  0.51100000000E-03 0. -1.
        -11    1    3    3    0    0  0.39395774869E+01  0.13569268091E+02  0.43568414735E+01  0.14786053401E+02  0.51100000000E-03 0.  1.
        -12    1    3    3    0    0  0.37229993584E+01  0.22145248192E+02  0.16148459004E+02  0.27659455344E+02  0.00000000000E+00 0.  1.
</event>
<event>
 7    1  0.1442665E-008  0.4614232E+02  0.7816164E-02  0.1320468E+00
        -11   -1    0    0    0    0  0.00000000000E+00  0.00000000000E+00  0.45593999997E+02  0.45594000000E+02  0.51100000000E-03 0.  1.
         11   -1    0    0    0    0 -0.00000000000E+00 -0.00000000000E+00 -0.45593999997E+02  0.45594000000E+02  0.51100000000E-03 0. -1.
    9900012    2    1    2    0    0 -0.34852564021E+02 -0.34373169380E+01  0.28330148555E+02  0.46142315592E+02  0.99999802233E+01 0.  0.
         12    1    1    2    0    0  0.34852564021E+02  0.34373169380E+01 -0.28330148555E+02  0.45045684408E+02  0.00000000000E+00 0. -1.
         11    1    3    3    0    0 -0.22868514783E+02  0.41746700072E+00  0.13476863754E+02  0.26547487715E+02  0.51100000000E-03 0. -1.
        -11    1    3    3    0    0 -0.70305508892E+01 -0.13133713174E+01  0.92901246279E+01  0.11724333921E+02  0.51100000000E-03 0.  1.
        -12    1    3    3    0    0 -0.49534983497E+01 -0.25414126213E+01  0.55631601731E+01  0.78704939568E+01  0.00000000000E+00 0.  1.
</event>
<event>
 7    1  0.1442665E-008  0.4614232E+02  0.7816164E-02  0.1320468E+00
        -11   -1    0    0    0    0  0.00000000000E+00  0.00000000000E+00  0.45593999997E+02  0.45594000000E+02  0.51100000000E-03 0. -1.
         11   -1    0    0    0    0 -0.00000000000E+00 -0.00000000000E+00 -0.45593999997E+02  0.45594000000E+02  0.51100000000E-03 0.  1.
    9900012    2    1    2    0    0 -0.30042523580E+02  0.31221175537E+02 -0.12320652552E+02  0.46142317584E+02  0.99999983872E+01 0.  0.
         12    1    1    2    0    0  0.30042523580E+02 -0.31221175537E+02  0.12320652552E+02  0.45045682416E+02  0.00000000000E+00 0. -1.
         11    1    3    3    0    0 -0.11937264839E+02  0.15994247302E+02 -0.45184433307E+01  0.20462907149E+02  0.51100000000E-03 0. -1.
        -11    1    3    3    0    0 -0.10892345938E+02  0.69266059515E+01 -0.69240115521E+01  0.14647969357E+02  0.51100000000E-03 0.  1.
        -12    1    3    3    0    0 -0.72129128030E+01  0.83003222841E+01 -0.87819766876E+00  0.11031441078E+02  0.00000000000E+00 0.  1.
</event>
<event>
 7    1  0.1442665E-008  0.4614232E+02  0.7816164E-02  0.1320468E+00
        -11   -1    0    0    0    0  0.00000000000E+00  0.00000000000E+00  0.45593999997E+02  0.45594000000E+02  0.51100000000E-03 0.  1.
         11   -1    0    0    0    0 -0.00000000000E+00 -0.00000000000E+00 -0.45593999997E+02  0.45594000000E+02  0.51100000000E-03 0. -1.
    9900012    2    1    2    0    0 -0.34916686961E+01  0.77730282868E+01  0.44232361293E+02  0.46142317581E+02  0.99999983599E+01 0.  0.
         12    1    1    2    0    0  0.34916686961E+01 -0.77730282868E+01 -0.44232361293E+02  0.45045682419E+02  0.00000000000E+00 0. -1.
         11    1    3    3    0    0 -0.54382683372E+01  0.76010242823E+01  0.26495716452E+02  0.28095788354E+02  0.51100000000E-03 0. -1.
        -11    1    3    3    0    0  0.45571949057E+00  0.12535849377E+01  0.48955068175E+01  0.50739671571E+01  0.51100000000E-03 0.  1.
         12    1    3    3    0    0  0.14908801505E+01 -0.10815809332E+01  0.12841138023E+02  0.12972562070E+02  0.00000000000E+00 0. -1.
</event>
<event>
 7    1  0.1442665E-008  0.4614232E+02  0.7816164E-02  0.1320468E+00
        -11   -1    0    0    0    0  0.00000000000E+00  0.00000000000E+00  0.45593999997E+02  0.45594000000E+02  0.51100000000E-03 0. -1.
         11   -1    0    0    0    0 -0.00000000000E+00 -0.00000000000E+00 -0.45593999997E+02  0.45594000000E+02  0.51100000000E-03 0.  1.
    9900012    2    1    2    0    0  0.28570268408E+02  0.21116888627E+02 -0.27693505446E+02  0.46142318008E+02  0.10000002251E+02 0.  0.
         12    1    1    2    0    0 -0.28570268408E+02 -0.21116888627E+02  0.27693505446E+02  0.45045681992E+02  0.00000000000E+00 0. -1.
         11    1    3    3    0    0  0.37297323365E+01 -0.20428507996E+00 -0.47915533670E+01  0.60754933648E+01  0.51100000000E-03 0. -1.
        -11    1    3    3    0    0  0.21464376102E+02  0.19656801287E+02 -0.20539563170E+02  0.35622786720E+02  0.51100000000E-03 0.  1.
        -12    1    3    3    0    0  0.33761599704E+01  0.16643724206E+01 -0.23623889097E+01  0.44440379230E+01  0.00000000000E+00 0.  1.
</event>
<event>
 7    1  0.1442665E-008  0.4614231E+02  0.7816164E-02  0.1320468E+00
        -11   -1    0    0    0    0  0.00000000000E+00  0.00000000000E+00  0.45593999997E+02  0.45594000000E+02  0.51100000000E-03 0.  1.
         11   -1    0    0    0    0 -0.00000000000E+00 -0.00000000000E+00 -0.45593999997E+02  0.45594000000E+02  0.51100000000E-03 0. -1.
    9900012    2    1    2    0    0 -0.24860734290E+02 -0.25313873104E+02  0.27753664388E+02  0.46142310218E+02  0.99999312177E+01 0.  0.
         12    1    1    2    0    0  0.24860734290E+02  0.25313873104E+02 -0.27753664388E+02  0.45045689782E+02  0.00000000000E+00 0. -1.
         11    1    3    3    0    0 -0.84809188884E+01 -0.11906548085E+02  0.72162180612E+01  0.16302321180E+02  0.51100000000E-03 0. -1.
        -11    1    3    3    0    0 -0.69789562083E+01 -0.30473503843E+01  0.81528306165E+01  0.11156201031E+02  0.51100000000E-03 0.  1.
         12    1    3    3    0    0 -0.94008591929E+01 -0.10359974634E+02  0.12384615711E+02  0.18683788007E+02  0.00000000000E+00 0. -1.
</event>
<event>
 7    1  0.1442665E-008  0.4614232E+02  0.7816164E-02  0.1320468E+00
        -11   -1    0    0    0    0  0.00000000000E+00  0.00000000000E+00  0.45593999997E+02  0.45594000000E+02  0.51100000000E-03 0.  1.
         11   -1    0    0    0    0 -0.00000000000E+00 -0.00000000000E+00 -0.45593999997E+02  0.45594000000E+02  0.51100000000E-03 0. -1.
    9900012    2    1    2    0    0  0.40723311820E+02 -0.19193578655E+02  0.15270519296E+01  0.46142317913E+02  0.10000001381E+02 0.  0.
         12    1    1    2    0    0 -0.40723311820E+02  0.19193578655E+02 -0.15270519296E+01  0.45045682087E+02  0.00000000000E+00 0. -1.
         11    1    3    3    0    0  0.67258202007E+00 -0.18973059114E+01 -0.64395716454E+00  0.21134846548E+01  0.51100000000E-03 0. -1.
        -11    1    3    3    0    0  0.39949864898E+02 -0.17588465121E+02  0.22551216301E+01  0.43708481837E+02  0.51100000000E-03 0.  1.
        -12    1    3    3    0    0  0.10086490188E+00  0.29219237798E+00 -0.84112535959E-01  0.32035142092E+00  0.00000000000E+00 0.  1.
</event>
<event>
 7    1  0.1442665E-008  0.4614232E+02  0.7816164E-02  0.1320468E+00
        -11   -1    0    0    0    0  0.00000000000E+00  0.00000000000E+00  0.45593999997E+02  0.45594000000E+02  0.51100000000E-03 0.  1.
         11   -1    0    0    0    0 -0.00000000000E+00 -0.00000000000E+00 -0.45593999997E+02  0.45594000000E+02  0.51100000000E-03 0. -1.
    9900012    2    1    2    0    0 -0.42800373952E+02  0.13495986467E+02 -0.38858487697E+01  0.46142317834E+02  0.10000000662E+02 0.  0.
         12    1    1    2    0    0  0.42800373952E+02 -0.13495986467E+02  0.38858487697E+01  0.45045682166E+02  0.00000000000E+00 0. -1.
         11    1    3    3    0    0 -0.20899089594E+02  0.29424134210E+01 -0.35450680380E+01  0.21400870316E+02  0.51100000000E-03 0. -1.
        -11    1    3    3    0    0 -0.97139648539E+01  0.45345969017E+01 -0.24219911692E+01  0.10990437832E+02  0.51100000000E-03 0.  1.
         12    1    3    3    0    0 -0.12187319504E+02  0.60189761440E+01  0.20812104375E+01  0.13751009687E+02  0.00000000000E+00 0. -1.
</event>
<event>
 7    1  0.1442665E-008  0.4614232E+02  0.7816164E-02  0.1320468E+00
        -11   -1    0    0    0    0  0.00000000000E+00  0.00000000000E+00  0.45593999997E+02  0.45594000000E+02  0.51100000000E-03 0.  1.
         11   -1    0    0    0    0 -0.00000000000E+00 -0.00000000000E+00 -0.45593999997E+02  0.45594000000E+02  0.51100000000E-03 0. -1.
    9900012    2    1    2    0    0 -0.59470538417E+01  0.21091740996E+02  0.39355869992E+02  0.46142317738E+02  0.99999997924E+01 0.  0.
         12    1    1    2    0    0  0.59470538417E+01 -0.21091740996E+02 -0.39355869992E+02  0.45045682262E+02  0.00000000000E+00 0. -1.
         11    1    3    3    0    0 -0.86497561833E+00  0.45494047987E+01  0.34824602325E+01  0.57942036877E+01  0.51100000000E-03 0. -1.
        -11    1    3    3    0    0  0.11659795821E+01  0.66037001787E+01  0.12090777681E+02  0.13825891278E+02  0.51100000000E-03 0.  1.
        -12    1    3    3    0    0 -0.62480578055E+01  0.99386360183E+01  0.23782632078E+02  0.26522222773E+02  0.00000000000E+00 0.  1.
</event>
<event>
 7    1  0.1442665E-008  0.4614232E+02  0.7816164E-02  0.1320468E+00
        -11   -1    0    0    0    0  0.00000000000E+00  0.00000000000E+00  0.45593999997E+02  0.45594000000E+02  0.51100000000E-03 0. -1.
         11   -1    0    0    0    0 -0.00000000000E+00 -0.00000000000E+00 -0.45593999997E+02  0.45594000000E+02  0.51100000000E-03 0.  1.
    9900012    2    1    2    0    0  0.23295739181E+02 -0.37486866728E+02 -0.90087042815E+01  0.46142318809E+02  0.10000009558E+02 0.  0.
         12    1    1    2    0    0 -0.23295739181E+02  0.37486866728E+02  0.90087042815E+01  0.45045681191E+02  0.00000000000E+00 0. -1.
         11    1    3    3    0    0  0.12529592980E+01  0.26495782349E+00  0.17578193496E-01  0.12807883919E+01  0.51100000000E-03 0. -1.
        -11    1    3    3    0    0  0.59399790523E+01 -0.69989882050E+01 -0.27697878998E+01  0.95885823930E+01  0.51100000000E-03 0.  1.
         12    1    3    3    0    0  0.16102800831E+02 -0.30752836347E+02 -0.62564945752E+01  0.35272948024E+02  0.00000000000E+00 0. -1.
</event>
<event>
 7    1  0.1442665E-008  0.4614232E+02  0.7816164E-02  0.1320468E+00
        -11   -1    0    0    0    0  0.00000000000E+00  0.00000000000E+00  0.45593999997E+02  0.45594000000E+02  0.51100000000E-03 0. -1.
         11   -1    0    0    0    0 -0.00000000000E+00 -0.00000000000E+00 -0.45593999997E+02  0.45594000000E+02  0.51100000000E-03 0.  1.
    9900012    2    1    2    0    0  0.41799275837E+02  0.16617468533E+02  0.24070138275E+01  0.46142318336E+02  0.10000005245E+02 0.  0.
         12    1    1    2    0    0 -0.41799275837E+02 -0.16617468533E+02 -0.24070138275E+01  0.45045681664E+02  0.00000000000E+00 0. -1.
         11    1    3    3    0    0  0.29034649285E+01  0.30935634775E+01  0.95889060585E-02  0.42426802600E+01  0.51100000000E-03 0. -1.
        -11    1    3    3    0    0  0.36064103079E+02  0.10242655913E+02  0.23719299653E+01  0.37565377452E+02  0.51100000000E-03 0.  1.
        -12    1    3    3    0    0  0.28317078296E+01  0.32812491428E+01  0.25494956079E-01  0.43342606246E+01  0.00000000000E+00 0.  1.
</event>
<event>
 7    1  0.1442665E-008  0.4614232E+02  0.7816164E-02  0.1320468E+00
        -11   -1    0    0    0    0  0.00000000000E+00  0.00000000000E+00  0.45593999997E+02  0.45594000000E+02  0.51100000000E-03 0.  1.
         11   -1    0    0    0    0 -0.00000000000E+00 -0.00000000000E+00 -0.45593999997E+02  0.45594000000E+02  0.51100000000E-03 0. -1.
    9900012    2    1    2    0    0 -0.16875008548E+02  0.36162896750E+02  0.20894789596E+02  0.46142320439E+02  0.10000024420E+02 0.  0.
         12    1    1    2    0    0  0.16875008548E+02 -0.36162896750E+02 -0.20894789596E+02  0.45045679561E+02  0.00000000000E+00 0. -1.
         11    1    3    3    0    0 -0.70745754788E+01  0.13953738848E+02  0.12458819272E+02  0.19999465592E+02  0.51100000000E-03 0. -1.
        -11    1    3    3    0    0 -0.62391998960E+01  0.10865150158E+02  0.22134613790E+01  0.12723148778E+02  0.51100000000E-03 0.  1.
        -12    1    3    3    0    0 -0.35612331729E+01  0.11344007744E+02  0.62225089448E+01  0.13419706069E+02  0.00000000000E+00 0.  1.
</event>
<event>
 7    1  0.1442665E-008  0.4614232E+02  0.7816164E-02  0.1320468E+00
        -11   -1    0    0    0    0  0.00000000000E+00  0.00000000000E+00  0.45593999997E+02  0.45594000000E+02  0.51100000000E-03 0.  1.
         11   -1    0    0    0    0 -0.00000000000E+00 -0.00000000000E+00 -0.45593999997E+02  0.45594000000E+02  0.51100000000E-03 0. -1.
    9900012    2    1    2    0    0  0.12399226086E+02 -0.16699279371E+02  0.39956310196E+02  0.46142318037E+02  0.10000002512E+02 0.  0.
         12    1    1    2    0    0 -0.12399226086E+02  0.16699279371E+02 -0.39956310196E+02  0.45045681963E+02  0.00000000000E+00 0. -1.
         11    1    3    3    0    0  0.86303519212E+01 -0.53964255893E+01  0.25027589805E+02  0.27018227831E+02  0.51100000000E-03 0. -1.
        -11    1    3    3    0    0  0.32616299863E+01 -0.10489703677E+02  0.13518140046E+02  0.17418731985E+02  0.51100000000E-03 0.  1.
        -12    1    3    3    0    0  0.50724417834E+00 -0.81315010513E+00  0.14105803457E+01  0.17053582209E+01  0.00000000000E+00 0.  1.
</event>
<event>
 7    1  0.1442665E-008  0.4614232E+02  0.7816164E-02  0.1320468E+00
        -11   -1    0    0    0    0  0.00000000000E+00  0.00000000000E+00  0.45593999997E+02  0.45594000000E+02  0.51100000000E-03 0.  1.
         11   -1    0    0    0    0 -0.00000000000E+00 -0.00000000000E+00 -0.45593999997E+02  0.45594000000E+02  0.51100000000E-03 0. -1.
    9900012    2    1    2    0    0  0.28637974144E+02 -0.29557835743E+02  0.18311585928E+02  0.46142318785E+02  0.10000009340E+02 0.  0.
         12    1    1    2    0    0 -0.28637974144E+02  0.29557835743E+02 -0.18311585928E+02  0.45045681215E+02  0.00000000000E+00 0. -1.
         11    1    3    3    0    0  0.89815167508E+01 -0.36095620400E+01  0.43027071865E+01  0.10592916060E+02  0.51100000000E-03 0. -1.
        -11    1    3    3    0    0  0.58360642049E+01 -0.73403767738E+01  0.26980435717E+01  0.97580846461E+01  0.51100000000E-03 0.  1.
         12    1    3    3    0    0  0.13820393188E+02 -0.18607896929E+02  0.11310835170E+02  0.25791318079E+02  0.00000000000E+00 0. -1.
</event>
<event>
 7    1  0.1442665E-008  0.4614232E+02  0.7816164E-02  0.1320468E+00
        -11   -1    0    0    0    0  0.00000000000E+00  0.00000000000E+00  0.45593999997E+02  0.45594000000E+02  0.51100000000E-03 0. -1.
         11   -1    0    0    0    0 -0.00000000000E+00 -0.00000000000E+00 -0.45593999997E+02  0.45594000000E+02  0.51100000000E-03 0.  1.
    9900012    2    1    2    0    0 -0.28778746734E+02  0.32323612002E+02  0.12493252517E+02  0.46142317466E+02  0.99999973117E+01 0.  0.
         12    1    1    2    0    0  0.28778746734E+02 -0.32323612002E+02 -0.12493252517E+02  0.45045682534E+02  0.00000000000E+00 0. -1.
         11    1    3    3    0    0 -0.70630265168E+01  0.85065582980E+01 -0.63260056465E+00  0.11074658522E+02  0.51100000000E-03 0. -1.
        -11    1    3    3    0    0 -0.50134393691E+01  0.60282987046E+01  0.12839237949E+01  0.79450248679E+01  0.51100000000E-03 0.  1.
         12    1    3    3    0    0 -0.16702280848E+02  0.17788755000E+02  0.11841929287E+02  0.27122634076E+02  0.00000000000E+00 0. -1.
</event>
<event>
 7    1  0.1442665E-008  0.4614232E+02  0.7816164E-02  0.1320468E+00
        -11   -1    0    0    0    0  0.00000000000E+00  0.00000000000E+00  0.45593999997E+02  0.45594000000E+02  0.51100000000E-03 0.  1.
         11   -1    0    0    0    0 -0.00000000000E+00 -0.00000000000E+00 -0.45593999997E+02  0.45594000000E+02  0.51100000000E-03 0. -1.
    9900012    2    1    2    0    0  0.38612438024E+02  0.14088653862E+02  0.18431037090E+02  0.46142315789E+02  0.99999820174E+01 0.  0.
         12    1    1    2    0    0 -0.38612438024E+02 -0.14088653862E+02 -0.18431037090E+02  0.45045684211E+02  0.00000000000E+00 0. -1.
         11    1    3    3    0    0  0.45766276536E+01 -0.14478354766E+01  0.13229690645E+01  0.49791561186E+01  0.51100000000E-03 0. -1.
        -11    1    3    3    0    0  0.16688777617E+02  0.78624608044E+01  0.77178601644E+01  0.19997473691E+02  0.51100000000E-03 0.  1.
        -12    1    3    3    0    0  0.17347032754E+02  0.76740285344E+01  0.93902078614E+01  0.21165685979E+02  0.00000000000E+00 0.  1.
</event>
<event>
 7    1  0.1442665E-008  0.4614231E+02  0.7816164E-02  0.1320468E+00
        -11   -1    0    0    0    0  0.00000000000E+00  0.00000000000E+00  0.45593999997E+02  0.45594000000E+02  0.51100000000E-03 0.  1.
         11   -1    0    0    0    0 -0.00000000000E+00 -0.00000000000E+00 -0.45593999997E+02  0.45594000000E+02  0.51100000000E-03 0. -1.
    9900012    2    1    2    0    0  0.19927298648E+02 -0.19974220335E+01  0.40348814559E+02  0.46142314718E+02  0.99999722542E+01 0.  0.
         12    1    1    2    0    0 -0.19927298648E+02  0.19974220335E+01 -0.40348814559E+02  0.45045685282E+02  0.00000000000E+00 0. -1.
         11    1    3    3    0    0  0.56204669693E+01 -0.39150032004E+00  0.56586369024E+01  0.79851796040E+01  0.51100000000E-03 0. -1.
        -11    1    3    3    0    0  0.93633017931E+01 -0.41872549535E+01  0.23994157770E+02  0.26094523025E+02  0.51100000000E-03 0.  1.
         12    1    3    3    0    0  0.49435298859E+01  0.25813332400E+01  0.10696019886E+02  0.12062612090E+02  0.00000000000E+00 0. -1.
</event>
<event>
 7    1  0.1442665E-008  0.4614232E+02  0.7816164E-02  0.1320468E+00
        -11   -1    0    0    0    0  0.00000000000E+00  0.00000000000E+00  0.45593999997E+02  0.45594000000E+02  0.51100000000E-03 0.  1.
         11   -1    0    0    0    0 -0.00000000000E+00 -0.00000000000E+00 -0.45593999997E+02  0.45594000000E+02  0.51100000000E-03 0. -1.
    9900012    2    1    2    0    0  0.12272065153E+02 -0.23144802775E+02  0.36644617628E+02  0.46142317857E+02  0.10000000878E+02 0.  0.
         12    1    1    2    0    0 -0.12272065153E+02  0.23144802775E+02 -0.36644617628E+02  0.45045682143E+02  0.00000000000E+00 0. -1.
         11    1    3    3    0    0  0.84261344513E+01 -0.83087418074E+01  0.12547092459E+02  0.17247158074E+02  0.51100000000E-03 0. -1.
        -11    1    3    3    0    0  0.32933782248E+01 -0.11159544997E+02  0.21194270471E+02  0.24178066212E+02  0.51100000000E-03 0.  1.
         12    1    3    3    0    0  0.55255247729E+00 -0.36765159702E+01  0.29032546981E+01  0.47170935714E+01  0.00000000000E+00 0. -1.
</event>
<event>
 7    1  0.1442665E-008  0.4614232E+02  0.7816164E-02  0.1320468E+00
        -11   -1    0    0    0    0  0.00000000000E+00  0.00000000000E+00  0.45593999997E+02  0.45594000000E+02  0.51100000000E-03 0.  1.
         11   -1    0    0    0    0 -0.00000000000E+00 -0.00000000000E+00 -0.45593999997E+02  0.45594000000E+02  0.51100000000E-03 0. -1.
    9900012    2    1    2    0    0  0.44390378715E+01  0.18606671411E+02  0.40782351747E+02  0.46142317718E+02  0.99999996056E+01 0.  0.
         12    1    1    2    0    0 -0.44390378715E+01 -0.18606671411E+02 -0.40782351747E+02  0.45045682282E+02  0.00000000000E+00 0. -1.
         11    1    3    3    0    0  0.24147964360E+01  0.60327823147E+01  0.21337950553E+02  0.22305466557E+02  0.51100000000E-03 0. -1.
        -11    1    3    3    0    0 -0.15917255494E+01  0.33545727549E+01  0.37353367445E+01  0.52668291646E+01  0.51100000000E-03 0.  1.
        -12    1    3    3    0    0  0.36159669850E+01  0.92193163413E+01  0.15709064450E+02  0.18570021996E+02  0.00000000000E+00 0.  1.
</event>
<event>
 7    1  0.1442665E-008  0.4614232E+02  0.7816164E-02  0.1320468E+00
        -11   -1    0    0    0    0  0.00000000000E+00  0.00000000000E+00  0.45593999997E+02  0.45594000000E+02  0.51100000000E-03 0. -1.
         11   -1    0    0    0    0 -0.00000000000E+00 -0.00000000000E+00 -0.45593999997E+02  0.45594000000E+02  0.51100000000E-03 0.  1.
    9900012    2    1    2    0    0 -0.36232591652E+02 -0.13620678354E+02 -0.23038873997E+02  0.46142319944E+02  0.10000019907E+02 0.  0.
         12    1    1    2    0    0  0.36232591652E+02  0.13620678354E+02  0.23038873997E+02  0.45045680056E+02  0.00000000000E+00 0. -1.
         11    1    3    3    0    0 -0.14461607433E+02 -0.47189536328E+01 -0.45273616211E+01  0.15871471779E+02  0.51100000000E-03 0. -1.
        -11    1    3    3    0    0 -0.92806387906E+01 -0.53370402187E+01 -0.10580167967E+02  0.15051717813E+02  0.51100000000E-03 0.  1.
        -12    1    3    3    0    0 -0.12490345428E+02 -0.35646845027E+01 -0.79313444085E+01  0.15219130351E+02  0.00000000000E+00 0.  1.
</event>
<event>
 7    1  0.1442665E-008  0.4614232E+02  0.7816164E-02  0.1320468E+00
        -11   -1    0    0    0    0  0.00000000000E+00  0.00000000000E+00  0.45593999997E+02  0.45594000000E+02  0.51100000000E-03 0.  1.
         11   -1    0    0    0    0 -0.00000000000E+00 -0.00000000000E+00 -0.45593999997E+02  0.45594000000E+02  0.51100000000E-03 0. -1.
    9900012    2    1    2    0    0 -0.19664667608E+02 -0.31634616408E+02  0.25331116869E+02  0.46142316641E+02  0.99999897893E+01 0.  0.
         12    1    1    2    0    0  0.19664667608E+02  0.31634616408E+02 -0.25331116869E+02  0.45045683359E+02  0.00000000000E+00 0. -1.
         11    1    3    3    0    0 -0.22525142759E+01 -0.10944481925E+01  0.24015838046E-01  0.25044389453E+01  0.51100000000E-03 0. -1.
        -11    1    3    3    0    0 -0.12918658392E+02 -0.18437051805E+02  0.14283221150E+02  0.26661339438E+02  0.51100000000E-03 0.  1.
         12    1    3    3    0    0 -0.44934949402E+01 -0.12103116410E+02  0.11023879881E+02  0.16976538258E+02  0.00000000000E+00 0. -1.
</event>
<event>
 7    1  0.1442665E-008  0.4614232E+02  0.7816164E-02  0.1320468E+00
        -11   -1    0    0    0    0  0.00000000000E+00  0.00000000000E+00  0.45593999997E+02  0.45594000000E+02  0.51100000000E-03 0. -1.
         11   -1    0    0    0    0 -0.00000000000E+00 -0.00000000000E+00 -0.45593999997E+02  0.45594000000E+02  0.51100000000E-03 0.  1.
    9900012    2    1    2    0    0 -0.63820994498E+01 -0.32360165079E+02 -0.30679014984E+02  0.46142318323E+02  0.10000005127E+02 0.  0.
         12    1    1    2    0    0  0.63820994498E+01  0.32360165079E+02  0.30679014984E+02  0.45045681677E+02  0.00000000000E+00 0. -1.
         11    1    3    3    0    0 -0.85241281862E+01 -0.20593551268E+02 -0.21160214002E+02  0.30732877706E+02  0.51100000000E-03 0.  1.
        -11    1    3    3    0    0  0.16192320390E+01 -0.45492103014E+01 -0.45219922277E+01  0.66155605001E+01  0.51100000000E-03 0. -1.
         12    1    3    3    0    0  0.52279669741E+00 -0.72174035091E+01 -0.49968087539E+01  0.87938801176E+01  0.00000000000E+00 0. -1.
</event>
<event>
 7    1  0.1442665E-008  0.4614232E+02  0.7816164E-02  0.1320468E+00
        -11   -1    0    0    0    0  0.00000000000E+00  0.00000000000E+00  0.45593999997E+02  0.45594000000E+02  0.51100000000E-03 0.  1.
         11   -1    0    0    0    0 -0.00000000000E+00 -0.00000000000E+00 -0.45593999997E+02  0.45594000000E+02  0.51100000000E-03 0. -1.
    9900012    2    1    2    0    0 -0.39550721462E+02 -0.60172328752E+01  0.20703787964E+02  0.46142317680E+02  0.99999992614E+01 0.  0.
         12    1    1    2    0    0  0.39550721462E+02  0.60172328752E+01 -0.20703787964E+02  0.45045682320E+02  0.00000000000E+00 0. -1.
         11    1    3    3    0    0 -0.10942646922E+02  0.20876943383E+01  0.55795332576E+01  0.12459180589E+02  0.51100000000E-03 0. -1.
        -11    1    3    3    0    0 -0.25272071370E+02 -0.74912346961E+01  0.11621558164E+02  0.28807235254E+02  0.51100000000E-03 0.  1.
         12    1    3    3    0    0 -0.33360031700E+01 -0.61369251737E+00  0.35026965422E+01  0.48759018369E+01  0.00000000000E+00 0. -1.
</event>
<event>
 7    1  0.1442665E-008  0.4614232E+02  0.7816164E-02  0.1320468E+00
        -11   -1    0    0    0    0  0.00000000000E+00  0.00000000000E+00  0.45593999997E+02  0.45594000000E+02  0.51100000000E-03 0.  1.
         11   -1    0    0    0    0 -0.00000000000E+00 -0.00000000000E+00 -0.45593999997E+02  0.45594000000E+02  0.51100000000E-03 0. -1.
    9900012    2    1    2    0    0  0.13750597977E+02 -0.42365227047E+02  0.67247337375E+01  0.46142318172E+02  0.10000003751E+02 0.  0.
         12    1    1    2    0    0 -0.13750597977E+02  0.42365227047E+02 -0.67247337375E+01  0.45045681828E+02  0.00000000000E+00 0. -1.
         11    1    3    3    0    0  0.88294976748E+01 -0.18332524374E+02  0.66796228732E+01  0.21416321839E+02  0.51100000000E-03 0. -1.
        -11    1    3    3    0    0  0.44780021061E-01 -0.39230767203E+01  0.86421348376E+00  0.40173873861E+01  0.51100000000E-03 0.  1.
         12    1    3    3    0    0  0.48763202813E+01 -0.20109625952E+02 -0.81910261945E+00  0.20708608947E+02  0.00000000000E+00 0. -1.
</event>
<event>
 7    1  0.1442665E-008  0.4614232E+02  0.7816164E-02  0.1320468E+00
        -11   -1    0    0    0    0  0.00000000000E+00  0.00000000000E+00  0.45593999997E+02  0.45594000000E+02  0.51100000000E-03 0. -1.
         11   -1    0    0    0    0 -0.00000000000E+00 -0.00000000000E+00 -0.45593999997E+02  0.45594000000E+02  0.51100000000E-03 0.  1.
    9900012    2    1    2    0    0  0.28030291468E+01  0.44591929969E+02  0.57285428203E+01  0.46142318813E+02  0.10000009588E+02 0.  0.
         12    1    1    2    0    0 -0.28030291468E+01 -0.44591929969E+02 -0.57285428203E+01  0.45045681187E+02  0.00000000000E+00 0. -1.
         11    1    3    3    0    0  0.15699198783E+01  0.38147450966E+02  0.26382720235E+01  0.38270787073E+02  0.51100000000E-03 0. -1.
        -11    1    3    3    0    0  0.47990975219E-01  0.54648037255E+01  0.31948536626E+01  0.63303612124E+01  0.51100000000E-03 0.  1.
         12    1    3    3    0    0  0.11851182933E+01  0.97967527807E+00 -0.10458286583E+00  0.15411705277E+01  0.00000000000E+00 0. -1.
</event>
<event>
 7    1  0.1442665E-008  0.4614232E+02  0.7816164E-02  0.1320468E+00
        -11   -1    0    0    0    0  0.00000000000E+00  0.00000000000E+00  0.45593999997E+02  0.45594000000E+02  0.51100000000E-03 0.  1.
         11   -1    0    0    0    0 -0.00000000000E+00 -0.00000000000E+00 -0.45593999997E+02  0.45594000000E+02  0.51100000000E-03 0. -1.
    9900012    2    1    2    0    0  0.24453341517E+02  0.37265223562E+02  0.65153933199E+01  0.46142321533E+02  0.10000034392E+02 0.  0.
         12    1    1    2    0    0 -0.24453341517E+02 -0.37265223562E+02 -0.65153933199E+01  0.45045678467E+02  0.00000000000E+00 0. -1.
         11    1    3    3    0    0  0.25682422815E+01  0.83002214757E+01  0.36177494744E+01  0.94115703516E+01  0.51100000000E-03 0. -1.
        -11    1    3    3    0    0  0.32056690460E+01  0.46457806359E+01  0.21992413043E+01  0.60577433360E+01  0.51100000000E-03 0.  1.
         12    1    3    3    0    0  0.18679430190E+02  0.24319221450E+02  0.69840254122E+00  0.30673007845E+02  0.00000000000E+00 0. -1.
</event>
<event>
 7    1  0.1442665E-008  0.4614232E+02  0.7816164E-02  0.1320468E+00
        -11   -1    0    0    0    0  0.00000000000E+00  0.00000000000E+00  0.45593999997E+02  0.45594000000E+02  0.51100000000E-03 0.  1.
         11   -1    0    0    0    0 -0.00000000000E+00 -0.00000000000E+00 -0.45593999997E+02  0.45594000000E+02  0.51100000000E-03 0. -1.
    9900012    2    1    2    0    0  0.41283987550E+02  0.17558545301E+02  0.40550474297E+01  0.46142317068E+02  0.99999936842E+01 0.  0.
         12    1    1    2    0    0 -0.41283987550E+02 -0.17558545301E+02 -0.40550474297E+01  0.45045682932E+02  0.00000000000E+00 0. -1.
         11    1    3    3    0    0  0.74488511340E+01 -0.50464016593E+00  0.62699569196E+00  0.74922072030E+01  0.51100000000E-03 0. -1.
        -11    1    3    3    0    0  0.16331152729E+02  0.74313037797E+01  0.28079678375E+01  0.18160823466E+02  0.51100000000E-03 0.  1.
         12    1    3    3    0    0  0.17503983687E+02  0.10631881687E+02  0.62008390022E+00  0.20489286400E+02  0.00000000000E+00 0. -1.
</event>
<event>
 7    1  0.1442665E-008  0.4614232E+02  0.7816164E-02  0.1320468E+00
        -11   -1    0    0    0    0  0.00000000000E+00  0.00000000000E+00  0.45593999997E+02  0.45594000000E+02  0.51100000000E-03 0.  1.
         11   -1    0    0    0    0 -0.00000000000E+00 -0.00000000000E+00 -0.45593999997E+02  0.45594000000E+02  0.51100000000E-03 0. -1.
    9900012    2    1    2    0    0 -0.62817382998E+01 -0.36232475682E+02  0.26016551530E+02  0.46142317814E+02  0.10000000478E+02 0.  0.
         12    1    1    2    0    0  0.62817382998E+01  0.36232475682E+02 -0.26016551530E+02  0.45045682186E+02  0.00000000000E+00 0. -1.
         11    1    3    3    0    0 -0.20657318805E+01 -0.36007331174E+01  0.20601437493E+01  0.46342981900E+01  0.51100000000E-03 0. -1.
        -11    1    3    3    0    0 -0.66206575584E+01 -0.21424038946E+02  0.15360919027E+02  0.27180514801E+02  0.51100000000E-03 0.  1.
        -12    1    3    3    0    0  0.24046511391E+01 -0.11207703619E+02  0.85954887535E+01  0.14327504822E+02  0.00000000000E+00 0.  1.
</event>
<event>
 7    1  0.1442665E-008  0.4614232E+02  0.7816164E-02  0.1320468E+00
        -11   -1    0    0    0    0  0.00000000000E+00  0.00000000000E+00  0.45593999997E+02  0.45594000000E+02  0.51100000000E-03 0.  1.
         11   -1    0    0    0    0 -0.00000000000E+00 -0.00000000000E+00 -0.45593999997E+02  0.45594000000E+02  0.51100000000E-03 0. -1.
    9900012    2    1    2    0    0 -0.19342374627E+02 -0.59125402294E+00  0.40677222486E+02  0.46142318002E+02  0.10000002196E+02 0.  0.
         12    1    1    2    0    0  0.19342374627E+02  0.59125402294E+00 -0.40677222486E+02  0.45045681998E+02  0.00000000000E+00 0. -1.
         11    1    3    3    0    0 -0.13728332330E+01  0.25057400212E+00  0.11009256888E+02  0.11097350851E+02  0.51100000000E-03 0. -1.
        -11    1    3    3    0    0 -0.14336103765E+02  0.38596794383E+00  0.19721062169E+02  0.24384280505E+02  0.51100000000E-03 0.  1.
        -12    1    3    3    0    0 -0.36334376284E+01 -0.12277959689E+01  0.99469034290E+01  0.10660686646E+02  0.00000000000E+00 0.  1.
</event>
<event>
 7    1  0.1442665E-008  0.4614232E+02  0.7816164E-02  0.1320468E+00
        -11   -1    0    0    0    0  0.00000000000E+00  0.00000000000E+00  0.45593999997E+02  0.45594000000E+02  0.51100000000E-03 0.  1.
         11   -1    0    0    0    0 -0.00000000000E+00 -0.00000000000E+00 -0.45593999997E+02  0.45594000000E+02  0.51100000000E-03 0. -1.
    9900012    2    1    2    0    0 -0.26215411426E+02 -0.32805965588E+01  0.36484289680E+02  0.46142317594E+02  0.99999984731E+01 0.  0.
         12    1    1    2    0    0  0.26215411426E+02  0.32805965588E+01 -0.36484289680E+02  0.45045682406E+02  0.00000000000E+00 0. -1.
         11    1    3    3    0    0  0.77365271378E+00  0.38681798654E+00  0.76881942016E+00  0.11572597972E+01  0.51100000000E-03 0. -1.
        -11    1    3    3    0    0 -0.13507776533E+02 -0.30812013470E+01  0.17826090051E+02  0.22577052850E+02  0.51100000000E-03 0.  1.
         12    1    3    3    0    0 -0.13481287607E+02 -0.58621319830E+00  0.17889380208E+02  0.22408004947E+02  0.00000000000E+00 0. -1.
</event>
<event>
 7    1  0.1442665E-008  0.4614232E+02  0.7816164E-02  0.1320468E+00
        -11   -1    0    0    0    0  0.00000000000E+00  0.00000000000E+00  0.45593999997E+02  0.45594000000E+02  0.51100000000E-03 0. -1.
         11   -1    0    0    0    0 -0.00000000000E+00 -0.00000000000E+00 -0.45593999997E+02  0.45594000000E+02  0.51100000000E-03 0.  1.
    9900012    2    1    2    0    0  0.17653432541E+01 -0.15082147146E+02 -0.42409031064E+02  0.46142317464E+02  0.99999972907E+01 0.  0.
         12    1    1    2    0    0 -0.17653432541E+01  0.15082147146E+02  0.42409031064E+02  0.45045682536E+02  0.00000000000E+00 0. -1.
         11    1    3    3    0    0  0.28556300521E+01 -0.35851451607E+01 -0.18249554626E+02  0.18816326238E+02  0.51100000000E-03 0.  1.
        -11    1    3    3    0    0  0.13276142259E+01 -0.34770753928E+01 -0.38402877792E+01  0.53479363598E+01  0.51100000000E-03 0. -1.
        -12    1    3    3    0    0 -0.24179010239E+01 -0.80199265925E+01 -0.20319188659E+02  0.21978054866E+02  0.00000000000E+00 0.  1.
</event>
<event>
 7    1  0.1442665E-008  0.4614232E+02  0.7816164E-02  0.1320468E+00
        -11   -1    0    0    0    0  0.00000000000E+00  0.00000000000E+00  0.45593999997E+02  0.45594000000E+02  0.51100000000E-03 0.  1.
         11   -1    0    0    0    0 -0.00000000000E+00 -0.00000000000E+00 -0.45593999997E+02  0.45594000000E+02  0.51100000000E-03 0. -1.
    9900012    2    1    2    0    0 -0.19115731849E+02  0.20720708821E+02  0.35133382629E+02  0.46142317042E+02  0.99999934424E+01 0.  0.
         12    1    1    2    0    0  0.19115731849E+02 -0.20720708821E+02 -0.35133382629E+02  0.45045682958E+02  0.00000000000E+00 0. -1.
         11    1    3    3    0    0 -0.58570978562E+01  0.15840210136E+01  0.88759569228E+01  0.10751619851E+02  0.51100000000E-03 0. -1.
        -11    1    3    3    0    0 -0.58308492348E+01  0.67831913449E+01  0.71238741983E+01  0.11435037012E+02  0.51100000000E-03 0.  1.
         12    1    3    3    0    0 -0.74277847584E+01  0.12353496463E+02  0.19133551508E+02  0.23955660178E+02  0.00000000000E+00 0. -1.
</event>
<event>
 7    1  0.1442665E-008  0.4614232E+02  0.7816164E-02  0.1320468E+00
        -11   -1    0    0    0    0  0.00000000000E+00  0.00000000000E+00  0.45593999997E+02  0.45594000000E+02  0.51100000000E-03 0.  1.
         11   -1    0    0    0    0 -0.00000000000E+00 -0.00000000000E+00 -0.45593999997E+02  0.45594000000E+02  0.51100000000E-03 0. -1.
    9900012    2    1    2    0    0  0.39574598208E+02 -0.61527236963E+01  0.20618161277E+02  0.46142318668E+02  0.10000008272E+02 0.  0.
         12    1    1    2    0    0 -0.39574598208E+02  0.61527236963E+01 -0.20618161277E+02  0.45045681332E+02  0.00000000000E+00 0. -1.
         11    1    3    3    0    0  0.51726600500E-01 -0.98313057740E+00  0.46453782430E+00  0.10885848726E+01  0.51100000000E-03 0. -1.
        -11    1    3    3    0    0  0.31004594974E+02 -0.18781512570E+01  0.14207840850E+02  0.34156626056E+02  0.51100000000E-03 0.  1.
        -12    1    3    3    0    0  0.85182766337E+01 -0.32914418618E+01  0.59457826026E+01  0.10897107740E+02  0.00000000000E+00 0.  1.
</event>
<event>
 7    1  0.1442665E-008  0.4614232E+02  0.7816164E-02  0.1320468E+00
        -11   -1    0    0    0    0  0.00000000000E+00  0.00000000000E+00  0.45593999997E+02  0.45594000000E+02  0.51100000000E-03 0.  1.
         11   -1    0    0    0    0 -0.00000000000E+00 -0.00000000000E+00 -0.45593999997E+02  0.45594000000E+02  0.51100000000E-03 0. -1.
    9900012    2    1    2    0    0 -0.26463340307E+02  0.33874373835E+02 -0.13465959836E+02  0.46142315887E+02  0.99999829114E+01 0.  0.
         12    1    1    2    0    0  0.26463340307E+02 -0.33874373835E+02  0.13465959836E+02  0.45045684113E+02  0.00000000000E+00 0. -1.
         11    1    3    3    0    0 -0.24062288877E+01  0.51271997528E+01  0.57902936265E+00  0.56932758610E+01  0.51100000000E-03 0.  1.
        -11    1    3    3    0    0 -0.88469034014E+01  0.64821085636E+01 -0.41441732089E+01  0.11724316742E+02  0.51100000000E-03 0. -1.
         12    1    3    3    0    0 -0.15210208018E+02  0.22265065518E+02 -0.99008159894E+01  0.28724723284E+02  0.00000000000E+00 0. -1.
</event>
<event>
 7    1  0.1442665E-008  0.4614232E+02  0.7816164E-02  0.1320468E+00
        -11   -1    0    0    0    0  0.00000000000E+00  0.00000000000E+00  0.45593999997E+02  0.45594000000E+02  0.51100000000E-03 0.  1.
         11   -1    0    0    0    0 -0.00000000000E+00 -0.00000000000E+00 -0.45593999997E+02  0.45594000000E+02  0.51100000000E-03 0. -1.
    9900012    2    1    2    0    0 -0.13658239110E+02 -0.41873488602E+02 -0.94433533320E+01  0.46142318016E+02  0.10000002324E+02 0.  0.
         12    1    1    2    0    0  0.13658239110E+02  0.41873488602E+02  0.94433533320E+01  0.45045681984E+02  0.00000000000E+00 0. -1.
         11    1    3    3    0    0  0.89300658752E+00 -0.22582298432E+01 -0.19418738143E+01  0.31093306292E+01  0.51100000000E-03 0. -1.
        -11    1    3    3    0    0 -0.10761274956E+02 -0.25377774215E+02 -0.36593629116E+01  0.27806966753E+02  0.51100000000E-03 0.  1.
         12    1    3    3    0    0 -0.37899707412E+01 -0.14237484543E+02 -0.38421166061E+01  0.15226020634E+02  0.00000000000E+00 0. -1.
</event>
<event>
 7    1  0.1442665E-008  0.4614232E+02  0.7816164E-02  0.1320468E+00
        -11   -1    0    0    0    0  0.00000000000E+00  0.00000000000E+00  0.45593999997E+02  0.45594000000E+02  0.51100000000E-03 0.  1.
         11   -1    0    0    0    0 -0.00000000000E+00 -0.00000000000E+00 -0.45593999997E+02  0.45594000000E+02  0.51100000000E-03 0. -1.
    9900012    2    1    2    0    0 -0.34373753742E+01 -0.26794392158E+01  0.44834338969E+02  0.46142324350E+02  0.10000060087E+02 0.  0.
         12    1    1    2    0    0  0.34373753742E+01  0.26794392158E+01 -0.44834338969E+02  0.45045675650E+02  0.00000000000E+00 0. -1.
         11    1    3    3    0    0 -0.94883163968E+00 -0.58454649936E+01  0.17763292766E+02  0.18724430903E+02  0.51100000000E-03 0. -1.
        -11    1    3    3    0    0 -0.91680694539E+00  0.24441025921E+01  0.17052828815E+02  0.17251467859E+02  0.51100000000E-03 0.  1.
        -12    1    3    3    0    0 -0.15717367891E+01  0.72192318562E+00  0.10018217387E+02  0.10166425588E+02  0.00000000000E+00 0.  1.
</event>
<event>
 7    1  0.1442665E-008  0.4614232E+02  0.7816164E-02  0.1320468E+00
        -11   -1    0    0    0    0  0.00000000000E+00  0.00000000000E+00  0.45593999997E+02  0.45594000000E+02  0.51100000000E-03 0.  1.
         11   -1    0    0    0    0 -0.00000000000E+00 -0.00000000000E+00 -0.45593999997E+02  0.45594000000E+02  0.51100000000E-03 0. -1.
    9900012    2    1    2    0    0  0.24096689324E+02  0.29910596250E+02  0.23533365758E+02  0.46142317540E+02  0.99999979818E+01 0.  0.
         12    1    1    2    0    0 -0.24096689324E+02 -0.29910596250E+02 -0.23533365758E+02  0.45045682460E+02  0.00000000000E+00 0. -1.
         11    1    3    3    0    0 -0.76348578446E-01  0.21151551184E+00  0.63155442297E+00  0.67039478479E+00  0.51100000000E-03 0. -1.
        -11    1    3    3    0    0  0.13573102204E+02  0.22724618509E+02  0.13755164244E+02  0.29830218462E+02  0.51100000000E-03 0.  1.
        -12    1    3    3    0    0  0.10599935699E+02  0.69744622288E+01  0.91466470905E+01  0.15641704293E+02  0.00000000000E+00 0.  1.
</event>
<event>
 7    1  0.1442665E-008  0.4614232E+02  0.7816164E-02  0.1320468E+00
        -11   -1    0    0    0    0  0.00000000000E+00  0.00000000000E+00  0.45593999997E+02  0.45594000000E+02  0.51100000000E-03 0.  1.
         11   -1    0    0    0    0 -0.00000000000E+00 -0.00000000000E+00 -0.45593999997E+02  0.45594000000E+02  0.51100000000E-03 0. -1.
    9900012    2    1    2    0    0 -0.59330367265E+00 -0.28296208907E+02  0.35044057407E+02  0.46142318660E+02  0.10000008200E+02 0.  0.
         12    1    1    2    0    0  0.59330367265E+00  0.28296208907E+02 -0.35044057407E+02  0.45045681340E+02  0.00000000000E+00 0. -1.
         11    1    3    3    0    0  0.10864677643E+01 -0.11179677606E+02  0.15198265006E+02  0.18898488380E+02  0.51100000000E-03 0.  1.
        -11    1    3    3    0    0  0.27275614735E+01 -0.92265385006E+01  0.98900398217E+01  0.13797879990E+02  0.51100000000E-03 0. -1.
        -12    1    3    3    0    0 -0.44073329105E+01 -0.78899928005E+01  0.99557525795E+01  0.13445950290E+02  0.00000000000E+00 0.  1.
</event>
<event>
 7    1  0.1442665E-008  0.4614232E+02  0.7816164E-02  0.1320468E+00
        -11   -1    0    0    0    0  0.00000000000E+00  0.00000000000E+00  0.45593999997E+02  0.45594000000E+02  0.51100000000E-03 0. -1.
         11   -1    0    0    0    0 -0.00000000000E+00 -0.00000000000E+00 -0.45593999997E+02  0.45594000000E+02  0.51100000000E-03 0.  1.
    9900012    2    1    2    0    0  0.13755825766E+02  0.32418567274E+02  0.28087851684E+02  0.46142315869E+02  0.99999827454E+01 0.  0.
         12    1    1    2    0    0 -0.13755825766E+02 -0.32418567274E+02 -0.28087851684E+02  0.45045684131E+02  0.00000000000E+00 0. -1.
         11    1    3    3    0    0  0.52000097214E+01  0.11949236814E+02  0.12054025463E+02  0.17751729258E+02  0.51100000000E-03 0.  1.
        -11    1    3    3    0    0  0.37146121841E+00  0.22363731958E+01  0.51652652004E+01  0.56408610477E+01  0.51100000000E-03 0. -1.
        -12    1    3    3    0    0  0.81843548263E+01  0.18232957264E+02  0.10868561021E+02  0.22749725563E+02  0.00000000000E+00 0.  1.
</event>
<event>
 7    1  0.1442665E-008  0.4614232E+02  0.7816164E-02  0.1320468E+00
        -11   -1    0    0    0    0  0.00000000000E+00  0.00000000000E+00  0.45593999997E+02  0.45594000000E+02  0.51100000000E-03 0.  1.
         11   -1    0    0    0    0 -0.00000000000E+00 -0.00000000000E+00 -0.45593999997E+02  0.45594000000E+02  0.51100000000E-03 0. -1.
    9900012    2    1    2    0    0  0.24842754178E+02  0.28206675805E+02  0.24826087663E+02  0.46142316258E+02  0.99999862932E+01 0.  0.
         12    1    1    2    0    0 -0.24842754178E+02 -0.28206675805E+02 -0.24826087663E+02  0.45045683742E+02  0.00000000000E+00 0. -1.
         11    1    3    3    0    0  0.36052027410E+01  0.80437503400E+01  0.29414141059E+01  0.92925412853E+01  0.51100000000E-03 0. -1.
        -11    1    3    3    0    0  0.18084620996E+02  0.19140712964E+02  0.19443695784E+02  0.32733434212E+02  0.51100000000E-03 0.  1.
         12    1    3    3    0    0  0.31529304411E+01  0.10222125009E+01  0.24409777737E+01  0.41163407603E+01  0.00000000000E+00 0. -1.
</event>
<event>
 7    1  0.1442665E-008  0.4614232E+02  0.7816164E-02  0.1320468E+00
        -11   -1    0    0    0    0  0.00000000000E+00  0.00000000000E+00  0.45593999997E+02  0.45594000000E+02  0.51100000000E-03 0.  1.
         11   -1    0    0    0    0 -0.00000000000E+00 -0.00000000000E+00 -0.45593999997E+02  0.45594000000E+02  0.51100000000E-03 0. -1.
    9900012    2    1    2    0    0 -0.27425740511E+02  0.15461472608E+02  0.32216224541E+02  0.46142317616E+02  0.99999986732E+01 0.  0.
         12    1    1    2    0    0  0.27425740511E+02 -0.15461472608E+02 -0.32216224541E+02  0.45045682384E+02  0.00000000000E+00 0. -1.
         11    1    3    3    0    0 -0.18959820082E+01 -0.35177346710E-01  0.19236479310E+01  0.27011861921E+01  0.51100000000E-03 0. -1.
        -11    1    3    3    0    0 -0.23664554948E+01 -0.93312826161E+00  0.39980598211E+01  0.47387047339E+01  0.51100000000E-03 0.  1.
        -12    1    3    3    0    0 -0.23163303009E+02  0.16429778217E+02  0.26294516789E+02  0.38702426690E+02  0.00000000000E+00 0.  1.
</event>
<event>
 7    1  0.1442665E-008  0.4614232E+02  0.7816164E-02  0.1320468E+00
        -11   -1    0    0    0    0  0.00000000000E+00  0.00000000000E+00  0.45593999997E+02  0.45594000000E+02  0.51100000000E-03 0.  1.
         11   -1    0    0    0    0 -0.00000000000E+00 -0.00000000000E+00 -0.45593999997E+02  0.45594000000E+02  0.51100000000E-03 0. -1.
    9900012    2    1    2    0    0 -0.19466047266E+02  0.38650017850E+02  0.12504501596E+02  0.46142318341E+02  0.10000005285E+02 0.  0.
         12    1    1    2    0    0  0.19466047266E+02 -0.38650017850E+02 -0.12504501596E+02  0.45045681659E+02  0.00000000000E+00 0. -1.
         11    1    3    3    0    0 -0.24332121070E+01  0.78104404934E+01  0.48168904996E+01  0.94934680810E+01  0.51100000000E-03 0. -1.
        -11    1    3    3    0    0 -0.11029237202E+02  0.13999243446E+02  0.54152788521E+01  0.18626543846E+02  0.51100000000E-03 0.  1.
         12    1    3    3    0    0 -0.60035979569E+01  0.16840333911E+02  0.22723322445E+01  0.18022306414E+02  0.00000000000E+00 0. -1.
</event>
<event>
 7    1  0.1442665E-008  0.4614232E+02  0.7816164E-02  0.1320468E+00
        -11   -1    0    0    0    0  0.00000000000E+00  0.00000000000E+00  0.45593999997E+02  0.45594000000E+02  0.51100000000E-03 0.  1.
         11   -1    0    0    0    0 -0.00000000000E+00 -0.00000000000E+00 -0.45593999997E+02  0.45594000000E+02  0.51100000000E-03 0. -1.
    9900012    2    1    2    0    0  0.29330596769E+02 -0.14614051476E+02  0.30907263644E+02  0.46142319260E+02  0.10000013671E+02 0.  0.
         12    1    1    2    0    0 -0.29330596769E+02  0.14614051476E+02 -0.30907263644E+02  0.45045680740E+02  0.00000000000E+00 0. -1.
         11    1    3    3    0    0  0.86337288346E+01 -0.51675562314E+01  0.44491714215E+01  0.11001819740E+02  0.51100000000E-03 0. -1.
        -11    1    3    3    0    0  0.19960822440E+02 -0.95141857123E+01  0.24278555883E+02  0.32839038328E+02  0.51100000000E-03 0.  1.
         12    1    3    3    0    0  0.73604549433E+00  0.67690467591E-01  0.21795363386E+01  0.23014611925E+01  0.00000000000E+00 0. -1.
</event>
<event>
 7    1  0.1442665E-008  0.4614232E+02  0.7816164E-02  0.1320468E+00
        -11   -1    0    0    0    0  0.00000000000E+00  0.00000000000E+00  0.45593999997E+02  0.45594000000E+02  0.51100000000E-03 0.  1.
         11   -1    0    0    0    0 -0.00000000000E+00 -0.00000000000E+00 -0.45593999997E+02  0.45594000000E+02  0.51100000000E-03 0. -1.
    9900012    2    1    2    0    0  0.15340120739E+02  0.56251011187E+01  0.41978001146E+02  0.46142315999E+02  0.99999839334E+01 0.  0.
         12    1    1    2    0    0 -0.15340120739E+02 -0.56251011187E+01 -0.41978001146E+02  0.45045684001E+02  0.00000000000E+00 0. -1.
         11    1    3    3    0    0  0.31102313056E+01 -0.70495400938E+00  0.32555742186E+01  0.45573306533E+01  0.51100000000E-03 0. -1.
        -11    1    3    3    0    0  0.11657994605E+02  0.48456616824E+01  0.37530963992E+02  0.39597506661E+02  0.51100000000E-03 0.  1.
        -12    1    3    3    0    0  0.57189482833E+00  0.14843934457E+01  0.11914629360E+01  0.19874786852E+01  0.00000000000E+00 0.  1.
</event>
<event>
 7    1  0.1442665E-008  0.4614230E+02  0.7816164E-02  0.1320468E+00
        -11   -1    0    0    0    0  0.00000000000E+00  0.00000000000E+00  0.45593999997E+02  0.45594000000E+02  0.51100000000E-03 0. -1.
         11   -1    0    0    0    0 -0.00000000000E+00 -0.00000000000E+00 -0.45593999997E+02  0.45594000000E+02  0.51100000000E-03 0.  1.
    9900012    2    1    2    0    0  0.40946261004E+02  0.18304249483E+02  0.41800523006E+01  0.46142304572E+02  0.99998797328E+01 0.  0.
         12    1    1    2    0    0 -0.40946261004E+02 -0.18304249483E+02 -0.41800523006E+01  0.45045695428E+02  0.00000000000E+00 0. -1.
         11    1    3    3    0    0  0.17715426884E+02  0.11604821441E+02  0.25777275985E+01  0.21334312977E+02  0.51100000000E-03 0. -1.
        -11    1    3    3    0    0  0.16843299342E+01  0.17134842551E+01 -0.86778234184E+00  0.25546119224E+01  0.51100000000E-03 0.  1.
         12    1    3    3    0    0  0.21546504186E+02  0.49859437872E+01  0.24701070439E+01  0.22253379673E+02  0.00000000000E+00 0. -1.
</event>
<event>
 7    1  0.1442665E-008  0.4614232E+02  0.7816164E-02  0.1320468E+00
        -11   -1    0    0    0    0  0.00000000000E+00  0.00000000000E+00  0.45593999997E+02  0.45594000000E+02  0.51100000000E-03 0. -1.
         11   -1    0    0    0    0 -0.00000000000E+00 -0.00000000000E+00 -0.45593999997E+02  0.45594000000E+02  0.51100000000E-03 0.  1.
    9900012    2    1    2    0    0 -0.26823066191E+02 -0.35981463180E+02 -0.38692318508E+01  0.46142317326E+02  0.99999960332E+01 0.  0.
         12    1    1    2    0    0  0.26823066191E+02  0.35981463180E+02  0.38692318508E+01  0.45045682674E+02  0.00000000000E+00 0. -1.
         11    1    3    3    0    0 -0.13397349050E+00 -0.41627079939E+01 -0.15318261961E+00  0.41676794400E+01  0.51100000000E-03 0.  1.
        -11    1    3    3    0    0 -0.25553433771E+02 -0.28930758769E+02 -0.42223778469E+01  0.38830339367E+02  0.51100000000E-03 0. -1.
         12    1    3    3    0    0 -0.11356589297E+01 -0.28879964172E+01  0.50632861573E+00  0.31442985191E+01  0.00000000000E+00 0. -1.
</event>
<event>
 7    1  0.1442665E-008  0.4614232E+02  0.7816164E-02  0.1320468E+00
        -11   -1    0    0    0    0  0.00000000000E+00  0.00000000000E+00  0.45593999997E+02  0.45594000000E+02  0.51100000000E-03 0.  1.
         11   -1    0    0    0    0 -0.00000000000E+00 -0.00000000000E+00 -0.45593999997E+02  0.45594000000E+02  0.51100000000E-03 0. -1.
    9900012    2    1    2    0    0  0.24563998018E+00 -0.45030188154E+02 -0.11555246985E+01  0.46142318503E+02  0.10000006764E+02 0.  0.
         12    1    1    2    0    0 -0.24563998018E+00  0.45030188154E+02  0.11555246985E+01  0.45045681497E+02  0.00000000000E+00 0. -1.
         11    1    3    3    0    0 -0.39543004591E+01 -0.15680701951E+02 -0.87538136889E-01  0.16171844947E+02  0.51100000000E-03 0. -1.
        -11    1    3    3    0    0  0.27950412982E+01 -0.26206033741E+02  0.36026872104E-01  0.26354691395E+02  0.51100000000E-03 0.  1.
         12    1    3    3    0    0  0.14048991411E+01 -0.31434524618E+01 -0.11040134337E+01  0.36157821613E+01  0.00000000000E+00 0. -1.
</event>
<event>
 7    1  0.1442665E-008  0.4614232E+02  0.7816164E-02  0.1320468E+00
        -11   -1    0    0    0    0  0.00000000000E+00  0.00000000000E+00  0.45593999997E+02  0.45594000000E+02  0.51100000000E-03 0. -1.
         11   -1    0    0    0    0 -0.00000000000E+00 -0.00000000000E+00 -0.45593999997E+02  0.45594000000E+02  0.51100000000E-03 0.  1.
    9900012    2    1    2    0    0 -0.18805562794E+02 -0.40302423354E+02 -0.71539042538E+01  0.46142324666E+02  0.10000062963E+02 0.  0.
         12    1    1    2    0    0  0.18805562794E+02  0.40302423354E+02  0.71539042538E+01  0.45045675334E+02  0.00000000000E+00 0. -1.
         11    1    3    3    0    0 -0.48298328452E+01 -0.85030575882E+01  0.98665939850E+00  0.98286708507E+01  0.51100000000E-03 0. -1.
        -11    1    3    3    0    0 -0.14025058312E+02 -0.27857615925E+02 -0.85789516627E+01  0.32347294130E+02  0.51100000000E-03 0.  1.
        -12    1    3    3    0    0  0.49328363531E-01 -0.39417498415E+01  0.43838801048E+00  0.39663596847E+01  0.00000000000E+00 0.  1.
</event>
<event>
 7    1  0.1442665E-008  0.4614232E+02  0.7816164E-02  0.1320468E+00
        -11   -1    0    0    0    0  0.00000000000E+00  0.00000000000E+00  0.45593999997E+02  0.45594000000E+02  0.51100000000E-03 0. -1.
         11   -1    0    0    0    0 -0.00000000000E+00 -0.00000000000E+00 -0.45593999997E+02  0.45594000000E+02  0.51100000000E-03 0.  1.
    9900012    2    1    2    0    0 -0.11471147050E+02 -0.29858561686E+02 -0.31717386221E+02  0.46142317529E+02  0.99999978818E+01 0.  0.
         12    1    1    2    0    0  0.11471147050E+02  0.29858561686E+02  0.31717386221E+02  0.45045682471E+02  0.00000000000E+00 0. -1.
         11    1    3    3    0    0 -0.45223887038E+01 -0.10346425743E+02 -0.76612334837E+01  0.13645329751E+02  0.51100000000E-03 0.  1.
        -11    1    3    3    0    0 -0.56080575381E+01 -0.15113366009E+02 -0.22424747839E+02  0.27617629467E+02  0.51100000000E-03 0. -1.
         12    1    3    3    0    0 -0.13407008082E+01 -0.43987699335E+01 -0.16314048980E+01  0.48793583108E+01  0.00000000000E+00 0. -1.
</event>
<event>
 7    1  0.1442665E-008  0.4614232E+02  0.7816164E-02  0.1320468E+00
        -11   -1    0    0    0    0  0.00000000000E+00  0.00000000000E+00  0.45593999997E+02  0.45594000000E+02  0.51100000000E-03 0. -1.
         11   -1    0    0    0    0 -0.00000000000E+00 -0.00000000000E+00 -0.45593999997E+02  0.45594000000E+02  0.51100000000E-03 0.  1.
    9900012    2    1    2    0    0  0.10072002051E+02 -0.43882448069E+02  0.14138358505E+01  0.46142318680E+02  0.10000008376E+02 0.  0.
         12    1    1    2    0    0 -0.10072002051E+02  0.43882448069E+02 -0.14138358505E+01  0.45045681320E+02  0.00000000000E+00 0. -1.
         11    1    3    3    0    0  0.86017516260E+01 -0.29208506060E+02  0.12755405734E+01  0.30475464907E+02  0.51100000000E-03 0. -1.
        -11    1    3    3    0    0 -0.68128897728E+00 -0.10341523916E+02  0.18654921960E+01  0.10530495381E+02  0.51100000000E-03 0.  1.
        -12    1    3    3    0    0  0.21515394024E+01 -0.43324180925E+01 -0.17271969189E+01  0.51363583914E+01  0.00000000000E+00 0.  1.
</event>
<event>
 7    1  0.1442665E-008  0.4614232E+02  0.7816164E-02  0.1320468E+00
        -11   -1    0    0    0    0  0.00000000000E+00  0.00000000000E+00  0.45593999997E+02  0.45594000000E+02  0.51100000000E-03 0.  1.
         11   -1    0    0    0    0 -0.00000000000E+00 -0.00000000000E+00 -0.45593999997E+02  0.45594000000E+02  0.51100000000E-03 0. -1.
    9900012    2    1    2    0    0  0.25546539185E+02 -0.24965472386E+02  0.27444727039E+02  0.46142317432E+02  0.99999970023E+01 0.  0.
         12    1    1    2    0    0 -0.25546539185E+02  0.24965472386E+02 -0.27444727039E+02  0.45045682568E+02  0.00000000000E+00 0. -1.
         11    1    3    3    0    0  0.10463809268E+01 -0.29769890781E+00 -0.39095324238E+00  0.11560200615E+01  0.51100000000E-03 0. -1.
        -11    1    3    3    0    0  0.10121536384E+02 -0.13763265415E+02  0.15990244224E+02  0.23400018895E+02  0.51100000000E-03 0.  1.
         12    1    3    3    0    0  0.14378621873E+02 -0.10904508062E+02  0.11845436057E+02  0.21586278476E+02  0.00000000000E+00 0. -1.
</event>
<event>
 7    1  0.1442665E-008  0.4614232E+02  0.7816164E-02  0.1320468E+00
        -11   -1    0    0    0    0  0.00000000000E+00  0.00000000000E+00  0.45593999997E+02  0.45594000000E+02  0.51100000000E-03 0. -1.
         11   -1    0    0    0    0 -0.00000000000E+00 -0.00000000000E+00 -0.45593999997E+02  0.45594000000E+02  0.51100000000E-03 0.  1.
    9900012    2    1    2    0    0  0.27830719735E+02 -0.27793542961E+02 -0.21956400002E+02  0.46142317717E+02  0.99999995982E+01 0.  0.
         12    1    1    2    0    0 -0.27830719735E+02  0.27793542961E+02  0.21956400002E+02  0.45045682283E+02  0.00000000000E+00 0. -1.
         11    1    3    3    0    0  0.18497565149E+02 -0.13050962006E+02 -0.10236195345E+02  0.24844863074E+02  0.51100000000E-03 0. -1.
        -11    1    3    3    0    0  0.30431405094E+01 -0.66345974247E+01 -0.65482740570E+01  0.98060430621E+01  0.51100000000E-03 0.  1.
        -12    1    3    3    0    0  0.62900140759E+01 -0.81079835301E+01 -0.51719306000E+01  0.11491411581E+02  0.00000000000E+00 0.  1.
</event>
<event>
 7    1  0.1442665E-008  0.4614232E+02  0.7816164E-02  0.1320468E+00
        -11   -1    0    0    0    0  0.00000000000E+00  0.00000000000E+00  0.45593999997E+02  0.45594000000E+02  0.51100000000E-03 0.  1.
         11   -1    0    0    0    0 -0.00000000000E+00 -0.00000000000E+00 -0.45593999997E+02  0.45594000000E+02  0.51100000000E-03 0. -1.
    9900012    2    1    2    0    0  0.13173418924E+02 -0.20044639666E+01  0.43029717475E+02  0.46142318432E+02  0.10000006118E+02 0.  0.
         12    1    1    2    0    0 -0.13173418924E+02  0.20044639666E+01 -0.43029717475E+02  0.45045681568E+02  0.00000000000E+00 0. -1.
         11    1    3    3    0    0 -0.26348129497E+00 -0.18725820069E+01  0.77724010615E+01  0.79991377215E+01  0.51100000000E-03 0. -1.
        -11    1    3    3    0    0  0.13547686806E+02 -0.10317515859E+01  0.32070310544E+02  0.34829716447E+02  0.51100000000E-03 0.  1.
         12    1    3    3    0    0 -0.11078658742E+00  0.89986962624E+00  0.31870058693E+01  0.33134642631E+01  0.00000000000E+00 0. -1.
</event>
<event>
 7    1  0.1442665E-008  0.4614232E+02  0.7816164E-02  0.1320468E+00
        -11   -1    0    0    0    0  0.00000000000E+00  0.00000000000E+00  0.45593999997E+02  0.45594000000E+02  0.51100000000E-03 0. -1.
         11   -1    0    0    0    0 -0.00000000000E+00 -0.00000000000E+00 -0.45593999997E+02  0.45594000000E+02  0.51100000000E-03 0.  1.
    9900012    2    1    2    0    0  0.13859260656E+02  0.35667027170E+02 -0.23767573984E+02  0.46142317564E+02  0.99999982016E+01 0.  0.
         12    1    1    2    0    0 -0.13859260656E+02 -0.35667027170E+02  0.23767573984E+02  0.45045682436E+02  0.00000000000E+00 0. -1.
         11    1    3    3    0    0  0.34372075737E+01  0.23740279158E+01 -0.42500912259E+01  0.59593355451E+01  0.51100000000E-03 0. -1.
        -11    1    3    3    0    0  0.78370643541E+01  0.22422826095E+02 -0.15224888667E+02  0.28213470949E+02  0.51100000000E-03 0.  1.
         12    1    3    3    0    0  0.25849887282E+01  0.10870173159E+02 -0.42925940903E+01  0.11969511070E+02  0.00000000000E+00 0. -1.
</event>
<event>
 7    1  0.1442665E-008  0.4614232E+02  0.7816164E-02  0.1320468E+00
        -11   -1    0    0    0    0  0.00000000000E+00  0.00000000000E+00  0.45593999997E+02  0.45594000000E+02  0.51100000000E-03 0.  1.
         11   -1    0    0    0    0 -0.00000000000E+00 -0.00000000000E+00 -0.45593999997E+02  0.45594000000E+02  0.51100000000E-03 0. -1.
    9900012    2    1    2    0    0  0.19831610479E+02  0.23459286478E+02  0.32946663866E+02  0.46142317009E+02  0.99999931423E+01 0.  0.
         12    1    1    2    0    0 -0.19831610479E+02 -0.23459286478E+02 -0.32946663866E+02  0.45045682991E+02  0.00000000000E+00 0. -1.
         11    1    3    3    0    0 -0.37215877188E+00 -0.40118594937E+00  0.25395093315E+00  0.60327742791E+00  0.51100000000E-03 0. -1.
        -11    1    3    3    0    0  0.13312153390E+02  0.18166908668E+02  0.20769909174E+02  0.30637217984E+02  0.51100000000E-03 0.  1.
        -12    1    3    3    0    0  0.68916158602E+01  0.56935637595E+01  0.11922803759E+02  0.14901821597E+02  0.00000000000E+00 0.  1.
</event>
<event>
 7    1  0.1442665E-008  0.4614232E+02  0.7816164E-02  0.1320468E+00
        -11   -1    0    0    0    0  0.00000000000E+00  0.00000000000E+00  0.45593999997E+02  0.45594000000E+02  0.51100000000E-03 0.  1.
         11   -1    0    0    0    0 -0.00000000000E+00 -0.00000000000E+00 -0.45593999997E+02  0.45594000000E+02  0.51100000000E-03 0. -1.
    9900012    2    1    2    0    0 -0.32517371223E+02  0.30967313490E+02 -0.35720564266E+01  0.46142317375E+02  0.99999964759E+01 0.  0.
         12    1    1    2    0    0  0.32517371223E+02 -0.30967313490E+02  0.35720564266E+01  0.45045682625E+02  0.00000000000E+00 0. -1.
         11    1    3    3    0    0 -0.48091488294E+01  0.90446695866E+01  0.17322278734E+01  0.10389156562E+02  0.51100000000E-03 0. -1.
        -11    1    3    3    0    0 -0.19302309428E+02  0.14843343786E+02 -0.41829252076E+01  0.24706292064E+02  0.51100000000E-03 0.  1.
         12    1    3    3    0    0 -0.84059129659E+01  0.70793001178E+01 -0.11213590924E+01  0.11046868749E+02  0.00000000000E+00 0. -1.
</event>
<event>
 7    1  0.1442665E-008  0.4614232E+02  0.7816164E-02  0.1320468E+00
        -11   -1    0    0    0    0  0.00000000000E+00  0.00000000000E+00  0.45593999997E+02  0.45594000000E+02  0.51100000000E-03 0.  1.
         11   -1    0    0    0    0 -0.00000000000E+00 -0.00000000000E+00 -0.45593999997E+02  0.45594000000E+02  0.51100000000E-03 0. -1.
    9900012    2    1    2    0    0 -0.41922232044E+02 -0.14058280358E+02  0.86025849456E+01  0.46142320364E+02  0.10000023732E+02 0.  0.
         12    1    1    2    0    0  0.41922232044E+02  0.14058280358E+02 -0.86025849456E+01  0.45045679636E+02  0.00000000000E+00 0. -1.
         11    1    3    3    0    0 -0.60634469808E+01 -0.52076028122E+00 -0.14436679328E+01  0.62546588972E+01  0.51100000000E-03 0. -1.
        -11    1    3    3    0    0 -0.25141883761E+02 -0.74279627164E+01  0.58846088047E+01  0.26868523782E+02  0.51100000000E-03 0.  1.
        -12    1    3    3    0    0 -0.10716901302E+02 -0.61095573603E+01  0.41616440737E+01  0.13019137685E+02  0.00000000000E+00 0.  1.
</event>
<event>
 7    1  0.1442665E-008  0.4614232E+02  0.7816164E-02  0.1320468E+00
        -11   -1    0    0    0    0  0.00000000000E+00  0.00000000000E+00  0.45593999997E+02  0.45594000000E+02  0.51100000000E-03 0.  1.
         11   -1    0    0    0    0 -0.00000000000E+00 -0.00000000000E+00 -0.45593999997E+02  0.45594000000E+02  0.51100000000E-03 0. -1.
    9900012    2    1    2    0    0 -0.40847845219E+02  0.18871406643E+02 -0.21064449409E+01  0.46142316988E+02  0.99999929540E+01 0.  0.
         12    1    1    2    0    0  0.40847845219E+02 -0.18871406643E+02  0.21064449409E+01  0.45045683012E+02  0.00000000000E+00 0. -1.
         11    1    3    3    0    0 -0.25524494443E+02  0.15209197394E+02 -0.14369849645E+01  0.29747007043E+02  0.51100000000E-03 0. -1.
        -11    1    3    3    0    0 -0.47991111300E+01 -0.43854800064E+00 -0.15599939538E+01  0.50653107885E+01  0.51100000000E-03 0.  1.
        -12    1    3    3    0    0 -0.10524239646E+02  0.41007572488E+01  0.89053397740E+00  0.11329999157E+02  0.00000000000E+00 0.  1.
</event>
<event>
 7    1  0.1442665E-008  0.4614233E+02  0.7816164E-02  0.1320468E+00
        -11   -1    0    0    0    0  0.00000000000E+00  0.00000000000E+00  0.45593999997E+02  0.45594000000E+02  0.51100000000E-03 0.  1.
         11   -1    0    0    0    0 -0.00000000000E+00 -0.00000000000E+00 -0.45593999997E+02  0.45594000000E+02  0.51100000000E-03 0. -1.
    9900012    2    1    2    0    0  0.16641021679E+02 -0.11306599779E+02  0.40303219273E+02  0.46142331120E+02  0.10000121814E+02 0.  0.
         12    1    1    2    0    0 -0.16641021679E+02  0.11306599779E+02 -0.40303219273E+02  0.45045668880E+02  0.00000000000E+00 0. -1.
         11    1    3    3    0    0  0.66450949837E+01 -0.45828276041E+01  0.74354434611E+01  0.10974762682E+02  0.51100000000E-03 0. -1.
        -11    1    3    3    0    0  0.71879720566E+01 -0.42093828141E+01  0.18073294703E+02  0.19900498176E+02  0.51100000000E-03 0.  1.
         12    1    3    3    0    0  0.28079546385E+01 -0.25143893606E+01  0.14794481109E+02  0.15267070262E+02  0.00000000000E+00 0. -1.
</event>
<event>
 7    1  0.1442665E-008  0.4614232E+02  0.7816164E-02  0.1320468E+00
        -11   -1    0    0    0    0  0.00000000000E+00  0.00000000000E+00  0.45593999997E+02  0.45594000000E+02  0.51100000000E-03 0.  1.
         11   -1    0    0    0    0 -0.00000000000E+00 -0.00000000000E+00 -0.45593999997E+02  0.45594000000E+02  0.51100000000E-03 0. -1.
    9900012    2    1    2    0    0 -0.39808963122E+02 -0.17473745814E+01  0.21007299122E+02  0.46142317863E+02  0.10000000930E+02 0.  0.
         12    1    1    2    0    0  0.39808963122E+02  0.17473745814E+01 -0.21007299122E+02  0.45045682137E+02  0.00000000000E+00 0. -1.
         11    1    3    3    0    0 -0.10587876448E+02  0.12565758508E+01  0.50461279017E+01  0.11795995829E+02  0.51100000000E-03 0. -1.
        -11    1    3    3    0    0 -0.12866927107E+02  0.20882456668E+00  0.11074908101E+02  0.16978074407E+02  0.51100000000E-03 0.  1.
         12    1    3    3    0    0 -0.16354159567E+02 -0.32127749988E+01  0.48862631193E+01  0.17368247626E+02  0.00000000000E+00 0. -1.
</event>
<event>
 7    1  0.1442665E-008  0.4614232E+02  0.7816164E-02  0.1320468E+00
        -11   -1    0    0    0    0  0.00000000000E+00  0.00000000000E+00  0.45593999997E+02  0.45594000000E+02  0.51100000000E-03 0.  1.
         11   -1    0    0    0    0 -0.00000000000E+00 -0.00000000000E+00 -0.45593999997E+02  0.45594000000E+02  0.51100000000E-03 0. -1.
    9900012    2    1    2    0    0  0.84278091987E+01 -0.43682614362E+02  0.70650340261E+01  0.46142317952E+02  0.10000001737E+02 0.  0.
         12    1    1    2    0    0 -0.84278091987E+01  0.43682614362E+02 -0.70650340261E+01  0.45045682048E+02  0.00000000000E+00 0. -1.
         11    1    3    3    0    0 -0.52146703398E+00 -0.11425553458E+01  0.52590062866E+00  0.13615918324E+01  0.51100000000E-03 0. -1.
        -11    1    3    3    0    0  0.77828126499E+01 -0.38002544068E+02  0.29961353352E+01  0.38906842015E+02  0.51100000000E-03 0.  1.
        -12    1    3    3    0    0  0.11664635828E+01 -0.45375149487E+01  0.35429980623E+01  0.58738841042E+01  0.00000000000E+00 0.  1.
</event>
<event>
 7    1  0.1442665E-008  0.4614232E+02  0.7816164E-02  0.1320468E+00
        -11   -1    0    0    0    0  0.00000000000E+00  0.00000000000E+00  0.45593999997E+02  0.45594000000E+02  0.51100000000E-03 0.  1.
         11   -1    0    0    0    0 -0.00000000000E+00 -0.00000000000E+00 -0.45593999997E+02  0.45594000000E+02  0.51100000000E-03 0. -1.
    9900012    2    1    2    0    0  0.32291557423E+02  0.16728282123E+02  0.26580695845E+02  0.46142317685E+02  0.99999993096E+01 0.  0.
         12    1    1    2    0    0 -0.32291557423E+02 -0.16728282123E+02 -0.26580695845E+02  0.45045682315E+02  0.00000000000E+00 0. -1.
         11    1    3    3    0    0  0.91180881537E+01  0.37856498836E+01  0.48494799420E+01  0.10999460559E+02  0.51100000000E-03 0. -1.
        -11    1    3    3    0    0 -0.53461380544E-01  0.18316873471E+01  0.19321407633E+01  0.26629128501E+01  0.51100000000E-03 0.  1.
        -12    1    3    3    0    0  0.23226930650E+02  0.11110944893E+02  0.19799075139E+02  0.32479944276E+02  0.00000000000E+00 0.  1.
</event>
<event>
 7    1  0.1442665E-008  0.4614232E+02  0.7816164E-02  0.1320468E+00
        -11   -1    0    0    0    0  0.00000000000E+00  0.00000000000E+00  0.45593999997E+02  0.45594000000E+02  0.51100000000E-03 0.  1.
         11   -1    0    0    0    0 -0.00000000000E+00 -0.00000000000E+00 -0.45593999997E+02  0.45594000000E+02  0.51100000000E-03 0. -1.
    9900012    2    1    2    0    0  0.42068142504E+01 -0.26820854714E+02  0.35945207099E+02  0.46142318219E+02  0.10000004177E+02 0.  0.
         12    1    1    2    0    0 -0.42068142504E+01  0.26820854714E+02 -0.35945207099E+02  0.45045681781E+02  0.00000000000E+00 0. -1.
         11    1    3    3    0    0 -0.81279603209E+00 -0.13359477344E+01  0.80927169554E+00  0.17607710462E+01  0.51100000000E-03 0. -1.
        -11    1    3    3    0    0  0.46348752127E+01 -0.59902556818E+01  0.10961517773E+02  0.13323667044E+02  0.51100000000E-03 0.  1.
        -12    1    3    3    0    0  0.38473506979E+00 -0.19494651297E+02  0.24174417631E+02  0.31057880129E+02  0.00000000000E+00 0.  1.
</event>
<event>
 7    1  0.1442665E-008  0.4614232E+02  0.7816164E-02  0.1320468E+00
        -11   -1    0    0    0    0  0.00000000000E+00  0.00000000000E+00  0.45593999997E+02  0.45594000000E+02  0.51100000000E-03 0.  1.
         11   -1    0    0    0    0 -0.00000000000E+00 -0.00000000000E+00 -0.45593999997E+02  0.45594000000E+02  0.51100000000E-03 0. -1.
    9900012    2    1    2    0    0  0.16002054951E+02  0.20848111741E+02  0.36584202682E+02  0.46142318612E+02  0.10000007756E+02 0.  0.
         12    1    1    2    0    0 -0.16002054951E+02 -0.20848111741E+02 -0.36584202682E+02  0.45045681388E+02  0.00000000000E+00 0. -1.
         11    1    3    3    0    0 -0.66216619907E+00  0.18671753180E+01  0.25693550490E+01  0.32444403789E+01  0.51100000000E-03 0. -1.
        -11    1    3    3    0    0  0.14533978469E+02  0.18822232689E+02  0.32534333850E+02  0.40298831904E+02  0.51100000000E-03 0.  1.
        -12    1    3    3    0    0  0.21302426804E+01  0.15870373398E+00  0.14805137838E+01  0.25990463283E+01  0.00000000000E+00 0.  1.
</event>
<event>
 7    1  0.1442665E-008  0.4614232E+02  0.7816164E-02  0.1320468E+00
        -11   -1    0    0    0    0  0.00000000000E+00  0.00000000000E+00  0.45593999997E+02  0.45594000000E+02  0.51100000000E-03 0.  1.
         11   -1    0    0    0    0 -0.00000000000E+00 -0.00000000000E+00 -0.45593999997E+02  0.45594000000E+02  0.51100000000E-03 0. -1.
    9900012    2    1    2    0    0 -0.16222668232E+02  0.32906477944E+02  0.26136226111E+02  0.46142316849E+02  0.99999916792E+01 0.  0.
         12    1    1    2    0    0  0.16222668232E+02 -0.32906477944E+02 -0.26136226111E+02  0.45045683151E+02  0.00000000000E+00 0. -1.
         11    1    3    3    0    0 -0.14620050187E+02  0.21830786337E+02  0.20143883579E+02  0.33107478694E+02  0.51100000000E-03 0. -1.
        -11    1    3    3    0    0  0.44026598758E+00  0.64232987702E+01  0.27083849342E+01  0.69848371809E+01  0.51100000000E-03 0.  1.
        -12    1    3    3    0    0 -0.20428840327E+01  0.46523928369E+01  0.32839575979E+01  0.60500009739E+01  0.00000000000E+00 0.  1.
</event>
<event>
 7    1  0.1442665E-008  0.4614232E+02  0.7816164E-02  0.1320468E+00
        -11   -1    0    0    0    0  0.00000000000E+00  0.00000000000E+00  0.45593999997E+02  0.45594000000E+02  0.51100000000E-03 0. -1.
         11   -1    0    0    0    0 -0.00000000000E+00 -0.00000000000E+00 -0.45593999997E+02  0.45594000000E+02  0.51100000000E-03 0.  1.
    9900012    2    1    2    0    0  0.20479778176E+02  0.39881858583E+01 -0.39922249229E+02  0.46142324025E+02  0.10000057117E+02 0.  0.
         12    1    1    2    0    0 -0.20479778176E+02 -0.39881858583E+01  0.39922249229E+02  0.45045675975E+02  0.00000000000E+00 0. -1.
         11    1    3    3    0    0  0.44261821126E+01  0.12217548115E+01 -0.28283496191E+01  0.53928966931E+01  0.51100000000E-03 0. -1.
        -11    1    3    3    0    0  0.11469825761E+02 -0.47996859230E-01 -0.26163021833E+02  0.28566814985E+02  0.51100000000E-03 0.  1.
        -12    1    3    3    0    0  0.45837703022E+01  0.28144279060E+01 -0.10930877777E+02  0.12182612347E+02  0.00000000000E+00 0.  1.
</event>
<event>
 7    1  0.1442665E-008  0.4614232E+02  0.7816164E-02  0.1320468E+00
        -11   -1    0    0    0    0  0.00000000000E+00  0.00000000000E+00  0.45593999997E+02  0.45594000000E+02  0.51100000000E-03 0.  1.
         11   -1    0    0    0    0 -0.00000000000E+00 -0.00000000000E+00 -0.45593999997E+02  0.45594000000E+02  0.51100000000E-03 0. -1.
    9900012    2    1    2    0    0 -0.31282342955E+02  0.30689238823E+02  0.10425886987E+02  0.46142317857E+02  0.10000000873E+02 0.  0.
         12    1    1    2    0    0  0.31282342955E+02 -0.30689238823E+02 -0.10425886987E+02  0.45045682143E+02  0.00000000000E+00 0. -1.
         11    1    3    3    0    0 -0.26207382802E+02  0.20816992638E+02  0.61072411689E+01  0.34021647385E+02  0.51100000000E-03 0. -1.
        -11    1    3    3    0    0 -0.42316535027E+01  0.78685274220E+01  0.24763236983E+01  0.92710729950E+01  0.51100000000E-03 0.  1.
         12    1    3    3    0    0 -0.84330665022E+00  0.20037187625E+01  0.18423221202E+01  0.28495974768E+01  0.00000000000E+00 0. -1.
</event>
<event>
 7    1  0.1442665E-008  0.4614232E+02  0.7816164E-02  0.1320468E+00
        -11   -1    0    0    0    0  0.00000000000E+00  0.00000000000E+00  0.45593999997E+02  0.45594000000E+02  0.51100000000E-03 0.  1.
         11   -1    0    0    0    0 -0.00000000000E+00 -0.00000000000E+00 -0.45593999997E+02  0.45594000000E+02  0.51100000000E-03 0. -1.
    9900012    2    1    2    0    0 -0.31395239961E+01  0.40595229424E+02  0.19268736074E+02  0.46142318156E+02  0.10000003603E+02 0.  0.
         12    1    1    2    0    0  0.31395239961E+01 -0.40595229424E+02 -0.19268736074E+02  0.45045681844E+02  0.00000000000E+00 0. -1.
         11    1    3    3    0    0  0.19531225449E+01  0.89976549297E+01  0.46158389770E+01  0.10299439384E+02  0.51100000000E-03 0. -1.
        -11    1    3    3    0    0 -0.65440781304E+01  0.25269317738E+02  0.10499325103E+02  0.28135372850E+02  0.51100000000E-03 0.  1.
        -12    1    3    3    0    0  0.14514315894E+01  0.63282567562E+01  0.41535719939E+01  0.77075059222E+01  0.00000000000E+00 0.  1.
</event>
<event>
 7    1  0.1442665E-008  0.4614232E+02  0.7816164E-02  0.1320468E+00
        -11   -1    0    0    0    0  0.00000000000E+00  0.00000000000E+00  0.45593999997E+02  0.45594000000E+02  0.51100000000E-03 0.  1.
         11   -1    0    0    0    0 -0.00000000000E+00 -0.00000000000E+00 -0.45593999997E+02  0.45594000000E+02  0.51100000000E-03 0. -1.
    9900012    2    1    2    0    0  0.69714727622E+00 -0.44739963551E+02 -0.51926033745E+01  0.46142317824E+02  0.10000000576E+02 0.  0.
         12    1    1    2    0    0 -0.69714727622E+00  0.44739963551E+02  0.51926033745E+01  0.45045682176E+02  0.00000000000E+00 0. -1.
         11    1    3    3    0    0  0.41024013167E+01 -0.25233377720E+02 -0.48624222995E+01  0.26022993652E+02  0.51100000000E-03 0. -1.
        -11    1    3    3    0    0 -0.36632165883E+01 -0.17405107029E+02  0.62316162923E+00  0.17797337923E+02  0.51100000000E-03 0.  1.
        -12    1    3    3    0    0  0.25796254783E+00 -0.21014788026E+01 -0.95334270423E+00  0.23219862501E+01  0.00000000000E+00 0.  1.
</event>
<event>
 7    1  0.1442665E-008  0.4614232E+02  0.7816164E-02  0.1320468E+00
        -11   -1    0    0    0    0  0.00000000000E+00  0.00000000000E+00  0.45593999997E+02  0.45594000000E+02  0.51100000000E-03 0.  1.
         11   -1    0    0    0    0 -0.00000000000E+00 -0.00000000000E+00 -0.45593999997E+02  0.45594000000E+02  0.51100000000E-03 0. -1.
    9900012    2    1    2    0    0 -0.28234171026E+02 -0.17514225058E+02 -0.30417050504E+02  0.46142318140E+02  0.10000003453E+02 0.  0.
         12    1    1    2    0    0  0.28234171026E+02  0.17514225058E+02  0.30417050504E+02  0.45045681860E+02  0.00000000000E+00 0. -1.
         11    1    3    3    0    0 -0.42916762384E+01 -0.28269450012E+01 -0.99012925910E+01  0.11155523215E+02  0.51100000000E-03 0. -1.
        -11    1    3    3    0    0 -0.13108364854E+02 -0.10216738994E+02 -0.12141561752E+02  0.20582237654E+02  0.51100000000E-03 0.  1.
         12    1    3    3    0    0 -0.10834129934E+02 -0.44705410628E+01 -0.83741961607E+01  0.14404557270E+02  0.00000000000E+00 0. -1.
</event>
<event>
 7    1  0.1442665E-008  0.4614232E+02  0.7816164E-02  0.1320468E+00
        -11   -1    0    0    0    0  0.00000000000E+00  0.00000000000E+00  0.45593999997E+02  0.45594000000E+02  0.51100000000E-03 0. -1.
         11   -1    0    0    0    0 -0.00000000000E+00 -0.00000000000E+00 -0.45593999997E+02  0.45594000000E+02  0.51100000000E-03 0.  1.
    9900012    2    1    2    0    0  0.34847790529E+02  0.24378703491E+02 -0.14846671512E+02  0.46142319368E+02  0.10000014650E+02 0.  0.
         12    1    1    2    0    0 -0.34847790529E+02 -0.24378703491E+02  0.14846671512E+02  0.45045680632E+02  0.00000000000E+00 0. -1.
         11    1    3    3    0    0  0.15847543372E+02  0.69197774116E+01 -0.37012406298E+01  0.17684092649E+02  0.51100000000E-03 0. -1.
        -11    1    3    3    0    0  0.34443076581E+01  0.45286105459E+01 -0.41961966180E+01  0.70696276449E+01  0.51100000000E-03 0.  1.
        -12    1    3    3    0    0  0.15555939499E+02  0.12930315534E+02 -0.69492342643E+01  0.21388599074E+02  0.00000000000E+00 0.  1.
</event>
<event>
 7    1  0.1442665E-008  0.4614232E+02  0.7816164E-02  0.1320468E+00
        -11   -1    0    0    0    0  0.00000000000E+00  0.00000000000E+00  0.45593999997E+02  0.45594000000E+02  0.51100000000E-03 0. -1.
         11   -1    0    0    0    0 -0.00000000000E+00 -0.00000000000E+00 -0.45593999997E+02  0.45594000000E+02  0.51100000000E-03 0.  1.
    9900012    2    1    2    0    0 -0.32817175589E+02  0.12126543490E+02 -0.28374168247E+02  0.46142317695E+02  0.99999993935E+01 0.  0.
         12    1    1    2    0    0  0.32817175589E+02 -0.12126543490E+02  0.28374168247E+02  0.45045682305E+02  0.00000000000E+00 0. -1.
         11    1    3    3    0    0 -0.13908416552E+02  0.24116921556E+01 -0.65408284112E+01  0.15557723053E+02  0.51100000000E-03 0. -1.
        -11    1    3    3    0    0 -0.84163174196E+01  0.29077329782E+01 -0.94445589674E+01  0.12980331441E+02  0.51100000000E-03 0.  1.
         12    1    3    3    0    0 -0.10492441618E+02  0.68071183567E+01 -0.12388780868E+02  0.17604263200E+02  0.00000000000E+00 0. -1.
</event>
<event>
 7    1  0.1442665E-008  0.4614232E+02  0.7816164E-02  0.1320468E+00
        -11   -1    0    0    0    0  0.00000000000E+00  0.00000000000E+00  0.45593999997E+02  0.45594000000E+02  0.51100000000E-03 0. -1.
         11   -1    0    0    0    0 -0.00000000000E+00 -0.00000000000E+00 -0.45593999997E+02  0.45594000000E+02  0.51100000000E-03 0.  1.
    9900012    2    1    2    0    0  0.32518219872E+01  0.14680737491E+02 -0.42461925305E+02  0.46142317631E+02  0.99999988093E+01 0.  0.
         12    1    1    2    0    0 -0.32518219872E+01 -0.14680737491E+02  0.42461925305E+02  0.45045682369E+02  0.00000000000E+00 0. -1.
         11    1    3    3    0    0  0.20833030566E+00  0.87918233730E+01 -0.14464559439E+02  0.16928172960E+02  0.51100000000E-03 0. -1.
        -11    1    3    3    0    0  0.81327619041E+00  0.12527919796E+01 -0.11682930373E+01  0.18962633752E+01  0.51100000000E-03 0.  1.
         12    1    3    3    0    0  0.22302154911E+01  0.46361221388E+01 -0.26829072828E+02  0.27317881295E+02  0.00000000000E+00 0. -1.
</event>
<event>
 7    1  0.1442665E-008  0.4614232E+02  0.7816164E-02  0.1320468E+00
        -11   -1    0    0    0    0  0.00000000000E+00  0.00000000000E+00  0.45593999997E+02  0.45594000000E+02  0.51100000000E-03 0.  1.
         11   -1    0    0    0    0 -0.00000000000E+00 -0.00000000000E+00 -0.45593999997E+02  0.45594000000E+02  0.51100000000E-03 0. -1.
    9900012    2    1    2    0    0  0.58098921938E+01  0.28243549376E+02  0.34607235884E+02  0.46142315366E+02  0.99999781562E+01 0.  0.
         12    1    1    2    0    0 -0.58098921938E+01 -0.28243549376E+02 -0.34607235884E+02  0.45045684634E+02  0.00000000000E+00 0. -1.
         11    1    3    3    0    0  0.13579466531E+01  0.60056346659E+01  0.26566358548E+01  0.67059213520E+01  0.51100000000E-03 0. -1.
        -11    1    3    3    0    0  0.41789858451E+01  0.17325436245E+02  0.21814185547E+02  0.28169014096E+02  0.51100000000E-03 0.  1.
         12    1    3    3    0    0  0.27295969560E+00  0.49124784646E+01  0.10136414482E+02  0.11267379918E+02  0.00000000000E+00 0. -1.
</event>
<event>
 7    1  0.1442665E-008  0.4614232E+02  0.7816164E-02  0.1320468E+00
        -11   -1    0    0    0    0  0.00000000000E+00  0.00000000000E+00  0.45593999997E+02  0.45594000000E+02  0.51100000000E-03 0.  1.
         11   -1    0    0    0    0 -0.00000000000E+00 -0.00000000000E+00 -0.45593999997E+02  0.45594000000E+02  0.51100000000E-03 0. -1.
    9900012    2    1    2    0    0  0.25207474019E+02  0.36232193334E+02  0.89958273008E+01  0.46142317753E+02  0.99999999306E+01 0.  0.
         12    1    1    2    0    0 -0.25207474019E+02 -0.36232193334E+02 -0.89958273008E+01  0.45045682247E+02  0.00000000000E+00 0. -1.
         11    1    3    3    0    0  0.19643152692E+02  0.21210268171E+02  0.65032887911E+01  0.29631430761E+02  0.51100000000E-03 0. -1.
        -11    1    3    3    0    0  0.22599707893E+01  0.27782879283E+01 -0.26198799157E-01  0.35814855045E+01  0.51100000000E-03 0.  1.
         12    1    3    3    0    0  0.33043505379E+01  0.12243637235E+02  0.25187373089E+01  0.12929401488E+02  0.00000000000E+00 0. -1.
</event>
<event>
 7    1  0.1442665E-008  0.4614231E+02  0.7816164E-02  0.1320468E+00
        -11   -1    0    0    0    0  0.00000000000E+00  0.00000000000E+00  0.45593999997E+02  0.45594000000E+02  0.51100000000E-03 0.  1.
         11   -1    0    0    0    0 -0.00000000000E+00 -0.00000000000E+00 -0.45593999997E+02  0.45594000000E+02  0.51100000000E-03 0. -1.
    9900012    2    1    2    0    0  0.16225946679E+02  0.41990922839E+02  0.16109057822E+01  0.46142312482E+02  0.99999518613E+01 0.  0.
         12    1    1    2    0    0 -0.16225946679E+02 -0.41990922839E+02 -0.16109057822E+01  0.45045687518E+02  0.00000000000E+00 0. -1.
         11    1    3    3    0    0  0.54684951848E+01  0.13682024301E+02  0.50311780259E+01  0.15569681472E+02  0.51100000000E-03 0.  1.
        -11    1    3    3    0    0  0.53593314659E+01  0.17292460909E+02 -0.24013958116E+01  0.18262484501E+02  0.51100000000E-03 0. -1.
        -12    1    3    3    0    0  0.53981200282E+01  0.11016437630E+02 -0.10188764320E+01  0.12310146509E+02  0.00000000000E+00 0.  1.
</event>
<event>
 7    1  0.1442665E-008  0.4614232E+02  0.7816164E-02  0.1320468E+00
        -11   -1    0    0    0    0  0.00000000000E+00  0.00000000000E+00  0.45593999997E+02  0.45594000000E+02  0.51100000000E-03 0. -1.
         11   -1    0    0    0    0 -0.00000000000E+00 -0.00000000000E+00 -0.45593999997E+02  0.45594000000E+02  0.51100000000E-03 0.  1.
    9900012    2    1    2    0    0 -0.16822263954E+01 -0.41048361108E+01 -0.44826708776E+02  0.46142318910E+02  0.10000010481E+02 0.  0.
         12    1    1    2    0    0  0.16822263954E+01  0.41048361108E+01  0.44826708776E+02  0.45045681090E+02  0.00000000000E+00 0. -1.
         11    1    3    3    0    0 -0.18098023561E+01  0.17447806275E+01 -0.54235431538E+01  0.59778310957E+01  0.51100000000E-03 0. -1.
        -11    1    3    3    0    0 -0.80890664843E-02 -0.68113770135E+01 -0.34624322865E+02  0.35287939248E+02  0.51100000000E-03 0.  1.
        -12    1    3    3    0    0  0.13566502712E+00  0.96176027518E+00 -0.47788427567E+01  0.48765485664E+01  0.00000000000E+00 0.  1.
</event>
<event>
 7    1  0.1442665E-008  0.4614232E+02  0.7816164E-02  0.1320468E+00
        -11   -1    0    0    0    0  0.00000000000E+00  0.00000000000E+00  0.45593999997E+02  0.45594000000E+02  0.51100000000E-03 0.  1.
         11   -1    0    0    0    0 -0.00000000000E+00 -0.00000000000E+00 -0.45593999997E+02  0.45594000000E+02  0.51100000000E-03 0. -1.
    9900012    2    1    2    0    0 -0.43520497305E+02  0.54904817798E+01  0.10243749441E+02  0.46142317871E+02  0.10000001000E+02 0.  0.
         12    1    1    2    0    0  0.43520497305E+02 -0.54904817798E+01 -0.10243749441E+02  0.45045682129E+02  0.00000000000E+00 0. -1.
         11    1    3    3    0    0 -0.10481544442E+02 -0.24445986105E+01  0.38074501455E+01  0.11416457994E+02  0.51100000000E-03 0. -1.
        -11    1    3    3    0    0 -0.23945345736E+02  0.50436044820E+01  0.33620533842E+01  0.24700626142E+02  0.51100000000E-03 0.  1.
        -12    1    3    3    0    0 -0.90936071270E+01  0.28914759082E+01  0.30742459108E+01  0.10025233734E+02  0.00000000000E+00 0.  1.
</event>
<event>
 7    1  0.1442665E-008  0.4614232E+02  0.7816164E-02  0.1320468E+00
        -11   -1    0    0    0    0  0.00000000000E+00  0.00000000000E+00  0.45593999997E+02  0.45594000000E+02  0.51100000000E-03 0.  1.
         11   -1    0    0    0    0 -0.00000000000E+00 -0.00000000000E+00 -0.45593999997E+02  0.45594000000E+02  0.51100000000E-03 0. -1.
    9900012    2    1    2    0    0  0.27988509844E+02 -0.25893112893E+02  0.23985487860E+02  0.46142316450E+02  0.99999880475E+01 0.  0.
         12    1    1    2    0    0 -0.27988509844E+02  0.25893112893E+02 -0.23985487860E+02  0.45045683550E+02  0.00000000000E+00 0. -1.
         11    1    3    3    0    0  0.11568855866E+02 -0.13963942657E+02  0.11641149508E+02  0.21548700256E+02  0.51100000000E-03 0. -1.
        -11    1    3    3    0    0  0.25913994473E+01 -0.25064761452E+01  0.53631700829E+01  0.64623035646E+01  0.51100000000E-03 0.  1.
        -12    1    3    3    0    0  0.13828254531E+02 -0.94226940906E+01  0.69811682692E+01  0.18131312630E+02  0.00000000000E+00 0.  1.
</event>
<event>
 7    1  0.1442665E-008  0.4614232E+02  0.7816164E-02  0.1320468E+00
        -11   -1    0    0    0    0  0.00000000000E+00  0.00000000000E+00  0.45593999997E+02  0.45594000000E+02  0.51100000000E-03 0.  1.
         11   -1    0    0    0    0 -0.00000000000E+00 -0.00000000000E+00 -0.45593999997E+02  0.45594000000E+02  0.51100000000E-03 0. -1.
    9900012    2    1    2    0    0  0.38220889782E+02  0.11154243044E+01  0.23812455632E+02  0.46142316186E+02  0.99999856341E+01 0.  0.
         12    1    1    2    0    0 -0.38220889782E+02 -0.11154243044E+01 -0.23812455632E+02  0.45045683814E+02  0.00000000000E+00 0. -1.
         11    1    3    3    0    0  0.34271601683E+01  0.66332207464E+00  0.54925899129E+01  0.65079925635E+01  0.51100000000E-03 0. -1.
        -11    1    3    3    0    0  0.19010131378E+02  0.27072799480E+01  0.99078975773E+01  0.21607426834E+02  0.51100000000E-03 0.  1.
        -12    1    3    3    0    0  0.15783598235E+02 -0.22551777183E+01  0.84119681418E+01  0.18026896788E+02  0.00000000000E+00 0.  1.
</event>
<event>
 7    1  0.1442665E-008  0.4614232E+02  0.7816164E-02  0.1320468E+00
        -11   -1    0    0    0    0  0.00000000000E+00  0.00000000000E+00  0.45593999997E+02  0.45594000000E+02  0.51100000000E-03 0. -1.
         11   -1    0    0    0    0 -0.00000000000E+00 -0.00000000000E+00 -0.45593999997E+02  0.45594000000E+02  0.51100000000E-03 0.  1.
    9900012    2    1    2    0    0  0.15694322967E+02 -0.40689088618E+02  0.11278289019E+02  0.46142317530E+02  0.99999978940E+01 0.  0.
         12    1    1    2    0    0 -0.15694322967E+02  0.40689088618E+02 -0.11278289019E+02  0.45045682470E+02  0.00000000000E+00 0. -1.
         11    1    3    3    0    0  0.89147148216E+01 -0.18427454508E+02  0.87873899463E+01  0.22276926231E+02  0.51100000000E-03 0. -1.
        -11    1    3    3    0    0  0.39139496482E+00 -0.81454557054E+01 -0.10236974813E+00  0.81554962139E+01  0.51100000000E-03 0.  1.
        -12    1    3    3    0    0  0.63882131805E+01 -0.14116178405E+02  0.25932688207E+01  0.15709895085E+02  0.00000000000E+00 0.  1.
</event>
<event>
 7    1  0.1442665E-008  0.4614232E+02  0.7816164E-02  0.1320468E+00
        -11   -1    0    0    0    0  0.00000000000E+00  0.00000000000E+00  0.45593999997E+02  0.45594000000E+02  0.51100000000E-03 0.  1.
         11   -1    0    0    0    0 -0.00000000000E+00 -0.00000000000E+00 -0.45593999997E+02  0.45594000000E+02  0.51100000000E-03 0. -1.
    9900012    2    1    2    0    0  0.39499209733E+02 -0.19730030527E+02  0.89247879147E+01  0.46142317483E+02  0.99999974597E+01 0.  0.
         12    1    1    2    0    0 -0.39499209733E+02  0.19730030527E+02 -0.89247879147E+01  0.45045682517E+02  0.00000000000E+00 0. -1.
         11    1    3    3    0    0  0.22047130320E+02 -0.95225051084E+01  0.92030852466E+01  0.25718686537E+02  0.51100000000E-03 0. -1.
        -11    1    3    3    0    0  0.53482498174E+01 -0.18647996547E+01  0.60739265908E+00  0.56965059435E+01  0.51100000000E-03 0.  1.
         12    1    3    3    0    0  0.12103829596E+02 -0.83427257640E+01 -0.88568999092E+00  0.14727125002E+02  0.00000000000E+00 0. -1.
</event>
<event>
 7    1  0.1442665E-008  0.4614232E+02  0.7816164E-02  0.1320468E+00
        -11   -1    0    0    0    0  0.00000000000E+00  0.00000000000E+00  0.45593999997E+02  0.45594000000E+02  0.51100000000E-03 0.  1.
         11   -1    0    0    0    0 -0.00000000000E+00 -0.00000000000E+00 -0.45593999997E+02  0.45594000000E+02  0.51100000000E-03 0. -1.
    9900012    2    1    2    0    0  0.10600939200E+02 -0.42995165006E+02 -0.82552607949E+01  0.46142318113E+02  0.10000003211E+02 0.  0.
         12    1    1    2    0    0 -0.10600939200E+02  0.42995165006E+02  0.82552607949E+01  0.45045681887E+02  0.00000000000E+00 0. -1.
         11    1    3    3    0    0  0.50441262390E+01 -0.28143682085E+02 -0.38542679737E+01  0.28850744057E+02  0.51100000000E-03 0.  1.
        -11    1    3    3    0    0  0.37137465372E+01 -0.32573525796E+01 -0.18711672062E+01  0.52823788339E+01  0.51100000000E-03 0. -1.
         12    1    3    3    0    0  0.18430664239E+01 -0.11594130342E+02 -0.25298256150E+01  0.12009195222E+02  0.00000000000E+00 0. -1.
</event>
<event>
 7    1  0.1442665E-008  0.4614232E+02  0.7816164E-02  0.1320468E+00
        -11   -1    0    0    0    0  0.00000000000E+00  0.00000000000E+00  0.45593999997E+02  0.45594000000E+02  0.51100000000E-03 0.  1.
         11   -1    0    0    0    0 -0.00000000000E+00 -0.00000000000E+00 -0.45593999997E+02  0.45594000000E+02  0.51100000000E-03 0. -1.
    9900012    2    1    2    0    0  0.19071771394E+02  0.14365716086E+01  0.40783789054E+02  0.46142315948E+02  0.99999834688E+01 0.  0.
         12    1    1    2    0    0 -0.19071771394E+02 -0.14365716086E+01 -0.40783789054E+02  0.45045684052E+02  0.00000000000E+00 0. -1.
         11    1    3    3    0    0  0.35852789360E+00  0.20076897123E+01  0.32609347352E+01  0.38461741822E+01  0.51100000000E-03 0. -1.
        -11    1    3    3    0    0  0.80581985655E+01  0.24532801709E+01  0.15269425817E+02  0.17438707314E+02  0.51100000000E-03 0.  1.
         12    1    3    3    0    0  0.10655044935E+02 -0.30243982746E+01  0.22253428502E+02  0.24857434452E+02  0.00000000000E+00 0. -1.
</event>
<event>
 7    1  0.1442665E-008  0.4614232E+02  0.7816164E-02  0.1320468E+00
        -11   -1    0    0    0    0  0.00000000000E+00  0.00000000000E+00  0.45593999997E+02  0.45594000000E+02  0.51100000000E-03 0. -1.
         11   -1    0    0    0    0 -0.00000000000E+00 -0.00000000000E+00 -0.45593999997E+02  0.45594000000E+02  0.51100000000E-03 0.  1.
    9900012    2    1    2    0    0 -0.33502734856E+02 -0.29981603949E+02  0.27899353285E+01  0.46142316996E+02  0.99999930195E+01 0.  0.
         12    1    1    2    0    0  0.33502734856E+02  0.29981603949E+02 -0.27899353285E+01  0.45045683004E+02  0.00000000000E+00 0. -1.
         11    1    3    3    0    0 -0.18859004971E+01 -0.22181122928E+00 -0.53633362724E+00  0.19731890247E+01  0.51100000000E-03 0. -1.
        -11    1    3    3    0    0 -0.20617336859E+02 -0.22942622569E+02  0.45142248047E+01  0.31173975289E+02  0.51100000000E-03 0.  1.
        -12    1    3    3    0    0 -0.10999497500E+02 -0.68171701514E+01 -0.11879558490E+01  0.12995152682E+02  0.00000000000E+00 0.  1.
</event>
<event>
 7    1  0.1442665E-008  0.4614232E+02  0.7816164E-02  0.1320468E+00
        -11   -1    0    0    0    0  0.00000000000E+00  0.00000000000E+00  0.45593999997E+02  0.45594000000E+02  0.51100000000E-03 0.  1.
         11   -1    0    0    0    0 -0.00000000000E+00 -0.00000000000E+00 -0.45593999997E+02  0.45594000000E+02  0.51100000000E-03 0. -1.
    9900012    2    1    2    0    0  0.84717007425E+01 -0.22988120278E+02  0.37800662555E+02  0.46142317887E+02  0.10000001149E+02 0.  0.
         12    1    1    2    0    0 -0.84717007425E+01  0.22988120278E+02 -0.37800662555E+02  0.45045682113E+02  0.00000000000E+00 0. -1.
         11    1    3    3    0    0 -0.92378603991E+00 -0.39478275187E+00  0.46637513703E+01  0.47707243867E+01  0.51100000000E-03 0. -1.
        -11    1    3    3    0    0  0.73808829585E+01 -0.12867875567E+02  0.19497620596E+02  0.24499323746E+02  0.51100000000E-03 0.  1.
         12    1    3    3    0    0  0.20146038239E+01 -0.97254619594E+01  0.13639290589E+02  0.16872269754E+02  0.00000000000E+00 0. -1.
</event>
<event>
 7    1  0.1442665E-008  0.4614232E+02  0.7816164E-02  0.1320468E+00
        -11   -1    0    0    0    0  0.00000000000E+00  0.00000000000E+00  0.45593999997E+02  0.45594000000E+02  0.51100000000E-03 0.  1.
         11   -1    0    0    0    0 -0.00000000000E+00 -0.00000000000E+00 -0.45593999997E+02  0.45594000000E+02  0.51100000000E-03 0. -1.
    9900012    2    1    2    0    0  0.20907745995E+02  0.23986720398E+02  0.31884429559E+02  0.46142318227E+02  0.10000004252E+02 0.  0.
         12    1    1    2    0    0 -0.20907745995E+02 -0.23986720398E+02 -0.31884429559E+02  0.45045681773E+02  0.00000000000E+00 0. -1.
         11    1    3    3    0    0  0.22893773805E+01  0.24212936935E+01  0.87480974029E+01  0.93612563459E+01  0.51100000000E-03 0. -1.
        -11    1    3    3    0    0  0.14432912416E+02  0.15756787311E+02  0.18383837142E+02  0.28187777058E+02  0.51100000000E-03 0.  1.
         12    1    3    3    0    0  0.41854561990E+01  0.58086393930E+01  0.47524950145E+01  0.85932848233E+01  0.00000000000E+00 0. -1.
</event>
<event>
 7    1  0.1442665E-008  0.4614232E+02  0.7816164E-02  0.1320468E+00
        -11   -1    0    0    0    0  0.00000000000E+00  0.00000000000E+00  0.45593999997E+02  0.45594000000E+02  0.51100000000E-03 0.  1.
         11   -1    0    0    0    0 -0.00000000000E+00 -0.00000000000E+00 -0.45593999997E+02  0.45594000000E+02  0.51100000000E-03 0. -1.
    9900012    2    1    2    0    0  0.15008203643E+02  0.23076858743E+02  0.35655654618E+02  0.46142319938E+02  0.10000019853E+02 0.  0.
         12    1    1    2    0    0 -0.15008203643E+02 -0.23076858743E+02 -0.35655654618E+02  0.45045680062E+02  0.00000000000E+00 0. -1.
         11    1    3    3    0    0  0.13188981885E+01  0.49055095237E+00  0.51241405175E+01  0.53138450272E+01  0.51100000000E-03 0. -1.
        -11    1    3    3    0    0  0.13429115898E+02  0.21396703658E+02  0.26476673274E+02  0.36594730620E+02  0.51100000000E-03 0.  1.
        -12    1    3    3    0    0  0.26018955641E+00  0.11896041323E+01  0.40548408264E+01  0.42337442913E+01  0.00000000000E+00 0.  1.
</event>
<event>
 7    1  0.1442665E-008  0.4614232E+02  0.7816164E-02  0.1320468E+00
        -11   -1    0    0    0    0  0.00000000000E+00  0.00000000000E+00  0.45593999997E+02  0.45594000000E+02  0.51100000000E-03 0.  1.
         11   -1    0    0    0    0 -0.00000000000E+00 -0.00000000000E+00 -0.45593999997E+02  0.45594000000E+02  0.51100000000E-03 0. -1.
    9900012    2    1    2    0    0 -0.56643479620E+01 -0.35177701337E+02  0.27560079286E+02  0.46142317860E+02  0.10000000903E+02 0.  0.
         12    1    1    2    0    0  0.56643479620E+01  0.35177701337E+02 -0.27560079286E+02  0.45045682140E+02  0.00000000000E+00 0. -1.
         11    1    3    3    0    0 -0.35494655646E+01 -0.23963106591E+02  0.21253997022E+02  0.32226721412E+02  0.51100000000E-03 0. -1.
        -11    1    3    3    0    0 -0.13840290140E+01 -0.40246888692E+01  0.50093567586E+01  0.65732269246E+01  0.51100000000E-03 0.  1.
         12    1    3    3    0    0 -0.73085338339E+00 -0.71899058769E+01  0.12967255056E+01  0.73423695238E+01  0.00000000000E+00 0. -1.
</event>
<event>
 7    1  0.1442665E-008  0.4614232E+02  0.7816164E-02  0.1320468E+00
        -11   -1    0    0    0    0  0.00000000000E+00  0.00000000000E+00  0.45593999997E+02  0.45594000000E+02  0.51100000000E-03 0.  1.
         11   -1    0    0    0    0 -0.00000000000E+00 -0.00000000000E+00 -0.45593999997E+02  0.45594000000E+02  0.51100000000E-03 0. -1.
    9900012    2    1    2    0    0  0.21631305748E+02  0.30567156196E+02  0.25036952881E+02  0.46142318344E+02  0.10000005318E+02 0.  0.
         12    1    1    2    0    0 -0.21631305748E+02 -0.30567156196E+02 -0.25036952881E+02  0.45045681656E+02  0.00000000000E+00 0. -1.
         11    1    3    3    0    0  0.52514932340E+01  0.10119735018E+02  0.33233018534E+01  0.11875670655E+02  0.51100000000E-03 0. -1.
        -11    1    3    3    0    0  0.55875924780E+01  0.46742809705E+01  0.46250266936E+01  0.86290766869E+01  0.51100000000E-03 0.  1.
        -12    1    3    3    0    0  0.10792220036E+02  0.15773140207E+02  0.17088624334E+02  0.25637571003E+02  0.00000000000E+00 0.  1.
</event>
<event>
 7    1  0.1442665E-008  0.4614232E+02  0.7816164E-02  0.1320468E+00
        -11   -1    0    0    0    0  0.00000000000E+00  0.00000000000E+00  0.45593999997E+02  0.45594000000E+02  0.51100000000E-03 0. -1.
         11   -1    0    0    0    0 -0.00000000000E+00 -0.00000000000E+00 -0.45593999997E+02  0.45594000000E+02  0.51100000000E-03 0.  1.
    9900012    2    1    2    0    0 -0.38393254235E+02  0.11903927860E+01  0.23529862340E+02  0.46142318437E+02  0.10000006167E+02 0.  0.
         12    1    1    2    0    0  0.38393254235E+02 -0.11903927860E+01 -0.23529862340E+02  0.45045681563E+02  0.00000000000E+00 0. -1.
         11    1    3    3    0    0 -0.24570678743E+02  0.42345849524E+01  0.14438590565E+02  0.28811852793E+02  0.51100000000E-03 0. -1.
        -11    1    3    3    0    0 -0.78635433542E+01  0.35616067610E+00  0.43856169707E+01  0.90108712667E+01  0.51100000000E-03 0.  1.
         12    1    3    3    0    0 -0.59590321370E+01 -0.34003528425E+01  0.47056548044E+01  0.83195943772E+01  0.00000000000E+00 0. -1.
</event>
<event>
 7    1  0.1442665E-008  0.4614232E+02  0.7816164E-02  0.1320468E+00
        -11   -1    0    0    0    0  0.00000000000E+00  0.00000000000E+00  0.45593999997E+02  0.45594000000E+02  0.51100000000E-03 0.  1.
         11   -1    0    0    0    0 -0.00000000000E+00 -0.00000000000E+00 -0.45593999997E+02  0.45594000000E+02  0.51100000000E-03 0. -1.
    9900012    2    1    2    0    0  0.53063243335E+00  0.42893882355E+02  0.13745789702E+02  0.46142318200E+02  0.10000004007E+02 0.  0.
         12    1    1    2    0    0 -0.53063243335E+00 -0.42893882355E+02 -0.13745789702E+02  0.45045681800E+02  0.00000000000E+00 0. -1.
         11    1    3    3    0    0  0.58205515683E+00  0.10493089169E+02  0.10243362850E+01  0.10559023326E+02  0.51100000000E-03 0. -1.
        -11    1    3    3    0    0 -0.20628913779E+00  0.27976297340E+01  0.36850025895E+01  0.46312559509E+01  0.51100000000E-03 0.  1.
        -12    1    3    3    0    0  0.15486641431E+00  0.29603163451E+02  0.90364508279E+01  0.30952038923E+02  0.00000000000E+00 0.  1.
</event>
<event>
 7    1  0.1442665E-008  0.4614232E+02  0.7816164E-02  0.1320468E+00
        -11   -1    0    0    0    0  0.00000000000E+00  0.00000000000E+00  0.45593999997E+02  0.45594000000E+02  0.51100000000E-03 0. -1.
         11   -1    0    0    0    0 -0.00000000000E+00 -0.00000000000E+00 -0.45593999997E+02  0.45594000000E+02  0.51100000000E-03 0.  1.
    9900012    2    1    2    0    0  0.17023877079E+02  0.27971557071E+02 -0.30933690173E+02  0.46142316705E+02  0.99999903681E+01 0.  0.
         12    1    1    2    0    0 -0.17023877079E+02 -0.27971557071E+02  0.30933690173E+02  0.45045683295E+02  0.00000000000E+00 0. -1.
         11    1    3    3    0    0  0.15280354345E+01  0.32130512703E+00  0.28692459699E+00  0.15875941733E+01  0.51100000000E-03 0. -1.
        -11    1    3    3    0    0  0.12157035578E+02  0.21653720607E+02 -0.23025346613E+02  0.33865081087E+02  0.51100000000E-03 0.  1.
        -12    1    3    3    0    0  0.33388060669E+01  0.59965313378E+01 -0.81952681572E+01  0.10689641444E+02  0.00000000000E+00 0.  1.
</event>
<event>
 7    1  0.1442665E-008  0.4614231E+02  0.7816164E-02  0.1320468E+00
        -11   -1    0    0    0    0  0.00000000000E+00  0.00000000000E+00  0.45593999997E+02  0.45594000000E+02  0.51100000000E-03 0.  1.
         11   -1    0    0    0    0 -0.00000000000E+00 -0.00000000000E+00 -0.45593999997E+02  0.45594000000E+02  0.51100000000E-03 0. -1.
    9900012    2    1    2    0    0 -0.29670873517E+02  0.20173094829E+02  0.27235994440E+02  0.46142313377E+02  0.99999600187E+01 0.  0.
         12    1    1    2    0    0  0.29670873517E+02 -0.20173094829E+02 -0.27235994440E+02  0.45045686623E+02  0.00000000000E+00 0. -1.
         11    1    3    3    0    0 -0.13787478759E+02  0.84670063735E+01  0.15267712598E+02  0.22246074163E+02  0.51100000000E-03 0. -1.
        -11    1    3    3    0    0 -0.11765303767E+02  0.65929493255E+01  0.51652538557E+01  0.14441925121E+02  0.51100000000E-03 0.  1.
        -12    1    3    3    0    0 -0.41180909912E+01  0.51131391299E+01  0.68030279863E+01  0.94543140923E+01  0.00000000000E+00 0.  1.
</event>
<event>
 7    1  0.1442665E-008  0.4614232E+02  0.7816164E-02  0.1320468E+00
        -11   -1    0    0    0    0  0.00000000000E+00  0.00000000000E+00  0.45593999997E+02  0.45594000000E+02  0.51100000000E-03 0.  1.
         11   -1    0    0    0    0 -0.00000000000E+00 -0.00000000000E+00 -0.45593999997E+02  0.45594000000E+02  0.51100000000E-03 0. -1.
    9900012    2    1    2    0    0  0.15581620155E+02  0.32762717911E+01  0.42137780631E+02  0.46142318742E+02  0.10000008941E+02 0.  0.
         12    1    1    2    0    0 -0.15581620155E+02 -0.32762717911E+01 -0.42137780631E+02  0.45045681258E+02  0.00000000000E+00 0. -1.
         11    1    3    3    0    0  0.52239957386E+01 -0.21946419202E+01  0.12488948351E+02  0.13714241351E+02  0.51100000000E-03 0. -1.
        -11    1    3    3    0    0  0.63542981060E+01  0.47868740669E+00  0.11006841305E+02  0.12718364746E+02  0.51100000000E-03 0.  1.
         12    1    3    3    0    0  0.40033263105E+01  0.49922263047E+01  0.18641990975E+02  0.19709712645E+02  0.00000000000E+00 0. -1.
</event>
<event>
 7    1  0.1442665E-008  0.4614232E+02  0.7816164E-02  0.1320468E+00
        -11   -1    0    0    0    0  0.00000000000E+00  0.00000000000E+00  0.45593999997E+02  0.45594000000E+02  0.51100000000E-03 0.  1.
         11   -1    0    0    0    0 -0.00000000000E+00 -0.00000000000E+00 -0.45593999997E+02  0.45594000000E+02  0.51100000000E-03 0. -1.
    9900012    2    1    2    0    0 -0.30900549605E+02 -0.20490152517E+02  0.25581695005E+02  0.46142318349E+02  0.10000005361E+02 0.  0.
         12    1    1    2    0    0  0.30900549605E+02  0.20490152517E+02 -0.25581695005E+02  0.45045681651E+02  0.00000000000E+00 0. -1.
         11    1    3    3    0    0 -0.12138033959E+01  0.11294319751E+00  0.19686240881E+01  0.23155033818E+01  0.51100000000E-03 0. -1.
        -11    1    3    3    0    0 -0.11607527883E+02 -0.63227535095E+01  0.47313728172E+01  0.14039152556E+02  0.51100000000E-03 0.  1.
        -12    1    3    3    0    0 -0.18079218326E+02 -0.14280342205E+02  0.18881698100E+02  0.29787662411E+02  0.00000000000E+00 0.  1.
</event>
<event>
 7    1  0.1442665E-008  0.4614232E+02  0.7816164E-02  0.1320468E+00
        -11   -1    0    0    0    0  0.00000000000E+00  0.00000000000E+00  0.45593999997E+02  0.45594000000E+02  0.51100000000E-03 0.  1.
         11   -1    0    0    0    0 -0.00000000000E+00 -0.00000000000E+00 -0.45593999997E+02  0.45594000000E+02  0.51100000000E-03 0. -1.
    9900012    2    1    2    0    0 -0.54803336681E+01 -0.65213370752E+01  0.44232925094E+02  0.46142317002E+02  0.99999930807E+01 0.  0.
         12    1    1    2    0    0  0.54803336681E+01  0.65213370752E+01 -0.44232925094E+02  0.45045682998E+02  0.00000000000E+00 0. -1.
         11    1    3    3    0    0  0.64753344418E+00 -0.93277166099E+00  0.10240542609E+02  0.10303304117E+02  0.51100000000E-03 0. -1.
        -11    1    3    3    0    0 -0.77945960380E+01 -0.50064997464E+01  0.31099710232E+02  0.32450157840E+02  0.51100000000E-03 0.  1.
        -12    1    3    3    0    0  0.16667289257E+01 -0.58206566777E+00  0.28926722533E+01  0.33888550453E+01  0.00000000000E+00 0.  1.
</event>
<event>
 7    1  0.1442665E-008  0.4614231E+02  0.7816164E-02  0.1320468E+00
        -11   -1    0    0    0    0  0.00000000000E+00  0.00000000000E+00  0.45593999997E+02  0.45594000000E+02  0.51100000000E-03 0.  1.
         11   -1    0    0    0    0 -0.00000000000E+00 -0.00000000000E+00 -0.45593999997E+02  0.45594000000E+02  0.51100000000E-03 0. -1.
    9900012    2    1    2    0    0  0.76631946241E+00  0.88559649422E+01  0.44159921400E+02  0.46142311876E+02  0.99999463323E+01 0.  0.
         12    1    1    2    0    0 -0.76631946241E+00 -0.88559649422E+01 -0.44159921400E+02  0.45045688124E+02  0.00000000000E+00 0. -1.
         11    1    3    3    0    0 -0.25715808065E+01 -0.16956351838E+00  0.56629264037E+01  0.62217775069E+01  0.51100000000E-03 0. -1.
        -11    1    3    3    0    0  0.22817589127E+01  0.11737874105E+01  0.11635966327E+02  0.11915532436E+02  0.51100000000E-03 0.  1.
         12    1    3    3    0    0  0.10561413562E+01  0.78517410500E+01  0.26861028669E+02  0.28005001933E+02  0.00000000000E+00 0. -1.
</event>
<event>
 7    1  0.1442665E-008  0.4614232E+02  0.7816164E-02  0.1320468E+00
        -11   -1    0    0    0    0  0.00000000000E+00  0.00000000000E+00  0.45593999997E+02  0.45594000000E+02  0.51100000000E-03 0.  1.
         11   -1    0    0    0    0 -0.00000000000E+00 -0.00000000000E+00 -0.45593999997E+02  0.45594000000E+02  0.51100000000E-03 0. -1.
    9900012    2    1    2    0    0 -0.40118862782E+02  0.11134265670E+02  0.17193553725E+02  0.46142319712E+02  0.10000017787E+02 0.  0.
         12    1    1    2    0    0  0.40118862782E+02 -0.11134265670E+02 -0.17193553725E+02  0.45045680288E+02  0.00000000000E+00 0. -1.
         11    1    3    3    0    0 -0.25019607992E+02  0.45534288390E+01  0.14303101889E+02  0.29176929622E+02  0.51100000000E-03 0. -1.
        -11    1    3    3    0    0 -0.11510865887E+02  0.37246195332E+01  0.16207616463E+01  0.12206543028E+02  0.51100000000E-03 0.  1.
         12    1    3    3    0    0 -0.35883889039E+01  0.28562172979E+01  0.12696901898E+01  0.47588470617E+01  0.00000000000E+00 0. -1.
</event>
<event>
 7    1  0.1442665E-008  0.4614232E+02  0.7816164E-02  0.1320468E+00
        -11   -1    0    0    0    0  0.00000000000E+00  0.00000000000E+00  0.45593999997E+02  0.45594000000E+02  0.51100000000E-03 0.  1.
         11   -1    0    0    0    0 -0.00000000000E+00 -0.00000000000E+00 -0.45593999997E+02  0.45594000000E+02  0.51100000000E-03 0. -1.
    9900012    2    1    2    0    0 -0.13611162952E+02  0.62648515451E+01  0.42480600221E+02  0.46142317444E+02  0.99999971102E+01 0.  0.
         12    1    1    2    0    0  0.13611162952E+02 -0.62648515451E+01 -0.42480600221E+02  0.45045682556E+02  0.00000000000E+00 0. -1.
         11    1    3    3    0    0 -0.44761501287E+01 -0.11692354070E+01  0.17599629051E+02  0.18197526601E+02  0.51100000000E-03 0. -1.
        -11    1    3    3    0    0 -0.61592580727E+01  0.68571040036E+01  0.21564819545E+02  0.23452031418E+02  0.51100000000E-03 0.  1.
         12    1    3    3    0    0 -0.29757547503E+01  0.57698294854E+00  0.33161516247E+01  0.44927594254E+01  0.00000000000E+00 0. -1.
</event>
<event>
 7    1  0.1442665E-008  0.4614232E+02  0.7816164E-02  0.1320468E+00
        -11   -1    0    0    0    0  0.00000000000E+00  0.00000000000E+00  0.45593999997E+02  0.45594000000E+02  0.51100000000E-03 0. -1.
         11   -1    0    0    0    0 -0.00000000000E+00 -0.00000000000E+00 -0.45593999997E+02  0.45594000000E+02  0.51100000000E-03 0.  1.
    9900012    2    1    2    0    0 -0.44533579420E+02  0.67708057109E+01 -0.17287758514E+00  0.46142318824E+02  0.10000009693E+02 0.  0.
         12    1    1    2    0    0  0.44533579420E+02 -0.67708057109E+01  0.17287758514E+00  0.45045681176E+02  0.00000000000E+00 0. -1.
         11    1    3    3    0    0 -0.12582649691E+02  0.51357222668E+01  0.83985975102E+00  0.13616316724E+02  0.51100000000E-03 0. -1.
        -11    1    3    3    0    0 -0.23615242594E+02 -0.13507138871E+01 -0.57265699747E+00  0.23660770213E+02  0.51100000000E-03 0.  1.
        -12    1    3    3    0    0 -0.83356871350E+01  0.29857973312E+01 -0.44008033869E+00  0.88652318876E+01  0.00000000000E+00 0.  1.
</event>
<event>
 7    1  0.1442665E-008  0.4614232E+02  0.7816164E-02  0.1320468E+00
        -11   -1    0    0    0    0  0.00000000000E+00  0.00000000000E+00  0.45593999997E+02  0.45594000000E+02  0.51100000000E-03 0. -1.
         11   -1    0    0    0    0 -0.00000000000E+00 -0.00000000000E+00 -0.45593999997E+02  0.45594000000E+02  0.51100000000E-03 0.  1.
    9900012    2    1    2    0    0  0.17617376493E+02  0.41116609571E+02 -0.53071555491E+01  0.46142318330E+02  0.10000005188E+02 0.  0.
         12    1    1    2    0    0 -0.17617376493E+02 -0.41116609571E+02  0.53071555491E+01  0.45045681670E+02  0.00000000000E+00 0. -1.
         11    1    3    3    0    0  0.11779754217E+02  0.29189449560E+02 -0.81846739824E+01  0.32523460202E+02  0.51100000000E-03 0.  1.
        -11    1    3    3    0    0  0.42455799662E+01  0.78681846401E+01  0.21911706525E+01  0.92051348643E+01  0.51100000000E-03 0. -1.
         12    1    3    3    0    0  0.15920423105E+01  0.40589753703E+01  0.68634778073E+00  0.44137232640E+01  0.00000000000E+00 0. -1.
</event>
<event>
 7    1  0.1442665E-008  0.4614232E+02  0.7816164E-02  0.1320468E+00
        -11   -1    0    0    0    0  0.00000000000E+00  0.00000000000E+00  0.45593999997E+02  0.45594000000E+02  0.51100000000E-03 0.  1.
         11   -1    0    0    0    0 -0.00000000000E+00 -0.00000000000E+00 -0.45593999997E+02  0.45594000000E+02  0.51100000000E-03 0. -1.
    9900012    2    1    2    0    0 -0.19178963332E+02 -0.18238287040E+02  0.36450592460E+02  0.46142318306E+02  0.10000004965E+02 0.  0.
         12    1    1    2    0    0  0.19178963332E+02  0.18238287040E+02 -0.36450592460E+02  0.45045681694E+02  0.00000000000E+00 0. -1.
         11    1    3    3    0    0 -0.45909751154E+01 -0.95246892778E+01  0.14196175514E+02  0.17701077872E+02  0.51100000000E-03 0.  1.
        -11    1    3    3    0    0 -0.39357473702E+01 -0.22614203102E+01  0.27727765622E+01  0.53190618822E+01  0.51100000000E-03 0. -1.
        -12    1    3    3    0    0 -0.10652240846E+02 -0.64521774516E+01  0.19481640384E+02  0.23122178551E+02  0.00000000000E+00 0.  1.
</event>
<event>
 7    1  0.1442665E-008  0.4614232E+02  0.7816164E-02  0.1320468E+00
        -11   -1    0    0    0    0  0.00000000000E+00  0.00000000000E+00  0.45593999997E+02  0.45594000000E+02  0.51100000000E-03 0.  1.
         11   -1    0    0    0    0 -0.00000000000E+00 -0.00000000000E+00 -0.45593999997E+02  0.45594000000E+02  0.51100000000E-03 0. -1.
    9900012    2    1    2    0    0  0.11037041847E+01 -0.23129712111E+02  0.38638216043E+02  0.46142317806E+02  0.10000000414E+02 0.  0.
         12    1    1    2    0    0 -0.11037041847E+01  0.23129712111E+02 -0.38638216043E+02  0.45045682194E+02  0.00000000000E+00 0. -1.
         11    1    3    3    0    0 -0.10009936937E+01 -0.14311437054E+01  0.40044353460E+01  0.43687141565E+01  0.51100000000E-03 0. -1.
        -11    1    3    3    0    0  0.14616902625E+01 -0.21697131110E+02  0.29765734330E+02  0.36863274099E+02  0.51100000000E-03 0.  1.
        -12    1    3    3    0    0  0.64300761585E+00 -0.14372949524E-02  0.48680463679E+01  0.49103295510E+01  0.00000000000E+00 0.  1.
</event>
<event>
 7    1  0.1442665E-008  0.4614232E+02  0.7816164E-02  0.1320468E+00
        -11   -1    0    0    0    0  0.00000000000E+00  0.00000000000E+00  0.45593999997E+02  0.45594000000E+02  0.51100000000E-03 0.  1.
         11   -1    0    0    0    0 -0.00000000000E+00 -0.00000000000E+00 -0.45593999997E+02  0.45594000000E+02  0.51100000000E-03 0. -1.
    9900012    2    1    2    0    0  0.21273521180E+02  0.18006590597E+02  0.35388033879E+02  0.46142323736E+02  0.10000054481E+02 0.  0.
         12    1    1    2    0    0 -0.21273521180E+02 -0.18006590597E+02 -0.35388033879E+02  0.45045676264E+02  0.00000000000E+00 0. -1.
         11    1    3    3    0    0 -0.17593818317E+00  0.13242557062E+01  0.22396971072E+01  0.26078440929E+01  0.51100000000E-03 0. -1.
        -11    1    3    3    0    0  0.49096617518E+01  0.71973723824E+01  0.70175093497E+01  0.11187152697E+02  0.51100000000E-03 0.  1.
         12    1    3    3    0    0  0.16539797611E+02  0.94849625081E+01  0.26130827422E+02  0.32347326946E+02  0.00000000000E+00 0. -1.
</event>
<event>
 7    1  0.1442665E-008  0.4614232E+02  0.7816164E-02  0.1320468E+00
        -11   -1    0    0    0    0  0.00000000000E+00  0.00000000000E+00  0.45593999997E+02  0.45594000000E+02  0.51100000000E-03 0.  1.
         11   -1    0    0    0    0 -0.00000000000E+00 -0.00000000000E+00 -0.45593999997E+02  0.45594000000E+02  0.51100000000E-03 0. -1.
    9900012    2    1    2    0    0  0.81681494243E+01 -0.50209804536E+01  0.44013457324E+02  0.46142319460E+02  0.10000015488E+02 0.  0.
         12    1    1    2    0    0 -0.81681494243E+01  0.50209804536E+01 -0.44013457324E+02  0.45045680540E+02  0.00000000000E+00 0. -1.
         11    1    3    3    0    0  0.74034806203E+00 -0.46026177876E+01  0.79018887736E+01  0.91745328057E+01  0.51100000000E-03 0. -1.
        -11    1    3    3    0    0  0.65984348098E+01  0.22448816927E+00  0.26977588794E+02  0.27773729211E+02  0.51100000000E-03 0.  1.
         12    1    3    3    0    0  0.82936655248E+00 -0.64285083531E+00  0.91339797567E+01  0.91940574433E+01  0.00000000000E+00 0. -1.
</event>
<event>
 7    1  0.1442665E-008  0.4614232E+02  0.7816164E-02  0.1320468E+00
        -11   -1    0    0    0    0  0.00000000000E+00  0.00000000000E+00  0.45593999997E+02  0.45594000000E+02  0.51100000000E-03 0.  1.
         11   -1    0    0    0    0 -0.00000000000E+00 -0.00000000000E+00 -0.45593999997E+02  0.45594000000E+02  0.51100000000E-03 0. -1.
    9900012    2    1    2    0    0 -0.44926490575E+02  0.39329223228E+00  0.32510452773E+01  0.46142317304E+02  0.99999958335E+01 0.  0.
         12    1    1    2    0    0  0.44926490575E+02 -0.39329223228E+00 -0.32510452773E+01  0.45045682696E+02  0.00000000000E+00 0. -1.
         11    1    3    3    0    0 -0.11651576627E+02  0.36985040779E+01  0.22485999465E+01  0.12429576513E+02  0.51100000000E-03 0. -1.
        -11    1    3    3    0    0 -0.31854846011E+02 -0.24663323101E+01  0.15135997715E+01  0.31986012474E+02  0.51100000000E-03 0.  1.
        -12    1    3    3    0    0 -0.14200679363E+01 -0.83887953552E+00 -0.51115444062E+00  0.17267283171E+01  0.00000000000E+00 0.  1.
</event>
<event>
 7    1  0.1442665E-008  0.4614232E+02  0.7816164E-02  0.1320468E+00
        -11   -1    0    0    0    0  0.00000000000E+00  0.00000000000E+00  0.45593999997E+02  0.45594000000E+02  0.51100000000E-03 0.  1.
         11   -1    0    0    0    0 -0.00000000000E+00 -0.00000000000E+00 -0.45593999997E+02  0.45594000000E+02  0.51100000000E-03 0. -1.
    9900012    2    1    2    0    0 -0.25929853669E+02  0.23126944119E+02  0.28668808906E+02  0.46142318080E+02  0.10000002905E+02 0.  0.
         12    1    1    2    0    0  0.25929853669E+02 -0.23126944119E+02 -0.28668808906E+02  0.45045681920E+02  0.00000000000E+00 0. -1.
         11    1    3    3    0    0 -0.16351819565E+02  0.15128482924E+02  0.13298210443E+02  0.25944082175E+02  0.51100000000E-03 0. -1.
        -11    1    3    3    0    0 -0.36828045664E+01  0.23560065750E+01  0.83848198105E+01  0.94561630681E+01  0.51100000000E-03 0.  1.
         12    1    3    3    0    0 -0.58952295382E+01  0.56424546208E+01  0.69857786518E+01  0.10742072837E+02  0.00000000000E+00 0. -1.
</event>
<event>
 7    1  0.1442665E-008  0.4614232E+02  0.7816164E-02  0.1320468E+00
        -11   -1    0    0    0    0  0.00000000000E+00  0.00000000000E+00  0.45593999997E+02  0.45594000000E+02  0.51100000000E-03 0.  1.
         11   -1    0    0    0    0 -0.00000000000E+00 -0.00000000000E+00 -0.45593999997E+02  0.45594000000E+02  0.51100000000E-03 0. -1.
    9900012    2    1    2    0    0  0.21036777408E+02  0.17257631548E+02  0.35899048451E+02  0.46142317299E+02  0.99999957833E+01 0.  0.
         12    1    1    2    0    0 -0.21036777408E+02 -0.17257631548E+02 -0.35899048451E+02  0.45045682701E+02  0.00000000000E+00 0. -1.
         11    1    3    3    0    0  0.31179824326E+01  0.14690634939E+01  0.16690604646E+01  0.38295854991E+01  0.51100000000E-03 0. -1.
        -11    1    3    3    0    0  0.17698964019E+02  0.16074674315E+02  0.31434231375E+02  0.39493789183E+02  0.51100000000E-03 0.  1.
        -12    1    3    3    0    0  0.21983095640E+00 -0.28610626143E+00  0.27957566117E+01  0.28189426163E+01  0.00000000000E+00 0.  1.
</event>
<event>
 7    1  0.1442665E-008  0.4614232E+02  0.7816164E-02  0.1320468E+00
        -11   -1    0    0    0    0  0.00000000000E+00  0.00000000000E+00  0.45593999997E+02  0.45594000000E+02  0.51100000000E-03 0.  1.
         11   -1    0    0    0    0 -0.00000000000E+00 -0.00000000000E+00 -0.45593999997E+02  0.45594000000E+02  0.51100000000E-03 0. -1.
    9900012    2    1    2    0    0 -0.47144896944E+01 -0.29952137939E+01  0.44698051242E+02  0.46142317592E+02  0.99999984585E+01 0.  0.
         12    1    1    2    0    0  0.47144896944E+01  0.29952137939E+01 -0.44698051242E+02  0.45045682408E+02  0.00000000000E+00 0. -1.
         11    1    3    3    0    0  0.15356920209E+01 -0.24663894090E+01  0.14640420064E+02  0.14925927998E+02  0.51100000000E-03 0. -1.
        -11    1    3    3    0    0 -0.44945265803E+01 -0.27580984990E+00  0.28506759978E+02  0.28860218380E+02  0.51100000000E-03 0.  1.
        -12    1    3    3    0    0 -0.17556551350E+01 -0.25301453506E+00  0.15508712005E+01  0.23561712138E+01  0.00000000000E+00 0.  1.
</event>
<event>
 7    1  0.1442665E-008  0.4614232E+02  0.7816164E-02  0.1320468E+00
        -11   -1    0    0    0    0  0.00000000000E+00  0.00000000000E+00  0.45593999997E+02  0.45594000000E+02  0.51100000000E-03 0.  1.
         11   -1    0    0    0    0 -0.00000000000E+00 -0.00000000000E+00 -0.45593999997E+02  0.45594000000E+02  0.51100000000E-03 0. -1.
    9900012    2    1    2    0    0  0.27561669965E+01  0.13764472199E+02  0.42802526311E+02  0.46142318631E+02  0.10000007931E+02 0.  0.
         12    1    1    2    0    0 -0.27561669965E+01 -0.13764472199E+02 -0.42802526311E+02  0.45045681369E+02  0.00000000000E+00 0. -1.
         11    1    3    3    0    0  0.46228161273E+01  0.84478550643E+01  0.30360694565E+02  0.31851349405E+02  0.51100000000E-03 0. -1.
        -11    1    3    3    0    0 -0.19780334087E+01  0.17255493601E+01  0.21596089202E+01  0.33991245505E+01  0.51100000000E-03 0.  1.
        -12    1    3    3    0    0  0.11138427784E+00  0.35910677751E+01  0.10282222825E+02  0.10891844676E+02  0.00000000000E+00 0.  1.
</event>
<event>
 7    1  0.1442665E-008  0.4614232E+02  0.7816164E-02  0.1320468E+00
        -11   -1    0    0    0    0  0.00000000000E+00  0.00000000000E+00  0.45593999997E+02  0.45594000000E+02  0.51100000000E-03 0.  1.
         11   -1    0    0    0    0 -0.00000000000E+00 -0.00000000000E+00 -0.45593999997E+02  0.45594000000E+02  0.51100000000E-03 0. -1.
    9900012    2    1    2    0    0 -0.17867746388E+02  0.98728540888E+01  0.40154501403E+02  0.46142316613E+02  0.99999895312E+01 0.  0.
         12    1    1    2    0    0  0.17867746388E+02 -0.98728540888E+01 -0.40154501403E+02  0.45045683387E+02  0.00000000000E+00 0. -1.
         11    1    3    3    0    0  0.62995303571E+00  0.44605157024E+00  0.89585226690E-01  0.77706409290E+00  0.51100000000E-03 0. -1.
        -11    1    3    3    0    0 -0.16719999952E+02  0.78163090771E+01  0.37804032963E+02  0.42068967119E+02  0.51100000000E-03 0.  1.
         12    1    3    3    0    0 -0.17776994716E+01  0.16104934415E+01  0.22608832141E+01  0.32962854009E+01  0.00000000000E+00 0. -1.
</event>
<event>
 7    1  0.1442665E-008  0.4614231E+02  0.7816164E-02  0.1320468E+00
        -11   -1    0    0    0    0  0.00000000000E+00  0.00000000000E+00  0.45593999997E+02  0.45594000000E+02  0.51100000000E-03 0.  1.
         11   -1    0    0    0    0 -0.00000000000E+00 -0.00000000000E+00 -0.45593999997E+02  0.45594000000E+02  0.51100000000E-03 0. -1.
    9900012    2    1    2    0    0 -0.32216140458E+02 -0.32115735780E+01  0.31319647503E+02  0.46142309523E+02  0.99999248757E+01 0.  0.
         12    1    1    2    0    0  0.32216140458E+02  0.32115735780E+01 -0.31319647503E+02  0.45045690477E+02  0.00000000000E+00 0. -1.
         11    1    3    3    0    0 -0.11267696101E+02 -0.38550692248E+01  0.89112140066E+01  0.14873878764E+02  0.51100000000E-03 0. -1.
        -11    1    3    3    0    0 -0.18187443107E+02  0.18203583972E+01  0.21303384159E+02  0.28070108093E+02  0.51100000000E-03 0.  1.
        -12    1    3    3    0    0 -0.27610012505E+01 -0.11768627503E+01  0.11050493374E+01  0.31983226661E+01  0.00000000000E+00 0.  1.
</event>
<event>
 7    1  0.1442665E-008  0.4614232E+02  0.7816164E-02  0.1320468E+00
        -11   -1    0    0    0    0  0.00000000000E+00  0.00000000000E+00  0.45593999997E+02  0.45594000000E+02  0.51100000000E-03 0.  1.
         11   -1    0    0    0    0 -0.00000000000E+00 -0.00000000000E+00 -0.45593999997E+02  0.45594000000E+02  0.51100000000E-03 0. -1.
    9900012    2    1    2    0    0 -0.29952380079E+02  0.22403824441E+02  0.25100538809E+02  0.46142317960E+02  0.10000001811E+02 0.  0.
         12    1    1    2    0    0  0.29952380079E+02 -0.22403824441E+02 -0.25100538809E+02  0.45045682040E+02  0.00000000000E+00 0. -1.
         11    1    3    3    0    0 -0.23252507755E+02  0.15842863717E+02  0.16577695877E+02  0.32657241900E+02  0.51100000000E-03 0. -1.
        -11    1    3    3    0    0 -0.68690663352E+01  0.55992338674E+01  0.57971212802E+01  0.10589717070E+02  0.51100000000E-03 0.  1.
         12    1    3    3    0    0  0.16919401096E+00  0.96172685647E+00  0.27257216520E+01  0.28953589905E+01  0.00000000000E+00 0. -1.
</event>
<event>
 7    1  0.1442665E-008  0.4614232E+02  0.7816164E-02  0.1320468E+00
        -11   -1    0    0    0    0  0.00000000000E+00  0.00000000000E+00  0.45593999997E+02  0.45594000000E+02  0.51100000000E-03 0.  1.
         11   -1    0    0    0    0 -0.00000000000E+00 -0.00000000000E+00 -0.45593999997E+02  0.45594000000E+02  0.51100000000E-03 0. -1.
    9900012    2    1    2    0    0  0.27817027877E+02 -0.53280399219E+01  0.35027681356E+02  0.46142317516E+02  0.99999977610E+01 0.  0.
         12    1    1    2    0    0 -0.27817027877E+02  0.53280399219E+01 -0.35027681356E+02  0.45045682484E+02  0.00000000000E+00 0. -1.
         11    1    3    3    0    0  0.12867029538E+02  0.23430737869E+01  0.14097327913E+02  0.19229797150E+02  0.51100000000E-03 0. -1.
        -11    1    3    3    0    0  0.73105358704E+01 -0.46810214948E+01  0.11599496216E+02  0.14488071289E+02  0.51100000000E-03 0.  1.
         12    1    3    3    0    0  0.76394624684E+01 -0.29900922140E+01  0.93308572274E+01  0.12424449076E+02  0.00000000000E+00 0. -1.
</event>
<event>
 7    1  0.1442665E-008  0.4614232E+02  0.7816164E-02  0.1320468E+00
        -11   -1    0    0    0    0  0.00000000000E+00  0.00000000000E+00  0.45593999997E+02  0.45594000000E+02  0.51100000000E-03 0.  1.
         11   -1    0    0    0    0 -0.00000000000E+00 -0.00000000000E+00 -0.45593999997E+02  0.45594000000E+02  0.51100000000E-03 0. -1.
    9900012    2    1    2    0    0 -0.37916831445E+02 -0.20071065000E+02  0.13732430468E+02  0.46142318702E+02  0.10000008582E+02 0.  0.
         12    1    1    2    0    0  0.37916831445E+02  0.20071065000E+02 -0.13732430468E+02  0.45045681298E+02  0.00000000000E+00 0. -1.
         11    1    3    3    0    0 -0.65053280172E+01 -0.47527060756E+01 -0.40845468639E+00  0.80668669968E+01  0.51100000000E-03 0. -1.
        -11    1    3    3    0    0 -0.27285005305E+02 -0.11718179714E+02  0.13291021585E+02  0.32533651891E+02  0.51100000000E-03 0.  1.
        -12    1    3    3    0    0 -0.41264981222E+01 -0.36001792103E+01  0.84986356888E+00  0.55417998146E+01  0.00000000000E+00 0.  1.
</event>
<event>
 7    1  0.1442665E-008  0.4614232E+02  0.7816164E-02  0.1320468E+00
        -11   -1    0    0    0    0  0.00000000000E+00  0.00000000000E+00  0.45593999997E+02  0.45594000000E+02  0.51100000000E-03 0.  1.
         11   -1    0    0    0    0 -0.00000000000E+00 -0.00000000000E+00 -0.45593999997E+02  0.45594000000E+02  0.51100000000E-03 0. -1.
    9900012    2    1    2    0    0 -0.15684279121E+02 -0.40328308211E+02  0.12519761380E+02  0.46142317857E+02  0.10000000876E+02 0.  0.
         12    1    1    2    0    0  0.15684279121E+02  0.40328308211E+02 -0.12519761380E+02  0.45045682143E+02  0.00000000000E+00 0. -1.
         11    1    3    3    0    0 -0.90907393768E+01 -0.14739778590E+02  0.13742260109E+01  0.17372136100E+02  0.51100000000E-03 0. -1.
        -11    1    3    3    0    0 -0.37904674161E+01 -0.10228443758E+02  0.44272553636E+01  0.11772395477E+02  0.51100000000E-03 0.  1.
         12    1    3    3    0    0 -0.28030723283E+01 -0.15360085863E+02  0.67182800057E+01  0.16997786280E+02  0.00000000000E+00 0. -1.
</event>
<event>
 7    1  0.1442665E-008  0.4614232E+02  0.7816164E-02  0.1320468E+00
        -11   -1    0    0    0    0  0.00000000000E+00  0.00000000000E+00  0.45593999997E+02  0.45594000000E+02  0.51100000000E-03 0. -1.
         11   -1    0    0    0    0 -0.00000000000E+00 -0.00000000000E+00 -0.45593999997E+02  0.45594000000E+02  0.51100000000E-03 0.  1.
    9900012    2    1    2    0    0  0.82710198487E+01 -0.43747090345E+02 -0.68480530140E+01  0.46142317487E+02  0.99999975000E+01 0.  0.
         12    1    1    2    0    0 -0.82710198487E+01  0.43747090345E+02  0.68480530140E+01  0.45045682513E+02  0.00000000000E+00 0. -1.
         11    1    3    3    0    0 -0.16625192532E+01 -0.16016738793E+01 -0.21180189825E+00  0.23182298825E+01  0.51100000000E-03 0. -1.
        -11    1    3    3    0    0  0.64362733878E+01 -0.29742754536E+02 -0.48123599808E+01  0.30809347143E+02  0.51100000000E-03 0.  1.
         12    1    3    3    0    0  0.34972657141E+01 -0.12402661929E+02 -0.18238911349E+01  0.13014740461E+02  0.00000000000E+00 0. -1.
</event>
<event>
 7    1  0.1442665E-008  0.4614232E+02  0.7816164E-02  0.1320468E+00
        -11   -1    0    0    0    0  0.00000000000E+00  0.00000000000E+00  0.45593999997E+02  0.45594000000E+02  0.51100000000E-03 0.  1.
         11   -1    0    0    0    0 -0.00000000000E+00 -0.00000000000E+00 -0.45593999997E+02  0.45594000000E+02  0.51100000000E-03 0. -1.
    9900012    2    1    2    0    0 -0.32646444225E+02 -0.23009405628E+02  0.20830034119E+02  0.46142318861E+02  0.10000010026E+02 0.  0.
         12    1    1    2    0    0  0.32646444225E+02  0.23009405628E+02 -0.20830034119E+02  0.45045681139E+02  0.00000000000E+00 0. -1.
         11    1    3    3    0    0 -0.14457387276E+02 -0.51321625255E+01  0.61820738714E+01  0.16540047662E+02  0.51100000000E-03 0. -1.
        -11    1    3    3    0    0 -0.15474909458E+02 -0.15595257430E+02  0.11216014676E+02  0.24667465669E+02  0.51100000000E-03 0.  1.
         12    1    3    3    0    0 -0.27141474906E+01 -0.22819856725E+01  0.34319455716E+01  0.49348055298E+01  0.00000000000E+00 0. -1.
</event>
<event>
 7    1  0.1442665E-008  0.4614232E+02  0.7816164E-02  0.1320468E+00
        -11   -1    0    0    0    0  0.00000000000E+00  0.00000000000E+00  0.45593999997E+02  0.45594000000E+02  0.51100000000E-03 0.  1.
         11   -1    0    0    0    0 -0.00000000000E+00 -0.00000000000E+00 -0.45593999997E+02  0.45594000000E+02  0.51100000000E-03 0. -1.
    9900012    2    1    2    0    0 -0.28470892179E+02 -0.14398051185E+02  0.31799652483E+02  0.46142317883E+02  0.10000001111E+02 0.  0.
         12    1    1    2    0    0  0.28470892179E+02  0.14398051185E+02 -0.31799652483E+02  0.45045682117E+02  0.00000000000E+00 0. -1.
         11    1    3    3    0    0 -0.18422386416E+02 -0.94466848706E+01  0.24761573433E+02  0.32276302382E+02  0.51100000000E-03 0. -1.
        -11    1    3    3    0    0 -0.73513694786E+01 -0.52096172521E+01  0.41957255048E+01  0.99391578062E+01  0.51100000000E-03 0.  1.
         12    1    3    3    0    0 -0.26971362840E+01  0.25825093790E+00  0.28423535444E+01  0.39268576945E+01  0.00000000000E+00 0. -1.
</event>
<event>
 7    1  0.1442665E-008  0.4614232E+02  0.7816164E-02  0.1320468E+00
        -11   -1    0    0    0    0  0.00000000000E+00  0.00000000000E+00  0.45593999997E+02  0.45594000000E+02  0.51100000000E-03 0.  1.
         11   -1    0    0    0    0 -0.00000000000E+00 -0.00000000000E+00 -0.45593999997E+02  0.45594000000E+02  0.51100000000E-03 0. -1.
    9900012    2    1    2    0    0 -0.13580610043E+02  0.38901677221E+02 -0.18202748529E+02  0.46142317480E+02  0.99999974325E+01 0.  0.
         12    1    1    2    0    0  0.13580610043E+02 -0.38901677221E+02  0.18202748529E+02  0.45045682520E+02  0.00000000000E+00 0. -1.
         11    1    3    3    0    0 -0.73672534738E+00  0.76171932387E+00  0.78772662731E+00  0.13204143540E+01  0.51100000000E-03 0. -1.
        -11    1    3    3    0    0 -0.53643331802E+01  0.19659209484E+02 -0.69462487615E+01  0.21529304682E+02  0.51100000000E-03 0.  1.
         12    1    3    3    0    0 -0.74795515151E+01  0.18480748413E+02 -0.12044226395E+02  0.23292598443E+02  0.00000000000E+00 0. -1.
</event>
<event>
 7    1  0.1442665E-008  0.4614232E+02  0.7816164E-02  0.1320468E+00
        -11   -1    0    0    0    0  0.00000000000E+00  0.00000000000E+00  0.45593999997E+02  0.45594000000E+02  0.51100000000E-03 0.  1.
         11   -1    0    0    0    0 -0.00000000000E+00 -0.00000000000E+00 -0.45593999997E+02  0.45594000000E+02  0.51100000000E-03 0. -1.
    9900012    2    1    2    0    0  0.64048443785E+01 -0.19259547697E+02  0.40213943381E+02  0.46142318173E+02  0.10000003759E+02 0.  0.
         12    1    1    2    0    0 -0.64048443785E+01  0.19259547697E+02 -0.40213943381E+02  0.45045681827E+02  0.00000000000E+00 0. -1.
         11    1    3    3    0    0  0.60967746913E+01 -0.58092766232E+01  0.15286019178E+02  0.17452241663E+02  0.51100000000E-03 0. -1.
        -11    1    3    3    0    0  0.20848963365E+01 -0.33523986449E+01  0.67186471012E+01  0.77926624808E+01  0.51100000000E-03 0.  1.
         12    1    3    3    0    0 -0.17768266493E+01 -0.10097872429E+02  0.18209277102E+02  0.20897414029E+02  0.00000000000E+00 0. -1.
</event>
<event>
 7    1  0.1442665E-008  0.4614232E+02  0.7816164E-02  0.1320468E+00
        -11   -1    0    0    0    0  0.00000000000E+00  0.00000000000E+00  0.45593999997E+02  0.45594000000E+02  0.51100000000E-03 0.  1.
         11   -1    0    0    0    0 -0.00000000000E+00 -0.00000000000E+00 -0.45593999997E+02  0.45594000000E+02  0.51100000000E-03 0. -1.
    9900012    2    1    2    0    0 -0.12197143380E+02 -0.23496171449E+02  0.36445481174E+02  0.46142317883E+02  0.10000001111E+02 0.  0.
         12    1    1    2    0    0  0.12197143380E+02  0.23496171449E+02 -0.36445481174E+02  0.45045682117E+02  0.00000000000E+00 0. -1.
         11    1    3    3    0    0 -0.47790712875E+00  0.44562900492E-01  0.19371961100E+00  0.51759890322E+00  0.51100000000E-03 0. -1.
        -11    1    3    3    0    0 -0.17902627138E+01 -0.11855746348E+02  0.19698907496E+02  0.23061021635E+02  0.51100000000E-03 0.  1.
        -12    1    3    3    0    0 -0.99289735379E+01 -0.11684988001E+02  0.16552854067E+02  0.22563697345E+02  0.00000000000E+00 0.  1.
</event>
<event>
 7    1  0.1442665E-008  0.4614232E+02  0.7816164E-02  0.1320468E+00
        -11   -1    0    0    0    0  0.00000000000E+00  0.00000000000E+00  0.45593999997E+02  0.45594000000E+02  0.51100000000E-03 0.  1.
         11   -1    0    0    0    0 -0.00000000000E+00 -0.00000000000E+00 -0.45593999997E+02  0.45594000000E+02  0.51100000000E-03 0. -1.
    9900012    2    1    2    0    0  0.25080920017E+02  0.19672513871E+02  0.31828496268E+02  0.46142317349E+02  0.99999962383E+01 0.  0.
         12    1    1    2    0    0 -0.25080920017E+02 -0.19672513871E+02 -0.31828496268E+02  0.45045682651E+02  0.00000000000E+00 0. -1.
         11    1    3    3    0    0  0.11171755175E+02  0.14347847459E+02  0.16272629951E+02  0.24402199208E+02  0.51100000000E-03 0. -1.
        -11    1    3    3    0    0  0.38470603413E+01  0.10517715995E+00  0.37474857603E+01  0.53716464226E+01  0.51100000000E-03 0.  1.
         12    1    3    3    0    0  0.10062104501E+02  0.52194892519E+01  0.11808380556E+02  0.16368471718E+02  0.00000000000E+00 0. -1.
</event>
<event>
 7    1  0.1442665E-008  0.4614232E+02  0.7816164E-02  0.1320468E+00
        -11   -1    0    0    0    0  0.00000000000E+00  0.00000000000E+00  0.45593999997E+02  0.45594000000E+02  0.51100000000E-03 0.  1.
         11   -1    0    0    0    0 -0.00000000000E+00 -0.00000000000E+00 -0.45593999997E+02  0.45594000000E+02  0.51100000000E-03 0. -1.
    9900012    2    1    2    0    0  0.38112716186E+02 -0.15124631921E+01  0.23963447073E+02  0.46142317903E+02  0.10000001294E+02 0.  0.
         12    1    1    2    0    0 -0.38112716186E+02  0.15124631921E+01 -0.23963447073E+02  0.45045682097E+02  0.00000000000E+00 0. -1.
         11    1    3    3    0    0  0.12929997511E+02  0.21532403893E+01  0.65261499634E+01  0.14642810980E+02  0.51100000000E-03 0. -1.
        -11    1    3    3    0    0  0.61932862608E+01 -0.30060516891E+01  0.70116145591E+01  0.98262851807E+01  0.51100000000E-03 0.  1.
        -12    1    3    3    0    0  0.18989432414E+02 -0.65965189230E+00  0.10425682551E+02  0.21673221742E+02  0.00000000000E+00 0.  1.
</event>
<event>
 7    1  0.1442665E-008  0.4614232E+02  0.7816164E-02  0.1320468E+00
        -11   -1    0    0    0    0  0.00000000000E+00  0.00000000000E+00  0.45593999997E+02  0.45594000000E+02  0.51100000000E-03 0.  1.
         11   -1    0    0    0    0 -0.00000000000E+00 -0.00000000000E+00 -0.45593999997E+02  0.45594000000E+02  0.51100000000E-03 0. -1.
    9900012    2    1    2    0    0 -0.38347046820E+02 -0.90078618867E+01  0.21851227222E+02  0.46142315338E+02  0.99999779035E+01 0.  0.
         12    1    1    2    0    0  0.38347046820E+02  0.90078618867E+01 -0.21851227222E+02  0.45045684662E+02  0.00000000000E+00 0. -1.
         11    1    3    3    0    0 -0.22948000237E+02 -0.44176066756E+01  0.12562831079E+02  0.26532069060E+02  0.51100000000E-03 0.  1.
        -11    1    3    3    0    0 -0.83491864684E+00 -0.31871519329E+00 -0.94837592677E+00  0.13031061664E+01  0.51100000000E-03 0. -1.
         12    1    3    3    0    0 -0.14564127936E+02 -0.42715400178E+01  0.10236772070E+02  0.18307140112E+02  0.00000000000E+00 0. -1.
</event>
<event>
 7    1  0.1442665E-008  0.4614233E+02  0.7816164E-02  0.1320468E+00
        -11   -1    0    0    0    0  0.00000000000E+00  0.00000000000E+00  0.45593999997E+02  0.45594000000E+02  0.51100000000E-03 0.  1.
         11   -1    0    0    0    0 -0.00000000000E+00 -0.00000000000E+00 -0.45593999997E+02  0.45594000000E+02  0.51100000000E-03 0. -1.
    9900012    2    1    2    0    0  0.10498119414E+02 -0.42781514914E+02 -0.94150941806E+01  0.46142328421E+02  0.10000097203E+02 0.  0.
         12    1    1    2    0    0 -0.10498119414E+02  0.42781514914E+02  0.94150941806E+01  0.45045671579E+02  0.00000000000E+00 0. -1.
         11    1    3    3    0    0  0.84434898514E+00 -0.21871335812E+01  0.14258541599E+01  0.27440005206E+01  0.51100000000E-03 0. -1.
        -11    1    3    3    0    0  0.86429312327E+01 -0.34053658597E+02 -0.72684685844E+01  0.35877326544E+02  0.51100000000E-03 0.  1.
        -12    1    3    3    0    0  0.10108391960E+01 -0.65407227365E+01 -0.35724797561E+01  0.75210013565E+01  0.00000000000E+00 0.  1.
</event>
<event>
 7    1  0.1442665E-008  0.4614232E+02  0.7816164E-02  0.1320468E+00
        -11   -1    0    0    0    0  0.00000000000E+00  0.00000000000E+00  0.45593999997E+02  0.45594000000E+02  0.51100000000E-03 0.  1.
         11   -1    0    0    0    0 -0.00000000000E+00 -0.00000000000E+00 -0.45593999997E+02  0.45594000000E+02  0.51100000000E-03 0. -1.
    9900012    2    1    2    0    0 -0.59923467429E+01  0.24163178001E+02  0.37541259339E+02  0.46142317151E+02  0.99999944365E+01 0.  0.
         12    1    1    2    0    0  0.59923467429E+01 -0.24163178001E+02 -0.37541259339E+02  0.45045682849E+02  0.00000000000E+00 0. -1.
         11    1    3    3    0    0  0.14320613951E+01  0.55447032259E+00  0.14087306388E+01  0.20839288500E+01  0.51100000000E-03 0. -1.
        -11    1    3    3    0    0 -0.74334272557E+01  0.21006628655E+02  0.29782144234E+02  0.37195569678E+02  0.51100000000E-03 0.  1.
        -12    1    3    3    0    0  0.90191176442E-02  0.26020790227E+01  0.63503844663E+01  0.68628186231E+01  0.00000000000E+00 0.  1.
</event>
<event>
 7    1  0.1442665E-008  0.4614232E+02  0.7816164E-02  0.1320468E+00
        -11   -1    0    0    0    0  0.00000000000E+00  0.00000000000E+00  0.45593999997E+02  0.45594000000E+02  0.51100000000E-03 0. -1.
         11   -1    0    0    0    0 -0.00000000000E+00 -0.00000000000E+00 -0.45593999997E+02  0.45594000000E+02  0.51100000000E-03 0.  1.
    9900012    2    1    2    0    0 -0.16637340659E+02  0.41522995087E+02 -0.53059611898E+01  0.46142318194E+02  0.10000003951E+02 0.  0.
         12    1    1    2    0    0  0.16637340659E+02 -0.41522995087E+02  0.53059611898E+01  0.45045681806E+02  0.00000000000E+00 0. -1.
         11    1    3    3    0    0  0.31873243120E+00  0.37620988717E+01 -0.23158202492E+01  0.44292213730E+01  0.51100000000E-03 0. -1.
        -11    1    3    3    0    0 -0.13696644209E+02  0.25827166246E+02 -0.22121239504E+01  0.29317811506E+02  0.51100000000E-03 0.  1.
         12    1    3    3    0    0 -0.32594288813E+01  0.11933729969E+02 -0.77801699025E+00  0.12395285315E+02  0.00000000000E+00 0. -1.
</event>
<event>
 7    1  0.1442665E-008  0.4614232E+02  0.7816164E-02  0.1320468E+00
        -11   -1    0    0    0    0  0.00000000000E+00  0.00000000000E+00  0.45593999997E+02  0.45594000000E+02  0.51100000000E-03 0.  1.
         11   -1    0    0    0    0 -0.00000000000E+00 -0.00000000000E+00 -0.45593999997E+02  0.45594000000E+02  0.51100000000E-03 0. -1.
    9900012    2    1    2    0    0  0.29706504893E+02 -0.40602188603E+01  0.33617726629E+02  0.46142319254E+02  0.10000013614E+02 0.  0.
         12    1    1    2    0    0 -0.29706504893E+02  0.40602188603E+01 -0.33617726629E+02  0.45045680746E+02  0.00000000000E+00 0. -1.
         11    1    3    3    0    0  0.21940109515E+01 -0.14992733989E+01  0.23092061185E+01  0.35205025123E+01  0.51100000000E-03 0. -1.
        -11    1    3    3    0    0  0.16807388933E+02 -0.57023785024E+01  0.18539008009E+02  0.25665156566E+02  0.51100000000E-03 0.  1.
        -12    1    3    3    0    0  0.10705105009E+02  0.31414330411E+01  0.12769512501E+02  0.16956660176E+02  0.00000000000E+00 0.  1.
</event>
<event>
 7    1  0.1442665E-008  0.4614232E+02  0.7816164E-02  0.1320468E+00
        -11   -1    0    0    0    0  0.00000000000E+00  0.00000000000E+00  0.45593999997E+02  0.45594000000E+02  0.51100000000E-03 0.  1.
         11   -1    0    0    0    0 -0.00000000000E+00 -0.00000000000E+00 -0.45593999997E+02  0.45594000000E+02  0.51100000000E-03 0. -1.
    9900012    2    1    2    0    0  0.11951973138E+02 -0.39955003383E+02  0.17025316850E+02  0.46142319063E+02  0.10000011868E+02 0.  0.
         12    1    1    2    0    0 -0.11951973138E+02  0.39955003383E+02 -0.17025316850E+02  0.45045680937E+02  0.00000000000E+00 0. -1.
         11    1    3    3    0    0  0.21278717440E+01 -0.14162789222E+02  0.61465100138E+01  0.15584993497E+02  0.51100000000E-03 0. -1.
        -11    1    3    3    0    0  0.72419108816E+01 -0.24345498110E+02  0.10788726697E+02  0.27596107976E+02  0.51100000000E-03 0.  1.
         12    1    3    3    0    0  0.25821905127E+01 -0.14467160514E+01  0.90080139796E-01  0.29612175889E+01  0.00000000000E+00 0. -1.
</event>
<event>
 7    1  0.1442665E-008  0.4614232E+02  0.7816164E-02  0.1320468E+00
        -11   -1    0    0    0    0  0.00000000000E+00  0.00000000000E+00  0.45593999997E+02  0.45594000000E+02  0.51100000000E-03 0. -1.
         11   -1    0    0    0    0 -0.00000000000E+00 -0.00000000000E+00 -0.45593999997E+02  0.45594000000E+02  0.51100000000E-03 0.  1.
    9900012    2    1    2    0    0 -0.33275340013E+02  0.25327382454E+02 -0.16744819248E+02  0.46142317337E+02  0.99999961284E+01 0.  0.
         12    1    1    2    0    0  0.33275340013E+02 -0.25327382454E+02  0.16744819248E+02  0.45045682663E+02  0.00000000000E+00 0. -1.
         11    1    3    3    0    0 -0.22748191731E+02  0.19481115573E+02 -0.10900809423E+02  0.31871958480E+02  0.51100000000E-03 0. -1.
        -11    1    3    3    0    0 -0.95322228206E+01  0.45899541008E+01 -0.66299198310E+01  0.12485463058E+02  0.51100000000E-03 0.  1.
         12    1    3    3    0    0 -0.99492546133E+00  0.12563127803E+01  0.78591000535E+00  0.17848957986E+01  0.00000000000E+00 0. -1.
</event>
<event>
 7    1  0.1442665E-008  0.4614232E+02  0.7816164E-02  0.1320468E+00
        -11   -1    0    0    0    0  0.00000000000E+00  0.00000000000E+00  0.45593999997E+02  0.45594000000E+02  0.51100000000E-03 0. -1.
         11   -1    0    0    0    0 -0.00000000000E+00 -0.00000000000E+00 -0.45593999997E+02  0.45594000000E+02  0.51100000000E-03 0.  1.
    9900012    2    1    2    0    0 -0.21114862256E+02 -0.37158056692E+02 -0.14232175946E+02  0.46142318549E+02  0.10000007188E+02 0.  0.
         12    1    1    2    0    0  0.21114862256E+02  0.37158056692E+02  0.14232175946E+02  0.45045681451E+02  0.00000000000E+00 0. -1.
         11    1    3    3    0    0 -0.18217015554E+01 -0.59590714854E+01 -0.48554557002E+01  0.78996569446E+01  0.51100000000E-03 0. -1.
        -11    1    3    3    0    0 -0.16934584035E+02 -0.27738979203E+02 -0.10012882054E+02  0.34007189106E+02  0.51100000000E-03 0.  1.
         12    1    3    3    0    0 -0.23585766661E+01 -0.34600060038E+01  0.63616180899E+00  0.42354724983E+01  0.00000000000E+00 0. -1.
</event>
<event>
 7    1  0.1442665E-008  0.4614232E+02  0.7816164E-02  0.1320468E+00
        -11   -1    0    0    0    0  0.00000000000E+00  0.00000000000E+00  0.45593999997E+02  0.45594000000E+02  0.51100000000E-03 0. -1.
         11   -1    0    0    0    0 -0.00000000000E+00 -0.00000000000E+00 -0.45593999997E+02  0.45594000000E+02  0.51100000000E-03 0.  1.
    9900012    2    1    2    0    0 -0.16589242543E+02  0.20275069887E+02 -0.36644673274E+02  0.46142317560E+02  0.99999981685E+01 0.  0.
         12    1    1    2    0    0  0.16589242543E+02 -0.20275069887E+02  0.36644673274E+02  0.45045682440E+02  0.00000000000E+00 0. -1.
         11    1    3    3    0    0 -0.10322508330E+00  0.41278288274E+01 -0.36179882652E+01  0.54899422215E+01  0.51100000000E-03 0. -1.
        -11    1    3    3    0    0 -0.15707293147E+02  0.13256440992E+02 -0.27102480938E+02  0.34014655063E+02  0.51100000000E-03 0.  1.
        -12    1    3    3    0    0 -0.77872431235E+00  0.28908000681E+01 -0.59242040706E+01  0.66377202757E+01  0.00000000000E+00 0.  1.
</event>
<event>
 7    1  0.1442665E-008  0.4614232E+02  0.7816164E-02  0.1320468E+00
        -11   -1    0    0    0    0  0.00000000000E+00  0.00000000000E+00  0.45593999997E+02  0.45594000000E+02  0.51100000000E-03 0.  1.
         11   -1    0    0    0    0 -0.00000000000E+00 -0.00000000000E+00 -0.45593999997E+02  0.45594000000E+02  0.51100000000E-03 0. -1.
    9900012    2    1    2    0    0  0.26083552823E+02  0.30423335791E+02  0.20571397905E+02  0.46142317629E+02  0.99999987928E+01 0.  0.
         12    1    1    2    0    0 -0.26083552823E+02 -0.30423335791E+02 -0.20571397905E+02  0.45045682371E+02  0.00000000000E+00 0. -1.
         11    1    3    3    0    0  0.68863372482E+01  0.61408311959E+01  0.61411057960E+01  0.11083529633E+02  0.51100000000E-03 0. -1.
        -11    1    3    3    0    0  0.11285367141E+02  0.11211621452E+02  0.35428160973E+01  0.16297592253E+02  0.51100000000E-03 0.  1.
        -12    1    3    3    0    0  0.79118484345E+01  0.13070883143E+02  0.10887476012E+02  0.18761195743E+02  0.00000000000E+00 0.  1.
</event>
<event>
 7    1  0.1442665E-008  0.4614231E+02  0.7816164E-02  0.1320468E+00
        -11   -1    0    0    0    0  0.00000000000E+00  0.00000000000E+00  0.45593999997E+02  0.45594000000E+02  0.51100000000E-03 0.  1.
         11   -1    0    0    0    0 -0.00000000000E+00 -0.00000000000E+00 -0.45593999997E+02  0.45594000000E+02  0.51100000000E-03 0. -1.
    9900012    2    1    2    0    0 -0.61281158156E+00  0.29335856607E+02  0.34178146899E+02  0.46142314897E+02  0.99999738865E+01 0.  0.
         12    1    1    2    0    0  0.61281158156E+00 -0.29335856607E+02 -0.34178146899E+02  0.45045685103E+02  0.00000000000E+00 0. -1.
         11    1    3    3    0    0 -0.21327706546E+01  0.72116477541E+01  0.79483349305E+01  0.10942239370E+02  0.51100000000E-03 0. -1.
        -11    1    3    3    0    0 -0.21763564491E+01  0.69747475251E+01  0.12217178237E+02  0.14235275718E+02  0.51100000000E-03 0.  1.
        -12    1    3    3    0    0  0.36963155222E+01  0.15149461328E+02  0.14012633731E+02  0.20964799810E+02  0.00000000000E+00 0.  1.
</event>
<event>
 7    1  0.1442665E-008  0.4614232E+02  0.7816164E-02  0.1320468E+00
        -11   -1    0    0    0    0  0.00000000000E+00  0.00000000000E+00  0.45593999997E+02  0.45594000000E+02  0.51100000000E-03 0.  1.
         11   -1    0    0    0    0 -0.00000000000E+00 -0.00000000000E+00 -0.45593999997E+02  0.45594000000E+02  0.51100000000E-03 0. -1.
    9900012    2    1    2    0    0 -0.17877903515E+01  0.43539627084E+02 -0.11411314305E+02  0.46142318574E+02  0.10000007410E+02 0.  0.
         12    1    1    2    0    0  0.17877903515E+01 -0.43539627084E+02  0.11411314305E+02  0.45045681426E+02  0.00000000000E+00 0. -1.
         11    1    3    3    0    0  0.24167736441E+01  0.18890947195E+02 -0.24667491617E+01  0.19203997825E+02  0.51100000000E-03 0. -1.
        -11    1    3    3    0    0 -0.11626344821E+01  0.16916521213E+02 -0.73346730171E+01  0.18474789238E+02  0.51100000000E-03 0.  1.
         12    1    3    3    0    0 -0.30419295135E+01  0.77321586765E+01 -0.16098921263E+01  0.84635315101E+01  0.00000000000E+00 0. -1.
</event>
<event>
 7    1  0.1442665E-008  0.4614232E+02  0.7816164E-02  0.1320468E+00
        -11   -1    0    0    0    0  0.00000000000E+00  0.00000000000E+00  0.45593999997E+02  0.45594000000E+02  0.51100000000E-03 0.  1.
         11   -1    0    0    0    0 -0.00000000000E+00 -0.00000000000E+00 -0.45593999997E+02  0.45594000000E+02  0.51100000000E-03 0. -1.
    9900012    2    1    2    0    0 -0.16905461430E+02  0.30467508495E+02  0.28549076789E+02  0.46142317792E+02  0.10000000279E+02 0.  0.
         12    1    1    2    0    0  0.16905461430E+02 -0.30467508495E+02 -0.28549076789E+02  0.45045682208E+02  0.00000000000E+00 0. -1.
         11    1    3    3    0    0  0.20161305903E+00 -0.99978251373E-02  0.23481254353E+01  0.23567861810E+01  0.51100000000E-03 0. -1.
        -11    1    3    3    0    0 -0.16331972632E+02  0.27358322085E+02  0.24003410814E+02  0.39892039912E+02  0.51100000000E-03 0.  1.
        -12    1    3    3    0    0 -0.77510185733E+00  0.31191842351E+01  0.21975405401E+01  0.38934916986E+01  0.00000000000E+00 0.  1.
</event>
<event>
 7    1  0.1442665E-008  0.4614232E+02  0.7816164E-02  0.1320468E+00
        -11   -1    0    0    0    0  0.00000000000E+00  0.00000000000E+00  0.45593999997E+02  0.45594000000E+02  0.51100000000E-03 0.  1.
         11   -1    0    0    0    0 -0.00000000000E+00 -0.00000000000E+00 -0.45593999997E+02  0.45594000000E+02  0.51100000000E-03 0. -1.
    9900012    2    1    2    0    0  0.68978121494E+01  0.38361545641E+02  0.22581529577E+02  0.46142317916E+02  0.10000001412E+02 0.  0.
         12    1    1    2    0    0 -0.68978121494E+01 -0.38361545641E+02 -0.22581529577E+02  0.45045682084E+02  0.00000000000E+00 0. -1.
         11    1    3    3    0    0  0.33919022625E+01  0.29025585847E+02  0.17869359366E+02  0.34253520098E+02  0.51100000000E-03 0.  1.
        -11    1    3    3    0    0  0.12805830718E+01  0.20209341764E+01  0.33590140698E+01  0.41239597151E+01  0.51100000000E-03 0. -1.
        -12    1    3    3    0    0  0.22253268151E+01  0.73150256174E+01  0.13531561408E+01  0.77648381025E+01  0.00000000000E+00 0.  1.
</event>
<event>
 7    1  0.1442665E-008  0.4614232E+02  0.7816164E-02  0.1320468E+00
        -11   -1    0    0    0    0  0.00000000000E+00  0.00000000000E+00  0.45593999997E+02  0.45594000000E+02  0.51100000000E-03 0.  1.
         11   -1    0    0    0    0 -0.00000000000E+00 -0.00000000000E+00 -0.45593999997E+02  0.45594000000E+02  0.51100000000E-03 0. -1.
    9900012    2    1    2    0    0  0.41191324073E+02 -0.47781216463E+01  0.17594256807E+02  0.46142317655E+02  0.99999990283E+01 0.  0.
         12    1    1    2    0    0 -0.41191324073E+02  0.47781216463E+01 -0.17594256807E+02  0.45045682345E+02  0.00000000000E+00 0. -1.
         11    1    3    3    0    0  0.24672423905E+01 -0.60034228360E+00  0.20567100384E+01  0.32676830193E+01  0.51100000000E-03 0. -1.
        -11    1    3    3    0    0  0.49922819071E+01  0.16295256885E+01  0.44858750513E+01  0.69066133413E+01  0.51100000000E-03 0.  1.
        -12    1    3    3    0    0  0.33731799775E+02 -0.58073050512E+01  0.11051671718E+02  0.35968021294E+02  0.00000000000E+00 0.  1.
</event>
<event>
 7    1  0.1442665E-008  0.4614232E+02  0.7816164E-02  0.1320468E+00
        -11   -1    0    0    0    0  0.00000000000E+00  0.00000000000E+00  0.45593999997E+02  0.45594000000E+02  0.51100000000E-03 0. -1.
         11   -1    0    0    0    0 -0.00000000000E+00 -0.00000000000E+00 -0.45593999997E+02  0.45594000000E+02  0.51100000000E-03 0.  1.
    9900012    2    1    2    0    0 -0.33376267544E+02 -0.21416230770E+02 -0.21365469753E+02  0.46142317928E+02  0.10000001518E+02 0.  0.
         12    1    1    2    0    0  0.33376267544E+02  0.21416230770E+02  0.21365469753E+02  0.45045682072E+02  0.00000000000E+00 0. -1.
         11    1    3    3    0    0 -0.13191386231E+02 -0.14011090229E+02 -0.92176176606E+01  0.21337473976E+02  0.51100000000E-03 0. -1.
        -11    1    3    3    0    0 -0.12494171370E+02 -0.45689287907E+01 -0.61995080844E+01  0.14676965942E+02  0.51100000000E-03 0.  1.
         12    1    3    3    0    0 -0.76907099438E+01 -0.28362117511E+01 -0.59483440081E+01  0.10127878009E+02  0.00000000000E+00 0. -1.
</event>
<event>
 7    1  0.1442665E-008  0.4614232E+02  0.7816164E-02  0.1320468E+00
        -11   -1    0    0    0    0  0.00000000000E+00  0.00000000000E+00  0.45593999997E+02  0.45594000000E+02  0.51100000000E-03 0.  1.
         11   -1    0    0    0    0 -0.00000000000E+00 -0.00000000000E+00 -0.45593999997E+02  0.45594000000E+02  0.51100000000E-03 0. -1.
    9900012    2    1    2    0    0  0.23342420819E+02 -0.55121841797E+01  0.38129524999E+02  0.46142318067E+02  0.10000002792E+02 0.  0.
         12    1    1    2    0    0 -0.23342420819E+02  0.55121841797E+01 -0.38129524999E+02  0.45045681933E+02  0.00000000000E+00 0. -1.
         11    1    3    3    0    0  0.71164684010E+01 -0.15388794564E+01  0.56486339939E+01  0.92151689481E+01  0.51100000000E-03 0. -1.
        -11    1    3    3    0    0  0.13912221006E+02 -0.32454069151E+01  0.30870391435E+02  0.34015637977E+02  0.51100000000E-03 0.  1.
        -12    1    3    3    0    0  0.23137314123E+01 -0.72789780816E+00  0.16104995703E+01  0.29115111426E+01  0.00000000000E+00 0.  1.
</event>
<event>
 7    1  0.1442665E-008  0.4614232E+02  0.7816164E-02  0.1320468E+00
        -11   -1    0    0    0    0  0.00000000000E+00  0.00000000000E+00  0.45593999997E+02  0.45594000000E+02  0.51100000000E-03 0.  1.
         11   -1    0    0    0    0 -0.00000000000E+00 -0.00000000000E+00 -0.45593999997E+02  0.45594000000E+02  0.51100000000E-03 0. -1.
    9900012    2    1    2    0    0 -0.24537043775E+02 -0.37774846618E+02  0.32856114725E+00  0.46142317558E+02  0.99999981482E+01 0.  0.
         12    1    1    2    0    0  0.24537043775E+02  0.37774846618E+02 -0.32856114725E+00  0.45045682442E+02  0.00000000000E+00 0. -1.
         11    1    3    3    0    0 -0.24460779794E+01 -0.92811429006E+01 -0.18948929108E+01  0.97833292097E+01  0.51100000000E-03 0. -1.
        -11    1    3    3    0    0 -0.12111553872E+02 -0.18901728689E+02  0.13794069492E+01  0.22491506140E+02  0.51100000000E-03 0.  1.
         12    1    3    3    0    0 -0.99794119239E+01 -0.95919750281E+01  0.84404710882E+00  0.13867482209E+02  0.00000000000E+00 0. -1.
</event>
<event>
 7    1  0.1442665E-008  0.4614232E+02  0.7816164E-02  0.1320468E+00
        -11   -1    0    0    0    0  0.00000000000E+00  0.00000000000E+00  0.45593999997E+02  0.45594000000E+02  0.51100000000E-03 0. -1.
         11   -1    0    0    0    0 -0.00000000000E+00 -0.00000000000E+00 -0.45593999997E+02  0.45594000000E+02  0.51100000000E-03 0.  1.
    9900012    2    1    2    0    0 -0.24100878564E+02 -0.79920303507E+01  0.37207372543E+02  0.46142317985E+02  0.10000002039E+02 0.  0.
         12    1    1    2    0    0  0.24100878564E+02  0.79920303507E+01 -0.37207372543E+02  0.45045682015E+02  0.00000000000E+00 0. -1.
         11    1    3    3    0    0  0.16126351112E+00 -0.21557436038E-01  0.31725961353E+01  0.31767652009E+01  0.51100000000E-03 0. -1.
        -11    1    3    3    0    0 -0.14980219257E+02 -0.28647010778E+01  0.23574679352E+02  0.28078087329E+02  0.51100000000E-03 0.  1.
        -12    1    3    3    0    0 -0.92819228180E+01 -0.51057718369E+01  0.10460097055E+02  0.14887465454E+02  0.00000000000E+00 0.  1.
</event>
<event>
 7    1  0.1442665E-008  0.4614232E+02  0.7816164E-02  0.1320468E+00
        -11   -1    0    0    0    0  0.00000000000E+00  0.00000000000E+00  0.45593999997E+02  0.45594000000E+02  0.51100000000E-03 0. -1.
         11   -1    0    0    0    0 -0.00000000000E+00 -0.00000000000E+00 -0.45593999997E+02  0.45594000000E+02  0.51100000000E-03 0.  1.
    9900012    2    1    2    0    0  0.11148034746E+02  0.38499561195E+02 -0.20557686329E+02  0.46142319207E+02  0.10000013182E+02 0.  0.
         12    1    1    2    0    0 -0.11148034746E+02 -0.38499561195E+02  0.20557686329E+02  0.45045680793E+02  0.00000000000E+00 0. -1.
         11    1    3    3    0    0  0.58080518815E+01  0.22528632925E+02 -0.15922819959E+02  0.28192356479E+02  0.51100000000E-03 0. -1.
        -11    1    3    3    0    0  0.37137408606E+01  0.57502875629E+01 -0.29943556643E+01  0.74715356080E+01  0.51100000000E-03 0.  1.
         12    1    3    3    0    0  0.16262420040E+01  0.10220640707E+02 -0.16405107051E+01  0.10478427119E+02  0.00000000000E+00 0. -1.
</event>
<event>
 7    1  0.1442665E-008  0.4614232E+02  0.7816164E-02  0.1320468E+00
        -11   -1    0    0    0    0  0.00000000000E+00  0.00000000000E+00  0.45593999997E+02  0.45594000000E+02  0.51100000000E-03 0.  1.
         11   -1    0    0    0    0 -0.00000000000E+00 -0.00000000000E+00 -0.45593999997E+02  0.45594000000E+02  0.51100000000E-03 0. -1.
    9900012    2    1    2    0    0  0.20038147685E+02  0.77592146944E+01  0.39590159668E+02  0.46142317433E+02  0.99999970119E+01 0.  0.
         12    1    1    2    0    0 -0.20038147685E+02 -0.77592146944E+01 -0.39590159668E+02  0.45045682567E+02  0.00000000000E+00 0. -1.
         11    1    3    3    0    0  0.10802137438E+01  0.24113262612E+01  0.18603937369E+01  0.32314735319E+01  0.51100000000E-03 0. -1.
        -11    1    3    3    0    0  0.11400128758E+02  0.34535604530E+01  0.28122383167E+02  0.30541094459E+02  0.51100000000E-03 0.  1.
        -12    1    3    3    0    0  0.75578051836E+01  0.18943279802E+01  0.96073827645E+01  0.12369749443E+02  0.00000000000E+00 0.  1.
</event>
<event>
 7    1  0.1442665E-008  0.4614232E+02  0.7816164E-02  0.1320468E+00
        -11   -1    0    0    0    0  0.00000000000E+00  0.00000000000E+00  0.45593999997E+02  0.45594000000E+02  0.51100000000E-03 0.  1.
         11   -1    0    0    0    0 -0.00000000000E+00 -0.00000000000E+00 -0.45593999997E+02  0.45594000000E+02  0.51100000000E-03 0. -1.
    9900012    2    1    2    0    0  0.24472614783E+02  0.36131966592E+02  0.11166273180E+02  0.46142317178E+02  0.99999946861E+01 0.  0.
         12    1    1    2    0    0 -0.24472614783E+02 -0.36131966592E+02 -0.11166273180E+02  0.45045682822E+02  0.00000000000E+00 0. -1.
         11    1    3    3    0    0  0.51696531680E+01  0.27101840515E+01  0.16211060762E+01  0.60579201581E+01  0.51100000000E-03 0. -1.
        -11    1    3    3    0    0  0.73672806126E+01  0.85597569368E+01  0.37816487868E+01  0.11909959288E+02  0.51100000000E-03 0.  1.
        -12    1    3    3    0    0  0.11935681002E+02  0.24862025604E+02  0.57635183169E+01  0.28174437732E+02  0.00000000000E+00 0.  1.
</event>
<event>
 7    1  0.1442665E-008  0.4614232E+02  0.7816164E-02  0.1320468E+00
        -11   -1    0    0    0    0  0.00000000000E+00  0.00000000000E+00  0.45593999997E+02  0.45594000000E+02  0.51100000000E-03 0.  1.
         11   -1    0    0    0    0 -0.00000000000E+00 -0.00000000000E+00 -0.45593999997E+02  0.45594000000E+02  0.51100000000E-03 0. -1.
    9900012    2    1    2    0    0  0.27048298755E+02  0.11679296024E+02  0.34074874764E+02  0.46142317506E+02  0.99999976724E+01 0.  0.
         12    1    1    2    0    0 -0.27048298755E+02 -0.11679296024E+02 -0.34074874764E+02  0.45045682494E+02  0.00000000000E+00 0. -1.
         11    1    3    3    0    0  0.11788866135E+02  0.73699669732E+01  0.10231532128E+02  0.17262040084E+02  0.51100000000E-03 0. -1.
        -11    1    3    3    0    0  0.45019631436E+01 -0.46655657760E+00  0.66745563429E+01  0.80644311530E+01  0.51100000000E-03 0.  1.
        -12    1    3    3    0    0  0.10757469477E+02  0.47758856288E+01  0.17168786294E+02  0.20815846269E+02  0.00000000000E+00 0.  1.
</event>
<event>
 7    1  0.1442665E-008  0.4614232E+02  0.7816164E-02  0.1320468E+00
        -11   -1    0    0    0    0  0.00000000000E+00  0.00000000000E+00  0.45593999997E+02  0.45594000000E+02  0.51100000000E-03 0.  1.
         11   -1    0    0    0    0 -0.00000000000E+00 -0.00000000000E+00 -0.45593999997E+02  0.45594000000E+02  0.51100000000E-03 0. -1.
    9900012    2    1    2    0    0 -0.21799815376E+01 -0.18868856826E+02  0.40845163982E+02  0.46142317653E+02  0.99999990152E+01 0.  0.
         12    1    1    2    0    0  0.21799815376E+01  0.18868856826E+02 -0.40845163982E+02  0.45045682347E+02  0.00000000000E+00 0. -1.
         11    1    3    3    0    0  0.14821724864E+01 -0.33672679023E+01  0.16670787377E+02  0.17071920819E+02  0.51100000000E-03 0. -1.
        -11    1    3    3    0    0 -0.92450092067E+00 -0.82087146057E+01  0.14014841403E+02  0.16268173752E+02  0.51100000000E-03 0.  1.
         12    1    3    3    0    0 -0.27376531034E+01 -0.72928743177E+01  0.10159535202E+02  0.12802223082E+02  0.00000000000E+00 0. -1.
</event>
<event>
 7    1  0.1442665E-008  0.4614232E+02  0.7816164E-02  0.1320468E+00
        -11   -1    0    0    0    0  0.00000000000E+00  0.00000000000E+00  0.45593999997E+02  0.45594000000E+02  0.51100000000E-03 0. -1.
         11   -1    0    0    0    0 -0.00000000000E+00 -0.00000000000E+00 -0.45593999997E+02  0.45594000000E+02  0.51100000000E-03 0.  1.
    9900012    2    1    2    0    0  0.39914537177E+02  0.14507665698E+02  0.15015693387E+02  0.46142315524E+02  0.99999796013E+01 0.  0.
         12    1    1    2    0    0 -0.39914537177E+02 -0.14507665698E+02 -0.15015693387E+02  0.45045684476E+02  0.00000000000E+00 0. -1.
         11    1    3    3    0    0  0.19426370639E+02  0.36191211414E+01  0.94592487211E+01  0.21907973449E+02  0.51100000000E-03 0. -1.
        -11    1    3    3    0    0  0.16765365076E+02  0.69970649094E+01  0.37155707684E+01  0.18542973059E+02  0.51100000000E-03 0.  1.
         12    1    3    3    0    0  0.37228014618E+01  0.38914796467E+01  0.18408738971E+01  0.56913690154E+01  0.00000000000E+00 0. -1.
</event>
<event>
 7    1  0.1442665E-008  0.4614232E+02  0.7816164E-02  0.1320468E+00
        -11   -1    0    0    0    0  0.00000000000E+00  0.00000000000E+00  0.45593999997E+02  0.45594000000E+02  0.51100000000E-03 0.  1.
         11   -1    0    0    0    0 -0.00000000000E+00 -0.00000000000E+00 -0.45593999997E+02  0.45594000000E+02  0.51100000000E-03 0. -1.
    9900012    2    1    2    0    0 -0.31668128471E+02  0.28621958885E+02  0.14388418333E+02  0.46142317928E+02  0.10000001519E+02 0.  0.
         12    1    1    2    0    0  0.31668128471E+02 -0.28621958885E+02 -0.14388418333E+02  0.45045682072E+02  0.00000000000E+00 0. -1.
         11    1    3    3    0    0  0.65343790608E-01 -0.38687868575E+00  0.44752389711E+00  0.59516621885E+00  0.51100000000E-03 0. -1.
        -11    1    3    3    0    0 -0.20037728379E+02  0.14592961907E+02  0.84347652675E+01  0.26184162412E+02  0.51100000000E-03 0.  1.
         12    1    3    3    0    0 -0.11695743882E+02  0.14415875664E+02  0.55061291682E+01  0.19362989297E+02  0.00000000000E+00 0. -1.
</event>
<event>
 7    1  0.1442665E-008  0.4614232E+02  0.7816164E-02  0.1320468E+00
        -11   -1    0    0    0    0  0.00000000000E+00  0.00000000000E+00  0.45593999997E+02  0.45594000000E+02  0.51100000000E-03 0.  1.
         11   -1    0    0    0    0 -0.00000000000E+00 -0.00000000000E+00 -0.45593999997E+02  0.45594000000E+02  0.51100000000E-03 0. -1.
    9900012    2    1    2    0    0  0.30386934644E+02 -0.29292534907E+02  0.15738328465E+02  0.46142318951E+02  0.10000010848E+02 0.  0.
         12    1    1    2    0    0 -0.30386934644E+02  0.29292534907E+02 -0.15738328465E+02  0.45045681049E+02  0.00000000000E+00 0. -1.
         11    1    3    3    0    0  0.43853154544E+01 -0.73454496471E+01  0.45352228448E+01  0.96827097791E+01  0.51100000000E-03 0. -1.
        -11    1    3    3    0    0  0.84144542443E+01 -0.10099502047E+02  0.68066038314E+01  0.14803136080E+02  0.51100000000E-03 0.  1.
         12    1    3    3    0    0  0.17587164945E+02 -0.11847583213E+02  0.43965017887E+01  0.21656473092E+02  0.00000000000E+00 0. -1.
</event>
<event>
 7    1  0.1442665E-008  0.4614232E+02  0.7816164E-02  0.1320468E+00
        -11   -1    0    0    0    0  0.00000000000E+00  0.00000000000E+00  0.45593999997E+02  0.45594000000E+02  0.51100000000E-03 0.  1.
         11   -1    0    0    0    0 -0.00000000000E+00 -0.00000000000E+00 -0.45593999997E+02  0.45594000000E+02  0.51100000000E-03 0. -1.
    9900012    2    1    2    0    0 -0.23513990895E+02 -0.19413930393E+02  0.33155769984E+02  0.46142317140E+02  0.99999943376E+01 0.  0.
         12    1    1    2    0    0  0.23513990895E+02  0.19413930393E+02 -0.33155769984E+02  0.45045682860E+02  0.00000000000E+00 0. -1.
         11    1    3    3    0    0 -0.73403575841E+01 -0.45302523202E+01  0.14600888665E+02  0.16958478281E+02  0.51100000000E-03 0. -1.
        -11    1    3    3    0    0 -0.62014950003E+01 -0.26632828401E+01  0.53154051659E+01  0.85909922631E+01  0.51100000000E-03 0.  1.
        -12    1    3    3    0    0 -0.99721383102E+01 -0.12220395233E+02  0.13239476153E+02  0.20592846596E+02  0.00000000000E+00 0.  1.
</event>
<event>
 7    1  0.1442665E-008  0.4614232E+02  0.7816164E-02  0.1320468E+00
        -11   -1    0    0    0    0  0.00000000000E+00  0.00000000000E+00  0.45593999997E+02  0.45594000000E+02  0.51100000000E-03 0.  1.
         11   -1    0    0    0    0 -0.00000000000E+00 -0.00000000000E+00 -0.45593999997E+02  0.45594000000E+02  0.51100000000E-03 0. -1.
    9900012    2    1    2    0    0 -0.23106044131E+02 -0.19654553474E+02  0.33300491163E+02  0.46142318084E+02  0.10000002944E+02 0.  0.
         12    1    1    2    0    0  0.23106044131E+02  0.19654553474E+02 -0.33300491163E+02  0.45045681916E+02  0.00000000000E+00 0. -1.
         11    1    3    3    0    0 -0.36350170934E+01 -0.25701090135E+01  0.80973507610E+01  0.92404490810E+01  0.51100000000E-03 0. -1.
        -11    1    3    3    0    0 -0.69951923615E+01 -0.97418407850E+01  0.14931953878E+02  0.19152008379E+02  0.51100000000E-03 0.  1.
        -12    1    3    3    0    0 -0.12475834676E+02 -0.73426036751E+01  0.10271186523E+02  0.17749860624E+02  0.00000000000E+00 0.  1.
</event>
<event>
 7    1  0.1442665E-008  0.4614232E+02  0.7816164E-02  0.1320468E+00
        -11   -1    0    0    0    0  0.00000000000E+00  0.00000000000E+00  0.45593999997E+02  0.45594000000E+02  0.51100000000E-03 0.  1.
         11   -1    0    0    0    0 -0.00000000000E+00 -0.00000000000E+00 -0.45593999997E+02  0.45594000000E+02  0.51100000000E-03 0. -1.
    9900012    2    1    2    0    0 -0.42478131577E+02  0.45195182119E+01  0.14293206547E+02  0.46142318070E+02  0.10000002815E+02 0.  0.
         12    1    1    2    0    0  0.42478131577E+02 -0.45195182119E+01 -0.14293206547E+02  0.45045681930E+02  0.00000000000E+00 0. -1.
         11    1    3    3    0    0 -0.32597459666E+02  0.22753727421E+01  0.10676430156E+02  0.34376705179E+02  0.51100000000E-03 0. -1.
        -11    1    3    3    0    0 -0.55417643242E+01  0.79565037106E+00  0.44051451682E+01  0.71238694228E+01  0.51100000000E-03 0.  1.
         12    1    3    3    0    0 -0.43389075866E+01  0.14484950987E+01 -0.78836877714E+00  0.46417434683E+01  0.00000000000E+00 0. -1.
</event>
<event>
 7    1  0.1442665E-008  0.4614232E+02  0.7816164E-02  0.1320468E+00
        -11   -1    0    0    0    0  0.00000000000E+00  0.00000000000E+00  0.45593999997E+02  0.45594000000E+02  0.51100000000E-03 0.  1.
         11   -1    0    0    0    0 -0.00000000000E+00 -0.00000000000E+00 -0.45593999997E+02  0.45594000000E+02  0.51100000000E-03 0. -1.
    9900012    2    1    2    0    0  0.41550380572E+02 -0.13009254529E+02  0.11551564037E+02  0.46142318067E+02  0.10000002789E+02 0.  0.
         12    1    1    2    0    0 -0.41550380572E+02  0.13009254529E+02 -0.11551564037E+02  0.45045681933E+02  0.00000000000E+00 0. -1.
         11    1    3    3    0    0  0.90458492862E+01  0.27362057797E+00  0.40880075759E+01  0.99304614058E+01  0.51100000000E-03 0. -1.
        -11    1    3    3    0    0  0.26657666713E+02 -0.89325810113E+01  0.52989071154E+01  0.28609449750E+02  0.51100000000E-03 0.  1.
         12    1    3    3    0    0  0.58468645732E+01 -0.43502940962E+01  0.21646493455E+01  0.76024069117E+01  0.00000000000E+00 0. -1.
</event>
<event>
 7    1  0.1442665E-008  0.4614232E+02  0.7816164E-02  0.1320468E+00
        -11   -1    0    0    0    0  0.00000000000E+00  0.00000000000E+00  0.45593999997E+02  0.45594000000E+02  0.51100000000E-03 0. -1.
         11   -1    0    0    0    0 -0.00000000000E+00 -0.00000000000E+00 -0.45593999997E+02  0.45594000000E+02  0.51100000000E-03 0.  1.
    9900012    2    1    2    0    0  0.30659315134E+01 -0.35465283883E+02 -0.27603027110E+02  0.46142318713E+02  0.10000008680E+02 0.  0.
         12    1    1    2    0    0 -0.30659315134E+01  0.35465283883E+02  0.27603027110E+02  0.45045681287E+02  0.00000000000E+00 0. -1.
         11    1    3    3    0    0  0.50745514770E+01 -0.16290902918E+02 -0.95276890778E+01  0.19542810698E+02  0.51100000000E-03 0.  1.
        -11    1    3    3    0    0 -0.10467688158E+01 -0.22984473663E+01 -0.15668323460E+01  0.29721287171E+01  0.51100000000E-03 0. -1.
         12    1    3    3    0    0 -0.96185114792E+00 -0.16875933599E+02 -0.16508505686E+02  0.23627379298E+02  0.00000000000E+00 0. -1.
</event>
<event>
 7    1  0.1442665E-008  0.4614232E+02  0.7816164E-02  0.1320468E+00
        -11   -1    0    0    0    0  0.00000000000E+00  0.00000000000E+00  0.45593999997E+02  0.45594000000E+02  0.51100000000E-03 0.  1.
         11   -1    0    0    0    0 -0.00000000000E+00 -0.00000000000E+00 -0.45593999997E+02  0.45594000000E+02  0.51100000000E-03 0. -1.
    9900012    2    1    2    0    0 -0.17095866991E+02  0.35138398709E+02  0.22408430518E+02  0.46142317740E+02  0.99999998107E+01 0.  0.
         12    1    1    2    0    0  0.17095866991E+02 -0.35138398709E+02 -0.22408430518E+02  0.45045682260E+02  0.00000000000E+00 0. -1.
         11    1    3    3    0    0 -0.84945938511E+01  0.13666027618E+02  0.77511772630E+01  0.17860548277E+02  0.51100000000E-03 0. -1.
        -11    1    3    3    0    0 -0.77610182602E+01  0.21902700527E+02  0.13957985522E+02  0.27106955840E+02  0.51100000000E-03 0.  1.
         12    1    3    3    0    0 -0.84025487951E+00 -0.43032943652E+00  0.69926773253E+00  0.11748136228E+01  0.00000000000E+00 0. -1.
</event>
<event>
 7    1  0.1442665E-008  0.4614232E+02  0.7816164E-02  0.1320468E+00
        -11   -1    0    0    0    0  0.00000000000E+00  0.00000000000E+00  0.45593999997E+02  0.45594000000E+02  0.51100000000E-03 0.  1.
         11   -1    0    0    0    0 -0.00000000000E+00 -0.00000000000E+00 -0.45593999997E+02  0.45594000000E+02  0.51100000000E-03 0. -1.
    9900012    2    1    2    0    0  0.12438706748E+02 -0.28038082258E+02  0.32988754660E+02  0.46142318561E+02  0.10000007294E+02 0.  0.
         12    1    1    2    0    0 -0.12438706748E+02  0.28038082258E+02 -0.32988754660E+02  0.45045681439E+02  0.00000000000E+00 0. -1.
         11    1    3    3    0    0  0.18166452511E+01 -0.79195205063E+01  0.13600059885E+02  0.15842368325E+02  0.51100000000E-03 0. -1.
        -11    1    3    3    0    0  0.11204353641E+01 -0.43227446209E+01  0.17786785342E+01  0.48067862499E+01  0.51100000000E-03 0.  1.
        -12    1    3    3    0    0  0.95016261329E+01 -0.15795817131E+02  0.17610016241E+02  0.25493163986E+02  0.00000000000E+00 0.  1.
</event>
<event>
 7    1  0.1442665E-008  0.4614232E+02  0.7816164E-02  0.1320468E+00
        -11   -1    0    0    0    0  0.00000000000E+00  0.00000000000E+00  0.45593999997E+02  0.45594000000E+02  0.51100000000E-03 0.  1.
         11   -1    0    0    0    0 -0.00000000000E+00 -0.00000000000E+00 -0.45593999997E+02  0.45594000000E+02  0.51100000000E-03 0. -1.
    9900012    2    1    2    0    0  0.37691492831E+02  0.75734856976E+01  0.23475672098E+02  0.46142317656E+02  0.99999990385E+01 0.  0.
         12    1    1    2    0    0 -0.37691492831E+02 -0.75734856976E+01 -0.23475672098E+02  0.45045682344E+02  0.00000000000E+00 0. -1.
         11    1    3    3    0    0  0.87206850928E+01  0.14488604235E+01  0.38727024440E+01  0.96512884888E+01  0.51100000000E-03 0. -1.
        -11    1    3    3    0    0  0.73350871091E+01  0.53083127508E+01  0.69458747979E+01  0.11411698565E+02  0.51100000000E-03 0.  1.
        -12    1    3    3    0    0  0.21635720629E+02  0.81631252327E+00  0.12657094856E+02  0.25079330602E+02  0.00000000000E+00 0.  1.
</event>
<event>
 7    1  0.1442665E-008  0.4614231E+02  0.7816164E-02  0.1320468E+00
        -11   -1    0    0    0    0  0.00000000000E+00  0.00000000000E+00  0.45593999997E+02  0.45594000000E+02  0.51100000000E-03 0.  1.
         11   -1    0    0    0    0 -0.00000000000E+00 -0.00000000000E+00 -0.45593999997E+02  0.45594000000E+02  0.51100000000E-03 0. -1.
    9900012    2    1    2    0    0  0.28964969104E+02 -0.33915591659E+02  0.63148466697E+01  0.46142311180E+02  0.99999399900E+01 0.  0.
         12    1    1    2    0    0 -0.28964969104E+02  0.33915591659E+02 -0.63148466697E+01  0.45045688820E+02  0.00000000000E+00 0. -1.
         11    1    3    3    0    0  0.10332854801E+02 -0.15847218553E+02 -0.29950240245E+00  0.18920674569E+02  0.51100000000E-03 0. -1.
        -11    1    3    3    0    0  0.14052202413E+02 -0.14378536798E+02  0.70964068010E+01  0.21320546495E+02  0.51100000000E-03 0.  1.
        -12    1    3    3    0    0  0.45799118900E+01 -0.36898363082E+01 -0.48205772879E+00  0.59010901158E+01  0.00000000000E+00 0.  1.
</event>
<event>
 7    1  0.1442665E-008  0.4614231E+02  0.7816164E-02  0.1320468E+00
        -11   -1    0    0    0    0  0.00000000000E+00  0.00000000000E+00  0.45593999997E+02  0.45594000000E+02  0.51100000000E-03 0.  1.
         11   -1    0    0    0    0 -0.00000000000E+00 -0.00000000000E+00 -0.45593999997E+02  0.45594000000E+02  0.51100000000E-03 0. -1.
    9900012    2    1    2    0    0 -0.43473739971E+02 -0.91184178406E+01  0.74834696743E+01  0.46142312866E+02  0.99999553662E+01 0.  0.
         12    1    1    2    0    0  0.43473739971E+02  0.91184178406E+01 -0.74834696743E+01  0.45045687134E+02  0.00000000000E+00 0. -1.
         11    1    3    3    0    0 -0.20030288210E+01 -0.18630685916E+01  0.22524036975E+01  0.35435112124E+01  0.51100000000E-03 0. -1.
        -11    1    3    3    0    0 -0.25354765717E+02 -0.55469342674E+01  0.47493909168E+01  0.26385400104E+02  0.51100000000E-03 0.  1.
        -12    1    3    3    0    0 -0.16115945433E+02 -0.17084149816E+01  0.48167506003E+00  0.16213401550E+02  0.00000000000E+00 0.  1.
</event>
<event>
 7    1  0.1442665E-008  0.4614232E+02  0.7816164E-02  0.1320468E+00
        -11   -1    0    0    0    0  0.00000000000E+00  0.00000000000E+00  0.45593999997E+02  0.45594000000E+02  0.51100000000E-03 0. -1.
         11   -1    0    0    0    0 -0.00000000000E+00 -0.00000000000E+00 -0.45593999997E+02  0.45594000000E+02  0.51100000000E-03 0.  1.
    9900012    2    1    2    0    0  0.37331007597E+02 -0.84300268236E+01 -0.23758029794E+02  0.46142318075E+02  0.10000002860E+02 0.  0.
         12    1    1    2    0    0 -0.37331007597E+02  0.84300268236E+01  0.23758029794E+02  0.45045681925E+02  0.00000000000E+00 0. -1.
         11    1    3    3    0    0  0.61467902398E+01  0.17375874335E+01 -0.43874838873E+01  0.77493390340E+01  0.51100000000E-03 0. -1.
        -11    1    3    3    0    0  0.63795962982E+01 -0.41222676440E+01 -0.38607587544E+01  0.85204341367E+01  0.51100000000E-03 0.  1.
        -12    1    3    3    0    0  0.24804621059E+02 -0.60453466130E+01 -0.15509787152E+02  0.29872544904E+02  0.00000000000E+00 0.  1.
</event>
<event>
 7    1  0.1442665E-008  0.4614232E+02  0.7816164E-02  0.1320468E+00
        -11   -1    0    0    0    0  0.00000000000E+00  0.00000000000E+00  0.45593999997E+02  0.45594000000E+02  0.51100000000E-03 0.  1.
         11   -1    0    0    0    0 -0.00000000000E+00 -0.00000000000E+00 -0.45593999997E+02  0.45594000000E+02  0.51100000000E-03 0. -1.
    9900012    2    1    2    0    0 -0.73005344729E+01  0.44243412733E+02 -0.42820683285E+01  0.46142317820E+02  0.10000000539E+02 0.  0.
         12    1    1    2    0    0  0.73005344729E+01 -0.44243412733E+02  0.42820683285E+01  0.45045682180E+02  0.00000000000E+00 0. -1.
         11    1    3    3    0    0 -0.43353578062E+00  0.27333618508E+02 -0.47664908912E+01  0.27749488098E+02  0.51100000000E-03 0. -1.
        -11    1    3    3    0    0 -0.55418614826E+01  0.13694188640E+02 -0.48928834375E+00  0.14781151326E+02  0.51100000000E-03 0.  1.
        -12    1    3    3    0    0 -0.13251372097E+01  0.32156055859E+01  0.97371090649E+00  0.36116783962E+01  0.00000000000E+00 0.  1.
</event>
<event>
 7    1  0.1442665E-008  0.4614232E+02  0.7816164E-02  0.1320468E+00
        -11   -1    0    0    0    0  0.00000000000E+00  0.00000000000E+00  0.45593999997E+02  0.45594000000E+02  0.51100000000E-03 0.  1.
         11   -1    0    0    0    0 -0.00000000000E+00 -0.00000000000E+00 -0.45593999997E+02  0.45594000000E+02  0.51100000000E-03 0. -1.
    9900012    2    1    2    0    0 -0.29950022663E+02 -0.18731515317E+02  0.27950670117E+02  0.46142317815E+02  0.10000000487E+02 0.  0.
         12    1    1    2    0    0  0.29950022663E+02  0.18731515317E+02 -0.27950670117E+02  0.45045682185E+02  0.00000000000E+00 0. -1.
         11    1    3    3    0    0 -0.41559444996E+00 -0.31833013159E+01  0.28662703133E+01  0.43036765427E+01  0.51100000000E-03 0. -1.
        -11    1    3    3    0    0 -0.23785363809E+02 -0.11371068576E+02  0.20263164530E+02  0.33251173951E+02  0.51100000000E-03 0.  1.
        -12    1    3    3    0    0 -0.57490644037E+01 -0.41771454259E+01  0.48212352730E+01  0.85874673207E+01  0.00000000000E+00 0.  1.
</event>
<event>
 7    1  0.1442665E-008  0.4614232E+02  0.7816164E-02  0.1320468E+00
        -11   -1    0    0    0    0  0.00000000000E+00  0.00000000000E+00  0.45593999997E+02  0.45594000000E+02  0.51100000000E-03 0.  1.
         11   -1    0    0    0    0 -0.00000000000E+00 -0.00000000000E+00 -0.45593999997E+02  0.45594000000E+02  0.51100000000E-03 0. -1.
    9900012    2    1    2    0    0 -0.69505508160E+01 -0.22221837972E+01  0.44450699604E+02  0.46142323706E+02  0.10000054214E+02 0.  0.
         12    1    1    2    0    0  0.69505508160E+01  0.22221837972E+01 -0.44450699604E+02  0.45045676294E+02  0.00000000000E+00 0. -1.
         11    1    3    3    0    0 -0.30291425734E+01 -0.14834294235E+01  0.44882778732E+01  0.56143482358E+01  0.51100000000E-03 0. -1.
        -11    1    3    3    0    0 -0.68544344402E+00 -0.27794249509E+01  0.14516470810E+02  0.14796045445E+02  0.51100000000E-03 0.  1.
         12    1    3    3    0    0 -0.32359647986E+01  0.20406705772E+01  0.25445950920E+02  0.25731930025E+02  0.00000000000E+00 0. -1.
</event>
<event>
 7    1  0.1442665E-008  0.4614232E+02  0.7816164E-02  0.1320468E+00
        -11   -1    0    0    0    0  0.00000000000E+00  0.00000000000E+00  0.45593999997E+02  0.45594000000E+02  0.51100000000E-03 0. -1.
         11   -1    0    0    0    0 -0.00000000000E+00 -0.00000000000E+00 -0.45593999997E+02  0.45594000000E+02  0.51100000000E-03 0.  1.
    9900012    2    1    2    0    0  0.20189077361E+02  0.34568435821E+02 -0.20652796235E+02  0.46142316609E+02  0.99999894977E+01 0.  0.
         12    1    1    2    0    0 -0.20189077361E+02 -0.34568435821E+02  0.20652796235E+02  0.45045683391E+02  0.00000000000E+00 0. -1.
         11    1    3    3    0    0  0.23770755363E+01  0.10579694312E+02 -0.28968874028E+01  0.11223741654E+02  0.51100000000E-03 0. -1.
        -11    1    3    3    0    0  0.10134208054E+02  0.12994266979E+02 -0.11667600393E+02  0.20191236871E+02  0.51100000000E-03 0.  1.
         12    1    3    3    0    0  0.76777937714E+01  0.10994474531E+02 -0.60883084391E+01  0.14727338084E+02  0.00000000000E+00 0. -1.
</event>
<event>
 7    1  0.1442665E-008  0.4614231E+02  0.7816164E-02  0.1320468E+00
        -11   -1    0    0    0    0  0.00000000000E+00  0.00000000000E+00  0.45593999997E+02  0.45594000000E+02  0.51100000000E-03 0.  1.
         11   -1    0    0    0    0 -0.00000000000E+00 -0.00000000000E+00 -0.45593999997E+02  0.45594000000E+02  0.51100000000E-03 0. -1.
    9900012    2    1    2    0    0  0.32050294479E+02 -0.28295669268E+02 -0.14186178874E+02  0.46142312675E+02  0.99999536229E+01 0.  0.
         12    1    1    2    0    0 -0.32050294479E+02  0.28295669268E+02  0.14186178874E+02  0.45045687325E+02  0.00000000000E+00 0. -1.
         11    1    3    3    0    0  0.13971681086E+02 -0.12706332861E+02 -0.10409182926E+02  0.21564087196E+02  0.51100000000E-03 0. -1.
        -11    1    3    3    0    0  0.14670837688E+02 -0.14644680433E+02 -0.28652389732E+01  0.20926292984E+02  0.51100000000E-03 0.  1.
        -12    1    3    3    0    0  0.34077757054E+01 -0.94465597484E+00 -0.91175697474E+00  0.36519324953E+01  0.00000000000E+00 0.  1.
</event>
<event>
 7    1  0.1442665E-008  0.4614232E+02  0.7816164E-02  0.1320468E+00
        -11   -1    0    0    0    0  0.00000000000E+00  0.00000000000E+00  0.45593999997E+02  0.45594000000E+02  0.51100000000E-03 0. -1.
         11   -1    0    0    0    0 -0.00000000000E+00 -0.00000000000E+00 -0.45593999997E+02  0.45594000000E+02  0.51100000000E-03 0.  1.
    9900012    2    1    2    0    0 -0.22165471295E+02 -0.35798763654E+02 -0.16007927444E+02  0.46142319431E+02  0.10000015227E+02 0.  0.
         12    1    1    2    0    0  0.22165471295E+02  0.35798763654E+02  0.16007927444E+02  0.45045680569E+02  0.00000000000E+00 0. -1.
         11    1    3    3    0    0 -0.97663158620E+00 -0.32133530609E+01 -0.82736750071E-01  0.33595078181E+01  0.51100000000E-03 0. -1.
        -11    1    3    3    0    0 -0.14126324226E+00 -0.14149742845E+01 -0.24459223482E+01  0.28292479432E+01  0.51100000000E-03 0.  1.
        -12    1    3    3    0    0 -0.21047576466E+02 -0.31170436309E+02 -0.13479268346E+02  0.39953563670E+02  0.00000000000E+00 0.  1.
</event>
<event>
 7    1  0.1442665E-008  0.4614232E+02  0.7816164E-02  0.1320468E+00
        -11   -1    0    0    0    0  0.00000000000E+00  0.00000000000E+00  0.45593999997E+02  0.45594000000E+02  0.51100000000E-03 0.  1.
         11   -1    0    0    0    0 -0.00000000000E+00 -0.00000000000E+00 -0.45593999997E+02  0.45594000000E+02  0.51100000000E-03 0. -1.
    9900012    2    1    2    0    0  0.24796449812E+02  0.13590577314E+02  0.35064879391E+02  0.46142317835E+02  0.10000000670E+02 0.  0.
         12    1    1    2    0    0 -0.24796449812E+02 -0.13590577314E+02 -0.35064879391E+02  0.45045682165E+02  0.00000000000E+00 0. -1.
         11    1    3    3    0    0  0.31904814873E+01  0.26397324765E+00  0.29366317477E+01  0.43442675193E+01  0.51100000000E-03 0. -1.
        -11    1    3    3    0    0  0.12872934932E+02  0.31675459763E+01  0.14334088404E+02  0.19524648318E+02  0.51100000000E-03 0.  1.
        -12    1    3    3    0    0  0.87330333927E+01  0.10159058090E+02  0.17794159240E+02  0.22273401998E+02  0.00000000000E+00 0.  1.
</event>
<event>
 7    1  0.1442665E-008  0.4614232E+02  0.7816164E-02  0.1320468E+00
        -11   -1    0    0    0    0  0.00000000000E+00  0.00000000000E+00  0.45593999997E+02  0.45594000000E+02  0.51100000000E-03 0.  1.
         11   -1    0    0    0    0 -0.00000000000E+00 -0.00000000000E+00 -0.45593999997E+02  0.45594000000E+02  0.51100000000E-03 0. -1.
    9900012    2    1    2    0    0  0.20187967808E+02 -0.21533461066E+01  0.40210975036E+02  0.46142318109E+02  0.10000003172E+02 0.  0.
         12    1    1    2    0    0 -0.20187967808E+02  0.21533461066E+01 -0.40210975036E+02  0.45045681891E+02  0.00000000000E+00 0. -1.
         11    1    3    3    0    0  0.10097885910E+02 -0.52630420064E+01  0.25548587093E+02  0.27971364174E+02  0.51100000000E-03 0. -1.
        -11    1    3    3    0    0  0.10051202461E+02  0.30904366379E+01  0.14725302097E+02  0.18094529329E+02  0.51100000000E-03 0.  1.
         12    1    3    3    0    0  0.38879436628E-01  0.19259261895E-01 -0.62914153671E-01  0.76424606597E-01  0.00000000000E+00 0. -1.
</event>
<event>
 7    1  0.1442665E-008  0.4614232E+02  0.7816164E-02  0.1320468E+00
        -11   -1    0    0    0    0  0.00000000000E+00  0.00000000000E+00  0.45593999997E+02  0.45594000000E+02  0.51100000000E-03 0.  1.
         11   -1    0    0    0    0 -0.00000000000E+00 -0.00000000000E+00 -0.45593999997E+02  0.45594000000E+02  0.51100000000E-03 0. -1.
    9900012    2    1    2    0    0 -0.28013781665E+02 -0.11778460780E+01  0.35255554694E+02  0.46142318505E+02  0.10000006786E+02 0.  0.
         12    1    1    2    0    0  0.28013781665E+02  0.11778460780E+01 -0.35255554694E+02  0.45045681495E+02  0.00000000000E+00 0. -1.
         11    1    3    3    0    0 -0.91515665522E+01 -0.49760105044E+00  0.51512614737E+01  0.10513528057E+02  0.51100000000E-03 0. -1.
        -11    1    3    3    0    0 -0.25216884450E+01 -0.63005796704E+00  0.29019012683E+01  0.38957562664E+01  0.51100000000E-03 0.  1.
         12    1    3    3    0    0 -0.16340526668E+02 -0.50187060554E-01  0.27202391952E+02  0.31733034182E+02  0.00000000000E+00 0. -1.
</event>
<event>
 7    1  0.1442665E-008  0.4614232E+02  0.7816164E-02  0.1320468E+00
        -11   -1    0    0    0    0  0.00000000000E+00  0.00000000000E+00  0.45593999997E+02  0.45594000000E+02  0.51100000000E-03 0.  1.
         11   -1    0    0    0    0 -0.00000000000E+00 -0.00000000000E+00 -0.45593999997E+02  0.45594000000E+02  0.51100000000E-03 0. -1.
    9900012    2    1    2    0    0  0.48607633109E+01 -0.41137097515E+02  0.17698184922E+02  0.46142316950E+02  0.99999926009E+01 0.  0.
         12    1    1    2    0    0 -0.48607633109E+01  0.41137097515E+02 -0.17698184922E+02  0.45045683050E+02  0.00000000000E+00 0. -1.
         11    1    3    3    0    0  0.11385588066E+01 -0.32106119869E+01  0.37010379065E+01  0.50301120596E+01  0.51100000000E-03 0. -1.
        -11    1    3    3    0    0  0.49537721917E+01 -0.20713577533E+02  0.62478996780E+01  0.22195233807E+02  0.51100000000E-03 0.  1.
         12    1    3    3    0    0 -0.12315676874E+01 -0.17212907996E+02  0.77492473370E+01  0.18916971083E+02  0.00000000000E+00 0. -1.
</event>
<event>
 7    1  0.1442665E-008  0.4614232E+02  0.7816164E-02  0.1320468E+00
        -11   -1    0    0    0    0  0.00000000000E+00  0.00000000000E+00  0.45593999997E+02  0.45594000000E+02  0.51100000000E-03 0.  1.
         11   -1    0    0    0    0 -0.00000000000E+00 -0.00000000000E+00 -0.45593999997E+02  0.45594000000E+02  0.51100000000E-03 0. -1.
    9900012    2    1    2    0    0 -0.34083554029E+01  0.92481609401E+01  0.43954159696E+02  0.46142317388E+02  0.99999966014E+01 0.  0.
         12    1    1    2    0    0  0.34083554029E+01 -0.92481609401E+01 -0.43954159696E+02  0.45045682612E+02  0.00000000000E+00 0. -1.
         11    1    3    3    0    0  0.17121781644E+00  0.23874271075E+01  0.77821659245E+01  0.81419426719E+01  0.51100000000E-03 0.  1.
        -11    1    3    3    0    0  0.54721875068E+00  0.13990790351E+01  0.36645262983E+00  0.15463370586E+01  0.51100000000E-03 0. -1.
        -12    1    3    3    0    0 -0.41267919700E+01  0.54616547974E+01  0.35805541142E+02  0.36454037658E+02  0.00000000000E+00 0.  1.
</event>
<event>
 7    1  0.1442665E-008  0.4614232E+02  0.7816164E-02  0.1320468E+00
        -11   -1    0    0    0    0  0.00000000000E+00  0.00000000000E+00  0.45593999997E+02  0.45594000000E+02  0.51100000000E-03 0. -1.
         11   -1    0    0    0    0 -0.00000000000E+00 -0.00000000000E+00 -0.45593999997E+02  0.45594000000E+02  0.51100000000E-03 0.  1.
    9900012    2    1    2    0    0 -0.44643090562E+02 -0.26854178871E+01  0.53755518621E+01  0.46142316944E+02  0.99999925493E+01 0.  0.
         12    1    1    2    0    0  0.44643090562E+02  0.26854178871E+01 -0.53755518621E+01  0.45045683056E+02  0.00000000000E+00 0. -1.
         11    1    3    3    0    0 -0.11767472634E+02 -0.24738609117E+01 -0.10784575439E+01  0.12072964464E+02  0.51100000000E-03 0. -1.
        -11    1    3    3    0    0 -0.66117264263E+01 -0.12489312632E+01  0.35981268633E+01  0.76302865492E+01  0.51100000000E-03 0.  1.
        -12    1    3    3    0    0 -0.26263891501E+02  0.10373742878E+01  0.28558825428E+01  0.26439065931E+02  0.00000000000E+00 0.  1.
</event>
<event>
 7    1  0.1442665E-008  0.4614232E+02  0.7816164E-02  0.1320468E+00
        -11   -1    0    0    0    0  0.00000000000E+00  0.00000000000E+00  0.45593999997E+02  0.45594000000E+02  0.51100000000E-03 0. -1.
         11   -1    0    0    0    0 -0.00000000000E+00 -0.00000000000E+00 -0.45593999997E+02  0.45594000000E+02  0.51100000000E-03 0.  1.
    9900012    2    1    2    0    0 -0.38875243178E+02  0.13605794613E+02 -0.18240380801E+02  0.46142315734E+02  0.99999815137E+01 0.  0.
         12    1    1    2    0    0  0.38875243178E+02 -0.13605794613E+02  0.18240380801E+02  0.45045684266E+02  0.00000000000E+00 0. -1.
         11    1    3    3    0    0 -0.25792720013E+02  0.40274920785E+01 -0.11862437644E+02  0.28674074095E+02  0.51100000000E-03 0. -1.
        -11    1    3    3    0    0 -0.86567367245E+01  0.62709482092E+01 -0.48331636954E+01  0.11731298041E+02  0.51100000000E-03 0.  1.
         12    1    3    3    0    0 -0.44257864413E+01  0.33073543255E+01 -0.15447794618E+01  0.57369435978E+01  0.00000000000E+00 0. -1.
</event>
<event>
 7    1  0.1442665E-008  0.4614232E+02  0.7816164E-02  0.1320468E+00
        -11   -1    0    0    0    0  0.00000000000E+00  0.00000000000E+00  0.45593999997E+02  0.45594000000E+02  0.51100000000E-03 0.  1.
         11   -1    0    0    0    0 -0.00000000000E+00 -0.00000000000E+00 -0.45593999997E+02  0.45594000000E+02  0.51100000000E-03 0. -1.
    9900012    2    1    2    0    0  0.18636577519E+02  0.29225980201E+02  0.28768620766E+02  0.46142317842E+02  0.10000000734E+02 0.  0.
         12    1    1    2    0    0 -0.18636577519E+02 -0.29225980201E+02 -0.28768620766E+02  0.45045682158E+02  0.00000000000E+00 0. -1.
         11    1    3    3    0    0  0.15254445698E+01  0.78065885328E+01  0.10123081073E+02  0.12874260224E+02  0.51100000000E-03 0. -1.
        -11    1    3    3    0    0  0.14438172970E+02  0.18046891616E+02  0.16865525246E+02  0.28611135556E+02  0.51100000000E-03 0.  1.
         12    1    3    3    0    0  0.26729599798E+01  0.33725000524E+01  0.17800144467E+01  0.46569220616E+01  0.00000000000E+00 0. -1.
</event>
<event>
 7    1  0.1442665E-008  0.4614232E+02  0.7816164E-02  0.1320468E+00
        -11   -1    0    0    0    0  0.00000000000E+00  0.00000000000E+00  0.45593999997E+02  0.45594000000E+02  0.51100000000E-03 0.  1.
         11   -1    0    0    0    0 -0.00000000000E+00 -0.00000000000E+00 -0.45593999997E+02  0.45594000000E+02  0.51100000000E-03 0. -1.
    9900012    2    1    2    0    0 -0.81392732536E+01  0.22157630080E+02  0.38365416281E+02  0.46142317563E+02  0.99999981909E+01 0.  0.
         12    1    1    2    0    0  0.81392732536E+01 -0.22157630080E+02 -0.38365416281E+02  0.45045682437E+02  0.00000000000E+00 0. -1.
         11    1    3    3    0    0  0.78110896635E+00  0.78757823231E+01  0.17457626910E+02  0.19167858931E+02  0.51100000000E-03 0. -1.
        -11    1    3    3    0    0 -0.86603414547E+01  0.14091871976E+02  0.20898857941E+02  0.26652291334E+02  0.51100000000E-03 0.  1.
        -12    1    3    3    0    0 -0.26004076527E+00  0.18997578086E+00  0.89314302509E-02  0.32216729717E+00  0.00000000000E+00 0.  1.
</event>
<event>
 7    1  0.1442665E-008  0.4614232E+02  0.7816164E-02  0.1320468E+00
        -11   -1    0    0    0    0  0.00000000000E+00  0.00000000000E+00  0.45593999997E+02  0.45594000000E+02  0.51100000000E-03 0.  1.
         11   -1    0    0    0    0 -0.00000000000E+00 -0.00000000000E+00 -0.45593999997E+02  0.45594000000E+02  0.51100000000E-03 0. -1.
    9900012    2    1    2    0    0 -0.17898299362E+02 -0.42331767468E+00  0.41335035461E+02  0.46142317915E+02  0.10000001407E+02 0.  0.
         12    1    1    2    0    0  0.17898299362E+02  0.42331767468E+00 -0.41335035461E+02  0.45045682085E+02  0.00000000000E+00 0. -1.
         11    1    3    3    0    0 -0.73707860370E+01 -0.11126475318E+01  0.82282244235E+01  0.11102709073E+02  0.51100000000E-03 0. -1.
        -11    1    3    3    0    0 -0.10233437174E+02  0.16938056737E+01  0.28918307563E+02  0.30722316427E+02  0.51100000000E-03 0.  1.
         12    1    3    3    0    0 -0.29407615117E+00 -0.10044758166E+01  0.41885034743E+01  0.43172924158E+01  0.00000000000E+00 0. -1.
</event>
<event>
 7    1  0.1442665E-008  0.4614231E+02  0.7816164E-02  0.1320468E+00
        -11   -1    0    0    0    0  0.00000000000E+00  0.00000000000E+00  0.45593999997E+02  0.45594000000E+02  0.51100000000E-03 0.  1.
         11   -1    0    0    0    0 -0.00000000000E+00 -0.00000000000E+00 -0.45593999997E+02  0.45594000000E+02  0.51100000000E-03 0. -1.
    9900012    2    1    2    0    0  0.16074314277E+02 -0.20978347447E+02  0.36477929095E+02  0.46142312614E+02  0.99999530600E+01 0.  0.
         12    1    1    2    0    0 -0.16074314277E+02  0.20978347447E+02 -0.36477929095E+02  0.45045687386E+02  0.00000000000E+00 0. -1.
         11    1    3    3    0    0  0.64282188509E+01 -0.53181041932E+01  0.16239878689E+02  0.18257543370E+02  0.51100000000E-03 0.  1.
        -11    1    3    3    0    0  0.73971074441E+01 -0.14992835445E+02  0.18678873895E+02  0.25067960497E+02  0.51100000000E-03 0. -1.
         12    1    3    3    0    0  0.22489879817E+01 -0.66740780854E+00  0.15591765112E+01  0.28168087471E+01  0.00000000000E+00 0. -1.
</event>
<event>
 7    1  0.1442665E-008  0.4614232E+02  0.7816164E-02  0.1320468E+00
        -11   -1    0    0    0    0  0.00000000000E+00  0.00000000000E+00  0.45593999997E+02  0.45594000000E+02  0.51100000000E-03 0.  1.
         11   -1    0    0    0    0 -0.00000000000E+00 -0.00000000000E+00 -0.45593999997E+02  0.45594000000E+02  0.51100000000E-03 0. -1.
    9900012    2    1    2    0    0 -0.75314833728E+01  0.42926469856E+02 -0.11388953306E+02  0.46142319702E+02  0.10000017701E+02 0.  0.
         12    1    1    2    0    0  0.75314833728E+01 -0.42926469856E+02  0.11388953306E+02  0.45045680298E+02  0.00000000000E+00 0. -1.
         11    1    3    3    0    0  0.32799595743E+00  0.16018022413E+02 -0.31277482289E+01  0.16323830207E+02  0.51100000000E-03 0. -1.
        -11    1    3    3    0    0 -0.49185015043E+01  0.80878306021E+01 -0.41243552022E+01  0.10325452387E+02  0.51100000000E-03 0.  1.
        -12    1    3    3    0    0 -0.29409778260E+01  0.18820616840E+02 -0.41368498750E+01  0.19493037109E+02  0.00000000000E+00 0.  1.
</event>
<event>
 7    1  0.1442665E-008  0.4614232E+02  0.7816164E-02  0.1320468E+00
        -11   -1    0    0    0    0  0.00000000000E+00  0.00000000000E+00  0.45593999997E+02  0.45594000000E+02  0.51100000000E-03 0.  1.
         11   -1    0    0    0    0 -0.00000000000E+00 -0.00000000000E+00 -0.45593999997E+02  0.45594000000E+02  0.51100000000E-03 0. -1.
    9900012    2    1    2    0    0  0.36874600604E+02 -0.20701781395E+02  0.15518169482E+02  0.46142317558E+02  0.99999981446E+01 0.  0.
         12    1    1    2    0    0 -0.36874600604E+02  0.20701781395E+02 -0.15518169482E+02  0.45045682442E+02  0.00000000000E+00 0. -1.
         11    1    3    3    0    0  0.20302287841E+02 -0.11101076729E+02  0.12357067718E+02  0.26231925568E+02  0.51100000000E-03 0.  1.
        -11    1    3    3    0    0  0.54605482889E+01 -0.56489719590E+01  0.15347730685E+01  0.80052483060E+01  0.51100000000E-03 0. -1.
        -12    1    3    3    0    0  0.11111764474E+02 -0.39517327069E+01  0.16263286950E+01  0.11905143684E+02  0.00000000000E+00 0.  1.
</event>
<event>
 7    1  0.1442665E-008  0.4614232E+02  0.7816164E-02  0.1320468E+00
        -11   -1    0    0    0    0  0.00000000000E+00  0.00000000000E+00  0.45593999997E+02  0.45594000000E+02  0.51100000000E-03 0. -1.
         11   -1    0    0    0    0 -0.00000000000E+00 -0.00000000000E+00 -0.45593999997E+02  0.45594000000E+02  0.51100000000E-03 0.  1.
    9900012    2    1    2    0    0  0.34545609104E+02 -0.28558044492E+02  0.44891532911E+01  0.46142317512E+02  0.99999977255E+01 0.  0.
         12    1    1    2    0    0 -0.34545609104E+02  0.28558044492E+02 -0.44891532911E+01  0.45045682488E+02  0.00000000000E+00 0. -1.
         11    1    3    3    0    0  0.92606814697E-01 -0.15620230439E+01  0.13091727226E+01  0.20402023161E+01  0.51100000000E-03 0. -1.
        -11    1    3    3    0    0  0.28325440990E+02 -0.23129180544E+02  0.11907109092E+01  0.36588350504E+02  0.51100000000E-03 0.  1.
         12    1    3    3    0    0  0.61275613000E+01 -0.38668409038E+01  0.19892696594E+01  0.75137646915E+01  0.00000000000E+00 0. -1.
</event>
<event>
 7    1  0.1442665E-008  0.4614232E+02  0.7816164E-02  0.1320468E+00
        -11   -1    0    0    0    0  0.00000000000E+00  0.00000000000E+00  0.45593999997E+02  0.45594000000E+02  0.51100000000E-03 0. -1.
         11   -1    0    0    0    0 -0.00000000000E+00 -0.00000000000E+00 -0.45593999997E+02  0.45594000000E+02  0.51100000000E-03 0.  1.
    9900012    2    1    2    0    0 -0.31339469935E+02 -0.11244224344E+01 -0.32337079555E+02  0.46142318567E+02  0.10000007352E+02 0.  0.
         12    1    1    2    0    0  0.31339469935E+02  0.11244224344E+01  0.32337079555E+02  0.45045681433E+02  0.00000000000E+00 0. -1.
         11    1    3    3    0    0 -0.77225382264E+01 -0.13800544277E+01 -0.35240280921E+01  0.86000535542E+01  0.51100000000E-03 0. -1.
        -11    1    3    3    0    0 -0.12943511337E+02 -0.21367279179E+01 -0.16256720637E+02  0.20889735711E+02  0.51100000000E-03 0.  1.
         12    1    3    3    0    0 -0.10673420371E+02  0.23923599112E+01 -0.12556330826E+02  0.16652529302E+02  0.00000000000E+00 0. -1.
</event>
<event>
 7    1  0.1442665E-008  0.4614232E+02  0.7816164E-02  0.1320468E+00
        -11   -1    0    0    0    0  0.00000000000E+00  0.00000000000E+00  0.45593999997E+02  0.45594000000E+02  0.51100000000E-03 0.  1.
         11   -1    0    0    0    0 -0.00000000000E+00 -0.00000000000E+00 -0.45593999997E+02  0.45594000000E+02  0.51100000000E-03 0. -1.
    9900012    2    1    2    0    0 -0.16418848874E+02 -0.24007333766E+02  0.34397422515E+02  0.46142319313E+02  0.10000014147E+02 0.  0.
         12    1    1    2    0    0  0.16418848874E+02  0.24007333766E+02 -0.34397422515E+02  0.45045680687E+02  0.00000000000E+00 0. -1.
         11    1    3    3    0    0 -0.50160912586E+01 -0.13876754632E+02  0.16237754755E+02  0.21940605515E+02  0.51100000000E-03 0. -1.
        -11    1    3    3    0    0 -0.77464566647E+01 -0.95492798597E+01  0.13965808399E+02  0.18607529153E+02  0.51100000000E-03 0.  1.
        -12    1    3    3    0    0 -0.36563009505E+01 -0.58129927428E+00  0.41938593619E+01  0.55941846442E+01  0.00000000000E+00 0.  1.
</event>
<event>
 7    1  0.1442665E-008  0.4614232E+02  0.7816164E-02  0.1320468E+00
        -11   -1    0    0    0    0  0.00000000000E+00  0.00000000000E+00  0.45593999997E+02  0.45594000000E+02  0.51100000000E-03 0. -1.
         11   -1    0    0    0    0 -0.00000000000E+00 -0.00000000000E+00 -0.45593999997E+02  0.45594000000E+02  0.51100000000E-03 0.  1.
    9900012    2    1    2    0    0 -0.29785895369E+02 -0.28368179064E+02 -0.18361925844E+02  0.46142317997E+02  0.10000002153E+02 0.  0.
         12    1    1    2    0    0  0.29785895369E+02  0.28368179064E+02  0.18361925844E+02  0.45045682003E+02  0.00000000000E+00 0. -1.
         11    1    3    3    0    0 -0.15478289662E+02 -0.14088050521E+02 -0.11766441127E+02  0.24010409314E+02  0.51100000000E-03 0.  1.
        -11    1    3    3    0    0  0.39828591003E-01 -0.26237002385E+01 -0.53398968576E+00  0.26777853730E+01  0.51100000000E-03 0. -1.
         12    1    3    3    0    0 -0.14347434298E+02 -0.11656428305E+02 -0.60614950317E+01  0.19454123310E+02  0.00000000000E+00 0. -1.
</event>
<event>
 7    1  0.1442665E-008  0.4614232E+02  0.7816164E-02  0.1320468E+00
        -11   -1    0    0    0    0  0.00000000000E+00  0.00000000000E+00  0.45593999997E+02  0.45594000000E+02  0.51100000000E-03 0.  1.
         11   -1    0    0    0    0 -0.00000000000E+00 -0.00000000000E+00 -0.45593999997E+02  0.45594000000E+02  0.51100000000E-03 0. -1.
    9900012    2    1    2    0    0 -0.12575309548E+02 -0.41132954975E+02  0.13381148811E+02  0.46142317203E+02  0.99999949065E+01 0.  0.
         12    1    1    2    0    0  0.12575309548E+02  0.41132954975E+02 -0.13381148811E+02  0.45045682797E+02  0.00000000000E+00 0. -1.
         11    1    3    3    0    0  0.15337175600E+01 -0.29547738772E+01  0.16248548508E+01  0.37044745602E+01  0.51100000000E-03 0. -1.
        -11    1    3    3    0    0 -0.74547340895E+01 -0.16674643019E+02  0.54846775826E+01  0.19070880122E+02  0.51100000000E-03 0.  1.
         12    1    3    3    0    0 -0.66542930183E+01 -0.21503538078E+02  0.62716163778E+01  0.23366962521E+02  0.00000000000E+00 0. -1.
</event>
<event>
 7    1  0.1442665E-008  0.4614232E+02  0.7816164E-02  0.1320468E+00
        -11   -1    0    0    0    0  0.00000000000E+00  0.00000000000E+00  0.45593999997E+02  0.45594000000E+02  0.51100000000E-03 0.  1.
         11   -1    0    0    0    0 -0.00000000000E+00 -0.00000000000E+00 -0.45593999997E+02  0.45594000000E+02  0.51100000000E-03 0. -1.
    9900012    2    1    2    0    0 -0.25557901960E+02 -0.11035504653E+01  0.37076803992E+02  0.46142316849E+02  0.99999916861E+01 0.  0.
         12    1    1    2    0    0  0.25557901960E+02  0.11035504653E+01 -0.37076803992E+02  0.45045683151E+02  0.00000000000E+00 0. -1.
         11    1    3    3    0    0 -0.24011437347E+02 -0.10438068551E+01  0.32361716469E+02  0.40310288380E+02  0.51100000000E-03 0. -1.
        -11    1    3    3    0    0 -0.18530505764E+00  0.41278014620E+00  0.43122593723E+01  0.43359320299E+01  0.51100000000E-03 0.  1.
         12    1    3    3    0    0 -0.13611595558E+01 -0.47252375640E+00  0.40282815092E+00  0.14960964394E+01  0.00000000000E+00 0. -1.
</event>
<event>
 7    1  0.1442665E-008  0.4614232E+02  0.7816164E-02  0.1320468E+00
        -11   -1    0    0    0    0  0.00000000000E+00  0.00000000000E+00  0.45593999997E+02  0.45594000000E+02  0.51100000000E-03 0. -1.
         11   -1    0    0    0    0 -0.00000000000E+00 -0.00000000000E+00 -0.45593999997E+02  0.45594000000E+02  0.51100000000E-03 0.  1.
    9900012    2    1    2    0    0  0.31157574627E+02 -0.30449643530E+02  0.11451564756E+02  0.46142316710E+02  0.99999904145E+01 0.  0.
         12    1    1    2    0    0 -0.31157574627E+02  0.30449643530E+02 -0.11451564756E+02  0.45045683290E+02  0.00000000000E+00 0. -1.
         11    1    3    3    0    0  0.17123368197E+02 -0.12034921928E+02  0.43583671666E+01  0.21378597916E+02  0.51100000000E-03 0. -1.
        -11    1    3    3    0    0  0.10468745476E+02 -0.10730664583E+02  0.27402320992E+01  0.15239772519E+02  0.51100000000E-03 0.  1.
         12    1    3    3    0    0  0.35654609535E+01 -0.76840570191E+01  0.43529654898E+01  0.95239462745E+01  0.00000000000E+00 0. -1.
</event>
<event>
 7    1  0.1442665E-008  0.4614232E+02  0.7816164E-02  0.1320468E+00
        -11   -1    0    0    0    0  0.00000000000E+00  0.00000000000E+00  0.45593999997E+02  0.45594000000E+02  0.51100000000E-03 0.  1.
         11   -1    0    0    0    0 -0.00000000000E+00 -0.00000000000E+00 -0.45593999997E+02  0.45594000000E+02  0.51100000000E-03 0. -1.
    9900012    2    1    2    0    0 -0.12168616479E+02  0.10930125073E+02  0.41971068619E+02  0.46142318052E+02  0.10000002654E+02 0.  0.
         12    1    1    2    0    0  0.12168616479E+02 -0.10930125073E+02 -0.41971068619E+02  0.45045681948E+02  0.00000000000E+00 0. -1.
         11    1    3    3    0    0 -0.15479980643E+00  0.13281020761E+00 -0.20011902036E+00  0.28574361716E+00  0.51100000000E-03 0. -1.
        -11    1    3    3    0    0 -0.10524196601E+02  0.10231937657E+02  0.28167581423E+02  0.31762618056E+02  0.51100000000E-03 0.  1.
        -12    1    3    3    0    0 -0.14896200719E+01  0.56537720880E+00  0.14003606217E+02  0.14093956379E+02  0.00000000000E+00 0.  1.
</event>
<event>
 7    1  0.1442665E-008  0.4614232E+02  0.7816164E-02  0.1320468E+00
        -11   -1    0    0    0    0  0.00000000000E+00  0.00000000000E+00  0.45593999997E+02  0.45594000000E+02  0.51100000000E-03 0.  1.
         11   -1    0    0    0    0 -0.00000000000E+00 -0.00000000000E+00 -0.45593999997E+02  0.45594000000E+02  0.51100000000E-03 0. -1.
    9900012    2    1    2    0    0  0.21162397667E+02  0.39729355918E+02  0.16866593765E+01  0.46142316338E+02  0.99999870261E+01 0.  0.
         12    1    1    2    0    0 -0.21162397667E+02 -0.39729355918E+02 -0.16866593765E+01  0.45045683662E+02  0.00000000000E+00 0. -1.
         11    1    3    3    0    0  0.13976254244E+02  0.26655121814E+02  0.26400926400E+01  0.30212601527E+02  0.51100000000E-03 0.  1.
        -11    1    3    3    0    0  0.79251888752E+01  0.12295853669E+02 -0.15350081205E+01  0.14708938994E+02  0.51100000000E-03 0. -1.
         12    1    3    3    0    0 -0.73904545152E+00  0.77838043531E+00  0.58157485707E+00  0.12207758172E+01  0.00000000000E+00 0. -1.
</event>
<event>
 7    1  0.1442665E-008  0.4614231E+02  0.7816164E-02  0.1320468E+00
        -11   -1    0    0    0    0  0.00000000000E+00  0.00000000000E+00  0.45593999997E+02  0.45594000000E+02  0.51100000000E-03 0.  1.
         11   -1    0    0    0    0 -0.00000000000E+00 -0.00000000000E+00 -0.45593999997E+02  0.45594000000E+02  0.51100000000E-03 0. -1.
    9900012    2    1    2    0    0  0.29336686549E+02 -0.18836449712E+02  0.28524749342E+02  0.46142308303E+02  0.99999137567E+01 0.  0.
         12    1    1    2    0    0 -0.29336686549E+02  0.18836449712E+02 -0.28524749342E+02  0.45045691697E+02  0.00000000000E+00 0. -1.
         11    1    3    3    0    0  0.12715677856E+02 -0.63005473621E+01  0.13757979376E+02  0.19765306908E+02  0.51100000000E-03 0. -1.
        -11    1    3    3    0    0  0.87992128721E+01 -0.61880873770E+01  0.11593709088E+02  0.15815582924E+02  0.51100000000E-03 0.  1.
         12    1    3    3    0    0  0.78217958210E+01 -0.63478149727E+01  0.31730608781E+01  0.10561418471E+02  0.00000000000E+00 0. -1.
</event>
<event>
 7    1  0.1442665E-008  0.4614232E+02  0.7816164E-02  0.1320468E+00
        -11   -1    0    0    0    0  0.00000000000E+00  0.00000000000E+00  0.45593999997E+02  0.45594000000E+02  0.51100000000E-03 0.  1.
         11   -1    0    0    0    0 -0.00000000000E+00 -0.00000000000E+00 -0.45593999997E+02  0.45594000000E+02  0.51100000000E-03 0. -1.
    9900012    2    1    2    0    0  0.35357026071E+02 -0.22985712258E+02  0.15831968525E+02  0.46142317765E+02  0.10000000039E+02 0.  0.
         12    1    1    2    0    0 -0.35357026071E+02  0.22985712258E+02 -0.15831968525E+02  0.45045682235E+02  0.00000000000E+00 0. -1.
         11    1    3    3    0    0  0.90529836084E+01 -0.97574360993E+01  0.79564540450E+01  0.15507070409E+02  0.51100000000E-03 0. -1.
        -11    1    3    3    0    0  0.17322676994E+02 -0.70470485947E+01  0.48234908344E+01  0.19313262185E+02  0.51100000000E-03 0.  1.
         12    1    3    3    0    0  0.89813654686E+01 -0.61812275641E+01  0.30520236456E+01  0.11321985171E+02  0.00000000000E+00 0. -1.
</event>
<event>
 7    1  0.1442665E-008  0.4614232E+02  0.7816164E-02  0.1320468E+00
        -11   -1    0    0    0    0  0.00000000000E+00  0.00000000000E+00  0.45593999997E+02  0.45594000000E+02  0.51100000000E-03 0.  1.
         11   -1    0    0    0    0 -0.00000000000E+00 -0.00000000000E+00 -0.45593999997E+02  0.45594000000E+02  0.51100000000E-03 0. -1.
    9900012    2    1    2    0    0  0.12324313648E+02 -0.37090831120E+02  0.22394083759E+02  0.46142318215E+02  0.10000004142E+02 0.  0.
         12    1    1    2    0    0 -0.12324313648E+02  0.37090831120E+02 -0.22394083759E+02  0.45045681785E+02  0.00000000000E+00 0. -1.
         11    1    3    3    0    0  0.38731671319E+01 -0.49629986704E+01  0.85024265346E+00  0.63526130266E+01  0.51100000000E-03 0. -1.
        -11    1    3    3    0    0  0.44745623833E+01 -0.20019290643E+02  0.15343298290E+02  0.25616606119E+02  0.51100000000E-03 0.  1.
         12    1    3    3    0    0  0.39765841332E+01 -0.12108541806E+02  0.62005428151E+01  0.14173099070E+02  0.00000000000E+00 0. -1.
</event>
<event>
 7    1  0.1442665E-008  0.4614232E+02  0.7816164E-02  0.1320468E+00
        -11   -1    0    0    0    0  0.00000000000E+00  0.00000000000E+00  0.45593999997E+02  0.45594000000E+02  0.51100000000E-03 0.  1.
         11   -1    0    0    0    0 -0.00000000000E+00 -0.00000000000E+00 -0.45593999997E+02  0.45594000000E+02  0.51100000000E-03 0. -1.
    9900012    2    1    2    0    0  0.44190948264E+02  0.50862423865E+01  0.70995598137E+01  0.46142317414E+02  0.99999968326E+01 0.  0.
         12    1    1    2    0    0 -0.44190948264E+02 -0.50862423865E+01 -0.70995598137E+01  0.45045682586E+02  0.00000000000E+00 0. -1.
         11    1    3    3    0    0  0.70756025587E+01  0.26068068709E+01 -0.77061986600E+00  0.75798053319E+01  0.51100000000E-03 0. -1.
        -11    1    3    3    0    0  0.33912775392E+02  0.37351772161E+00  0.69212152842E+01  0.34613856641E+02  0.51100000000E-03 0.  1.
        -12    1    3    3    0    0  0.32025703137E+01  0.21059177939E+01  0.94896439557E+00  0.39486554412E+01  0.00000000000E+00 0.  1.
</event>
<event>
 7    1  0.1442665E-008  0.4614232E+02  0.7816164E-02  0.1320468E+00
        -11   -1    0    0    0    0  0.00000000000E+00  0.00000000000E+00  0.45593999997E+02  0.45594000000E+02  0.51100000000E-03 0.  1.
         11   -1    0    0    0    0 -0.00000000000E+00 -0.00000000000E+00 -0.45593999997E+02  0.45594000000E+02  0.51100000000E-03 0. -1.
    9900012    2    1    2    0    0 -0.26474174164E+02 -0.35645667514E+02  0.75906486414E+01  0.46142318109E+02  0.10000003176E+02 0.  0.
         12    1    1    2    0    0  0.26474174164E+02  0.35645667514E+02 -0.75906486414E+01  0.45045681891E+02  0.00000000000E+00 0. -1.
         11    1    3    3    0    0 -0.12433789506E+02 -0.14171272351E+02 -0.13382677875E+01  0.18900133398E+02  0.51100000000E-03 0. -1.
        -11    1    3    3    0    0 -0.98962415513E+01 -0.14812224193E+02  0.71618867538E+01  0.19199744908E+02  0.51100000000E-03 0.  1.
         12    1    3    3    0    0 -0.41441431064E+01 -0.66621709703E+01  0.17670296751E+01  0.80424398037E+01  0.00000000000E+00 0. -1.
</event>
<event>
 7    1  0.1442665E-008  0.4614232E+02  0.7816164E-02  0.1320468E+00
        -11   -1    0    0    0    0  0.00000000000E+00  0.00000000000E+00  0.45593999997E+02  0.45594000000E+02  0.51100000000E-03 0.  1.
         11   -1    0    0    0    0 -0.00000000000E+00 -0.00000000000E+00 -0.45593999997E+02  0.45594000000E+02  0.51100000000E-03 0. -1.
    9900012    2    1    2    0    0  0.20710902049E+02  0.26854468573E+02  0.29648092069E+02  0.46142319748E+02  0.10000018119E+02 0.  0.
         12    1    1    2    0    0 -0.20710902049E+02 -0.26854468573E+02 -0.29648092069E+02  0.45045680252E+02  0.00000000000E+00 0. -1.
         11    1    3    3    0    0  0.22621117223E+01  0.17882102378E+01  0.48357110833E+01  0.56301818124E+01  0.51100000000E-03 0. -1.
        -11    1    3    3    0    0  0.10468813391E+02  0.15389281331E+02  0.19296183425E+02  0.26809862527E+02  0.51100000000E-03 0.  1.
        -12    1    3    3    0    0  0.79799769359E+01  0.96769770043E+01  0.55161975604E+01  0.13702275408E+02  0.00000000000E+00 0.  1.
</event>
<event>
 7    1  0.1442665E-008  0.4614232E+02  0.7816164E-02  0.1320468E+00
        -11   -1    0    0    0    0  0.00000000000E+00  0.00000000000E+00  0.45593999997E+02  0.45594000000E+02  0.51100000000E-03 0.  1.
         11   -1    0    0    0    0 -0.00000000000E+00 -0.00000000000E+00 -0.45593999997E+02  0.45594000000E+02  0.51100000000E-03 0. -1.
    9900012    2    1    2    0    0  0.11265264369E+02  0.43607782216E+02  0.75403458620E+00  0.46142318528E+02  0.10000006994E+02 0.  0.
         12    1    1    2    0    0 -0.11265264369E+02 -0.43607782216E+02 -0.75403458620E+00  0.45045681472E+02  0.00000000000E+00 0. -1.
         11    1    3    3    0    0  0.11695381238E+01  0.12525106989E+01  0.35625952542E+00  0.17502924282E+01  0.51100000000E-03 0. -1.
        -11    1    3    3    0    0  0.57394957050E+01  0.31137066219E+02  0.37927794179E+01  0.31887989583E+02  0.51100000000E-03 0.  1.
        -12    1    3    3    0    0  0.43562305400E+01  0.11218205299E+02 -0.33950043571E+01  0.12504036517E+02  0.00000000000E+00 0.  1.
</event>
<event>
 7    1  0.1442665E-008  0.4614232E+02  0.7816164E-02  0.1320468E+00
        -11   -1    0    0    0    0  0.00000000000E+00  0.00000000000E+00  0.45593999997E+02  0.45594000000E+02  0.51100000000E-03 0.  1.
         11   -1    0    0    0    0 -0.00000000000E+00 -0.00000000000E+00 -0.45593999997E+02  0.45594000000E+02  0.51100000000E-03 0. -1.
    9900012    2    1    2    0    0 -0.26492290595E+02 -0.20582887711E+02  0.30060219177E+02  0.46142317582E+02  0.99999983712E+01 0.  0.
         12    1    1    2    0    0  0.26492290595E+02  0.20582887711E+02 -0.30060219177E+02  0.45045682418E+02  0.00000000000E+00 0. -1.
         11    1    3    3    0    0 -0.21727840773E+02 -0.19690908214E+02  0.22741312865E+02  0.37107926943E+02  0.51100000000E-03 0. -1.
        -11    1    3    3    0    0 -0.32930506814E+01 -0.10364406742E+01  0.64597892861E+01  0.73244296668E+01  0.51100000000E-03 0.  1.
        -12    1    3    3    0    0 -0.14713991404E+01  0.14446117749E+00  0.85911702609E+00  0.17099609722E+01  0.00000000000E+00 0.  1.
</event>
<event>
 7    1  0.1442665E-008  0.4614232E+02  0.7816164E-02  0.1320468E+00
        -11   -1    0    0    0    0  0.00000000000E+00  0.00000000000E+00  0.45593999997E+02  0.45594000000E+02  0.51100000000E-03 0. -1.
         11   -1    0    0    0    0 -0.00000000000E+00 -0.00000000000E+00 -0.45593999997E+02  0.45594000000E+02  0.51100000000E-03 0.  1.
    9900012    2    1    2    0    0 -0.43737160994E+02  0.98210178604E+01 -0.44409313071E+01  0.46142317471E+02  0.99999973585E+01 0.  0.
         12    1    1    2    0    0  0.43737160994E+02 -0.98210178604E+01  0.44409313071E+01  0.45045682529E+02  0.00000000000E+00 0. -1.
         11    1    3    3    0    0 -0.29651153081E+02  0.95226995542E+01  0.46168858267E+00  0.31146201092E+02  0.51100000000E-03 0. -1.
        -11    1    3    3    0    0 -0.27687756724E+01  0.16654208900E+00 -0.16177195138E+01  0.32110546053E+01  0.51100000000E-03 0.  1.
         12    1    3    3    0    0 -0.11317232240E+02  0.13177621718E+00 -0.32849003759E+01  0.11785061775E+02  0.00000000000E+00 0. -1.
</event>
<event>
 7    1  0.1442665E-008  0.4614232E+02  0.7816164E-02  0.1320468E+00
        -11   -1    0    0    0    0  0.00000000000E+00  0.00000000000E+00  0.45593999997E+02  0.45594000000E+02  0.51100000000E-03 0.  1.
         11   -1    0    0    0    0 -0.00000000000E+00 -0.00000000000E+00 -0.45593999997E+02  0.45594000000E+02  0.51100000000E-03 0. -1.
    9900012    2    1    2    0    0  0.38271228325E+02 -0.13461209738E+02  0.19576067118E+02  0.46142317755E+02  0.99999999443E+01 0.  0.
         12    1    1    2    0    0 -0.38271228325E+02  0.13461209738E+02 -0.19576067118E+02  0.45045682245E+02  0.00000000000E+00 0. -1.
         11    1    3    3    0    0  0.76232287021E+01 -0.50057789806E+01  0.58622976470E+01  0.10841493117E+02  0.51100000000E-03 0. -1.
        -11    1    3    3    0    0  0.11115709015E+02  0.30350226965E+00  0.48748323056E+01  0.12141461642E+02  0.51100000000E-03 0.  1.
        -12    1    3    3    0    0  0.19532290608E+02 -0.87589330267E+01  0.88389371652E+01  0.23159362996E+02  0.00000000000E+00 0.  1.
</event>
<event>
 7    1  0.1442665E-008  0.4614232E+02  0.7816164E-02  0.1320468E+00
        -11   -1    0    0    0    0  0.00000000000E+00  0.00000000000E+00  0.45593999997E+02  0.45594000000E+02  0.51100000000E-03 0.  1.
         11   -1    0    0    0    0 -0.00000000000E+00 -0.00000000000E+00 -0.45593999997E+02  0.45594000000E+02  0.51100000000E-03 0. -1.
    9900012    2    1    2    0    0  0.34851744399E+02  0.62093887263E+01  0.27855211898E+02  0.46142318455E+02  0.10000006326E+02 0.  0.
         12    1    1    2    0    0 -0.34851744399E+02 -0.62093887263E+01 -0.27855211898E+02  0.45045681545E+02  0.00000000000E+00 0. -1.
         11    1    3    3    0    0  0.14273676786E+02  0.37436348179E+01  0.17584621290E+02  0.22955861056E+02  0.51100000000E-03 0. -1.
        -11    1    3    3    0    0  0.20600599395E+02  0.24277461920E+01  0.10242709257E+02  0.23134211466E+02  0.51100000000E-03 0.  1.
        -12    1    3    3    0    0 -0.22531782191E-01  0.38007716438E-01  0.27881350925E-01  0.52245932349E-01  0.00000000000E+00 0.  1.
</event>
<event>
 7    1  0.1442665E-008  0.4614232E+02  0.7816164E-02  0.1320468E+00
        -11   -1    0    0    0    0  0.00000000000E+00  0.00000000000E+00  0.45593999997E+02  0.45594000000E+02  0.51100000000E-03 0. -1.
         11   -1    0    0    0    0 -0.00000000000E+00 -0.00000000000E+00 -0.45593999997E+02  0.45594000000E+02  0.51100000000E-03 0.  1.
    9900012    2    1    2    0    0 -0.94154933261E+01  0.40330577161E+02 -0.17717406146E+02  0.46142318195E+02  0.10000003956E+02 0.  0.
         12    1    1    2    0    0  0.94154933261E+01 -0.40330577161E+02  0.17717406146E+02  0.45045681805E+02  0.00000000000E+00 0. -1.
         11    1    3    3    0    0 -0.12835435525E+01  0.37023162011E+01  0.32106852554E+00  0.39316300136E+01  0.51100000000E-03 0. -1.
        -11    1    3    3    0    0 -0.63988291583E+01  0.35045196541E+02 -0.15814142501E+02  0.38976889544E+02  0.51100000000E-03 0.  1.
         12    1    3    3    0    0 -0.17331206153E+01  0.15830644188E+01 -0.22243321710E+01  0.32337986375E+01  0.00000000000E+00 0. -1.
</event>
<event>
 7    1  0.1442665E-008  0.4614232E+02  0.7816164E-02  0.1320468E+00
        -11   -1    0    0    0    0  0.00000000000E+00  0.00000000000E+00  0.45593999997E+02  0.45594000000E+02  0.51100000000E-03 0.  1.
         11   -1    0    0    0    0 -0.00000000000E+00 -0.00000000000E+00 -0.45593999997E+02  0.45594000000E+02  0.51100000000E-03 0. -1.
    9900012    2    1    2    0    0  0.23940860675E+02 -0.37466153834E+02  0.72274470598E+01  0.46142317810E+02  0.10000000444E+02 0.  0.
         12    1    1    2    0    0 -0.23940860675E+02  0.37466153834E+02 -0.72274470598E+01  0.45045682190E+02  0.00000000000E+00 0. -1.
         11    1    3    3    0    0  0.83064345899E+01 -0.70298606969E+01  0.20999951047E+01  0.11082679131E+02  0.51100000000E-03 0. -1.
        -11    1    3    3    0    0  0.13692503046E+02 -0.28191669661E+02  0.61143429824E+01  0.31931803399E+02  0.51100000000E-03 0.  1.
         12    1    3    3    0    0  0.19419230392E+01 -0.22446234763E+01 -0.98689102721E+00  0.31278352802E+01  0.00000000000E+00 0. -1.
</event>
<event>
 7    1  0.1442665E-008  0.4614232E+02  0.7816164E-02  0.1320468E+00
        -11   -1    0    0    0    0  0.00000000000E+00  0.00000000000E+00  0.45593999997E+02  0.45594000000E+02  0.51100000000E-03 0.  1.
         11   -1    0    0    0    0 -0.00000000000E+00 -0.00000000000E+00 -0.45593999997E+02  0.45594000000E+02  0.51100000000E-03 0. -1.
    9900012    2    1    2    0    0  0.38309631002E+02  0.44239505954E+01 -0.23279052447E+02  0.46142318195E+02  0.10000003959E+02 0.  0.
         12    1    1    2    0    0 -0.38309631002E+02 -0.44239505954E+01  0.23279052447E+02  0.45045681805E+02  0.00000000000E+00 0. -1.
         11    1    3    3    0    0  0.29297516369E+02  0.44126371323E+00 -0.17774488009E+02  0.34270564677E+02  0.51100000000E-03 0. -1.
        -11    1    3    3    0    0  0.78594824526E+01  0.44693647427E+01 -0.55690993439E+01  0.10618924305E+02  0.51100000000E-03 0.  1.
         12    1    3    3    0    0  0.11526321805E+01 -0.48667786054E+00  0.64534905315E-01  0.12528292132E+01  0.00000000000E+00 0. -1.
</event>
<event>
 7    1  0.1442665E-008  0.4614231E+02  0.7816164E-02  0.1320468E+00
        -11   -1    0    0    0    0  0.00000000000E+00  0.00000000000E+00  0.45593999997E+02  0.45594000000E+02  0.51100000000E-03 0.  1.
         11   -1    0    0    0    0 -0.00000000000E+00 -0.00000000000E+00 -0.45593999997E+02  0.45594000000E+02  0.51100000000E-03 0. -1.
    9900012    2    1    2    0    0  0.78398833935E+01  0.44165046727E+02 -0.41350611104E+01  0.46142313698E+02  0.99999629535E+01 0.  0.
         12    1    1    2    0    0 -0.78398833935E+01 -0.44165046727E+02  0.41350611104E+01  0.45045686302E+02  0.00000000000E+00 0. -1.
         11    1    3    3    0    0  0.15092282829E+01  0.20677194123E+02 -0.33000287295E+01  0.20993196915E+02  0.51100000000E-03 0. -1.
        -11    1    3    3    0    0  0.40954201356E+01  0.17523635054E+02 -0.33431979967E+01  0.18303748925E+02  0.51100000000E-03 0.  1.
         12    1    3    3    0    0  0.22352349750E+01  0.59642175494E+01  0.25081656158E+01  0.68453678591E+01  0.00000000000E+00 0. -1.
</event>
<event>
 7    1  0.1442665E-008  0.4614232E+02  0.7816164E-02  0.1320468E+00
        -11   -1    0    0    0    0  0.00000000000E+00  0.00000000000E+00  0.45593999997E+02  0.45594000000E+02  0.51100000000E-03 0. -1.
         11   -1    0    0    0    0 -0.00000000000E+00 -0.00000000000E+00 -0.45593999997E+02  0.45594000000E+02  0.51100000000E-03 0.  1.
    9900012    2    1    2    0    0 -0.44320141129E+02 -0.61158544602E+01  0.52378295006E+01  0.46142318261E+02  0.10000004559E+02 0.  0.
         12    1    1    2    0    0  0.44320141129E+02  0.61158544602E+01 -0.52378295006E+01  0.45045681739E+02  0.00000000000E+00 0. -1.
         11    1    3    3    0    0 -0.36328171827E+02 -0.56397347916E+01  0.41571544515E+01  0.36997629791E+02  0.51100000000E-03 0. -1.
        -11    1    3    3    0    0 -0.79088944400E+01  0.14419335803E-01  0.19475671693E+01  0.81451726391E+01  0.51100000000E-03 0.  1.
         12    1    3    3    0    0 -0.83074862035E-01 -0.49053900444E+00 -0.86689212022E+00  0.99951583063E+00  0.00000000000E+00 0. -1.
</event>
<event>
 7    1  0.1442665E-008  0.4614232E+02  0.7816164E-02  0.1320468E+00
        -11   -1    0    0    0    0  0.00000000000E+00  0.00000000000E+00  0.45593999997E+02  0.45594000000E+02  0.51100000000E-03 0.  1.
         11   -1    0    0    0    0 -0.00000000000E+00 -0.00000000000E+00 -0.45593999997E+02  0.45594000000E+02  0.51100000000E-03 0. -1.
    9900012    2    1    2    0    0  0.14318170233E+01  0.44693877734E+02  0.54332897736E+01  0.46142318247E+02  0.10000004427E+02 0.  0.
         12    1    1    2    0    0 -0.14318170233E+01 -0.44693877734E+02 -0.54332897736E+01  0.45045681753E+02  0.00000000000E+00 0. -1.
         11    1    3    3    0    0 -0.17726693836E+01  0.49763116007E+01  0.56383531005E+00  0.53126212371E+01  0.51100000000E-03 0. -1.
        -11    1    3    3    0    0 -0.23399525378E+01  0.15985560634E+02  0.14693584431E+01  0.16222593540E+02  0.51100000000E-03 0.  1.
        -12    1    3    3    0    0  0.55444389447E+01  0.23732005499E+02  0.34000960205E+01  0.24607103469E+02  0.00000000000E+00 0.  1.
</event>
<event>
 7    1  0.1442665E-008  0.4614232E+02  0.7816164E-02  0.1320468E+00
        -11   -1    0    0    0    0  0.00000000000E+00  0.00000000000E+00  0.45593999997E+02  0.45594000000E+02  0.51100000000E-03 0. -1.
         11   -1    0    0    0    0 -0.00000000000E+00 -0.00000000000E+00 -0.45593999997E+02  0.45594000000E+02  0.51100000000E-03 0.  1.
    9900012    2    1    2    0    0  0.11771132637E+02 -0.18293809550E+02 -0.39444778474E+02  0.46142316741E+02  0.99999906985E+01 0.  0.
         12    1    1    2    0    0 -0.11771132637E+02  0.18293809550E+02  0.39444778474E+02  0.45045683259E+02  0.00000000000E+00 0. -1.
         11    1    3    3    0    0  0.32978492409E+01 -0.11455607366E+02 -0.18493802355E+02  0.22002896981E+02  0.51100000000E-03 0. -1.
        -11    1    3    3    0    0  0.79024805178E+01 -0.43113927094E+01 -0.18496507297E+02  0.20570806690E+02  0.51100000000E-03 0.  1.
         12    1    3    3    0    0  0.57080287799E+00 -0.25268094748E+01 -0.24544688217E+01  0.35686130701E+01  0.00000000000E+00 0. -1.
</event>
<event>
 7    1  0.1442665E-008  0.4614232E+02  0.7816164E-02  0.1320468E+00
        -11   -1    0    0    0    0  0.00000000000E+00  0.00000000000E+00  0.45593999997E+02  0.45594000000E+02  0.51100000000E-03 0.  1.
         11   -1    0    0    0    0 -0.00000000000E+00 -0.00000000000E+00 -0.45593999997E+02  0.45594000000E+02  0.51100000000E-03 0. -1.
    9900012    2    1    2    0    0  0.25363776142E+02  0.19639652512E+01  0.37174387638E+02  0.46142318787E+02  0.10000009356E+02 0.  0.
         12    1    1    2    0    0 -0.25363776142E+02 -0.19639652512E+01 -0.37174387638E+02  0.45045681213E+02  0.00000000000E+00 0. -1.
         11    1    3    3    0    0  0.54201939543E+01  0.98563867281E+00  0.45674185583E+01  0.71562070012E+01  0.51100000000E-03 0. -1.
        -11    1    3    3    0    0  0.19837856128E+02 -0.30102981994E+00  0.31761620199E+02  0.37449054363E+02  0.51100000000E-03 0.  1.
        -12    1    3    3    0    0  0.10572605981E+00  0.12793563983E+01  0.84534888002E+00  0.15370574233E+01  0.00000000000E+00 0.  1.
</event>
<event>
 7    1  0.1442665E-008  0.4614232E+02  0.7816164E-02  0.1320468E+00
        -11   -1    0    0    0    0  0.00000000000E+00  0.00000000000E+00  0.45593999997E+02  0.45594000000E+02  0.51100000000E-03 0.  1.
         11   -1    0    0    0    0 -0.00000000000E+00 -0.00000000000E+00 -0.45593999997E+02  0.45594000000E+02  0.51100000000E-03 0. -1.
    9900012    2    1    2    0    0 -0.45759483813E+01  0.28220721688E+02  0.34810416679E+02  0.46142317126E+02  0.99999942124E+01 0.  0.
         12    1    1    2    0    0  0.45759483813E+01 -0.28220721688E+02 -0.34810416679E+02  0.45045682874E+02  0.00000000000E+00 0. -1.
         11    1    3    3    0    0 -0.14321983455E+00  0.52265120132E+01  0.32363227223E+01  0.61490425896E+01  0.51100000000E-03 0. -1.
        -11    1    3    3    0    0  0.30429362487E+00  0.13497554022E+01 -0.44379382402E-01  0.13843424600E+01  0.51100000000E-03 0.  1.
        -12    1    3    3    0    0 -0.47370221716E+01  0.21644454273E+02  0.31618473339E+02  0.38608932077E+02  0.00000000000E+00 0.  1.
</event>
<event>
 7    1  0.1442665E-008  0.4614232E+02  0.7816164E-02  0.1320468E+00
        -11   -1    0    0    0    0  0.00000000000E+00  0.00000000000E+00  0.45593999997E+02  0.45594000000E+02  0.51100000000E-03 0.  1.
         11   -1    0    0    0    0 -0.00000000000E+00 -0.00000000000E+00 -0.45593999997E+02  0.45594000000E+02  0.51100000000E-03 0. -1.
    9900012    2    1    2    0    0 -0.35040366322E+02 -0.81627013671E+01  0.27104547546E+02  0.46142318040E+02  0.10000002545E+02 0.  0.
         12    1    1    2    0    0  0.35040366322E+02  0.81627013671E+01 -0.27104547546E+02  0.45045681960E+02  0.00000000000E+00 0. -1.
         11    1    3    3    0    0 -0.41806150254E+00  0.31916301145E+00  0.16526228674E+01  0.17343018915E+01  0.51100000000E-03 0. -1.
        -11    1    3    3    0    0 -0.12163369436E+02 -0.57544204471E+01  0.12349182040E+02  0.18263712876E+02  0.51100000000E-03 0.  1.
        -12    1    3    3    0    0 -0.22458935384E+02 -0.27274439314E+01  0.13102742639E+02  0.26144303273E+02  0.00000000000E+00 0.  1.
</event>
<event>
 7    1  0.1442665E-008  0.4614232E+02  0.7816164E-02  0.1320468E+00
        -11   -1    0    0    0    0  0.00000000000E+00  0.00000000000E+00  0.45593999997E+02  0.45594000000E+02  0.51100000000E-03 0.  1.
         11   -1    0    0    0    0 -0.00000000000E+00 -0.00000000000E+00 -0.45593999997E+02  0.45594000000E+02  0.51100000000E-03 0. -1.
    9900012    2    1    2    0    0  0.10378554407E+02 -0.24248348910E+02  0.36515978623E+02  0.46142317507E+02  0.99999976815E+01 0.  0.
         12    1    1    2    0    0 -0.10378554407E+02  0.24248348910E+02 -0.36515978623E+02  0.45045682493E+02  0.00000000000E+00 0. -1.
         11    1    3    3    0    0  0.35325374491E+01 -0.51368899162E+01  0.13495497025E+02  0.14865897183E+02  0.51100000000E-03 0. -1.
        -11    1    3    3    0    0  0.66165512183E+01 -0.12683683962E+02  0.12776055000E+02  0.19180254704E+02  0.51100000000E-03 0.  1.
        -12    1    3    3    0    0  0.22946573994E+00 -0.64277750324E+01  0.10244426598E+02  0.12096165620E+02  0.00000000000E+00 0.  1.
</event>
<event>
 7    1  0.1442665E-008  0.4614232E+02  0.7816164E-02  0.1320468E+00
        -11   -1    0    0    0    0  0.00000000000E+00  0.00000000000E+00  0.45593999997E+02  0.45594000000E+02  0.51100000000E-03 0.  1.
         11   -1    0    0    0    0 -0.00000000000E+00 -0.00000000000E+00 -0.45593999997E+02  0.45594000000E+02  0.51100000000E-03 0. -1.
    9900012    2    1    2    0    0  0.13215196227E+02  0.10879114287E+02  0.41666737054E+02  0.46142317457E+02  0.99999972305E+01 0.  0.
         12    1    1    2    0    0 -0.13215196227E+02 -0.10879114287E+02 -0.41666737054E+02  0.45045682543E+02  0.00000000000E+00 0. -1.
         11    1    3    3    0    0  0.12564423845E+01  0.40485748879E+01  0.15030095234E+02  0.15616445469E+02  0.51100000000E-03 0. -1.
        -11    1    3    3    0    0  0.56975911771E+01  0.54931971220E+01  0.18856679383E+02  0.20450235144E+02  0.51100000000E-03 0.  1.
         12    1    3    3    0    0  0.62611626649E+01  0.13373422770E+01  0.77799624371E+01  0.10075636844E+02  0.00000000000E+00 0. -1.
</event>
<event>
 7    1  0.1442665E-008  0.4614232E+02  0.7816164E-02  0.1320468E+00
        -11   -1    0    0    0    0  0.00000000000E+00  0.00000000000E+00  0.45593999997E+02  0.45594000000E+02  0.51100000000E-03 0.  1.
         11   -1    0    0    0    0 -0.00000000000E+00 -0.00000000000E+00 -0.45593999997E+02  0.45594000000E+02  0.51100000000E-03 0. -1.
    9900012    2    1    2    0    0  0.23783154388E+02  0.28274734208E+02  0.25768477530E+02  0.46142318061E+02  0.10000002733E+02 0.  0.
         12    1    1    2    0    0 -0.23783154388E+02 -0.28274734208E+02 -0.25768477530E+02  0.45045681939E+02  0.00000000000E+00 0. -1.
         11    1    3    3    0    0  0.97931419131E+01  0.97005882044E+01  0.63461369640E+01  0.15174995706E+02  0.51100000000E-03 0. -1.
        -11    1    3    3    0    0  0.12319611926E+02  0.14597049036E+02  0.12555418663E+02  0.22857935529E+02  0.51100000000E-03 0.  1.
         12    1    3    3    0    0  0.16704005484E+01  0.39770969672E+01  0.68669219027E+01  0.81093868262E+01  0.00000000000E+00 0. -1.
</event>
<event>
 7    1  0.1442665E-008  0.4614232E+02  0.7816164E-02  0.1320468E+00
        -11   -1    0    0    0    0  0.00000000000E+00  0.00000000000E+00  0.45593999997E+02  0.45594000000E+02  0.51100000000E-03 0.  1.
         11   -1    0    0    0    0 -0.00000000000E+00 -0.00000000000E+00 -0.45593999997E+02  0.45594000000E+02  0.51100000000E-03 0. -1.
    9900012    2    1    2    0    0  0.24263137604E+02 -0.27489397215E+02  0.26167663590E+02  0.46142318482E+02  0.10000006574E+02 0.  0.
         12    1    1    2    0    0 -0.24263137604E+02  0.27489397215E+02 -0.26167663590E+02  0.45045681518E+02  0.00000000000E+00 0. -1.
         11    1    3    3    0    0  0.16516188826E+02 -0.22418229338E+02  0.20348566777E+02  0.34488051121E+02  0.51100000000E-03 0.  1.
        -11    1    3    3    0    0  0.47896518191E+01 -0.51203851908E+01  0.32141146322E+01  0.77129528833E+01  0.51100000000E-03 0. -1.
         12    1    3    3    0    0  0.29572969589E+01  0.49217313989E-01  0.26049821815E+01  0.39413144778E+01  0.00000000000E+00 0. -1.
</event>
<event>
 7    1  0.1442665E-008  0.4614232E+02  0.7816164E-02  0.1320468E+00
        -11   -1    0    0    0    0  0.00000000000E+00  0.00000000000E+00  0.45593999997E+02  0.45594000000E+02  0.51100000000E-03 0.  1.
         11   -1    0    0    0    0 -0.00000000000E+00 -0.00000000000E+00 -0.45593999997E+02  0.45594000000E+02  0.51100000000E-03 0. -1.
    9900012    2    1    2    0    0  0.41999757986E+02 -0.13717340639E+02  0.87731591709E+01  0.46142318443E+02  0.10000006220E+02 0.  0.
         12    1    1    2    0    0 -0.41999757986E+02  0.13717340639E+02 -0.87731591709E+01  0.45045681557E+02  0.00000000000E+00 0. -1.
         11    1    3    3    0    0  0.71181358099E+01 -0.25728437158E+01 -0.18020714138E+01  0.77804141172E+01  0.51100000000E-03 0. -1.
        -11    1    3    3    0    0  0.32064632218E+02 -0.94114825785E+01  0.85871288385E+01  0.34502977054E+02  0.51100000000E-03 0.  1.
         12    1    3    3    0    0  0.28169899578E+01 -0.17330143445E+01  0.19881017462E+01  0.38589272724E+01  0.00000000000E+00 0. -1.
</event>
<event>
 7    1  0.1442665E-008  0.4614232E+02  0.7816164E-02  0.1320468E+00
        -11   -1    0    0    0    0  0.00000000000E+00  0.00000000000E+00  0.45593999997E+02  0.45594000000E+02  0.51100000000E-03 0.  1.
         11   -1    0    0    0    0 -0.00000000000E+00 -0.00000000000E+00 -0.45593999997E+02  0.45594000000E+02  0.51100000000E-03 0. -1.
    9900012    2    1    2    0    0 -0.13254213273E+01 -0.71739816715E+01  0.44450993471E+02  0.46142316796E+02  0.99999912019E+01 0.  0.
         12    1    1    2    0    0  0.13254213273E+01  0.71739816715E+01 -0.44450993471E+02  0.45045683204E+02  0.00000000000E+00 0. -1.
         11    1    3    3    0    0 -0.19995871496E+01 -0.36998794838E+01  0.12609492137E+02  0.13292356795E+02  0.51100000000E-03 0.  1.
        -11    1    3    3    0    0  0.14479015706E+00 -0.15189297007E+01  0.76379061146E+00  0.17063082912E+01  0.51100000000E-03 0. -1.
        -12    1    3    3    0    0  0.52937566524E+00 -0.19551724870E+01  0.31077710723E+02  0.31143651710E+02  0.00000000000E+00 0.  1.
</event>
<event>
 7    1  0.1442665E-008  0.4614232E+02  0.7816164E-02  0.1320468E+00
        -11   -1    0    0    0    0  0.00000000000E+00  0.00000000000E+00  0.45593999997E+02  0.45594000000E+02  0.51100000000E-03 0.  1.
         11   -1    0    0    0    0 -0.00000000000E+00 -0.00000000000E+00 -0.45593999997E+02  0.45594000000E+02  0.51100000000E-03 0. -1.
    9900012    2    1    2    0    0  0.12055237785E+02 -0.61329841441E+01  0.42967094961E+02  0.46142317610E+02  0.99999986228E+01 0.  0.
         12    1    1    2    0    0 -0.12055237785E+02  0.61329841441E+01 -0.42967094961E+02  0.45045682390E+02  0.00000000000E+00 0. -1.
         11    1    3    3    0    0  0.21493418570E+01 -0.58848109134E+01  0.23087269978E+02  0.23922221996E+02  0.51100000000E-03 0. -1.
        -11    1    3    3    0    0  0.50896090368E+01 -0.68098416051E-01  0.95746434591E+01  0.10843549012E+02  0.51100000000E-03 0.  1.
         12    1    3    3    0    0  0.48162868915E+01 -0.18007481465E+00  0.10305181524E+02  0.11376546602E+02  0.00000000000E+00 0. -1.
</event>
<event>
 7    1  0.1442665E-008  0.4614232E+02  0.7816164E-02  0.1320468E+00
        -11   -1    0    0    0    0  0.00000000000E+00  0.00000000000E+00  0.45593999997E+02  0.45594000000E+02  0.51100000000E-03 0.  1.
         11   -1    0    0    0    0 -0.00000000000E+00 -0.00000000000E+00 -0.45593999997E+02  0.45594000000E+02  0.51100000000E-03 0. -1.
    9900012    2    1    2    0    0  0.59122565682E+01  0.33810227362E+02  0.29172370978E+02  0.46142317849E+02  0.10000000800E+02 0.  0.
         12    1    1    2    0    0 -0.59122565682E+01 -0.33810227362E+02 -0.29172370978E+02  0.45045682151E+02  0.00000000000E+00 0. -1.
         11    1    3    3    0    0 -0.16843492078E+01  0.14774189905E+01  0.61852878642E+00  0.23243014538E+01  0.51100000000E-03 0. -1.
        -11    1    3    3    0    0  0.19061600991E+01  0.60180823661E+01  0.55742623241E+01  0.84215890667E+01  0.51100000000E-03 0.  1.
         12    1    3    3    0    0  0.56904456769E+01  0.26314726005E+02  0.22979579867E+02  0.35396427328E+02  0.00000000000E+00 0. -1.
</event>
<event>
 7    1  0.1442665E-008  0.4614232E+02  0.7816164E-02  0.1320468E+00
        -11   -1    0    0    0    0  0.00000000000E+00  0.00000000000E+00  0.45593999997E+02  0.45594000000E+02  0.51100000000E-03 0.  1.
         11   -1    0    0    0    0 -0.00000000000E+00 -0.00000000000E+00 -0.45593999997E+02  0.45594000000E+02  0.51100000000E-03 0. -1.
    9900012    2    1    2    0    0 -0.42156094615E+02  0.14114794362E+02  0.72629105514E+01  0.46142316492E+02  0.99999884253E+01 0.  0.
         12    1    1    2    0    0  0.42156094615E+02 -0.14114794362E+02 -0.72629105514E+01  0.45045683508E+02  0.00000000000E+00 0. -1.
         11    1    3    3    0    0 -0.15735999480E+01  0.14006854013E+00  0.27949707774E+00  0.16043549700E+01  0.51100000000E-03 0. -1.
        -11    1    3    3    0    0 -0.34938814992E+02  0.83690523987E+01  0.68956146990E+01  0.36582937737E+02  0.51100000000E-03 0.  1.
        -12    1    3    3    0    0 -0.56436796744E+01  0.56056734231E+01  0.87798774697E-01  0.79550237849E+01  0.00000000000E+00 0.  1.
</event>
<event>
 7    1  0.1442665E-008  0.4614232E+02  0.7816164E-02  0.1320468E+00
        -11   -1    0    0    0    0  0.00000000000E+00  0.00000000000E+00  0.45593999997E+02  0.45594000000E+02  0.51100000000E-03 0. -1.
         11   -1    0    0    0    0 -0.00000000000E+00 -0.00000000000E+00 -0.45593999997E+02  0.45594000000E+02  0.51100000000E-03 0.  1.
    9900012    2    1    2    0    0  0.11249318312E+02  0.97422171814E+01 -0.42516530213E+02  0.46142319858E+02  0.10000019121E+02 0.  0.
         12    1    1    2    0    0 -0.11249318312E+02 -0.97422171814E+01  0.42516530213E+02  0.45045680142E+02  0.00000000000E+00 0. -1.
         11    1    3    3    0    0  0.92811183814E+00  0.19591241060E+01 -0.98599918119E+00  0.23815443505E+01  0.51100000000E-03 0. -1.
        -11    1    3    3    0    0  0.98639221339E+01  0.59110144782E+01 -0.31193054170E+02  0.33245205380E+02  0.51100000000E-03 0.  1.
         12    1    3    3    0    0  0.45728434000E+00  0.18720785971E+01 -0.10337476862E+02  0.10515570128E+02  0.00000000000E+00 0. -1.
</event>
<event>
 7    1  0.1442665E-008  0.4614232E+02  0.7816164E-02  0.1320468E+00
        -11   -1    0    0    0    0  0.00000000000E+00  0.00000000000E+00  0.45593999997E+02  0.45594000000E+02  0.51100000000E-03 0. -1.
         11   -1    0    0    0    0 -0.00000000000E+00 -0.00000000000E+00 -0.45593999997E+02  0.45594000000E+02  0.51100000000E-03 0.  1.
    9900012    2    1    2    0    0  0.22276533307E+02 -0.23224104899E+02 -0.31520000773E+02  0.46142318373E+02  0.10000005580E+02 0.  0.
         12    1    1    2    0    0 -0.22276533307E+02  0.23224104899E+02  0.31520000773E+02  0.45045681627E+02  0.00000000000E+00 0. -1.
         11    1    3    3    0    0  0.65218818714E+01 -0.39167035431E+01 -0.33660816290E+01  0.83190153013E+01  0.51100000000E-03 0. -1.
        -11    1    3    3    0    0  0.11172150597E+02 -0.11861694134E+02 -0.20627376653E+02  0.26286981655E+02  0.51100000000E-03 0.  1.
        -12    1    3    3    0    0  0.45825008393E+01 -0.74457072214E+01 -0.75265424905E+01  0.11536321417E+02  0.00000000000E+00 0.  1.
</event>
<event>
 7    1  0.1442665E-008  0.4614232E+02  0.7816164E-02  0.1320468E+00
        -11   -1    0    0    0    0  0.00000000000E+00  0.00000000000E+00  0.45593999997E+02  0.45594000000E+02  0.51100000000E-03 0.  1.
         11   -1    0    0    0    0 -0.00000000000E+00 -0.00000000000E+00 -0.45593999997E+02  0.45594000000E+02  0.51100000000E-03 0. -1.
    9900012    2    1    2    0    0  0.16166831463E+02  0.33778243940E+02  0.25035521122E+02  0.46142317399E+02  0.99999966942E+01 0.  0.
         12    1    1    2    0    0 -0.16166831463E+02 -0.33778243940E+02 -0.25035521122E+02  0.45045682601E+02  0.00000000000E+00 0. -1.
         11    1    3    3    0    0 -0.35173991515E+00  0.19910962706E+01 -0.16236844946E+00  0.20284351361E+01  0.51100000000E-03 0. -1.
        -11    1    3    3    0    0  0.37041161628E+01  0.10066627203E+02  0.10028444253E+02  0.14684248506E+02  0.51100000000E-03 0.  1.
         12    1    3    3    0    0  0.12814455215E+02  0.21720520466E+02  0.15169445318E+02  0.29429633756E+02  0.00000000000E+00 0. -1.
</event>
<event>
 7    1  0.1442665E-008  0.4614232E+02  0.7816164E-02  0.1320468E+00
        -11   -1    0    0    0    0  0.00000000000E+00  0.00000000000E+00  0.45593999997E+02  0.45594000000E+02  0.51100000000E-03 0.  1.
         11   -1    0    0    0    0 -0.00000000000E+00 -0.00000000000E+00 -0.45593999997E+02  0.45594000000E+02  0.51100000000E-03 0. -1.
    9900012    2    1    2    0    0  0.32040676218E+02  0.21928593309E+02  0.22839549965E+02  0.46142321189E+02  0.10000031255E+02 0.  0.
         12    1    1    2    0    0 -0.32040676218E+02 -0.21928593309E+02 -0.22839549965E+02  0.45045678811E+02  0.00000000000E+00 0. -1.
         11    1    3    3    0    0  0.28769673057E+01  0.50302395516E-01  0.33463071726E+01  0.44133029766E+01  0.51100000000E-03 0. -1.
        -11    1    3    3    0    0  0.26981927388E+02  0.20691273659E+02  0.19592820784E+02  0.39243239389E+02  0.51100000000E-03 0.  1.
         12    1    3    3    0    0  0.21817815237E+01  0.11870172542E+01 -0.99577991996E-01  0.24857788228E+01  0.00000000000E+00 0. -1.
</event>
<event>
 7    1  0.1442665E-008  0.4614232E+02  0.7816164E-02  0.1320468E+00
        -11   -1    0    0    0    0  0.00000000000E+00  0.00000000000E+00  0.45593999997E+02  0.45594000000E+02  0.51100000000E-03 0.  1.
         11   -1    0    0    0    0 -0.00000000000E+00 -0.00000000000E+00 -0.45593999997E+02  0.45594000000E+02  0.51100000000E-03 0. -1.
    9900012    2    1    2    0    0 -0.22396178831E+02  0.17929870772E+02  0.34728149221E+02  0.46142318293E+02  0.10000004848E+02 0.  0.
         12    1    1    2    0    0  0.22396178831E+02 -0.17929870772E+02 -0.34728149221E+02  0.45045681707E+02  0.00000000000E+00 0. -1.
         11    1    3    3    0    0 -0.10171713916E+02  0.37744198112E+01  0.94508218258E+01  0.14388469076E+02  0.51100000000E-03 0. -1.
        -11    1    3    3    0    0 -0.91221531034E+01  0.96954358979E+01  0.14497045672E+02  0.19681958438E+02  0.51100000000E-03 0.  1.
        -12    1    3    3    0    0 -0.31023118121E+01  0.44600150631E+01  0.10780281724E+02  0.12071890779E+02  0.00000000000E+00 0.  1.
</event>
<event>
 7    1  0.1442665E-008  0.4614232E+02  0.7816164E-02  0.1320468E+00
        -11   -1    0    0    0    0  0.00000000000E+00  0.00000000000E+00  0.45593999997E+02  0.45594000000E+02  0.51100000000E-03 0. -1.
         11   -1    0    0    0    0 -0.00000000000E+00 -0.00000000000E+00 -0.45593999997E+02  0.45594000000E+02  0.51100000000E-03 0.  1.
    9900012    2    1    2    0    0 -0.40184740809E+02 -0.57456091474E+01  0.19526603970E+02  0.46142315623E+02  0.99999805058E+01 0.  0.
         12    1    1    2    0    0  0.40184740809E+02  0.57456091474E+01 -0.19526603970E+02  0.45045684377E+02  0.00000000000E+00 0. -1.
         11    1    3    3    0    0 -0.19885443563E+02 -0.64888821864E+01  0.11374973593E+02  0.23810218021E+02  0.51100000000E-03 0. -1.
        -11    1    3    3    0    0 -0.25252036216E+01  0.15258679073E+01  0.17124855843E+01  0.34113829071E+01  0.51100000000E-03 0.  1.
         12    1    3    3    0    0 -0.17774093625E+02 -0.78259486835E+00  0.64391447924E+01  0.18920714695E+02  0.00000000000E+00 0. -1.
</event>
<event>
 7    1  0.1442665E-008  0.4614232E+02  0.7816164E-02  0.1320468E+00
        -11   -1    0    0    0    0  0.00000000000E+00  0.00000000000E+00  0.45593999997E+02  0.45594000000E+02  0.51100000000E-03 0.  1.
         11   -1    0    0    0    0 -0.00000000000E+00 -0.00000000000E+00 -0.45593999997E+02  0.45594000000E+02  0.51100000000E-03 0. -1.
    9900012    2    1    2    0    0 -0.22268922802E+02  0.52512382242E+01  0.38802488801E+02  0.46142316935E+02  0.99999924663E+01 0.  0.
         12    1    1    2    0    0  0.22268922802E+02 -0.52512382242E+01 -0.38802488801E+02  0.45045683065E+02  0.00000000000E+00 0. -1.
         11    1    3    3    0    0 -0.10489262313E+02  0.15087575367E+01  0.23763081336E+02  0.26018935567E+02  0.51100000000E-03 0. -1.
        -11    1    3    3    0    0 -0.86197989768E+01  0.49042212779E+01  0.10184287028E+02  0.14215203947E+02  0.51100000000E-03 0.  1.
         12    1    3    3    0    0 -0.31598615130E+01 -0.11617405904E+01  0.48551204369E+01  0.59081774209E+01  0.00000000000E+00 0. -1.
</event>
<event>
 7    1  0.1442665E-008  0.4614231E+02  0.7816164E-02  0.1320468E+00
        -11   -1    0    0    0    0  0.00000000000E+00  0.00000000000E+00  0.45593999997E+02  0.45594000000E+02  0.51100000000E-03 0.  1.
         11   -1    0    0    0    0 -0.00000000000E+00 -0.00000000000E+00 -0.45593999997E+02  0.45594000000E+02  0.51100000000E-03 0. -1.
    9900012    2    1    2    0    0 -0.36157347347E+01  0.39632702648E+02  0.21101885036E+02  0.46142309763E+02  0.99999270681E+01 0.  0.
         12    1    1    2    0    0  0.36157347347E+01 -0.39632702648E+02 -0.21101885036E+02  0.45045690237E+02  0.00000000000E+00 0. -1.
         11    1    3    3    0    0 -0.38235200513E+01  0.35345437353E+02  0.15866981362E+02  0.38931739559E+02  0.51100000000E-03 0. -1.
        -11    1    3    3    0    0 -0.18799820408E+00  0.17182653601E+01  0.39486819679E+01  0.43104371839E+01  0.51100000000E-03 0.  1.
        -12    1    3    3    0    0  0.39578352069E+00  0.25689999346E+01  0.12862217065E+01  0.29001330207E+01  0.00000000000E+00 0.  1.
</event>
<event>
 7    1  0.1442665E-008  0.4614233E+02  0.7816164E-02  0.1320468E+00
        -11   -1    0    0    0    0  0.00000000000E+00  0.00000000000E+00  0.45593999997E+02  0.45594000000E+02  0.51100000000E-03 0. -1.
         11   -1    0    0    0    0 -0.00000000000E+00 -0.00000000000E+00 -0.45593999997E+02  0.45594000000E+02  0.51100000000E-03 0.  1.
    9900012    2    1    2    0    0 -0.44404310489E+02 -0.51628654521E+01  0.55420569468E+01  0.46142330232E+02  0.10000113719E+02 0.  0.
         12    1    1    2    0    0  0.44404310489E+02  0.51628654521E+01 -0.55420569468E+01  0.45045669768E+02  0.00000000000E+00 0. -1.
         11    1    3    3    0    0 -0.10005184212E+02 -0.16298157741E+00  0.34060794942E+01  0.10570319384E+02  0.51100000000E-03 0. -1.
        -11    1    3    3    0    0 -0.14388042141E+02  0.15030080509E+01  0.79663822317E+00  0.14488251191E+02  0.51100000000E-03 0.  1.
        -12    1    3    3    0    0 -0.20011084136E+02 -0.65028919256E+01  0.13393392294E+01  0.21083759657E+02  0.00000000000E+00 0.  1.
</event>
<event>
 7    1  0.1442665E-008  0.4614232E+02  0.7816164E-02  0.1320468E+00
        -11   -1    0    0    0    0  0.00000000000E+00  0.00000000000E+00  0.45593999997E+02  0.45594000000E+02  0.51100000000E-03 0.  1.
         11   -1    0    0    0    0 -0.00000000000E+00 -0.00000000000E+00 -0.45593999997E+02  0.45594000000E+02  0.51100000000E-03 0. -1.
    9900012    2    1    2    0    0  0.52405268421E+01  0.27005720670E+02  0.35669896897E+02  0.46142316354E+02  0.99999871700E+01 0.  0.
         12    1    1    2    0    0 -0.52405268421E+01 -0.27005720670E+02 -0.35669896897E+02  0.45045683646E+02  0.00000000000E+00 0. -1.
         11    1    3    3    0    0  0.23913671582E+00  0.15211119026E+02  0.25703458197E+02  0.29868094883E+02  0.51100000000E-03 0. -1.
        -11    1    3    3    0    0  0.34079256141E+01  0.89434558626E+01  0.69478785374E+01  0.11826765246E+02  0.51100000000E-03 0.  1.
         12    1    3    3    0    0  0.15934645122E+01  0.28511457817E+01  0.30185601625E+01  0.44474562251E+01  0.00000000000E+00 0. -1.
</event>
<event>
 7    1  0.1442665E-008  0.4614232E+02  0.7816164E-02  0.1320468E+00
        -11   -1    0    0    0    0  0.00000000000E+00  0.00000000000E+00  0.45593999997E+02  0.45594000000E+02  0.51100000000E-03 0. -1.
         11   -1    0    0    0    0 -0.00000000000E+00 -0.00000000000E+00 -0.45593999997E+02  0.45594000000E+02  0.51100000000E-03 0.  1.
    9900012    2    1    2    0    0  0.16208780676E+02  0.39411756469E+00 -0.42026581844E+02  0.46142317842E+02  0.10000000734E+02 0.  0.
         12    1    1    2    0    0 -0.16208780676E+02 -0.39411756469E+00  0.42026581844E+02  0.45045682158E+02  0.00000000000E+00 0. -1.
         11    1    3    3    0    0  0.11724400466E+01 -0.11510529059E+01 -0.10221368513E+01  0.19350200151E+01  0.51100000000E-03 0. -1.
        -11    1    3    3    0    0  0.47457864240E+01  0.33308435905E+01 -0.10958376987E+02  0.12397702781E+02  0.51100000000E-03 0.  1.
         12    1    3    3    0    0  0.10290554205E+02 -0.17856731199E+01 -0.30046068006E+02  0.31809595045E+02  0.00000000000E+00 0. -1.
</event>
<event>
 7    1  0.1442665E-008  0.4614232E+02  0.7816164E-02  0.1320468E+00
        -11   -1    0    0    0    0  0.00000000000E+00  0.00000000000E+00  0.45593999997E+02  0.45594000000E+02  0.51100000000E-03 0. -1.
         11   -1    0    0    0    0 -0.00000000000E+00 -0.00000000000E+00 -0.45593999997E+02  0.45594000000E+02  0.51100000000E-03 0.  1.
    9900012    2    1    2    0    0 -0.30791239819E+02 -0.71998068444E+01 -0.32080771513E+02  0.46142316865E+02  0.99999918286E+01 0.  0.
         12    1    1    2    0    0  0.30791239819E+02  0.71998068444E+01  0.32080771513E+02  0.45045683135E+02  0.00000000000E+00 0. -1.
         11    1    3    3    0    0 -0.43529508473E+01 -0.41540755527E+01 -0.85793385644E+01  0.10479006405E+02  0.51100000000E-03 0. -1.
        -11    1    3    3    0    0 -0.16173479002E+02 -0.21298926168E+01 -0.16510806939E+02  0.23210441866E+02  0.51100000000E-03 0.  1.
         12    1    3    3    0    0 -0.10264809970E+02 -0.91583867487E+00 -0.69906260104E+01  0.12452868594E+02  0.00000000000E+00 0. -1.
</event>
<event>
 7    1  0.1442665E-008  0.4614232E+02  0.7816164E-02  0.1320468E+00
        -11   -1    0    0    0    0  0.00000000000E+00  0.00000000000E+00  0.45593999997E+02  0.45594000000E+02  0.51100000000E-03 0.  1.
         11   -1    0    0    0    0 -0.00000000000E+00 -0.00000000000E+00 -0.45593999997E+02  0.45594000000E+02  0.51100000000E-03 0. -1.
    9900012    2    1    2    0    0 -0.22649962043E+02 -0.16213067171E+02  0.35400973884E+02  0.46142320079E+02  0.10000021135E+02 0.  0.
         12    1    1    2    0    0  0.22649962043E+02  0.16213067171E+02 -0.35400973884E+02  0.45045679921E+02  0.00000000000E+00 0. -1.
         11    1    3    3    0    0 -0.12401261054E+01 -0.25668303548E+01  0.51597748249E+01  0.58948967194E+01  0.51100000000E-03 0. -1.
        -11    1    3    3    0    0 -0.13624052767E+02 -0.61097076028E+01  0.22198487634E+02  0.26752872636E+02  0.51100000000E-03 0.  1.
         12    1    3    3    0    0 -0.77857831708E+01 -0.75365292135E+01  0.80427114254E+01  0.13494550724E+02  0.00000000000E+00 0. -1.
</event>
<event>
 7    1  0.1442665E-008  0.4614231E+02  0.7816164E-02  0.1320468E+00
        -11   -1    0    0    0    0  0.00000000000E+00  0.00000000000E+00  0.45593999997E+02  0.45594000000E+02  0.51100000000E-03 0. -1.
         11   -1    0    0    0    0 -0.00000000000E+00 -0.00000000000E+00 -0.45593999997E+02  0.45594000000E+02  0.51100000000E-03 0.  1.
    9900012    2    1    2    0    0 -0.36557728163E+02  0.22126344556E+02 -0.14250323337E+02  0.46142308451E+02  0.99999151064E+01 0.  0.
         12    1    1    2    0    0  0.36557728163E+02 -0.22126344556E+02  0.14250323337E+02  0.45045691549E+02  0.00000000000E+00 0. -1.
         11    1    3    3    0    0 -0.24950721370E+01  0.10264323177E+01  0.14576453381E+01  0.30665417761E+01  0.51100000000E-03 0. -1.
        -11    1    3    3    0    0 -0.20685100489E+02  0.13799154051E+02 -0.94396914923E+01  0.26596951150E+02  0.51100000000E-03 0.  1.
         12    1    3    3    0    0 -0.13377555538E+02  0.73007581879E+01 -0.62682771829E+01  0.16478815525E+02  0.00000000000E+00 0. -1.
</event>
<event>
 7    1  0.1442665E-008  0.4614232E+02  0.7816164E-02  0.1320468E+00
        -11   -1    0    0    0    0  0.00000000000E+00  0.00000000000E+00  0.45593999997E+02  0.45594000000E+02  0.51100000000E-03 0. -1.
         11   -1    0    0    0    0 -0.00000000000E+00 -0.00000000000E+00 -0.45593999997E+02  0.45594000000E+02  0.51100000000E-03 0.  1.
    9900012    2    1    2    0    0  0.10447250923E+02 -0.43542789824E+02 -0.48983706711E+01  0.46142316158E+02  0.99999853851E+01 0.  0.
         12    1    1    2    0    0 -0.10447250923E+02  0.43542789824E+02  0.48983706711E+01  0.45045683842E+02  0.00000000000E+00 0. -1.
         11    1    3    3    0    0  0.11067565185E+01 -0.45550751140E+01  0.18378858758E+01  0.50350217516E+01  0.51100000000E-03 0. -1.
        -11    1    3    3    0    0  0.79210620703E+01 -0.35948879153E+02 -0.77199793783E+01  0.37612008967E+02  0.51100000000E-03 0.  1.
        -12    1    3    3    0    0  0.14194323345E+01 -0.30388355572E+01  0.98372283151E+00  0.34952854397E+01  0.00000000000E+00 0.  1.
</event>
<event>
 7    1  0.1442665E-008  0.4614232E+02  0.7816164E-02  0.1320468E+00
        -11   -1    0    0    0    0  0.00000000000E+00  0.00000000000E+00  0.45593999997E+02  0.45594000000E+02  0.51100000000E-03 0. -1.
         11   -1    0    0    0    0 -0.00000000000E+00 -0.00000000000E+00 -0.45593999997E+02  0.45594000000E+02  0.51100000000E-03 0.  1.
    9900012    2    1    2    0    0  0.40460560317E+02  0.18246961250E+02  0.76879753247E+01  0.46142317625E+02  0.99999987568E+01 0.  0.
         12    1    1    2    0    0 -0.40460560317E+02 -0.18246961250E+02 -0.76879753247E+01  0.45045682375E+02  0.00000000000E+00 0. -1.
         11    1    3    3    0    0  0.14415253450E+02  0.55497030310E+01  0.57332303782E+01  0.16476306218E+02  0.51100000000E-03 0. -1.
        -11    1    3    3    0    0  0.15768237138E+02  0.10420918729E+02  0.27960084783E+01  0.19106295121E+02  0.51100000000E-03 0.  1.
        -12    1    3    3    0    0  0.10277069730E+02  0.22763394903E+01 -0.84126353174E+00  0.10559716286E+02  0.00000000000E+00 0.  1.
</event>
<event>
 7    1  0.1442665E-008  0.4614232E+02  0.7816164E-02  0.1320468E+00
        -11   -1    0    0    0    0  0.00000000000E+00  0.00000000000E+00  0.45593999997E+02  0.45594000000E+02  0.51100000000E-03 0. -1.
         11   -1    0    0    0    0 -0.00000000000E+00 -0.00000000000E+00 -0.45593999997E+02  0.45594000000E+02  0.51100000000E-03 0.  1.
    9900012    2    1    2    0    0  0.40806611175E+02 -0.16543692142E+02  0.94994806759E+01  0.46142318759E+02  0.10000009103E+02 0.  0.
         12    1    1    2    0    0 -0.40806611175E+02  0.16543692142E+02 -0.94994806759E+01  0.45045681241E+02  0.00000000000E+00 0. -1.
         11    1    3    3    0    0  0.97684924144E+00 -0.16891963036E+01 -0.10690251887E+01  0.22249570126E+01  0.51100000000E-03 0. -1.
        -11    1    3    3    0    0  0.46810871199E+01 -0.19371611898E+01  0.23225489808E+01  0.55730964578E+01  0.51100000000E-03 0.  1.
         12    1    3    3    0    0  0.35148674814E+02 -0.12917334649E+02  0.82459568839E+01  0.38344265289E+02  0.00000000000E+00 0. -1.
</event>
<event>
 7    1  0.1442665E-008  0.4614232E+02  0.7816164E-02  0.1320468E+00
        -11   -1    0    0    0    0  0.00000000000E+00  0.00000000000E+00  0.45593999997E+02  0.45594000000E+02  0.51100000000E-03 0.  1.
         11   -1    0    0    0    0 -0.00000000000E+00 -0.00000000000E+00 -0.45593999997E+02  0.45594000000E+02  0.51100000000E-03 0. -1.
    9900012    2    1    2    0    0  0.65305160266E+01 -0.37419391880E+02  0.24212703437E+02  0.46142317233E+02  0.99999951829E+01 0.  0.
         12    1    1    2    0    0 -0.65305160266E+01  0.37419391880E+02 -0.24212703437E+02  0.45045682767E+02  0.00000000000E+00 0. -1.
         11    1    3    3    0    0  0.23028527484E+00 -0.23260354925E+02  0.17448766978E+02  0.29078456146E+02  0.51100000000E-03 0. -1.
        -11    1    3    3    0    0  0.52288848449E+01 -0.91540035954E+01  0.43410388702E+01  0.11400948964E+02  0.51100000000E-03 0.  1.
        -12    1    3    3    0    0  0.10713459069E+01 -0.50050333593E+01  0.24228975890E+01  0.56629121225E+01  0.00000000000E+00 0.  1.
</event>
<event>
 7    1  0.1442665E-008  0.4614232E+02  0.7816164E-02  0.1320468E+00
        -11   -1    0    0    0    0  0.00000000000E+00  0.00000000000E+00  0.45593999997E+02  0.45594000000E+02  0.51100000000E-03 0.  1.
         11   -1    0    0    0    0 -0.00000000000E+00 -0.00000000000E+00 -0.45593999997E+02  0.45594000000E+02  0.51100000000E-03 0. -1.
    9900012    2    1    2    0    0  0.30988944777E+02  0.24511165744E+02  0.21633342911E+02  0.46142317965E+02  0.10000001861E+02 0.  0.
         12    1    1    2    0    0 -0.30988944777E+02 -0.24511165744E+02 -0.21633342911E+02  0.45045682035E+02  0.00000000000E+00 0. -1.
         11    1    3    3    0    0  0.15033720380E+02  0.12169416078E+02  0.52307642183E+01  0.20036674642E+02  0.51100000000E-03 0. -1.
        -11    1    3    3    0    0  0.12840842195E+02  0.10791500122E+02  0.14293107430E+02  0.22037164596E+02  0.51100000000E-03 0.  1.
         12    1    3    3    0    0  0.31143822024E+01  0.15502495435E+01  0.21094712622E+01  0.40684787274E+01  0.00000000000E+00 0. -1.
</event>
<event>
 7    1  0.1442665E-008  0.4614232E+02  0.7816164E-02  0.1320468E+00
        -11   -1    0    0    0    0  0.00000000000E+00  0.00000000000E+00  0.45593999997E+02  0.45594000000E+02  0.51100000000E-03 0.  1.
         11   -1    0    0    0    0 -0.00000000000E+00 -0.00000000000E+00 -0.45593999997E+02  0.45594000000E+02  0.51100000000E-03 0. -1.
    9900012    2    1    2    0    0 -0.13424802436E+02  0.42179552944E+02 -0.83530483583E+01  0.46142318477E+02  0.10000006530E+02 0.  0.
         12    1    1    2    0    0  0.13424802436E+02 -0.42179552944E+02  0.83530483583E+01  0.45045681523E+02  0.00000000000E+00 0. -1.
         11    1    3    3    0    0 -0.43285188317E+01  0.16216515552E+02 -0.17656363170E+01  0.16876875416E+02  0.51100000000E-03 0. -1.
        -11    1    3    3    0    0 -0.55792422445E+01  0.23240967546E+02 -0.43758612090E+01  0.24298532427E+02  0.51100000000E-03 0.  1.
        -12    1    3    3    0    0 -0.35170413602E+01  0.27220698454E+01 -0.22115508322E+01  0.49669106350E+01  0.00000000000E+00 0.  1.
</event>
<event>
 7    1  0.1442665E-008  0.4614232E+02  0.7816164E-02  0.1320468E+00
        -11   -1    0    0    0    0  0.00000000000E+00  0.00000000000E+00  0.45593999997E+02  0.45594000000E+02  0.51100000000E-03 0.  1.
         11   -1    0    0    0    0 -0.00000000000E+00 -0.00000000000E+00 -0.45593999997E+02  0.45594000000E+02  0.51100000000E-03 0. -1.
    9900012    2    1    2    0    0 -0.39433064889E+02 -0.16745435237E+02  0.13918955148E+02  0.46142317408E+02  0.99999967764E+01 0.  0.
         12    1    1    2    0    0  0.39433064889E+02  0.16745435237E+02 -0.13918955148E+02  0.45045682592E+02  0.00000000000E+00 0. -1.
         11    1    3    3    0    0 -0.20666989550E+02 -0.52795726136E+01  0.36522417677E+01  0.21641100116E+02  0.51100000000E-03 0. -1.
        -11    1    3    3    0    0 -0.79703277342E+01 -0.58385254863E+01  0.62062881958E+01  0.11667584046E+02  0.51100000000E-03 0.  1.
         12    1    3    3    0    0 -0.10795747605E+02 -0.56273371374E+01  0.40604251843E+01  0.12833633246E+02  0.00000000000E+00 0. -1.
</event>
<event>
 7    1  0.1442665E-008  0.4614232E+02  0.7816164E-02  0.1320468E+00
        -11   -1    0    0    0    0  0.00000000000E+00  0.00000000000E+00  0.45593999997E+02  0.45594000000E+02  0.51100000000E-03 0.  1.
         11   -1    0    0    0    0 -0.00000000000E+00 -0.00000000000E+00 -0.45593999997E+02  0.45594000000E+02  0.51100000000E-03 0. -1.
    9900012    2    1    2    0    0 -0.15183206491E+02 -0.39812106092E+02  0.14614375030E+02  0.46142317540E+02  0.99999979809E+01 0.  0.
         12    1    1    2    0    0  0.15183206491E+02  0.39812106092E+02 -0.14614375030E+02  0.45045682460E+02  0.00000000000E+00 0. -1.
         11    1    3    3    0    0 -0.43706693684E-01 -0.67401194674E+00  0.15683508710E+01  0.17076085896E+01  0.51100000000E-03 0. -1.
        -11    1    3    3    0    0 -0.14879542746E+02 -0.39229913963E+02  0.13344897885E+02  0.44028096049E+02  0.51100000000E-03 0.  1.
        -12    1    3    3    0    0 -0.25995705102E+00  0.91819818454E-01 -0.29887372549E+00  0.40661290095E+00  0.00000000000E+00 0.  1.
</event>
<event>
 7    1  0.1442665E-008  0.4614232E+02  0.7816164E-02  0.1320468E+00
        -11   -1    0    0    0    0  0.00000000000E+00  0.00000000000E+00  0.45593999997E+02  0.45594000000E+02  0.51100000000E-03 0. -1.
         11   -1    0    0    0    0 -0.00000000000E+00 -0.00000000000E+00 -0.45593999997E+02  0.45594000000E+02  0.51100000000E-03 0.  1.
    9900012    2    1    2    0    0 -0.73736725588E+01 -0.44193176638E+02 -0.46589109900E+01  0.46142319186E+02  0.10000012996E+02 0.  0.
         12    1    1    2    0    0  0.73736725588E+01  0.44193176638E+02  0.46589109900E+01  0.45045680814E+02  0.00000000000E+00 0. -1.
         11    1    3    3    0    0 -0.15190682962E+01 -0.20682494071E+01  0.14515548075E+01  0.29482597780E+01  0.51100000000E-03 0. -1.
        -11    1    3    3    0    0 -0.26018405301E+01 -0.28911611716E+02 -0.56832457842E+01  0.29579556269E+02  0.51100000000E-03 0.  1.
         12    1    3    3    0    0 -0.32527637324E+01 -0.13213315515E+02 -0.42722001332E+00  0.13614503139E+02  0.00000000000E+00 0. -1.
</event>
<event>
 7    1  0.1442665E-008  0.4614232E+02  0.7816164E-02  0.1320468E+00
        -11   -1    0    0    0    0  0.00000000000E+00  0.00000000000E+00  0.45593999997E+02  0.45594000000E+02  0.51100000000E-03 0. -1.
         11   -1    0    0    0    0 -0.00000000000E+00 -0.00000000000E+00 -0.45593999997E+02  0.45594000000E+02  0.51100000000E-03 0.  1.
    9900012    2    1    2    0    0  0.24205690393E+02  0.24189604666E+02 -0.29292678635E+02  0.46142318266E+02  0.10000004604E+02 0.  0.
         12    1    1    2    0    0 -0.24205690393E+02 -0.24189604666E+02  0.29292678635E+02  0.45045681734E+02  0.00000000000E+00 0. -1.
         11    1    3    3    0    0  0.29971217990E+01  0.66733063792E+01 -0.93522898564E+01  0.11873545508E+02  0.51100000000E-03 0. -1.
        -11    1    3    3    0    0  0.78162938500E+01  0.45878198588E+01 -0.46899756386E+01  0.10204822995E+02  0.51100000000E-03 0.  1.
         12    1    3    3    0    0  0.13392274744E+02  0.12928478427E+02 -0.15250413140E+02  0.24063949763E+02  0.00000000000E+00 0. -1.
</event>
<event>
 7    1  0.1442665E-008  0.4614232E+02  0.7816164E-02  0.1320468E+00
        -11   -1    0    0    0    0  0.00000000000E+00  0.00000000000E+00  0.45593999997E+02  0.45594000000E+02  0.51100000000E-03 0. -1.
         11   -1    0    0    0    0 -0.00000000000E+00 -0.00000000000E+00 -0.45593999997E+02  0.45594000000E+02  0.51100000000E-03 0.  1.
    9900012    2    1    2    0    0 -0.81838800785E+01  0.36221162010E+02 -0.25498334020E+02  0.46142317539E+02  0.99999979787E+01 0.  0.
         12    1    1    2    0    0  0.81838800785E+01 -0.36221162010E+02  0.25498334020E+02  0.45045682461E+02  0.00000000000E+00 0. -1.
         11    1    3    3    0    0 -0.16843808259E+01  0.40248722014E+01 -0.15931879757E+01  0.46448878556E+01  0.51100000000E-03 0.  1.
        -11    1    3    3    0    0 -0.18647731623E+01  0.15660799886E+02 -0.65356670958E+01  0.17071993928E+02  0.51100000000E-03 0. -1.
        -12    1    3    3    0    0 -0.46347260904E+01  0.16535489923E+02 -0.17369478949E+02  0.24425435756E+02  0.00000000000E+00 0.  1.
</event>
<event>
 7    1  0.1442665E-008  0.4614232E+02  0.7816164E-02  0.1320468E+00
        -11   -1    0    0    0    0  0.00000000000E+00  0.00000000000E+00  0.45593999997E+02  0.45594000000E+02  0.51100000000E-03 0. -1.
         11   -1    0    0    0    0 -0.00000000000E+00 -0.00000000000E+00 -0.45593999997E+02  0.45594000000E+02  0.51100000000E-03 0.  1.
    9900012    2    1    2    0    0 -0.13999907356E+02  0.41211294081E+02  0.11607984573E+02  0.46142317946E+02  0.10000001689E+02 0.  0.
         12    1    1    2    0    0  0.13999907356E+02 -0.41211294081E+02 -0.11607984573E+02  0.45045682054E+02  0.00000000000E+00 0. -1.
         11    1    3    3    0    0 -0.30446841151E+01  0.37342034475E+01  0.39794525257E+01  0.62490334783E+01  0.51100000000E-03 0. -1.
        -11    1    3    3    0    0 -0.46549030505E+01  0.20400961369E+02  0.48647457678E+01  0.21483321411E+02  0.51100000000E-03 0.  1.
         12    1    3    3    0    0 -0.63003201909E+01  0.17076129264E+02  0.27637862792E+01  0.18409963057E+02  0.00000000000E+00 0. -1.
</event>
<event>
 7    1  0.1442665E-008  0.4614232E+02  0.7816164E-02  0.1320468E+00
        -11   -1    0    0    0    0  0.00000000000E+00  0.00000000000E+00  0.45593999997E+02  0.45594000000E+02  0.51100000000E-03 0.  1.
         11   -1    0    0    0    0 -0.00000000000E+00 -0.00000000000E+00 -0.45593999997E+02  0.45594000000E+02  0.51100000000E-03 0. -1.
    9900012    2    1    2    0    0 -0.14197083483E+02 -0.12354985122E+02  0.40925672733E+02  0.46142317349E+02  0.99999962466E+01 0.  0.
         12    1    1    2    0    0  0.14197083483E+02  0.12354985122E+02 -0.40925672733E+02  0.45045682651E+02  0.00000000000E+00 0. -1.
         11    1    3    3    0    0 -0.41023876708E+01 -0.47376184336E+00  0.29624121160E+01  0.50823145014E+01  0.51100000000E-03 0. -1.
        -11    1    3    3    0    0 -0.47295092887E+01 -0.64493314797E+01  0.18655743166E+02  0.20297755738E+02  0.51100000000E-03 0.  1.
         12    1    3    3    0    0 -0.53651865234E+01 -0.54318917988E+01  0.19307517451E+02  0.20762247110E+02  0.00000000000E+00 0. -1.
</event>
<event>
 7    1  0.1442665E-008  0.4614232E+02  0.7816164E-02  0.1320468E+00
        -11   -1    0    0    0    0  0.00000000000E+00  0.00000000000E+00  0.45593999997E+02  0.45594000000E+02  0.51100000000E-03 0.  1.
         11   -1    0    0    0    0 -0.00000000000E+00 -0.00000000000E+00 -0.45593999997E+02  0.45594000000E+02  0.51100000000E-03 0. -1.
    9900012    2    1    2    0    0 -0.44703933110E+02 -0.39090989609E+01 -0.39231115947E+01  0.46142317690E+02  0.99999993509E+01 0.  0.
         12    1    1    2    0    0  0.44703933110E+02  0.39090989609E+01  0.39231115947E+01  0.45045682310E+02  0.00000000000E+00 0. -1.
         11    1    3    3    0    0 -0.22972841961E+02 -0.13421275241E+01  0.14173500603E+01  0.23055620910E+02  0.51100000000E-03 0.  1.
        -11    1    3    3    0    0 -0.21375141819E+02 -0.29050793639E+01 -0.58785552679E+01  0.22358300163E+02  0.51100000000E-03 0. -1.
         12    1    3    3    0    0 -0.35594933004E+00  0.33810792706E+00  0.53809361292E+00  0.72839661735E+00  0.00000000000E+00 0. -1.
</event>
<event>
 7    1  0.1442665E-008  0.4614232E+02  0.7816164E-02  0.1320468E+00
        -11   -1    0    0    0    0  0.00000000000E+00  0.00000000000E+00  0.45593999997E+02  0.45594000000E+02  0.51100000000E-03 0.  1.
         11   -1    0    0    0    0 -0.00000000000E+00 -0.00000000000E+00 -0.45593999997E+02  0.45594000000E+02  0.51100000000E-03 0. -1.
    9900012    2    1    2    0    0 -0.17307784958E+02  0.35233383944E+02  0.22094404137E+02  0.46142318094E+02  0.10000003032E+02 0.  0.
         12    1    1    2    0    0  0.17307784958E+02 -0.35233383944E+02 -0.22094404137E+02  0.45045681906E+02  0.00000000000E+00 0. -1.
         11    1    3    3    0    0 -0.26538033658E+01  0.12465375691E+02  0.61267489594E+01  0.14140909324E+02  0.51100000000E-03 0. -1.
        -11    1    3    3    0    0 -0.14206934112E+02  0.20535912462E+02  0.12689662760E+02  0.28010501936E+02  0.51100000000E-03 0.  1.
        -12    1    3    3    0    0 -0.44704748052E+00  0.22320957908E+01  0.32779924177E+01  0.39909068342E+01  0.00000000000E+00 0.  1.
</event>
<event>
 7    1  0.1442665E-008  0.4614232E+02  0.7816164E-02  0.1320468E+00
        -11   -1    0    0    0    0  0.00000000000E+00  0.00000000000E+00  0.45593999997E+02  0.45594000000E+02  0.51100000000E-03 0.  1.
         11   -1    0    0    0    0 -0.00000000000E+00 -0.00000000000E+00 -0.45593999997E+02  0.45594000000E+02  0.51100000000E-03 0. -1.
    9900012    2    1    2    0    0  0.24656359958E+02  0.17950112691E+02  0.33150727911E+02  0.46142318820E+02  0.10000009652E+02 0.  0.
         12    1    1    2    0    0 -0.24656359958E+02 -0.17950112691E+02 -0.33150727911E+02  0.45045681180E+02  0.00000000000E+00 0. -1.
         11    1    3    3    0    0  0.99952854809E+01  0.36164395610E+01  0.79400546717E+01  0.13267585892E+02  0.51100000000E-03 0. -1.
        -11    1    3    3    0    0  0.70203687654E+01  0.87895460271E+01  0.16876902814E+02  0.20282296364E+02  0.51100000000E-03 0.  1.
        -12    1    3    3    0    0  0.76407057118E+01  0.55441271028E+01  0.83337704250E+01  0.12592436563E+02  0.00000000000E+00 0.  1.
</event>
<event>
 7    1  0.1442665E-008  0.4614232E+02  0.7816164E-02  0.1320468E+00
        -11   -1    0    0    0    0  0.00000000000E+00  0.00000000000E+00  0.45593999997E+02  0.45594000000E+02  0.51100000000E-03 0.  1.
         11   -1    0    0    0    0 -0.00000000000E+00 -0.00000000000E+00 -0.45593999997E+02  0.45594000000E+02  0.51100000000E-03 0. -1.
    9900012    2    1    2    0    0  0.53856565485E+01 -0.13573817062E+02  0.42612904579E+02  0.46142318268E+02  0.10000004619E+02 0.  0.
         12    1    1    2    0    0 -0.53856565485E+01  0.13573817062E+02 -0.42612904579E+02  0.45045681732E+02  0.00000000000E+00 0. -1.
         11    1    3    3    0    0  0.64424870959E+01 -0.81921036220E+01  0.28268675819E+02  0.30128628156E+02  0.51100000000E-03 0. -1.
        -11    1    3    3    0    0 -0.13815658892E+01 -0.50800430707E+01  0.14587271111E+02  0.15508192694E+02  0.51100000000E-03 0.  1.
         12    1    3    3    0    0  0.32473534178E+00 -0.30167036956E+00 -0.24304235179E+00  0.50549741724E+00  0.00000000000E+00 0. -1.
</event>
<event>
 7    1  0.1442665E-008  0.4614232E+02  0.7816164E-02  0.1320468E+00
        -11   -1    0    0    0    0  0.00000000000E+00  0.00000000000E+00  0.45593999997E+02  0.45594000000E+02  0.51100000000E-03 0. -1.
         11   -1    0    0    0    0 -0.00000000000E+00 -0.00000000000E+00 -0.45593999997E+02  0.45594000000E+02  0.51100000000E-03 0.  1.
    9900012    2    1    2    0    0 -0.26815770367E+02  0.34807577955E+02  0.99227274196E+01  0.46142317156E+02  0.99999944779E+01 0.  0.
         12    1    1    2    0    0  0.26815770367E+02 -0.34807577955E+02 -0.99227274196E+01  0.45045682844E+02  0.00000000000E+00 0. -1.
         11    1    3    3    0    0 -0.38536499897E+01  0.11491673754E+02  0.17089311887E+01  0.12240491411E+02  0.51100000000E-03 0. -1.
        -11    1    3    3    0    0 -0.16934107878E+02  0.16778958819E+02  0.44732467097E+01  0.24255049063E+02  0.51100000000E-03 0.  1.
         12    1    3    3    0    0 -0.60280124997E+01  0.65369453827E+01  0.37405495213E+01  0.96467766821E+01  0.00000000000E+00 0. -1.
</event>
<event>
 7    1  0.1442665E-008  0.4614232E+02  0.7816164E-02  0.1320468E+00
        -11   -1    0    0    0    0  0.00000000000E+00  0.00000000000E+00  0.45593999997E+02  0.45594000000E+02  0.51100000000E-03 0.  1.
         11   -1    0    0    0    0 -0.00000000000E+00 -0.00000000000E+00 -0.45593999997E+02  0.45594000000E+02  0.51100000000E-03 0. -1.
    9900012    2    1    2    0    0  0.33819435939E+02 -0.14228076676E+02  0.26132758278E+02  0.46142317983E+02  0.10000002023E+02 0.  0.
         12    1    1    2    0    0 -0.33819435939E+02  0.14228076676E+02 -0.26132758278E+02  0.45045682017E+02  0.00000000000E+00 0. -1.
         11    1    3    3    0    0  0.49062670500E+01 -0.11326406990E+00  0.81406608397E+00  0.49746345560E+01  0.51100000000E-03 0. -1.
        -11    1    3    3    0    0  0.25624967223E+02 -0.13870588477E+02  0.22230463828E+02  0.36650043549E+02  0.51100000000E-03 0.  1.
        -12    1    3    3    0    0  0.32882016662E+01 -0.24422412904E+00  0.30882283668E+01  0.45176398781E+01  0.00000000000E+00 0.  1.
</event>
<event>
 7    1  0.1442665E-008  0.4614232E+02  0.7816164E-02  0.1320468E+00
        -11   -1    0    0    0    0  0.00000000000E+00  0.00000000000E+00  0.45593999997E+02  0.45594000000E+02  0.51100000000E-03 0.  1.
         11   -1    0    0    0    0 -0.00000000000E+00 -0.00000000000E+00 -0.45593999997E+02  0.45594000000E+02  0.51100000000E-03 0. -1.
    9900012    2    1    2    0    0 -0.26427093635E+02 -0.10795627005E+02 -0.34845037649E+02  0.46142317752E+02  0.99999999176E+01 0.  0.
         12    1    1    2    0    0  0.26427093635E+02  0.10795627005E+02  0.34845037649E+02  0.45045682248E+02  0.00000000000E+00 0. -1.
         11    1    3    3    0    0 -0.27864161222E+01 -0.16048107504E+01 -0.11909119978E+01  0.34289654414E+01  0.51100000000E-03 0. -1.
        -11    1    3    3    0    0 -0.21636439231E+02 -0.98064387316E+01 -0.28210993369E+02  0.36880372698E+02  0.51100000000E-03 0.  1.
        -12    1    3    3    0    0 -0.20042382821E+01  0.61562247739E+00 -0.54431322818E+01  0.58329796128E+01  0.00000000000E+00 0.  1.
</event>
<event>
 7    1  0.1442665E-008  0.4614232E+02  0.7816164E-02  0.1320468E+00
        -11   -1    0    0    0    0  0.00000000000E+00  0.00000000000E+00  0.45593999997E+02  0.45594000000E+02  0.51100000000E-03 0. -1.
         11   -1    0    0    0    0 -0.00000000000E+00 -0.00000000000E+00 -0.45593999997E+02  0.45594000000E+02  0.51100000000E-03 0.  1.
    9900012    2    1    2    0    0 -0.11252850638E+02  0.42989196096E+02  0.73767120878E+01  0.46142317524E+02  0.99999978415E+01 0.  0.
         12    1    1    2    0    0  0.11252850638E+02 -0.42989196096E+02 -0.73767120878E+01  0.45045682476E+02  0.00000000000E+00 0. -1.
         11    1    3    3    0    0 -0.85865344064E+01  0.22394728449E+02  0.34049594208E+01  0.24224908345E+02  0.51100000000E-03 0.  1.
        -11    1    3    3    0    0  0.15238257860E+01  0.42329405944E+01  0.19642138071E+01  0.49089680425E+01  0.51100000000E-03 0. -1.
        -12    1    3    3    0    0 -0.41901420174E+01  0.16361527053E+02  0.20075388599E+01  0.17008441137E+02  0.00000000000E+00 0.  1.
</event>
<event>
 7    1  0.1442665E-008  0.4614232E+02  0.7816164E-02  0.1320468E+00
        -11   -1    0    0    0    0  0.00000000000E+00  0.00000000000E+00  0.45593999997E+02  0.45594000000E+02  0.51100000000E-03 0.  1.
         11   -1    0    0    0    0 -0.00000000000E+00 -0.00000000000E+00 -0.45593999997E+02  0.45594000000E+02  0.51100000000E-03 0. -1.
    9900012    2    1    2    0    0  0.84526463595E+01  0.41627699484E+02  0.14993362174E+02  0.46142317587E+02  0.99999984099E+01 0.  0.
         12    1    1    2    0    0 -0.84526463595E+01 -0.41627699484E+02 -0.14993362174E+02  0.45045682413E+02  0.00000000000E+00 0. -1.
         11    1    3    3    0    0  0.33718131559E+01  0.14958031574E+02  0.96802796435E+00  0.15363883328E+02  0.51100000000E-03 0. -1.
        -11    1    3    3    0    0  0.22285945114E+01  0.17683444886E+02  0.10659287188E+02  0.20767553061E+02  0.51100000000E-03 0.  1.
        -12    1    3    3    0    0  0.28522386921E+01  0.89862230241E+01  0.33660470214E+01  0.10010881197E+02  0.00000000000E+00 0.  1.
</event>
<event>
 7    1  0.1442665E-008  0.4614232E+02  0.7816164E-02  0.1320468E+00
        -11   -1    0    0    0    0  0.00000000000E+00  0.00000000000E+00  0.45593999997E+02  0.45594000000E+02  0.51100000000E-03 0.  1.
         11   -1    0    0    0    0 -0.00000000000E+00 -0.00000000000E+00 -0.45593999997E+02  0.45594000000E+02  0.51100000000E-03 0. -1.
    9900012    2    1    2    0    0 -0.52168526347E+01  0.38863375499E+02  0.22170610729E+02  0.46142317780E+02  0.10000000175E+02 0.  0.
         12    1    1    2    0    0  0.52168526347E+01 -0.38863375499E+02 -0.22170610729E+02  0.45045682220E+02  0.00000000000E+00 0. -1.
         11    1    3    3    0    0 -0.70109031903E+01  0.21484490250E+02  0.14532542325E+02  0.26868771307E+02  0.51100000000E-03 0. -1.
        -11    1    3    3    0    0  0.24928798472E+01  0.12199716515E+02  0.57686722032E+01  0.13723159703E+02  0.51100000000E-03 0.  1.
         12    1    3    3    0    0 -0.69882929172E+00  0.51791687332E+01  0.18693962004E+01  0.55503867703E+01  0.00000000000E+00 0. -1.
</event>
<event>
 7    1  0.1442665E-008  0.4614232E+02  0.7816164E-02  0.1320468E+00
        -11   -1    0    0    0    0  0.00000000000E+00  0.00000000000E+00  0.45593999997E+02  0.45594000000E+02  0.51100000000E-03 0.  1.
         11   -1    0    0    0    0 -0.00000000000E+00 -0.00000000000E+00 -0.45593999997E+02  0.45594000000E+02  0.51100000000E-03 0. -1.
    9900012    2    1    2    0    0  0.24213030537E+02 -0.31666436444E+02  0.20978071115E+02  0.46142317492E+02  0.99999975501E+01 0.  0.
         12    1    1    2    0    0 -0.24213030537E+02  0.31666436444E+02 -0.20978071115E+02  0.45045682508E+02  0.00000000000E+00 0. -1.
         11    1    3    3    0    0  0.52060962092E+01 -0.11913910380E+02  0.68056535234E+01  0.14675204204E+02  0.51100000000E-03 0. -1.
        -11    1    3    3    0    0  0.77630970878E+01 -0.12486686661E+02  0.77005658487E+01  0.16597642448E+02  0.51100000000E-03 0.  1.
         12    1    3    3    0    0  0.11243837240E+02 -0.72658394034E+01  0.64718517428E+01  0.14869470841E+02  0.00000000000E+00 0. -1.
</event>
<event>
 7    1  0.1442665E-008  0.4614232E+02  0.7816164E-02  0.1320468E+00
        -11   -1    0    0    0    0  0.00000000000E+00  0.00000000000E+00  0.45593999997E+02  0.45594000000E+02  0.51100000000E-03 0.  1.
         11   -1    0    0    0    0 -0.00000000000E+00 -0.00000000000E+00 -0.45593999997E+02  0.45594000000E+02  0.51100000000E-03 0. -1.
    9900012    2    1    2    0    0  0.14904405083E+02 -0.27671393451E+02  0.32268656493E+02  0.46142317651E+02  0.99999989995E+01 0.  0.
         12    1    1    2    0    0 -0.14904405083E+02  0.27671393451E+02 -0.32268656493E+02  0.45045682349E+02  0.00000000000E+00 0. -1.
         11    1    3    3    0    0  0.50243856647E+01 -0.48847405747E+01  0.12520125048E+02  0.14347775900E+02  0.51100000000E-03 0. -1.
        -11    1    3    3    0    0  0.97919468785E+01 -0.21522666506E+02  0.18882322991E+02  0.30259701238E+02  0.51100000000E-03 0.  1.
         12    1    3    3    0    0  0.88072539465E-01 -0.12639863711E+01  0.86620845296E+00  0.15348405137E+01  0.00000000000E+00 0. -1.
</event>
<event>
 7    1  0.1442665E-008  0.4614232E+02  0.7816164E-02  0.1320468E+00
        -11   -1    0    0    0    0  0.00000000000E+00  0.00000000000E+00  0.45593999997E+02  0.45594000000E+02  0.51100000000E-03 0. -1.
         11   -1    0    0    0    0 -0.00000000000E+00 -0.00000000000E+00 -0.45593999997E+02  0.45594000000E+02  0.51100000000E-03 0.  1.
    9900012    2    1    2    0    0  0.26616198337E+02  0.35945210253E+02 -0.53510122362E+01  0.46142317788E+02  0.10000000244E+02 0.  0.
         12    1    1    2    0    0 -0.26616198337E+02 -0.35945210253E+02  0.53510122362E+01  0.45045682212E+02  0.00000000000E+00 0. -1.
         11    1    3    3    0    0  0.18150192080E+02  0.18462900968E+02 -0.30815023263E+01  0.26073048183E+02  0.51100000000E-03 0. -1.
        -11    1    3    3    0    0  0.52640802522E+01  0.10694861635E+02  0.83128602989E+00  0.11949127291E+02  0.51100000000E-03 0.  1.
         12    1    3    3    0    0  0.32019260041E+01  0.67874476497E+01 -0.31007959398E+01  0.81201423137E+01  0.00000000000E+00 0. -1.
</event>
