<event>
 7    1  0.1215217E-011  0.5930191E+02  0.7816164E-02  0.1266605E+00
        -11   -1    0    0    0    0  0.00000000000E+00  0.00000000000E+00  0.45593999997E+02  0.45594000000E+02  0.51100000000E-03 0.  1.
         11   -1    0    0    0    0 -0.00000000000E+00 -0.00000000000E+00 -0.45593999997E+02  0.45594000000E+02  0.51100000000E-03 0. -1.
    9900012    2    1    2    0    0  0.19707625273E+02 -0.29021797432E+00 -0.25064870394E+02  0.59301914504E+02  0.49999946156E+02 0.  0.
        -12    1    1    2    0    0 -0.19707625273E+02  0.29021797432E+00  0.25064870394E+02  0.31886085496E+02  0.00000000000E+00 0.  1.
         11    1    3    3    0    0  0.12251061407E+02  0.74681534544E+01  0.55228049006E+01  0.15374107969E+02  0.51100000000E-03 0. -1.
        -11    1    3    3    0    0 -0.53426580916E+01  0.39990928752E+01  0.20242562314E+01  0.69738334408E+01  0.51100000000E-03 0.  1.
         12    1    3    3    0    0  0.12799221958E+02 -0.11757464304E+02 -0.32611931526E+02  0.36953973094E+02  0.00000000000E+00 0. -1.
</event>
<event>
 7    1  0.1215217E-011  0.5930194E+02  0.7816164E-02  0.1266605E+00
        -11   -1    0    0    0    0  0.00000000000E+00  0.00000000000E+00  0.45593999997E+02  0.45594000000E+02  0.51100000000E-03 0. -1.
         11   -1    0    0    0    0 -0.00000000000E+00 -0.00000000000E+00 -0.45593999997E+02  0.45594000000E+02  0.51100000000E-03 0.  1.
    9900012    2    1    2    0    0 -0.17574193909E+02  0.69056479267E+01  0.25693983070E+02  0.59301936730E+02  0.49999986691E+02 0.  0.
        -12    1    1    2    0    0  0.17574193909E+02 -0.69056479267E+01 -0.25693983070E+02  0.31886063270E+02  0.00000000000E+00 0.  1.
         11    1    3    3    0    0 -0.20525118946E+02  0.73784447952E+01  0.34178132872E+02  0.40544626306E+02  0.51100000000E-03 0. -1.
        -11    1    3    3    0    0 -0.56655832006E+01 -0.42612128747E+01 -0.21356311094E+01  0.74038968566E+01  0.51100000000E-03 0.  1.
        -12    1    3    3    0    0  0.86165082383E+01  0.37884160062E+01 -0.63485186925E+01  0.11353413568E+02  0.00000000000E+00 0.  1.
</event>
<event>
 7    1  0.1215217E-011  0.5930211E+02  0.7816164E-02  0.1266604E+00
        -11   -1    0    0    0    0  0.00000000000E+00  0.00000000000E+00  0.45593999997E+02  0.45594000000E+02  0.51100000000E-03 0.  1.
         11   -1    0    0    0    0 -0.00000000000E+00 -0.00000000000E+00 -0.45593999997E+02  0.45594000000E+02  0.51100000000E-03 0. -1.
    9900012    2    1    2    0    0 -0.20941319538E+02  0.13651652470E+02 -0.19794034631E+02  0.59302105217E+02  0.50000293970E+02 0.  0.
        -12    1    1    2    0    0  0.20941319538E+02 -0.13651652470E+02  0.19794034631E+02  0.31885894783E+02  0.00000000000E+00 0.  1.
         11    1    3    3    0    0  0.26067896665E+01  0.11430201074E+02 -0.13238576515E+02  0.17683459994E+02  0.51100000000E-03 0. -1.
        -11    1    3    3    0    0 -0.15243552354E+02 -0.11403863535E+02 -0.14369378153E+02  0.23851478375E+02  0.51100000000E-03 0.  1.
         12    1    3    3    0    0 -0.83045568501E+01  0.13625314931E+02  0.78139200372E+01  0.17767166848E+02  0.00000000000E+00 0. -1.
</event>
<event>
 7    1  0.1215217E-011  0.5930196E+02  0.7816164E-02  0.1266605E+00
        -11   -1    0    0    0    0  0.00000000000E+00  0.00000000000E+00  0.45593999997E+02  0.45594000000E+02  0.51100000000E-03 0. -1.
         11   -1    0    0    0    0 -0.00000000000E+00 -0.00000000000E+00 -0.45593999997E+02  0.45594000000E+02  0.51100000000E-03 0.  1.
    9900012    2    1    2    0    0  0.28553432585E+02  0.77597139926E+01  0.11883078639E+02  0.59301964944E+02  0.50000038147E+02 0.  0.
        -12    1    1    2    0    0 -0.28553432585E+02 -0.77597139926E+01 -0.11883078639E+02  0.31886035056E+02  0.00000000000E+00 0.  1.
         11    1    3    3    0    0  0.20774934501E+02  0.63097748330E+01  0.58096448505E+01  0.22475834478E+02  0.51100000000E-03 0. -1.
        -11    1    3    3    0    0  0.16373308943E+02  0.13645540726E+02  0.23092767469E+01  0.21438721669E+02  0.51100000000E-03 0.  1.
        -12    1    3    3    0    0 -0.85948108585E+01 -0.12195601566E+02  0.37641570412E+01  0.15387408797E+02  0.00000000000E+00 0.  1.
</event>
<event>
 7    1  0.1215217E-011  0.5930195E+02  0.7816164E-02  0.1266605E+00
        -11   -1    0    0    0    0  0.00000000000E+00  0.00000000000E+00  0.45593999997E+02  0.45594000000E+02  0.51100000000E-03 0. -1.
         11   -1    0    0    0    0 -0.00000000000E+00 -0.00000000000E+00 -0.45593999997E+02  0.45594000000E+02  0.51100000000E-03 0.  1.
    9900012    2    1    2    0    0  0.21685812664E+02 -0.39315977218E+01 -0.23043185743E+02  0.59301947552E+02  0.50000006427E+02 0.  0.
        -12    1    1    2    0    0 -0.21685812664E+02  0.39315977218E+01  0.23043185743E+02  0.31886052448E+02  0.00000000000E+00 0.  1.
         11    1    3    3    0    0 -0.54197813405E+01 -0.37427515001E+00  0.52593145025E+01  0.75613822126E+01  0.51100000000E-03 0. -1.
        -11    1    3    3    0    0  0.10033291320E+02 -0.18173420330E+02 -0.15162836716E+02  0.25707037144E+02  0.51100000000E-03 0.  1.
        -12    1    3    3    0    0  0.17072302685E+02  0.14616097758E+02 -0.13139663529E+02  0.26033528195E+02  0.00000000000E+00 0.  1.
</event>
<event>
 7    1  0.1215217E-011  0.5930193E+02  0.7816164E-02  0.1266605E+00
        -11   -1    0    0    0    0  0.00000000000E+00  0.00000000000E+00  0.45593999997E+02  0.45594000000E+02  0.51100000000E-03 0.  1.
         11   -1    0    0    0    0 -0.00000000000E+00 -0.00000000000E+00 -0.45593999997E+02  0.45594000000E+02  0.51100000000E-03 0. -1.
    9900012    2    1    2    0    0 -0.30715356339E+02  0.69783466436E+01 -0.49589022981E+01  0.59301934879E+02  0.49999983315E+02 0.  0.
        -12    1    1    2    0    0  0.30715356339E+02 -0.69783466436E+01  0.49589022981E+01  0.31886065121E+02  0.00000000000E+00 0.  1.
         11    1    3    3    0    0 -0.20984494419E+02  0.17809630812E+02 -0.77037230363E+01  0.28581100478E+02  0.51100000000E-03 0. -1.
        -11    1    3    3    0    0  0.86529515830E+01  0.80741033937E+00 -0.58043749452E+00  0.87099018651E+01  0.51100000000E-03 0.  1.
         12    1    3    3    0    0 -0.18383813503E+02 -0.11638694508E+02  0.33252582327E+01  0.22010932535E+02  0.00000000000E+00 0. -1.
</event>
<event>
 7    1  0.1215217E-011  0.5930210E+02  0.7816164E-02  0.1266604E+00
        -11   -1    0    0    0    0  0.00000000000E+00  0.00000000000E+00  0.45593999997E+02  0.45594000000E+02  0.51100000000E-03 0.  1.
         11   -1    0    0    0    0 -0.00000000000E+00 -0.00000000000E+00 -0.45593999997E+02  0.45594000000E+02  0.51100000000E-03 0. -1.
    9900012    2    1    2    0    0  0.23705828124E+02  0.10561829054E+02 -0.18525438381E+02  0.59302103631E+02  0.50000291077E+02 0.  0.
        -12    1    1    2    0    0 -0.23705828124E+02 -0.10561829054E+02  0.18525438381E+02  0.31885896369E+02  0.00000000000E+00 0.  1.
         11    1    3    3    0    0  0.54218389487E+01 -0.84524198161E+01  0.95946885005E+00  0.10087631985E+02  0.51100000000E-03 0. -1.
        -11    1    3    3    0    0 -0.53644983371E+01  0.95499704112E+01  0.65734927069E+01  0.12774606996E+02  0.51100000000E-03 0.  1.
         12    1    3    3    0    0  0.23648487513E+02  0.94642784589E+01 -0.26058399938E+02  0.36439864650E+02  0.00000000000E+00 0. -1.
</event>
<event>
 7    1  0.1215217E-011  0.5930193E+02  0.7816164E-02  0.1266605E+00
        -11   -1    0    0    0    0  0.00000000000E+00  0.00000000000E+00  0.45593999997E+02  0.45594000000E+02  0.51100000000E-03 0. -1.
         11   -1    0    0    0    0 -0.00000000000E+00 -0.00000000000E+00 -0.45593999997E+02  0.45594000000E+02  0.51100000000E-03 0.  1.
    9900012    2    1    2    0    0  0.57635052117E+01  0.22424593018E+02  0.21923521874E+02  0.59301934459E+02  0.49999982548E+02 0.  0.
        -12    1    1    2    0    0 -0.57635052117E+01 -0.22424593018E+02 -0.21923521874E+02  0.31886065541E+02  0.00000000000E+00 0.  1.
         11    1    3    3    0    0  0.73395826273E+01  0.74073475258E+01  0.38018904935E+01  0.11099218085E+02  0.51100000000E-03 0. -1.
        -11    1    3    3    0    0  0.14163597510E+02 -0.82623225640E+01  0.46795313914E+01  0.17052022838E+02  0.51100000000E-03 0.  1.
         12    1    3    3    0    0 -0.15739674925E+02  0.23279568056E+02  0.13442099989E+02  0.31150693536E+02  0.00000000000E+00 0. -1.
</event>
<event>
 7    1  0.1215217E-011  0.5930195E+02  0.7816164E-02  0.1266605E+00
        -11   -1    0    0    0    0  0.00000000000E+00  0.00000000000E+00  0.45593999997E+02  0.45594000000E+02  0.51100000000E-03 0.  1.
         11   -1    0    0    0    0 -0.00000000000E+00 -0.00000000000E+00 -0.45593999997E+02  0.45594000000E+02  0.51100000000E-03 0. -1.
    9900012    2    1    2    0    0 -0.30320185605E+02 -0.49427312475E+01  0.85426075044E+01  0.59301946775E+02  0.50000005010E+02 0.  0.
        -12    1    1    2    0    0  0.30320185605E+02  0.49427312475E+01 -0.85426075044E+01  0.31886053225E+02  0.00000000000E+00 0.  1.
         11    1    3    3    0    0 -0.34588853989E+01 -0.15026093228E+01 -0.76171912836E+01  0.84996074198E+01  0.51100000000E-03 0. -1.
        -11    1    3    3    0    0 -0.13132247275E+02  0.93609013443E+01  0.25238521416E+02  0.29951049331E+02  0.51100000000E-03 0.  1.
         12    1    3    3    0    0 -0.13729052931E+02 -0.12801023269E+02 -0.90787226281E+01  0.20851290024E+02  0.00000000000E+00 0. -1.
</event>
<event>
 7    1  0.1215217E-011  0.5930194E+02  0.7816164E-02  0.1266605E+00
        -11   -1    0    0    0    0  0.00000000000E+00  0.00000000000E+00  0.45593999997E+02  0.45594000000E+02  0.51100000000E-03 0.  1.
         11   -1    0    0    0    0 -0.00000000000E+00 -0.00000000000E+00 -0.45593999997E+02  0.45594000000E+02  0.51100000000E-03 0. -1.
    9900012    2    1    2    0    0  0.17231564073E+02 -0.17835094771E+02 -0.20042541161E+02  0.59301939377E+02  0.49999991518E+02 0.  0.
        -12    1    1    2    0    0 -0.17231564073E+02  0.17835094771E+02  0.20042541161E+02  0.31886060623E+02  0.00000000000E+00 0.  1.
         11    1    3    3    0    0  0.97519423212E+01  0.29491410780E+01 -0.31545499750E+02  0.33149907495E+02  0.51100000000E-03 0. -1.
        -11    1    3    3    0    0  0.44208959373E+01 -0.28505309885E+01  0.20062311700E+01  0.56298145239E+01  0.51100000000E-03 0.  1.
        -12    1    3    3    0    0  0.30587258142E+01 -0.17933704860E+02  0.94967274196E+01  0.20522217358E+02  0.00000000000E+00 0.  1.
</event>
<event>
 7    1  0.1215217E-011  0.5930192E+02  0.7816164E-02  0.1266605E+00
        -11   -1    0    0    0    0  0.00000000000E+00  0.00000000000E+00  0.45593999997E+02  0.45594000000E+02  0.51100000000E-03 0.  1.
         11   -1    0    0    0    0 -0.00000000000E+00 -0.00000000000E+00 -0.45593999997E+02  0.45594000000E+02  0.51100000000E-03 0. -1.
    9900012    2    1    2    0    0  0.18531655072E+02 -0.11869459715E+02 -0.23074130415E+02  0.59301924543E+02  0.49999964464E+02 0.  0.
        -12    1    1    2    0    0 -0.18531655072E+02  0.11869459715E+02  0.23074130415E+02  0.31886075457E+02  0.00000000000E+00 0.  1.
         11    1    3    3    0    0  0.25726205442E+02 -0.81260895664E+01 -0.20750254713E+02  0.34035922920E+02  0.51100000000E-03 0. -1.
        -11    1    3    3    0    0  0.34372580428E+01  0.42187071539E+01 -0.89098363740E+01  0.10440182823E+02  0.51100000000E-03 0.  1.
        -12    1    3    3    0    0 -0.10631808413E+02 -0.79620773030E+01  0.65859606723E+01  0.14825818800E+02  0.00000000000E+00 0.  1.
</event>
<event>
 7    1  0.1215217E-011  0.5930198E+02  0.7816164E-02  0.1266605E+00
        -11   -1    0    0    0    0  0.00000000000E+00  0.00000000000E+00  0.45593999997E+02  0.45594000000E+02  0.51100000000E-03 0.  1.
         11   -1    0    0    0    0 -0.00000000000E+00 -0.00000000000E+00 -0.45593999997E+02  0.45594000000E+02  0.51100000000E-03 0. -1.
    9900012    2    1    2    0    0 -0.29424859925E+02 -0.10266308464E+02  0.67452980979E+01  0.59301976141E+02  0.50000058567E+02 0.  0.
        -12    1    1    2    0    0  0.29424859925E+02  0.10266308464E+02 -0.67452980979E+01  0.31886023859E+02  0.00000000000E+00 0.  1.
         11    1    3    3    0    0 -0.91406630174E+01 -0.19859470234E+02  0.89598641033E+01  0.23626879679E+02  0.51100000000E-03 0. -1.
        -11    1    3    3    0    0  0.40670762035E+01 -0.17842245716E+01  0.60953751333E+01  0.75417613622E+01  0.51100000000E-03 0.  1.
        -12    1    3    3    0    0 -0.24351273111E+02  0.11377386341E+02 -0.83099411387E+01  0.28133335100E+02  0.00000000000E+00 0.  1.
</event>
<event>
 7    1  0.1215217E-011  0.5930191E+02  0.7816164E-02  0.1266605E+00
        -11   -1    0    0    0    0  0.00000000000E+00  0.00000000000E+00  0.45593999997E+02  0.45594000000E+02  0.51100000000E-03 0.  1.
         11   -1    0    0    0    0 -0.00000000000E+00 -0.00000000000E+00 -0.45593999997E+02  0.45594000000E+02  0.51100000000E-03 0. -1.
    9900012    2    1    2    0    0 -0.17450907008E+01  0.25230835393E+02 -0.19418615461E+02  0.59301905497E+02  0.49999929730E+02 0.  0.
        -12    1    1    2    0    0  0.17450907008E+01 -0.25230835393E+02  0.19418615461E+02  0.31886094503E+02  0.00000000000E+00 0.  1.
         11    1    3    3    0    0 -0.73201038022E+01  0.64379903848E+01 -0.21996289886E+02  0.24059684305E+02  0.51100000000E-03 0. -1.
        -11    1    3    3    0    0 -0.36130272562E+01  0.22588020175E+01 -0.11106545533E+02  0.11895860896E+02  0.51100000000E-03 0.  1.
         12    1    3    3    0    0  0.91880403576E+01  0.16534042991E+02  0.13684219958E+02  0.23346360297E+02  0.00000000000E+00 0. -1.
</event>
<event>
 7    1  0.1215217E-011  0.5930195E+02  0.7816164E-02  0.1266605E+00
        -11   -1    0    0    0    0  0.00000000000E+00  0.00000000000E+00  0.45593999997E+02  0.45594000000E+02  0.51100000000E-03 0. -1.
         11   -1    0    0    0    0 -0.00000000000E+00 -0.00000000000E+00 -0.45593999997E+02  0.45594000000E+02  0.51100000000E-03 0.  1.
    9900012    2    1    2    0    0 -0.16867456359E+02 -0.19571554550E+02  0.18685921614E+02  0.59301945084E+02  0.50000001926E+02 0.  0.
        -12    1    1    2    0    0  0.16867456359E+02  0.19571554550E+02 -0.18685921614E+02  0.31886054916E+02  0.00000000000E+00 0.  1.
         11    1    3    3    0    0 -0.14786156982E+02 -0.81794405887E+01  0.10018912619E+02  0.19644650595E+02  0.51100000000E-03 0. -1.
        -11    1    3    3    0    0 -0.57800016790E+01 -0.19142719328E+02 -0.74954156250E+01  0.21354938032E+02  0.51100000000E-03 0.  1.
         12    1    3    3    0    0  0.36987023021E+01  0.77506053667E+01  0.16162424620E+02  0.18302356457E+02  0.00000000000E+00 0. -1.
</event>
<event>
 7    1  0.1215217E-011  0.5930194E+02  0.7816164E-02  0.1266605E+00
        -11   -1    0    0    0    0  0.00000000000E+00  0.00000000000E+00  0.45593999997E+02  0.45594000000E+02  0.51100000000E-03 0.  1.
         11   -1    0    0    0    0 -0.00000000000E+00 -0.00000000000E+00 -0.45593999997E+02  0.45594000000E+02  0.51100000000E-03 0. -1.
    9900012    2    1    2    0    0 -0.10885160658E+02  0.21247235927E+02 -0.21137387875E+02  0.59301938418E+02  0.49999989768E+02 0.  0.
        -12    1    1    2    0    0  0.10885160658E+02 -0.21247235927E+02  0.21137387875E+02  0.31886061582E+02  0.00000000000E+00 0.  1.
         11    1    3    3    0    0  0.28155057461E+01  0.51406159055E+01  0.51641527896E+00  0.58838498872E+01  0.51100000000E-03 0. -1.
        -11    1    3    3    0    0 -0.39280709906E+01  0.22544692733E+02  0.57709853155E+01  0.23600787782E+02  0.51100000000E-03 0.  1.
         12    1    3    3    0    0 -0.97725954138E+01 -0.64380727120E+01 -0.27424788469E+02  0.29817300749E+02  0.00000000000E+00 0. -1.
</event>
<event>
 7    1  0.1215217E-011  0.5930195E+02  0.7816164E-02  0.1266605E+00
        -11   -1    0    0    0    0  0.00000000000E+00  0.00000000000E+00  0.45593999997E+02  0.45594000000E+02  0.51100000000E-03 0. -1.
         11   -1    0    0    0    0 -0.00000000000E+00 -0.00000000000E+00 -0.45593999997E+02  0.45594000000E+02  0.51100000000E-03 0.  1.
    9900012    2    1    2    0    0 -0.44734831631E+01 -0.30534531051E+02 -0.80218762219E+01  0.59301950759E+02  0.50000012276E+02 0.  0.
        -12    1    1    2    0    0  0.44734831631E+01  0.30534531051E+02  0.80218762219E+01  0.31886049241E+02  0.00000000000E+00 0.  1.
         11    1    3    3    0    0 -0.91251850244E+01  0.75833628366E+01 -0.50091739637E+01  0.12878983566E+02  0.51100000000E-03 0. -1.
        -11    1    3    3    0    0 -0.81791158632E+01 -0.14244205971E+02 -0.89087806160E+01  0.18685869324E+02  0.51100000000E-03 0.  1.
         12    1    3    3    0    0  0.12830817724E+02 -0.23873687916E+02  0.58960783577E+01  0.27737097869E+02  0.00000000000E+00 0. -1.
</event>
<event>
 7    1  0.1215217E-011  0.5930195E+02  0.7816164E-02  0.1266605E+00
        -11   -1    0    0    0    0  0.00000000000E+00  0.00000000000E+00  0.45593999997E+02  0.45594000000E+02  0.51100000000E-03 0. -1.
         11   -1    0    0    0    0 -0.00000000000E+00 -0.00000000000E+00 -0.45593999997E+02  0.45594000000E+02  0.51100000000E-03 0.  1.
    9900012    2    1    2    0    0  0.22927156402E+02  0.20408382991E+02  0.86350343554E+01  0.59301946382E+02  0.50000004294E+02 0.  0.
        -12    1    1    2    0    0 -0.22927156402E+02 -0.20408382991E+02 -0.86350343554E+01  0.31886053618E+02  0.00000000000E+00 0.  1.
         11    1    3    3    0    0  0.22715381923E+02  0.16349637005E+02  0.47028708722E+01  0.28379855546E+02  0.51100000000E-03 0. -1.
        -11    1    3    3    0    0  0.16235730665E+01 -0.47655967999E+01  0.15504161021E+02  0.16301101545E+02  0.51100000000E-03 0.  1.
         12    1    3    3    0    0 -0.14117985873E+01  0.88243427862E+01 -0.11571997537E+02  0.14620989292E+02  0.00000000000E+00 0. -1.
</event>
<event>
 7    1  0.1215217E-011  0.5930196E+02  0.7816164E-02  0.1266605E+00
        -11   -1    0    0    0    0  0.00000000000E+00  0.00000000000E+00  0.45593999997E+02  0.45594000000E+02  0.51100000000E-03 0. -1.
         11   -1    0    0    0    0 -0.00000000000E+00 -0.00000000000E+00 -0.45593999997E+02  0.45594000000E+02  0.51100000000E-03 0.  1.
    9900012    2    1    2    0    0  0.30837351132E+02  0.46179524362E+01  0.66672221254E+01  0.59301959787E+02  0.50000028742E+02 0.  0.
        -12    1    1    2    0    0 -0.30837351132E+02 -0.46179524362E+01 -0.66672221254E+01  0.31886040213E+02  0.00000000000E+00 0.  1.
         11    1    3    3    0    0 -0.35399225204E+01 -0.91773790518E+01  0.41030676028E+01  0.10657884486E+02  0.51100000000E-03 0. -1.
        -11    1    3    3    0    0  0.57150071392E+01 -0.98710817545E+01  0.55712221214E+00  0.11419717467E+02  0.51100000000E-03 0.  1.
        -12    1    3    3    0    0  0.28662266514E+02  0.23666413243E+02  0.20070323104E+01  0.37224357834E+02  0.00000000000E+00 0.  1.
</event>
<event>
 7    1  0.1215217E-011  0.5930196E+02  0.7816164E-02  0.1266605E+00
        -11   -1    0    0    0    0  0.00000000000E+00  0.00000000000E+00  0.45593999997E+02  0.45594000000E+02  0.51100000000E-03 0. -1.
         11   -1    0    0    0    0 -0.00000000000E+00 -0.00000000000E+00 -0.45593999997E+02  0.45594000000E+02  0.51100000000E-03 0.  1.
    9900012    2    1    2    0    0  0.17427998392E+02 -0.23164601814E+02  0.13281026241E+02  0.59301959744E+02  0.50000028663E+02 0.  0.
        -12    1    1    2    0    0 -0.17427998392E+02  0.23164601814E+02 -0.13281026241E+02  0.31886040256E+02  0.00000000000E+00 0.  1.
         11    1    3    3    0    0 -0.60115711838E+01 -0.22621831734E+02 -0.44352240648E+01  0.23823464733E+02  0.51100000000E-03 0. -1.
        -11    1    3    3    0    0 -0.36416128617E+01 -0.60471792683E-01  0.24109610973E+01  0.43678066288E+01  0.51100000000E-03 0.  1.
        -12    1    3    3    0    0  0.27081182438E+02 -0.48229828751E+00  0.15305289208E+02  0.31110688382E+02  0.00000000000E+00 0.  1.
</event>
<event>
 7    1  0.1215217E-011  0.5930185E+02  0.7816164E-02  0.1266605E+00
        -11   -1    0    0    0    0  0.00000000000E+00  0.00000000000E+00  0.45593999997E+02  0.45594000000E+02  0.51100000000E-03 0. -1.
         11   -1    0    0    0    0 -0.00000000000E+00 -0.00000000000E+00 -0.45593999997E+02  0.45594000000E+02  0.51100000000E-03 0.  1.
    9900012    2    1    2    0    0 -0.14769662966E+02 -0.80291357676E+01  0.27094581355E+02  0.59301854041E+02  0.49999835886E+02 0.  0.
        -12    1    1    2    0    0  0.14769662966E+02  0.80291357676E+01 -0.27094581355E+02  0.31886145959E+02  0.00000000000E+00 0.  1.
         11    1    3    3    0    0 -0.17087034758E+02 -0.10741480500E+02  0.39346792341E+02  0.44221219204E+02  0.51100000000E-03 0. -1.
        -11    1    3    3    0    0  0.29795994935E+01 -0.74360307395E+00 -0.90680891075E+00  0.32020714132E+01  0.51100000000E-03 0.  1.
        -12    1    3    3    0    0 -0.66222770136E+00  0.34559478063E+01 -0.11345402075E+02  0.11878563424E+02  0.00000000000E+00 0.  1.
</event>
<event>
 7    1  0.1215217E-011  0.5930192E+02  0.7816164E-02  0.1266605E+00
        -11   -1    0    0    0    0  0.00000000000E+00  0.00000000000E+00  0.45593999997E+02  0.45594000000E+02  0.51100000000E-03 0.  1.
         11   -1    0    0    0    0 -0.00000000000E+00 -0.00000000000E+00 -0.45593999997E+02  0.45594000000E+02  0.51100000000E-03 0. -1.
    9900012    2    1    2    0    0  0.28876370014E+02 -0.98215055445E+01 -0.92959936508E+01  0.59301918173E+02  0.49999952846E+02 0.  0.
        -12    1    1    2    0    0 -0.28876370014E+02  0.98215055445E+01  0.92959936508E+01  0.31886081827E+02  0.00000000000E+00 0.  1.
         11    1    3    3    0    0  0.24920897375E+01  0.28765605680E+01 -0.84099337316E+00  0.38977406374E+01  0.51100000000E-03 0.  1.
        -11    1    3    3    0    0  0.20982955549E+02  0.44161496539E+01 -0.23625198651E+02  0.31905122048E+02  0.51100000000E-03 0. -1.
         12    1    3    3    0    0  0.54013247275E+01 -0.17114215766E+02  0.15170198373E+02  0.23499055487E+02  0.00000000000E+00 0. -1.
</event>
<event>
 7    1  0.1215217E-011  0.5930184E+02  0.7816164E-02  0.1266605E+00
        -11   -1    0    0    0    0  0.00000000000E+00  0.00000000000E+00  0.45593999997E+02  0.45594000000E+02  0.51100000000E-03 0. -1.
         11   -1    0    0    0    0 -0.00000000000E+00 -0.00000000000E+00 -0.45593999997E+02  0.45594000000E+02  0.51100000000E-03 0.  1.
    9900012    2    1    2    0    0  0.43444680276E+01  0.14350438256E+02  0.28141036395E+02  0.59301836700E+02  0.49999804260E+02 0.  0.
        -12    1    1    2    0    0 -0.43444680276E+01 -0.14350438256E+02 -0.28141036395E+02  0.31886163300E+02  0.00000000000E+00 0.  1.
         11    1    3    3    0    0 -0.32652923039E+00  0.18941066095E+02 -0.24549123217E+01  0.19102282611E+02  0.51100000000E-03 0. -1.
        -11    1    3    3    0    0  0.81663117481E+01  0.60733532183E+01  0.33195969744E+01  0.10704858300E+02  0.51100000000E-03 0.  1.
         12    1    3    3    0    0 -0.34953144901E+01 -0.10663981057E+02  0.27276351742E+02  0.29494695790E+02  0.00000000000E+00 0. -1.
</event>
<event>
 7    1  0.1215217E-011  0.5930196E+02  0.7816164E-02  0.1266605E+00
        -11   -1    0    0    0    0  0.00000000000E+00  0.00000000000E+00  0.45593999997E+02  0.45594000000E+02  0.51100000000E-03 0.  1.
         11   -1    0    0    0    0 -0.00000000000E+00 -0.00000000000E+00 -0.45593999997E+02  0.45594000000E+02  0.51100000000E-03 0. -1.
    9900012    2    1    2    0    0 -0.22293977319E+02  0.17869272527E+02 -0.14155827113E+02  0.59301956555E+02  0.50000022846E+02 0.  0.
        -12    1    1    2    0    0  0.22293977319E+02 -0.17869272527E+02  0.14155827113E+02  0.31886043445E+02  0.00000000000E+00 0.  1.
         11    1    3    3    0    0 -0.16264229480E+02  0.15142770429E+01  0.31584623535E+01  0.16637129568E+02  0.51100000000E-03 0.  1.
        -11    1    3    3    0    0 -0.18606957784E+02  0.16209921645E+02 -0.52366380379E+01  0.25227025507E+02  0.51100000000E-03 0. -1.
        -12    1    3    3    0    0  0.12577209945E+02  0.14507383850E+00 -0.12077651429E+02  0.17437801480E+02  0.00000000000E+00 0.  1.
</event>
<event>
 7    1  0.1215217E-011  0.5930195E+02  0.7816164E-02  0.1266605E+00
        -11   -1    0    0    0    0  0.00000000000E+00  0.00000000000E+00  0.45593999997E+02  0.45594000000E+02  0.51100000000E-03 0. -1.
         11   -1    0    0    0    0 -0.00000000000E+00 -0.00000000000E+00 -0.45593999997E+02  0.45594000000E+02  0.51100000000E-03 0.  1.
    9900012    2    1    2    0    0 -0.28355920680E+02  0.63095275423E+01  0.13147300139E+02  0.59301954834E+02  0.50000019708E+02 0.  0.
        -12    1    1    2    0    0  0.28355920680E+02 -0.63095275423E+01 -0.13147300139E+02  0.31886045166E+02  0.00000000000E+00 0.  1.
         11    1    3    3    0    0 -0.21676360249E+01  0.11088772228E+01 -0.81857753084E+01  0.85402091480E+01  0.51100000000E-03 0. -1.
        -11    1    3    3    0    0 -0.62640604820E+01 -0.33324927465E+01 -0.10244196175E+02  0.12461441215E+02  0.51100000000E-03 0.  1.
         12    1    3    3    0    0 -0.19924224173E+02  0.85331430661E+01  0.31577271622E+02  0.38300304471E+02  0.00000000000E+00 0. -1.
</event>
<event>
 7    1  0.1215217E-011  0.5930194E+02  0.7816164E-02  0.1266605E+00
        -11   -1    0    0    0    0  0.00000000000E+00  0.00000000000E+00  0.45593999997E+02  0.45594000000E+02  0.51100000000E-03 0.  1.
         11   -1    0    0    0    0 -0.00000000000E+00 -0.00000000000E+00 -0.45593999997E+02  0.45594000000E+02  0.51100000000E-03 0. -1.
    9900012    2    1    2    0    0  0.11261928943E+02 -0.15654465407E+02 -0.25393458776E+02  0.59301935971E+02  0.49999985306E+02 0.  0.
        -12    1    1    2    0    0 -0.11261928943E+02  0.15654465407E+02  0.25393458776E+02  0.31886064029E+02  0.00000000000E+00 0.  1.
         11    1    3    3    0    0 -0.34914957515E+01 -0.15125708283E+02  0.15687378568E+01  0.15602516860E+02  0.51100000000E-03 0. -1.
        -11    1    3    3    0    0  0.13190805858E+02 -0.11673449735E+02 -0.39044294711E+01  0.18041933312E+02  0.51100000000E-03 0.  1.
         12    1    3    3    0    0  0.15626188363E+01  0.11144692611E+02 -0.23057767161E+02  0.25657485798E+02  0.00000000000E+00 0. -1.
</event>
<event>
 7    1  0.1215217E-011  0.5930194E+02  0.7816164E-02  0.1266605E+00
        -11   -1    0    0    0    0  0.00000000000E+00  0.00000000000E+00  0.45593999997E+02  0.45594000000E+02  0.51100000000E-03 0. -1.
         11   -1    0    0    0    0 -0.00000000000E+00 -0.00000000000E+00 -0.45593999997E+02  0.45594000000E+02  0.51100000000E-03 0.  1.
    9900012    2    1    2    0    0  0.50834734095E+01 -0.24591650513E+02 -0.19650188168E+02  0.59301939223E+02  0.49999991237E+02 0.  0.
        -12    1    1    2    0    0 -0.50834734095E+01  0.24591650513E+02  0.19650188168E+02  0.31886060777E+02  0.00000000000E+00 0.  1.
         11    1    3    3    0    0  0.14897461547E+02 -0.15330226159E+02 -0.68992048158E+01  0.22462173135E+02  0.51100000000E-03 0. -1.
        -11    1    3    3    0    0  0.39506094749E+01  0.64045803505E+01  0.53441266558E+01  0.92296075033E+01  0.51100000000E-03 0.  1.
        -12    1    3    3    0    0 -0.13764597612E+02 -0.15666004705E+02 -0.18095110008E+02  0.27610158584E+02  0.00000000000E+00 0.  1.
</event>
<event>
 7    1  0.1215217E-011  0.5930194E+02  0.7816164E-02  0.1266605E+00
        -11   -1    0    0    0    0  0.00000000000E+00  0.00000000000E+00  0.45593999997E+02  0.45594000000E+02  0.51100000000E-03 0.  1.
         11   -1    0    0    0    0 -0.00000000000E+00 -0.00000000000E+00 -0.45593999997E+02  0.45594000000E+02  0.51100000000E-03 0. -1.
    9900012    2    1    2    0    0  0.11176126130E+01  0.25767667871E+02  0.18748304274E+02  0.59301942253E+02  0.49999996764E+02 0.  0.
        -12    1    1    2    0    0 -0.11176126130E+01 -0.25767667871E+02 -0.18748304274E+02  0.31886057747E+02  0.00000000000E+00 0.  1.
         11    1    3    3    0    0  0.63098108443E+01  0.13047369132E+02  0.62389798132E+01  0.15778860020E+02  0.51100000000E-03 0.  1.
        -11    1    3    3    0    0  0.15866411749E+02  0.12795612588E+02  0.85084352536E+01  0.22087647996E+02  0.51100000000E-03 0. -1.
         12    1    3    3    0    0 -0.21058609980E+02 -0.75313848502E-01  0.40008892074E+01  0.21435434237E+02  0.00000000000E+00 0. -1.
</event>
<event>
 7    1  0.1215217E-011  0.5930195E+02  0.7816164E-02  0.1266605E+00
        -11   -1    0    0    0    0  0.00000000000E+00  0.00000000000E+00  0.45593999997E+02  0.45594000000E+02  0.51100000000E-03 0.  1.
         11   -1    0    0    0    0 -0.00000000000E+00 -0.00000000000E+00 -0.45593999997E+02  0.45594000000E+02  0.51100000000E-03 0. -1.
    9900012    2    1    2    0    0 -0.33770694141E+01 -0.28434558543E+02 -0.14028236596E+02  0.59301950710E+02  0.50000012186E+02 0.  0.
        -12    1    1    2    0    0  0.33770694141E+01  0.28434558543E+02  0.14028236596E+02  0.31886049290E+02  0.00000000000E+00 0.  1.
         11    1    3    3    0    0 -0.59447824433E+01  0.20031370660E+01 -0.64163359998E+01  0.89734254512E+01  0.51100000000E-03 0. -1.
        -11    1    3    3    0    0  0.36795244730E+01  0.48494363467E+00  0.12755375705E+02  0.13284339664E+02  0.51100000000E-03 0.  1.
         12    1    3    3    0    0 -0.11118114438E+01 -0.30922639244E+02 -0.20367276301E+02  0.37044185595E+02  0.00000000000E+00 0. -1.
</event>
<event>
 7    1  0.1215217E-011  0.5930194E+02  0.7816164E-02  0.1266605E+00
        -11   -1    0    0    0    0  0.00000000000E+00  0.00000000000E+00  0.45593999997E+02  0.45594000000E+02  0.51100000000E-03 0.  1.
         11   -1    0    0    0    0 -0.00000000000E+00 -0.00000000000E+00 -0.45593999997E+02  0.45594000000E+02  0.51100000000E-03 0. -1.
    9900012    2    1    2    0    0  0.23595774741E+01 -0.21862531902E+02 -0.23090755720E+02  0.59301938676E+02  0.49999990240E+02 0.  0.
        -12    1    1    2    0    0 -0.23595774741E+01  0.21862531902E+02  0.23090755720E+02  0.31886061324E+02  0.00000000000E+00 0.  1.
         11    1    3    3    0    0 -0.12683688160E+02 -0.19258695361E+02 -0.53453703747E+01  0.23671634440E+02  0.51100000000E-03 0. -1.
        -11    1    3    3    0    0  0.32316307267E+00  0.10892476602E+02 -0.70055976726E+01  0.12954878615E+02  0.51100000000E-03 0.  1.
         12    1    3    3    0    0  0.14720102561E+02 -0.13496313143E+02 -0.10739787673E+02  0.22675425622E+02  0.00000000000E+00 0. -1.
</event>
<event>
 7    1  0.1215217E-011  0.5930196E+02  0.7816164E-02  0.1266605E+00
        -11   -1    0    0    0    0  0.00000000000E+00  0.00000000000E+00  0.45593999997E+02  0.45594000000E+02  0.51100000000E-03 0.  1.
         11   -1    0    0    0    0 -0.00000000000E+00 -0.00000000000E+00 -0.45593999997E+02  0.45594000000E+02  0.51100000000E-03 0. -1.
    9900012    2    1    2    0    0  0.30442970797E+02  0.64151151686E+01 -0.69850704803E+01  0.59301962567E+02  0.50000033810E+02 0.  0.
        -12    1    1    2    0    0 -0.30442970797E+02 -0.64151151686E+01  0.69850704803E+01  0.31886037433E+02  0.00000000000E+00 0.  1.
         11    1    3    3    0    0 -0.70933823654E+01 -0.42668397922E+01  0.70780657532E+01  0.10891327296E+02  0.51100000000E-03 0. -1.
        -11    1    3    3    0    0 -0.84718096107E+00  0.50020657651E+01 -0.75048894601E+01  0.90587937149E+01  0.51100000000E-03 0.  1.
         12    1    3    3    0    0  0.38383534124E+02  0.56798891957E+01 -0.65582467734E+01  0.39351841556E+02  0.00000000000E+00 0. -1.
</event>
<event>
 7    1  0.1215217E-011  0.5930195E+02  0.7816164E-02  0.1266605E+00
        -11   -1    0    0    0    0  0.00000000000E+00  0.00000000000E+00  0.45593999997E+02  0.45594000000E+02  0.51100000000E-03 0.  1.
         11   -1    0    0    0    0 -0.00000000000E+00 -0.00000000000E+00 -0.45593999997E+02  0.45594000000E+02  0.51100000000E-03 0. -1.
    9900012    2    1    2    0    0  0.25156289511E+02  0.14777094741E+01 -0.19537083423E+02  0.59301950450E+02  0.50000011713E+02 0.  0.
        -12    1    1    2    0    0 -0.25156289511E+02 -0.14777094741E+01  0.19537083423E+02  0.31886049550E+02  0.00000000000E+00 0.  1.
         11    1    3    3    0    0  0.21734432476E+02 -0.13343268780E+01 -0.11301204581E+02  0.24533308145E+02  0.51100000000E-03 0. -1.
        -11    1    3    3    0    0  0.18078918283E+02 -0.97198866250E+00 -0.13999858832E+01  0.18159075113E+02  0.51100000000E-03 0.  1.
        -12    1    3    3    0    0 -0.14657061249E+02  0.37840250146E+01 -0.68358929586E+01  0.16609567192E+02  0.00000000000E+00 0.  1.
</event>
<event>
 7    1  0.1215217E-011  0.5930196E+02  0.7816164E-02  0.1266605E+00
        -11   -1    0    0    0    0  0.00000000000E+00  0.00000000000E+00  0.45593999997E+02  0.45594000000E+02  0.51100000000E-03 0.  1.
         11   -1    0    0    0    0 -0.00000000000E+00 -0.00000000000E+00 -0.45593999997E+02  0.45594000000E+02  0.51100000000E-03 0. -1.
    9900012    2    1    2    0    0 -0.18309326581E+02 -0.22566899142E+02 -0.13123375341E+02  0.59301962976E+02  0.50000034558E+02 0.  0.
        -12    1    1    2    0    0  0.18309326581E+02  0.22566899142E+02  0.13123375341E+02  0.31886037024E+02  0.00000000000E+00 0.  1.
         11    1    3    3    0    0 -0.16631007652E+02 -0.14569798738E+02 -0.73920128201E+01  0.23313328904E+02  0.51100000000E-03 0. -1.
        -11    1    3    3    0    0  0.16397194953E+02 -0.49147689280E+01 -0.15998852991E+01  0.17192515498E+02  0.51100000000E-03 0.  1.
         12    1    3    3    0    0 -0.18075513881E+02 -0.30823314756E+01 -0.41314772221E+01  0.18796118574E+02  0.00000000000E+00 0. -1.
</event>
<event>
 7    1  0.1215217E-011  0.5930194E+02  0.7816164E-02  0.1266605E+00
        -11   -1    0    0    0    0  0.00000000000E+00  0.00000000000E+00  0.45593999997E+02  0.45594000000E+02  0.51100000000E-03 0. -1.
         11   -1    0    0    0    0 -0.00000000000E+00 -0.00000000000E+00 -0.45593999997E+02  0.45594000000E+02  0.51100000000E-03 0.  1.
    9900012    2    1    2    0    0  0.19726253379E+01  0.29906572536E+02  0.10882388814E+02  0.59301941638E+02  0.49999995642E+02 0.  0.
        -12    1    1    2    0    0 -0.19726253379E+01 -0.29906572536E+02 -0.10882388814E+02  0.31886058362E+02  0.00000000000E+00 0.  1.
         11    1    3    3    0    0  0.13044074621E+02  0.28827697608E+02  0.33288743164E+01  0.31816119132E+02  0.51100000000E-03 0. -1.
        -11    1    3    3    0    0  0.70188454461E+01  0.40063973085E+01  0.18198893566E+01  0.82841661211E+01  0.51100000000E-03 0.  1.
        -12    1    3    3    0    0 -0.18090294730E+02 -0.29275223811E+01  0.57336251407E+01  0.19201656386E+02  0.00000000000E+00 0.  1.
</event>
<event>
 7    1  0.1215217E-011  0.5930198E+02  0.7816164E-02  0.1266605E+00
        -11   -1    0    0    0    0  0.00000000000E+00  0.00000000000E+00  0.45593999997E+02  0.45594000000E+02  0.51100000000E-03 0. -1.
         11   -1    0    0    0    0 -0.00000000000E+00 -0.00000000000E+00 -0.45593999997E+02  0.45594000000E+02  0.51100000000E-03 0.  1.
    9900012    2    1    2    0    0 -0.47405832783E+01  0.77814084167E+01  0.30556415840E+02  0.59301984323E+02  0.50000073490E+02 0.  0.
        -12    1    1    2    0    0  0.47405832783E+01 -0.77814084167E+01 -0.30556415840E+02  0.31886015677E+02  0.00000000000E+00 0.  1.
         11    1    3    3    0    0  0.19043935711E-01  0.13153591276E+02  0.38129901143E+01  0.13695116648E+02  0.51100000000E-03 0. -1.
        -11    1    3    3    0    0  0.18575154058E+01  0.17874318248E+01 -0.85820117457E+01  0.89608147997E+01  0.51100000000E-03 0.  1.
         12    1    3    3    0    0 -0.66171426198E+01 -0.71596146839E+01  0.35325437471E+02  0.36646052876E+02  0.00000000000E+00 0. -1.
</event>
<event>
 7    1  0.1215217E-011  0.5930196E+02  0.7816164E-02  0.1266605E+00
        -11   -1    0    0    0    0  0.00000000000E+00  0.00000000000E+00  0.45593999997E+02  0.45594000000E+02  0.51100000000E-03 0. -1.
         11   -1    0    0    0    0 -0.00000000000E+00 -0.00000000000E+00 -0.45593999997E+02  0.45594000000E+02  0.51100000000E-03 0.  1.
    9900012    2    1    2    0    0 -0.68026908340E+00 -0.31645391450E+02  0.38504635546E+01  0.59301958608E+02  0.50000026591E+02 0.  0.
        -12    1    1    2    0    0  0.68026908340E+00  0.31645391450E+02 -0.38504635546E+01  0.31886041392E+02  0.00000000000E+00 0.  1.
         11    1    3    3    0    0  0.92388237211E+01 -0.86218752672E+01  0.19167848656E+02  0.22958637138E+02  0.51100000000E-03 0. -1.
        -11    1    3    3    0    0  0.24034102884E+01 -0.19106015506E+01  0.41014103775E+01  0.51233140296E+01  0.51100000000E-03 0.  1.
        -12    1    3    3    0    0 -0.12322503093E+02 -0.21112914632E+02 -0.19418795479E+02  0.31220007441E+02  0.00000000000E+00 0.  1.
</event>
<event>
 7    1  0.1215217E-011  0.5930192E+02  0.7816164E-02  0.1266605E+00
        -11   -1    0    0    0    0  0.00000000000E+00  0.00000000000E+00  0.45593999997E+02  0.45594000000E+02  0.51100000000E-03 0.  1.
         11   -1    0    0    0    0 -0.00000000000E+00 -0.00000000000E+00 -0.45593999997E+02  0.45594000000E+02  0.51100000000E-03 0. -1.
    9900012    2    1    2    0    0  0.25758511361E+02 -0.10435988857E+02  0.15630462816E+02  0.59301919357E+02  0.49999955006E+02 0.  0.
        -12    1    1    2    0    0 -0.25758511361E+02  0.10435988857E+02 -0.15630462816E+02  0.31886080643E+02  0.00000000000E+00 0.  1.
         11    1    3    3    0    0  0.86860370346E+01  0.19475355316E+01  0.75458542526E+01  0.11669620845E+02  0.51100000000E-03 0. -1.
        -11    1    3    3    0    0  0.25842236611E+02 -0.10070011631E+02  0.18866018612E+02  0.33543300163E+02  0.51100000000E-03 0.  1.
        -12    1    3    3    0    0 -0.87697622845E+01 -0.23135127582E+01 -0.10781410049E+02  0.14088998348E+02  0.00000000000E+00 0.  1.
</event>
<event>
 7    1  0.1215217E-011  0.5930200E+02  0.7816164E-02  0.1266605E+00
        -11   -1    0    0    0    0  0.00000000000E+00  0.00000000000E+00  0.45593999997E+02  0.45594000000E+02  0.51100000000E-03 0.  1.
         11   -1    0    0    0    0 -0.00000000000E+00 -0.00000000000E+00 -0.45593999997E+02  0.45594000000E+02  0.51100000000E-03 0. -1.
    9900012    2    1    2    0    0 -0.12483154198E+02 -0.27582022510E+02  0.10005988579E+02  0.59302001319E+02  0.50000104486E+02 0.  0.
        -12    1    1    2    0    0  0.12483154198E+02  0.27582022510E+02 -0.10005988579E+02  0.31885998681E+02  0.00000000000E+00 0.  1.
         11    1    3    3    0    0 -0.48229124899E+01 -0.70091607462E+01  0.69517719612E+01  0.10987081183E+02  0.51100000000E-03 0. -1.
        -11    1    3    3    0    0 -0.57468620638E+00 -0.33268596281E+02 -0.76558850110E+00  0.33282366033E+02  0.51100000000E-03 0.  1.
         12    1    3    3    0    0 -0.70855555018E+01  0.12695734518E+02  0.38198051184E+01  0.15032554103E+02  0.00000000000E+00 0. -1.
</event>
<event>
 7    1  0.1215217E-011  0.5930198E+02  0.7816164E-02  0.1266605E+00
        -11   -1    0    0    0    0  0.00000000000E+00  0.00000000000E+00  0.45593999997E+02  0.45594000000E+02  0.51100000000E-03 0. -1.
         11   -1    0    0    0    0 -0.00000000000E+00 -0.00000000000E+00 -0.45593999997E+02  0.45594000000E+02  0.51100000000E-03 0.  1.
    9900012    2    1    2    0    0 -0.19692317865E+02  0.66626868152E+01  0.24177255473E+02  0.59301977032E+02  0.50000060191E+02 0.  0.
        -12    1    1    2    0    0  0.19692317865E+02 -0.66626868152E+01 -0.24177255473E+02  0.31886022968E+02  0.00000000000E+00 0.  1.
         11    1    3    3    0    0  0.21619809326E+01 -0.31927279514E+01  0.13533635210E+02  0.14072205072E+02  0.51100000000E-03 0. -1.
        -11    1    3    3    0    0 -0.12716157404E+02 -0.12636765916E+02  0.10842925228E+02  0.20951313555E+02  0.51100000000E-03 0.  1.
         12    1    3    3    0    0 -0.91381413942E+01  0.22492180683E+02 -0.19930496434E+00  0.24278458404E+02  0.00000000000E+00 0. -1.
</event>
<event>
 7    1  0.1215217E-011  0.5930166E+02  0.7816164E-02  0.1266606E+00
        -11   -1    0    0    0    0  0.00000000000E+00  0.00000000000E+00  0.45593999997E+02  0.45594000000E+02  0.51100000000E-03 0. -1.
         11   -1    0    0    0    0 -0.00000000000E+00 -0.00000000000E+00 -0.45593999997E+02  0.45594000000E+02  0.51100000000E-03 0.  1.
    9900012    2    1    2    0    0  0.30611036048E+02 -0.43652146098E+01  0.77876903919E+01  0.59301658909E+02  0.49999480009E+02 0.  0.
        -12    1    1    2    0    0 -0.30611036048E+02  0.43652146098E+01 -0.77876903919E+01  0.31886341091E+02  0.00000000000E+00 0.  1.
         11    1    3    3    0    0  0.60805677701E+01  0.27741457457E+01 -0.11795769030E+02  0.13557630925E+02  0.51100000000E-03 0.  1.
        -11    1    3    3    0    0  0.56801673028E+01  0.53377615144E+01 -0.72587357662E+01  0.10651067728E+02  0.51100000000E-03 0. -1.
         12    1    3    3    0    0  0.18850300975E+02 -0.12477121870E+02  0.26842195188E+02  0.35092960256E+02  0.00000000000E+00 0. -1.
</event>
<event>
 7    1  0.1215217E-011  0.5930194E+02  0.7816164E-02  0.1266605E+00
        -11   -1    0    0    0    0  0.00000000000E+00  0.00000000000E+00  0.45593999997E+02  0.45594000000E+02  0.51100000000E-03 0.  1.
         11   -1    0    0    0    0 -0.00000000000E+00 -0.00000000000E+00 -0.45593999997E+02  0.45594000000E+02  0.51100000000E-03 0. -1.
    9900012    2    1    2    0    0  0.20373801118E+02 -0.12052474619E+02 -0.21362742354E+02  0.59301942273E+02  0.49999996800E+02 0.  0.
        -12    1    1    2    0    0 -0.20373801118E+02  0.12052474619E+02  0.21362742354E+02  0.31886057727E+02  0.00000000000E+00 0.  1.
         11    1    3    3    0    0  0.31105294808E+02 -0.14414505213E+02 -0.45035363250E+01  0.34577437229E+02  0.51100000000E-03 0. -1.
        -11    1    3    3    0    0  0.16682340816E+01 -0.30213723698E+01 -0.47543486623E+00  0.34839251601E+01  0.51100000000E-03 0.  1.
        -12    1    3    3    0    0 -0.12399727772E+02  0.53834029636E+01 -0.16383771163E+02  0.21240579884E+02  0.00000000000E+00 0.  1.
</event>
<event>
 7    1  0.1215217E-011  0.5930193E+02  0.7816164E-02  0.1266605E+00
        -11   -1    0    0    0    0  0.00000000000E+00  0.00000000000E+00  0.45593999997E+02  0.45594000000E+02  0.51100000000E-03 0. -1.
         11   -1    0    0    0    0 -0.00000000000E+00 -0.00000000000E+00 -0.45593999997E+02  0.45594000000E+02  0.51100000000E-03 0.  1.
    9900012    2    1    2    0    0  0.12550836122E+02 -0.10356454399E+02  0.27421553023E+02  0.59301933995E+02  0.49999981703E+02 0.  0.
        -12    1    1    2    0    0 -0.12550836122E+02  0.10356454399E+02 -0.27421553023E+02  0.31886066005E+02  0.00000000000E+00 0.  1.
         11    1    3    3    0    0  0.30118512367E+01 -0.10151452347E+02  0.91551731210E+01  0.13997872259E+02  0.51100000000E-03 0. -1.
        -11    1    3    3    0    0  0.18642677306E+02  0.73242446859E+01 -0.36940278284E+01  0.20367616925E+02  0.51100000000E-03 0.  1.
         12    1    3    3    0    0 -0.91036924211E+01 -0.75292467379E+01  0.21960407730E+02  0.24936444811E+02  0.00000000000E+00 0. -1.
</event>
<event>
 7    1  0.1215217E-011  0.5930193E+02  0.7816164E-02  0.1266605E+00
        -11   -1    0    0    0    0  0.00000000000E+00  0.00000000000E+00  0.45593999997E+02  0.45594000000E+02  0.51100000000E-03 0.  1.
         11   -1    0    0    0    0 -0.00000000000E+00 -0.00000000000E+00 -0.45593999997E+02  0.45594000000E+02  0.51100000000E-03 0. -1.
    9900012    2    1    2    0    0  0.16843771882E+02  0.87102583680E+01 -0.25634744810E+02  0.59301931043E+02  0.49999976319E+02 0.  0.
        -12    1    1    2    0    0 -0.16843771882E+02 -0.87102583680E+01  0.25634744810E+02  0.31886068957E+02  0.00000000000E+00 0.  1.
         11    1    3    3    0    0 -0.57723207188E+01 -0.57044606752E+01 -0.18437879927E+02  0.20144874647E+02  0.51100000000E-03 0. -1.
        -11    1    3    3    0    0  0.23636397877E+01 -0.44730517635E+00  0.89679235690E+01  0.92849624861E+01  0.51100000000E-03 0.  1.
        -12    1    3    3    0    0  0.20252452814E+02  0.14862024220E+02 -0.16164788452E+02  0.29872093910E+02  0.00000000000E+00 0.  1.
</event>
<event>
 7    1  0.1215217E-011  0.5930194E+02  0.7816164E-02  0.1266605E+00
        -11   -1    0    0    0    0  0.00000000000E+00  0.00000000000E+00  0.45593999997E+02  0.45594000000E+02  0.51100000000E-03 0.  1.
         11   -1    0    0    0    0 -0.00000000000E+00 -0.00000000000E+00 -0.45593999997E+02  0.45594000000E+02  0.51100000000E-03 0. -1.
    9900012    2    1    2    0    0  0.11105543900E+02 -0.28197943768E+02 -0.99128064515E+01  0.59301939255E+02  0.49999991296E+02 0.  0.
        -12    1    1    2    0    0 -0.11105543900E+02  0.28197943768E+02  0.99128064515E+01  0.31886060745E+02  0.00000000000E+00 0.  1.
         11    1    3    3    0    0  0.31857281787E+01 -0.71544233739E+01 -0.94355772087E+01  0.12262330748E+02  0.51100000000E-03 0. -1.
        -11    1    3    3    0    0  0.20999235176E+02 -0.10726890539E+01  0.67724882811E+01  0.22090385637E+02  0.51100000000E-03 0.  1.
        -12    1    3    3    0    0 -0.13079419455E+02 -0.19970831340E+02 -0.72497175239E+01  0.24949222871E+02  0.00000000000E+00 0.  1.
</event>
<event>
 7    1  0.1215217E-011  0.5930196E+02  0.7816164E-02  0.1266605E+00
        -11   -1    0    0    0    0  0.00000000000E+00  0.00000000000E+00  0.45593999997E+02  0.45594000000E+02  0.51100000000E-03 0.  1.
         11   -1    0    0    0    0 -0.00000000000E+00 -0.00000000000E+00 -0.45593999997E+02  0.45594000000E+02  0.51100000000E-03 0. -1.
    9900012    2    1    2    0    0 -0.31830380968E+02 -0.18648610649E+01 -0.26187970635E+00  0.59301961670E+02  0.50000032176E+02 0.  0.
        -12    1    1    2    0    0  0.31830380968E+02  0.18648610649E+01  0.26187970635E+00  0.31886038330E+02  0.00000000000E+00 0.  1.
         11    1    3    3    0    0 -0.17479592261E+02 -0.68265363686E+01  0.19079759063E+02  0.26761445226E+02  0.51100000000E-03 0. -1.
        -11    1    3    3    0    0  0.46537923162E+01 -0.30067520656E+01 -0.35832383784E+01  0.65983284583E+01  0.51100000000E-03 0.  1.
         12    1    3    3    0    0 -0.19004581024E+02  0.79684273694E+01 -0.15758400391E+02  0.25942187986E+02  0.00000000000E+00 0. -1.
</event>
<event>
 7    1  0.1215217E-011  0.5930195E+02  0.7816164E-02  0.1266605E+00
        -11   -1    0    0    0    0  0.00000000000E+00  0.00000000000E+00  0.45593999997E+02  0.45594000000E+02  0.51100000000E-03 0.  1.
         11   -1    0    0    0    0 -0.00000000000E+00 -0.00000000000E+00 -0.45593999997E+02  0.45594000000E+02  0.51100000000E-03 0. -1.
    9900012    2    1    2    0    0  0.20901079935E+02  0.21363236561E+02 -0.11112033204E+02  0.59301948179E+02  0.50000007571E+02 0.  0.
        -12    1    1    2    0    0 -0.20901079935E+02 -0.21363236561E+02  0.11112033204E+02  0.31886051821E+02  0.00000000000E+00 0.  1.
         11    1    3    3    0    0  0.49682713796E+01 -0.30593852402E+01 -0.12447658113E+02  0.13747281597E+02  0.51100000000E-03 0. -1.
        -11    1    3    3    0    0  0.16518338238E+02 -0.40860083826E+01  0.19833256828E+00  0.17017352871E+02  0.51100000000E-03 0.  1.
        -12    1    3    3    0    0 -0.58552968305E+00  0.28508630184E+02  0.11372923410E+01  0.28537313711E+02  0.00000000000E+00 0.  1.
</event>
<event>
 7    1  0.1215217E-011  0.5930194E+02  0.7816164E-02  0.1266605E+00
        -11   -1    0    0    0    0  0.00000000000E+00  0.00000000000E+00  0.45593999997E+02  0.45594000000E+02  0.51100000000E-03 0.  1.
         11   -1    0    0    0    0 -0.00000000000E+00 -0.00000000000E+00 -0.45593999997E+02  0.45594000000E+02  0.51100000000E-03 0. -1.
    9900012    2    1    2    0    0  0.23606084386E+02  0.21428325629E+02 -0.54835495035E+00  0.59301936391E+02  0.49999986073E+02 0.  0.
        -12    1    1    2    0    0 -0.23606084386E+02 -0.21428325629E+02  0.54835495035E+00  0.31886063609E+02  0.00000000000E+00 0.  1.
         11    1    3    3    0    0  0.34669434548E+02  0.22543944413E+02 -0.26643719145E+01  0.41440294395E+02  0.51100000000E-03 0. -1.
        -11    1    3    3    0    0  0.10342720629E+01 -0.38926914999E+01 -0.23585108592E+01  0.46674767859E+01  0.51100000000E-03 0.  1.
        -12    1    3    3    0    0 -0.12097622225E+02  0.27770727154E+01  0.44745278234E+01  0.13194165210E+02  0.00000000000E+00 0.  1.
</event>
<event>
 7    1  0.1215217E-011  0.5930192E+02  0.7816164E-02  0.1266605E+00
        -11   -1    0    0    0    0  0.00000000000E+00  0.00000000000E+00  0.45593999997E+02  0.45594000000E+02  0.51100000000E-03 0.  1.
         11   -1    0    0    0    0 -0.00000000000E+00 -0.00000000000E+00 -0.45593999997E+02  0.45594000000E+02  0.51100000000E-03 0. -1.
    9900012    2    1    2    0    0 -0.90265975938E+01  0.24048904637E+01 -0.30487032516E+02  0.59301919747E+02  0.49999955717E+02 0.  0.
        -12    1    1    2    0    0  0.90265975938E+01 -0.24048904637E+01  0.30487032516E+02  0.31886080253E+02  0.00000000000E+00 0.  1.
         11    1    3    3    0    0 -0.12969178639E+02  0.75572420903E+01 -0.59905396969E+01  0.16161623331E+02  0.51100000000E-03 0. -1.
        -11    1    3    3    0    0 -0.15540134974E+02 -0.88672939076E+00 -0.10574822046E+02  0.18817782696E+02  0.51100000000E-03 0.  1.
         12    1    3    3    0    0  0.19482716019E+02 -0.42656222359E+01 -0.13921670773E+02  0.24322513720E+02  0.00000000000E+00 0. -1.
</event>
<event>
 7    1  0.1215217E-011  0.5930192E+02  0.7816164E-02  0.1266605E+00
        -11   -1    0    0    0    0  0.00000000000E+00  0.00000000000E+00  0.45593999997E+02  0.45594000000E+02  0.51100000000E-03 0.  1.
         11   -1    0    0    0    0 -0.00000000000E+00 -0.00000000000E+00 -0.45593999997E+02  0.45594000000E+02  0.51100000000E-03 0. -1.
    9900012    2    1    2    0    0 -0.16264705847E+02  0.10489480006E+02 -0.25340723022E+02  0.59301920116E+02  0.49999956391E+02 0.  0.
        -12    1    1    2    0    0  0.16264705847E+02 -0.10489480006E+02  0.25340723022E+02  0.31886079884E+02  0.00000000000E+00 0.  1.
         11    1    3    3    0    0 -0.20958641483E+02 -0.55871773308E+01 -0.35040664451E+01  0.21971792945E+02  0.51100000000E-03 0. -1.
        -11    1    3    3    0    0  0.16102801778E+01 -0.56029685532E+01  0.74201332181E+00  0.58768055005E+01  0.51100000000E-03 0.  1.
        -12    1    3    3    0    0  0.30836554581E+01  0.21679625890E+02 -0.22578669899E+02  0.31453321670E+02  0.00000000000E+00 0.  1.
</event>
<event>
 7    1  0.1215217E-011  0.5930193E+02  0.7816164E-02  0.1266605E+00
        -11   -1    0    0    0    0  0.00000000000E+00  0.00000000000E+00  0.45593999997E+02  0.45594000000E+02  0.51100000000E-03 0.  1.
         11   -1    0    0    0    0 -0.00000000000E+00 -0.00000000000E+00 -0.45593999997E+02  0.45594000000E+02  0.51100000000E-03 0. -1.
    9900012    2    1    2    0    0  0.87440321670E+01  0.17801857298E+02 -0.24967122201E+02  0.59301930741E+02  0.49999975769E+02 0.  0.
        -12    1    1    2    0    0 -0.87440321670E+01 -0.17801857298E+02  0.24967122201E+02  0.31886069259E+02  0.00000000000E+00 0.  1.
         11    1    3    3    0    0 -0.82733426991E+01  0.34797530205E+01 -0.28811232486E+02  0.30176878535E+02  0.51100000000E-03 0. -1.
        -11    1    3    3    0    0 -0.24846127636E+01 -0.17513594416E+01 -0.13475239572E+01  0.33251137657E+01  0.51100000000E-03 0.  1.
        -12    1    3    3    0    0  0.19501987630E+02  0.16073463719E+02  0.51916342423E+01  0.25799938441E+02  0.00000000000E+00 0.  1.
</event>
<event>
 7    1  0.1215217E-011  0.5930193E+02  0.7816164E-02  0.1266605E+00
        -11   -1    0    0    0    0  0.00000000000E+00  0.00000000000E+00  0.45593999997E+02  0.45594000000E+02  0.51100000000E-03 0.  1.
         11   -1    0    0    0    0 -0.00000000000E+00 -0.00000000000E+00 -0.45593999997E+02  0.45594000000E+02  0.51100000000E-03 0. -1.
    9900012    2    1    2    0    0  0.31534624218E+02 -0.92029659616E+00  0.46305237921E+01  0.59301933749E+02  0.49999981254E+02 0.  0.
        -12    1    1    2    0    0 -0.31534624218E+02  0.92029659616E+00 -0.46305237921E+01  0.31886066251E+02  0.00000000000E+00 0.  1.
         11    1    3    3    0    0  0.41810380844E+01 -0.45126734885E+01  0.50036395870E+01  0.79297989164E+01  0.51100000000E-03 0. -1.
        -11    1    3    3    0    0  0.27232801607E+02 -0.13395136031E+02 -0.98653946547E+01  0.31912084931E+02  0.51100000000E-03 0.  1.
         12    1    3    3    0    0  0.12078452575E+00  0.16987512923E+02  0.94922788598E+01  0.19460049902E+02  0.00000000000E+00 0. -1.
</event>
<event>
 7    1  0.1215217E-011  0.5930202E+02  0.7816164E-02  0.1266605E+00
        -11   -1    0    0    0    0  0.00000000000E+00  0.00000000000E+00  0.45593999997E+02  0.45594000000E+02  0.51100000000E-03 0.  1.
         11   -1    0    0    0    0 -0.00000000000E+00 -0.00000000000E+00 -0.45593999997E+02  0.45594000000E+02  0.51100000000E-03 0. -1.
    9900012    2    1    2    0    0  0.13519653157E+02  0.23798358731E+02 -0.16357658623E+02  0.59302017259E+02  0.50000133556E+02 0.  0.
        -12    1    1    2    0    0 -0.13519653157E+02 -0.23798358731E+02  0.16357658623E+02  0.31885982741E+02  0.00000000000E+00 0.  1.
         11    1    3    3    0    0 -0.48407545298E+01  0.28501796476E+02 -0.13646647511E+02  0.31968989588E+02  0.51100000000E-03 0. -1.
        -11    1    3    3    0    0  0.33890538974E+01  0.31008027872E+01 -0.83523016087E+01  0.95321354726E+01  0.51100000000E-03 0.  1.
        -12    1    3    3    0    0  0.14971353789E+02 -0.78042405320E+01  0.56412904968E+01  0.17800892198E+02  0.00000000000E+00 0.  1.
</event>
<event>
 7    1  0.1215217E-011  0.5930194E+02  0.7816164E-02  0.1266605E+00
        -11   -1    0    0    0    0  0.00000000000E+00  0.00000000000E+00  0.45593999997E+02  0.45594000000E+02  0.51100000000E-03 0. -1.
         11   -1    0    0    0    0 -0.00000000000E+00 -0.00000000000E+00 -0.45593999997E+02  0.45594000000E+02  0.51100000000E-03 0.  1.
    9900012    2    1    2    0    0  0.13323110908E+02  0.41425619236E+01  0.28671497289E+02  0.59301939403E+02  0.49999991566E+02 0.  0.
        -12    1    1    2    0    0 -0.13323110908E+02 -0.41425619236E+01 -0.28671497289E+02  0.31886060597E+02  0.00000000000E+00 0.  1.
         11    1    3    3    0    0  0.18511638108E+01 -0.56302701469E+01  0.21514086335E+02  0.22315525099E+02  0.51100000000E-03 0. -1.
        -11    1    3    3    0    0 -0.10378974176E+02 -0.17090171513E+01  0.63550831419E+01  0.12289464047E+02  0.51100000000E-03 0.  1.
         12    1    3    3    0    0  0.21850921273E+02  0.11481849222E+02  0.80232781280E+00  0.24696950256E+02  0.00000000000E+00 0. -1.
</event>
<event>
 7    1  0.1215217E-011  0.5930194E+02  0.7816164E-02  0.1266605E+00
        -11   -1    0    0    0    0  0.00000000000E+00  0.00000000000E+00  0.45593999997E+02  0.45594000000E+02  0.51100000000E-03 0. -1.
         11   -1    0    0    0    0 -0.00000000000E+00 -0.00000000000E+00 -0.45593999997E+02  0.45594000000E+02  0.51100000000E-03 0.  1.
    9900012    2    1    2    0    0  0.29135300198E+02  0.11816924399E+02  0.53118203239E+01  0.59301939487E+02  0.49999991719E+02 0.  0.
        -12    1    1    2    0    0 -0.29135300198E+02 -0.11816924399E+02 -0.53118203239E+01  0.31886060513E+02  0.00000000000E+00 0.  1.
         11    1    3    3    0    0 -0.59969456907E+01  0.54919547698E+01  0.67142959612E+01  0.10545458517E+02  0.51100000000E-03 0. -1.
        -11    1    3    3    0    0  0.16359683041E+01 -0.10291981047E+02  0.36138278452E+01  0.11030005354E+02  0.51100000000E-03 0.  1.
         12    1    3    3    0    0  0.33496277585E+02  0.16616950676E+02 -0.50163034825E+01  0.37726475616E+02  0.00000000000E+00 0. -1.
</event>
<event>
 7    1  0.1215217E-011  0.5930195E+02  0.7816164E-02  0.1266605E+00
        -11   -1    0    0    0    0  0.00000000000E+00  0.00000000000E+00  0.45593999997E+02  0.45594000000E+02  0.51100000000E-03 0.  1.
         11   -1    0    0    0    0 -0.00000000000E+00 -0.00000000000E+00 -0.45593999997E+02  0.45594000000E+02  0.51100000000E-03 0. -1.
    9900012    2    1    2    0    0 -0.17577515283E+02 -0.55413531571E+01 -0.26020074812E+02  0.59301953968E+02  0.50000018129E+02 0.  0.
        -12    1    1    2    0    0  0.17577515283E+02  0.55413531571E+01  0.26020074812E+02  0.31886046032E+02  0.00000000000E+00 0.  1.
         11    1    3    3    0    0 -0.26179118016E+02  0.45021129833E+01 -0.19591879227E+01  0.26635571309E+02  0.51100000000E-03 0. -1.
        -11    1    3    3    0    0 -0.49538546388E+01 -0.17290336528E+01 -0.23362879503E+01  0.57435594193E+01  0.51100000000E-03 0.  1.
        -12    1    3    3    0    0  0.13555457371E+02 -0.83144324876E+01 -0.21724598939E+02  0.26922823240E+02  0.00000000000E+00 0.  1.
</event>
<event>
 7    1  0.1215217E-011  0.5930195E+02  0.7816164E-02  0.1266605E+00
        -11   -1    0    0    0    0  0.00000000000E+00  0.00000000000E+00  0.45593999997E+02  0.45594000000E+02  0.51100000000E-03 0.  1.
         11   -1    0    0    0    0 -0.00000000000E+00 -0.00000000000E+00 -0.45593999997E+02  0.45594000000E+02  0.51100000000E-03 0. -1.
    9900012    2    1    2    0    0 -0.17706033316E+01 -0.51441109483E+01 -0.31418518445E+02  0.59301949525E+02  0.50000010026E+02 0.  0.
        -12    1    1    2    0    0  0.17706033316E+01  0.51441109483E+01  0.31418518445E+02  0.31886050475E+02  0.00000000000E+00 0.  1.
         11    1    3    3    0    0 -0.96329739570E+01 -0.11822036996E+02 -0.17800662026E+02  0.23439673948E+02  0.51100000000E-03 0. -1.
        -11    1    3    3    0    0  0.65948707268E+01 -0.18984439096E+01 -0.22456404607E+02  0.23481620840E+02  0.51100000000E-03 0.  1.
         12    1    3    3    0    0  0.12674998986E+01  0.85763699569E+01  0.88385481876E+01  0.12380654736E+02  0.00000000000E+00 0. -1.
</event>
<event>
 7    1  0.1215217E-011  0.5930196E+02  0.7816164E-02  0.1266605E+00
        -11   -1    0    0    0    0  0.00000000000E+00  0.00000000000E+00  0.45593999997E+02  0.45594000000E+02  0.51100000000E-03 0.  1.
         11   -1    0    0    0    0 -0.00000000000E+00 -0.00000000000E+00 -0.45593999997E+02  0.45594000000E+02  0.51100000000E-03 0. -1.
    9900012    2    1    2    0    0 -0.77985176167E+01  0.13182010915E+02 -0.27966718845E+02  0.59301958356E+02  0.50000026130E+02 0.  0.
        -12    1    1    2    0    0  0.77985176167E+01 -0.13182010915E+02  0.27966718845E+02  0.31886041644E+02  0.00000000000E+00 0.  1.
         11    1    3    3    0    0 -0.90717276387E+01 -0.15614738666E+01  0.83502728749E+01  0.12428254114E+02  0.51100000000E-03 0. -1.
        -11    1    3    3    0    0 -0.20794193469E+01  0.24143908087E+01  0.36903680219E+01  0.48756624366E+01  0.51100000000E-03 0.  1.
         12    1    3    3    0    0  0.33526293688E+01  0.12329093973E+02 -0.40007359742E+02  0.41998041804E+02  0.00000000000E+00 0. -1.
</event>
<event>
 7    1  0.1215217E-011  0.5930199E+02  0.7816164E-02  0.1266605E+00
        -11   -1    0    0    0    0  0.00000000000E+00  0.00000000000E+00  0.45593999997E+02  0.45594000000E+02  0.51100000000E-03 0.  1.
         11   -1    0    0    0    0 -0.00000000000E+00 -0.00000000000E+00 -0.45593999997E+02  0.45594000000E+02  0.51100000000E-03 0. -1.
    9900012    2    1    2    0    0  0.26978113470E+02  0.70411695420E+00 -0.16982435112E+02  0.59301992263E+02  0.50000087969E+02 0.  0.
        -12    1    1    2    0    0 -0.26978113470E+02 -0.70411695420E+00  0.16982435112E+02  0.31886007737E+02  0.00000000000E+00 0.  1.
         11    1    3    3    0    0 -0.42122887761E+01  0.11515755436E+01  0.77398432672E+01  0.88867697747E+01  0.51100000000E-03 0. -1.
        -11    1    3    3    0    0  0.50229083009E+00 -0.11021526503E+02 -0.32675612591E+01  0.11506663260E+02  0.51100000000E-03 0.  1.
         12    1    3    3    0    0  0.30688111416E+02  0.10574067913E+02 -0.21454717121E+02  0.38908559228E+02  0.00000000000E+00 0. -1.
</event>
<event>
 7    1  0.1215217E-011  0.5930194E+02  0.7816164E-02  0.1266605E+00
        -11   -1    0    0    0    0  0.00000000000E+00  0.00000000000E+00  0.45593999997E+02  0.45594000000E+02  0.51100000000E-03 0.  1.
         11   -1    0    0    0    0 -0.00000000000E+00 -0.00000000000E+00 -0.45593999997E+02  0.45594000000E+02  0.51100000000E-03 0. -1.
    9900012    2    1    2    0    0 -0.76052524316E+00  0.31554615374E+02 -0.45219993969E+01  0.59301943038E+02  0.49999998195E+02 0.  0.
        -12    1    1    2    0    0  0.76052524316E+00 -0.31554615374E+02  0.45219993969E+01  0.31886056962E+02  0.00000000000E+00 0.  1.
         11    1    3    3    0    0  0.51069277328E+01 -0.42743492004E+01 -0.26796721880E+01  0.71785385178E+01  0.51100000000E-03 0. -1.
        -11    1    3    3    0    0  0.79738632876E+01 -0.25797001486E+01  0.63102921210E+01  0.10490811956E+02  0.51100000000E-03 0.  1.
         12    1    3    3    0    0 -0.13841316264E+02  0.38408664723E+02 -0.81526193299E+01  0.41632592564E+02  0.00000000000E+00 0. -1.
</event>
<event>
 7    1  0.1215217E-011  0.5930193E+02  0.7816164E-02  0.1266605E+00
        -11   -1    0    0    0    0  0.00000000000E+00  0.00000000000E+00  0.45593999997E+02  0.45594000000E+02  0.51100000000E-03 0.  1.
         11   -1    0    0    0    0 -0.00000000000E+00 -0.00000000000E+00 -0.45593999997E+02  0.45594000000E+02  0.51100000000E-03 0. -1.
    9900012    2    1    2    0    0 -0.24661145682E+02  0.77911619534E+00 -0.20197575142E+02  0.59301934548E+02  0.49999982711E+02 0.  0.
        -12    1    1    2    0    0  0.24661145682E+02 -0.77911619534E+00  0.20197575142E+02  0.31886065452E+02  0.00000000000E+00 0.  1.
         11    1    3    3    0    0 -0.74566417019E+01 -0.11354415660E+02  0.77077638952E+01  0.15618382918E+02  0.51100000000E-03 0. -1.
        -11    1    3    3    0    0  0.31672156278E+01 -0.37061814918E+01  0.95619237121E+00  0.49680318231E+01  0.51100000000E-03 0.  1.
         12    1    3    3    0    0 -0.20371719608E+02  0.15839713347E+02 -0.28861531408E+02  0.38715519807E+02  0.00000000000E+00 0. -1.
</event>
<event>
 7    1  0.1215217E-011  0.5930191E+02  0.7816164E-02  0.1266605E+00
        -11   -1    0    0    0    0  0.00000000000E+00  0.00000000000E+00  0.45593999997E+02  0.45594000000E+02  0.51100000000E-03 0. -1.
         11   -1    0    0    0    0 -0.00000000000E+00 -0.00000000000E+00 -0.45593999997E+02  0.45594000000E+02  0.51100000000E-03 0.  1.
    9900012    2    1    2    0    0 -0.27545039876E+02 -0.39282966860E-01  0.16062132165E+02  0.59301908132E+02  0.49999934535E+02 0.  0.
        -12    1    1    2    0    0  0.27545039876E+02  0.39282966860E-01 -0.16062132165E+02  0.31886091868E+02  0.00000000000E+00 0.  1.
         11    1    3    3    0    0 -0.18912674462E+02 -0.66268769540E+01  0.96700639103E+01  0.22251177267E+02  0.51100000000E-03 0. -1.
        -11    1    3    3    0    0 -0.18230177601E+02 -0.51465858513E+01  0.10067851934E+02  0.21452001401E+02  0.51100000000E-03 0.  1.
        -12    1    3    3    0    0  0.95978121866E+01  0.11734179838E+02 -0.36757836799E+01  0.15598729465E+02  0.00000000000E+00 0.  1.
</event>
<event>
 7    1  0.1215217E-011  0.5930202E+02  0.7816164E-02  0.1266604E+00
        -11   -1    0    0    0    0  0.00000000000E+00  0.00000000000E+00  0.45593999997E+02  0.45594000000E+02  0.51100000000E-03 0.  1.
         11   -1    0    0    0    0 -0.00000000000E+00 -0.00000000000E+00 -0.45593999997E+02  0.45594000000E+02  0.51100000000E-03 0. -1.
    9900012    2    1    2    0    0 -0.22693504649E+02  0.37300086046E+01 -0.22086361331E+02  0.59302023862E+02  0.50000145598E+02 0.  0.
        -12    1    1    2    0    0  0.22693504649E+02 -0.37300086046E+01  0.22086361331E+02  0.31885976138E+02  0.00000000000E+00 0.  1.
         11    1    3    3    0    0  0.38532709790E+01  0.47985559349E+01  0.63638378495E+01  0.88528113464E+01  0.51100000000E-03 0. -1.
        -11    1    3    3    0    0 -0.19862803821E+02  0.22967624916E+01  0.10421186638E+01  0.20022290208E+02  0.51100000000E-03 0.  1.
         12    1    3    3    0    0 -0.66839718070E+01 -0.33653098219E+01 -0.29492317844E+02  0.30426922308E+02  0.00000000000E+00 0. -1.
</event>
<event>
 7    1  0.1215217E-011  0.5930196E+02  0.7816164E-02  0.1266605E+00
        -11   -1    0    0    0    0  0.00000000000E+00  0.00000000000E+00  0.45593999997E+02  0.45594000000E+02  0.51100000000E-03 0. -1.
         11   -1    0    0    0    0 -0.00000000000E+00 -0.00000000000E+00 -0.45593999997E+02  0.45594000000E+02  0.51100000000E-03 0.  1.
    9900012    2    1    2    0    0 -0.30365387017E+02  0.46658018890E+01 -0.85377345507E+01  0.59301963131E+02  0.50000034839E+02 0.  0.
        -12    1    1    2    0    0  0.30365387017E+02 -0.46658018890E+01  0.85377345507E+01  0.31886036869E+02  0.00000000000E+00 0.  1.
         11    1    3    3    0    0  0.25739343214E-01 -0.10819621696E+02 -0.31558527592E+00  0.10824253807E+02  0.51100000000E-03 0. -1.
        -11    1    3    3    0    0 -0.22336499612E+02 -0.21781089021E+01 -0.16002381898E+02  0.27563374248E+02  0.51100000000E-03 0.  1.
         12    1    3    3    0    0 -0.80546267490E+01  0.17663532487E+02  0.77802326228E+01  0.20914335075E+02  0.00000000000E+00 0. -1.
</event>
<event>
 7    1  0.1215217E-011  0.5930193E+02  0.7816164E-02  0.1266605E+00
        -11   -1    0    0    0    0  0.00000000000E+00  0.00000000000E+00  0.45593999997E+02  0.45594000000E+02  0.51100000000E-03 0. -1.
         11   -1    0    0    0    0 -0.00000000000E+00 -0.00000000000E+00 -0.45593999997E+02  0.45594000000E+02  0.51100000000E-03 0.  1.
    9900012    2    1    2    0    0  0.10628131364E+02  0.17927120672E+02 -0.24132601030E+02  0.59301933069E+02  0.49999980013E+02 0.  0.
        -12    1    1    2    0    0 -0.10628131364E+02 -0.17927120672E+02  0.24132601030E+02  0.31886066931E+02  0.00000000000E+00 0.  1.
         11    1    3    3    0    0 -0.83813253601E+01  0.22673686389E+02 -0.86978220560E+01  0.25690363525E+02  0.51100000000E-03 0. -1.
        -11    1    3    3    0    0  0.73652767113E+01 -0.57415331127E+01  0.46055086402E+01  0.10412646811E+02  0.51100000000E-03 0.  1.
        -12    1    3    3    0    0  0.11644180013E+02  0.99496739562E+00 -0.20040287614E+02  0.23198922732E+02  0.00000000000E+00 0.  1.
</event>
<event>
 7    1  0.1215217E-011  0.5930197E+02  0.7816164E-02  0.1266605E+00
        -11   -1    0    0    0    0  0.00000000000E+00  0.00000000000E+00  0.45593999997E+02  0.45594000000E+02  0.51100000000E-03 0.  1.
         11   -1    0    0    0    0 -0.00000000000E+00 -0.00000000000E+00 -0.45593999997E+02  0.45594000000E+02  0.51100000000E-03 0. -1.
    9900012    2    1    2    0    0 -0.65902448261E+01 -0.27456828652E+02 -0.14812509410E+02  0.59301965416E+02  0.50000039007E+02 0.  0.
        -12    1    1    2    0    0  0.65902448261E+01  0.27456828652E+02  0.14812509410E+02  0.31886034584E+02  0.00000000000E+00 0.  1.
         11    1    3    3    0    0 -0.22884278562E+00 -0.33017125683E+02 -0.34321112334E+01  0.33195818188E+02  0.51100000000E-03 0. -1.
        -11    1    3    3    0    0  0.40710629700E+01 -0.58066217670E+01 -0.27604563960E+00  0.70969438146E+01  0.51100000000E-03 0.  1.
        -12    1    3    3    0    0 -0.10432465010E+02  0.11366918798E+02 -0.11104352537E+02  0.19009203414E+02  0.00000000000E+00 0.  1.
</event>
<event>
 7    1  0.1215217E-011  0.5930198E+02  0.7816164E-02  0.1266605E+00
        -11   -1    0    0    0    0  0.00000000000E+00  0.00000000000E+00  0.45593999997E+02  0.45594000000E+02  0.51100000000E-03 0. -1.
         11   -1    0    0    0    0 -0.00000000000E+00 -0.00000000000E+00 -0.45593999997E+02  0.45594000000E+02  0.51100000000E-03 0.  1.
    9900012    2    1    2    0    0 -0.18333733589E+02 -0.12680294314E+02  0.22799182983E+02  0.59301978048E+02  0.50000062046E+02 0.  0.
        -12    1    1    2    0    0  0.18333733589E+02  0.12680294314E+02 -0.22799182983E+02  0.31886021952E+02  0.00000000000E+00 0.  1.
         11    1    3    3    0    0  0.54370290550E+01 -0.45376009399E+01 -0.46439574378E+01  0.84686154819E+01  0.51100000000E-03 0. -1.
        -11    1    3    3    0    0  0.84184483810E+00 -0.84771702504E-01 -0.73840669928E+01  0.74323841793E+01  0.51100000000E-03 0.  1.
         12    1    3    3    0    0 -0.24612607482E+02 -0.80579216714E+01  0.34827207414E+02  0.43400978387E+02  0.00000000000E+00 0. -1.
</event>
<event>
 7    1  0.1215217E-011  0.5930193E+02  0.7816164E-02  0.1266605E+00
        -11   -1    0    0    0    0  0.00000000000E+00  0.00000000000E+00  0.45593999997E+02  0.45594000000E+02  0.51100000000E-03 0.  1.
         11   -1    0    0    0    0 -0.00000000000E+00 -0.00000000000E+00 -0.45593999997E+02  0.45594000000E+02  0.51100000000E-03 0. -1.
    9900012    2    1    2    0    0 -0.15206920085E+02  0.10373892073E+02 -0.26035621762E+02  0.59301926931E+02  0.49999968820E+02 0.  0.
        -12    1    1    2    0    0  0.15206920085E+02 -0.10373892073E+02  0.26035621762E+02  0.31886073069E+02  0.00000000000E+00 0.  1.
         11    1    3    3    0    0  0.20265953235E+01 -0.13464761754E+01  0.50145840078E+01  0.55737007211E+01  0.51100000000E-03 0. -1.
        -11    1    3    3    0    0  0.10375701200E+01 -0.11738875180E+02 -0.16268716599E+01  0.11896405084E+02  0.51100000000E-03 0.  1.
         12    1    3    3    0    0 -0.18271085528E+02  0.23459243429E+02 -0.29423334110E+02  0.41831821127E+02  0.00000000000E+00 0. -1.
</event>
<event>
 7    1  0.1215217E-011  0.5930196E+02  0.7816164E-02  0.1266605E+00
        -11   -1    0    0    0    0  0.00000000000E+00  0.00000000000E+00  0.45593999997E+02  0.45594000000E+02  0.51100000000E-03 0.  1.
         11   -1    0    0    0    0 -0.00000000000E+00 -0.00000000000E+00 -0.45593999997E+02  0.45594000000E+02  0.51100000000E-03 0. -1.
    9900012    2    1    2    0    0 -0.79445709590E+01 -0.22413966441E+02 -0.21241878581E+02  0.59301960657E+02  0.50000030327E+02 0.  0.
        -12    1    1    2    0    0  0.79445709590E+01  0.22413966441E+02  0.21241878581E+02  0.31886039343E+02  0.00000000000E+00 0.  1.
         11    1    3    3    0    0  0.60114502177E+00 -0.26252886026E+02 -0.33741434265E+02  0.42755815821E+02  0.51100000000E-03 0. -1.
        -11    1    3    3    0    0 -0.12728590386E+01 -0.73834797012E+00  0.12007716746E+00  0.14763965065E+01  0.51100000000E-03 0.  1.
        -12    1    3    3    0    0 -0.72728569422E+01  0.45772675548E+01  0.12379478516E+02  0.15069748329E+02  0.00000000000E+00 0.  1.
</event>
<event>
 7    1  0.1215217E-011  0.5930194E+02  0.7816164E-02  0.1266605E+00
        -11   -1    0    0    0    0  0.00000000000E+00  0.00000000000E+00  0.45593999997E+02  0.45594000000E+02  0.51100000000E-03 0. -1.
         11   -1    0    0    0    0 -0.00000000000E+00 -0.00000000000E+00 -0.45593999997E+02  0.45594000000E+02  0.51100000000E-03 0.  1.
    9900012    2    1    2    0    0  0.29835198410E+02  0.14452881173E+01 -0.11157636182E+02  0.59301940866E+02  0.49999994234E+02 0.  0.
        -12    1    1    2    0    0 -0.29835198410E+02 -0.14452881173E+01  0.11157636182E+02  0.31886059134E+02  0.00000000000E+00 0.  1.
         11    1    3    3    0    0 -0.69319369250E+01 -0.11832983445E+01  0.42285631500E+01  0.82056499486E+01  0.51100000000E-03 0. -1.
        -11    1    3    3    0    0  0.20780853964E+01  0.59936835498E+01 -0.14951586204E+02  0.16241693621E+02  0.51100000000E-03 0.  1.
         12    1    3    3    0    0  0.34689049939E+02 -0.33650970881E+01 -0.43461312797E+00  0.34854597296E+02  0.00000000000E+00 0. -1.
</event>
<event>
 7    1  0.1215217E-011  0.5930195E+02  0.7816164E-02  0.1266605E+00
        -11   -1    0    0    0    0  0.00000000000E+00  0.00000000000E+00  0.45593999997E+02  0.45594000000E+02  0.51100000000E-03 0.  1.
         11   -1    0    0    0    0 -0.00000000000E+00 -0.00000000000E+00 -0.45593999997E+02  0.45594000000E+02  0.51100000000E-03 0. -1.
    9900012    2    1    2    0    0 -0.71016659971E+01  0.14500971041E+02 -0.27495610603E+02  0.59301946254E+02  0.50000004060E+02 0.  0.
        -12    1    1    2    0    0  0.71016659971E+01 -0.14500971041E+02  0.27495610603E+02  0.31886053746E+02  0.00000000000E+00 0.  1.
         11    1    3    3    0    0 -0.17933789598E+01 -0.17399286798E+01  0.51816478473E+01  0.57526545680E+01  0.51100000000E-03 0. -1.
        -11    1    3    3    0    0 -0.20567362391E+02  0.15841412838E+02 -0.14228137304E+02  0.29604166055E+02  0.51100000000E-03 0.  1.
         12    1    3    3    0    0  0.15259075354E+02  0.39948688363E+00 -0.18449121146E+02  0.23945125631E+02  0.00000000000E+00 0. -1.
</event>
<event>
 7    1  0.1215217E-011  0.5930193E+02  0.7816164E-02  0.1266605E+00
        -11   -1    0    0    0    0  0.00000000000E+00  0.00000000000E+00  0.45593999997E+02  0.45594000000E+02  0.51100000000E-03 0.  1.
         11   -1    0    0    0    0 -0.00000000000E+00 -0.00000000000E+00 -0.45593999997E+02  0.45594000000E+02  0.51100000000E-03 0. -1.
    9900012    2    1    2    0    0  0.27286133254E+02 -0.15752360645E+02  0.49042678931E+01  0.59301925023E+02  0.49999965341E+02 0.  0.
        -12    1    1    2    0    0 -0.27286133254E+02  0.15752360645E+02 -0.49042678931E+01  0.31886074977E+02  0.00000000000E+00 0.  1.
         11    1    3    3    0    0  0.92381897105E+00 -0.31333287679E+00 -0.53400472647E+01  0.54284181889E+01  0.51100000000E-03 0. -1.
        -11    1    3    3    0    0  0.45026610119E+01 -0.92420643804E+01 -0.16088891620E+02  0.19092986776E+02  0.51100000000E-03 0.  1.
        -12    1    3    3    0    0  0.21859653271E+02 -0.61969633874E+01  0.26333206778E+02  0.34780520059E+02  0.00000000000E+00 0.  1.
</event>
<event>
 7    1  0.1215217E-011  0.5930195E+02  0.7816164E-02  0.1266605E+00
        -11   -1    0    0    0    0  0.00000000000E+00  0.00000000000E+00  0.45593999997E+02  0.45594000000E+02  0.51100000000E-03 0. -1.
         11   -1    0    0    0    0 -0.00000000000E+00 -0.00000000000E+00 -0.45593999997E+02  0.45594000000E+02  0.51100000000E-03 0.  1.
    9900012    2    1    2    0    0 -0.27566011245E+02 -0.11020990976E+02  0.11634996761E+02  0.59301947129E+02  0.50000005656E+02 0.  0.
        -12    1    1    2    0    0  0.27566011245E+02  0.11020990976E+02 -0.11634996761E+02  0.31886052871E+02  0.00000000000E+00 0.  1.
         11    1    3    3    0    0 -0.19706456757E+02 -0.87380295480E+01  0.97174589709E+01  0.23645858145E+02  0.51100000000E-03 0. -1.
        -11    1    3    3    0    0 -0.18467495091E+02  0.12047769745E+01  0.10764461127E+02  0.21409658711E+02  0.51100000000E-03 0.  1.
         12    1    3    3    0    0  0.10607940602E+02 -0.34877384027E+01 -0.88469233377E+01  0.14246430273E+02  0.00000000000E+00 0. -1.
</event>
<event>
 7    1  0.1215217E-011  0.5930195E+02  0.7816164E-02  0.1266605E+00
        -11   -1    0    0    0    0  0.00000000000E+00  0.00000000000E+00  0.45593999997E+02  0.45594000000E+02  0.51100000000E-03 0. -1.
         11   -1    0    0    0    0 -0.00000000000E+00 -0.00000000000E+00 -0.45593999997E+02  0.45594000000E+02  0.51100000000E-03 0.  1.
    9900012    2    1    2    0    0 -0.24333890641E+01  0.26486135347E+02  0.17586459638E+02  0.59301948025E+02  0.50000007290E+02 0.  0.
        -12    1    1    2    0    0  0.24333890641E+01 -0.26486135347E+02 -0.17586459638E+02  0.31886051975E+02  0.00000000000E+00 0.  1.
         11    1    3    3    0    0 -0.58836650397E+01  0.17816221555E+02  0.30957372379E-01  0.18762628372E+02  0.51100000000E-03 0. -1.
        -11    1    3    3    0    0 -0.11237787187E+02 -0.52207825343E+01 -0.18358363315E+01  0.12526560838E+02  0.51100000000E-03 0.  1.
        -12    1    3    3    0    0  0.14688063162E+02  0.13890696327E+02  0.19391338597E+02  0.28012758816E+02  0.00000000000E+00 0.  1.
</event>
<event>
 7    1  0.1215217E-011  0.5930194E+02  0.7816164E-02  0.1266605E+00
        -11   -1    0    0    0    0  0.00000000000E+00  0.00000000000E+00  0.45593999997E+02  0.45594000000E+02  0.51100000000E-03 0.  1.
         11   -1    0    0    0    0 -0.00000000000E+00 -0.00000000000E+00 -0.45593999997E+02  0.45594000000E+02  0.51100000000E-03 0. -1.
    9900012    2    1    2    0    0  0.16386851926E+02 -0.20944931166E+02 -0.17592653653E+02  0.59301944738E+02  0.50000001296E+02 0.  0.
        -12    1    1    2    0    0 -0.16386851926E+02  0.20944931166E+02  0.17592653653E+02  0.31886055262E+02  0.00000000000E+00 0.  1.
         11    1    3    3    0    0  0.17446769728E+01  0.56487399823E+00 -0.68328345312E+01  0.70746454586E+01  0.51100000000E-03 0. -1.
        -11    1    3    3    0    0 -0.15367883584E+02 -0.95866387206E+01  0.23673937179E+00  0.18114401276E+02  0.51100000000E-03 0.  1.
         12    1    3    3    0    0  0.30010058538E+02 -0.11923166443E+02 -0.10996558494E+02  0.34112898003E+02  0.00000000000E+00 0. -1.
</event>
<event>
 7    1  0.1215217E-011  0.5930193E+02  0.7816164E-02  0.1266605E+00
        -11   -1    0    0    0    0  0.00000000000E+00  0.00000000000E+00  0.45593999997E+02  0.45594000000E+02  0.51100000000E-03 0. -1.
         11   -1    0    0    0    0 -0.00000000000E+00 -0.00000000000E+00 -0.45593999997E+02  0.45594000000E+02  0.51100000000E-03 0.  1.
    9900012    2    1    2    0    0 -0.14240549629E+02  0.27018767235E+02  0.91604857131E+01  0.59301928822E+02  0.49999972269E+02 0.  0.
        -12    1    1    2    0    0  0.14240549629E+02 -0.27018767235E+02 -0.91604857131E+01  0.31886071178E+02  0.00000000000E+00 0.  1.
         11    1    3    3    0    0 -0.18037083241E+02  0.24873116126E+02  0.94914314041E-01  0.30724864307E+02  0.51100000000E-03 0. -1.
        -11    1    3    3    0    0  0.27629303282E+01  0.85463834189E+01  0.16454790123E+02  0.18746588271E+02  0.51100000000E-03 0.  1.
        -12    1    3    3    0    0  0.10336032845E+01 -0.64007323098E+01 -0.73892187239E+01  0.98304762449E+01  0.00000000000E+00 0.  1.
</event>
<event>
 7    1  0.1215217E-011  0.5930195E+02  0.7816164E-02  0.1266605E+00
        -11   -1    0    0    0    0  0.00000000000E+00  0.00000000000E+00  0.45593999997E+02  0.45594000000E+02  0.51100000000E-03 0.  1.
         11   -1    0    0    0    0 -0.00000000000E+00 -0.00000000000E+00 -0.45593999997E+02  0.45594000000E+02  0.51100000000E-03 0. -1.
    9900012    2    1    2    0    0 -0.16399476288E+01  0.29912792033E+02  0.10920417555E+02  0.59301951719E+02  0.50000014027E+02 0.  0.
        -12    1    1    2    0    0  0.16399476288E+01 -0.29912792033E+02 -0.10920417555E+02  0.31886048281E+02  0.00000000000E+00 0.  1.
         11    1    3    3    0    0  0.15590804985E+02  0.41499389530E+01  0.54792080245E-01  0.16133759507E+02  0.51100000000E-03 0. -1.
        -11    1    3    3    0    0  0.49904275795E+01  0.16141589384E+02  0.82818883001E+01  0.18816082199E+02  0.51100000000E-03 0.  1.
         12    1    3    3    0    0 -0.22221180193E+02  0.96212636959E+01  0.25837371746E+01  0.24352110013E+02  0.00000000000E+00 0. -1.
</event>
<event>
 7    1  0.1215217E-011  0.5930188E+02  0.7816164E-02  0.1266605E+00
        -11   -1    0    0    0    0  0.00000000000E+00  0.00000000000E+00  0.45593999997E+02  0.45594000000E+02  0.51100000000E-03 0. -1.
         11   -1    0    0    0    0 -0.00000000000E+00 -0.00000000000E+00 -0.45593999997E+02  0.45594000000E+02  0.51100000000E-03 0.  1.
    9900012    2    1    2    0    0  0.30722517776E+02 -0.10213514524E+01 -0.84739961853E+01  0.59301876550E+02  0.49999876937E+02 0.  0.
        -12    1    1    2    0    0 -0.30722517776E+02  0.10213514524E+01  0.84739961853E+01  0.31886123450E+02  0.00000000000E+00 0.  1.
         11    1    3    3    0    0  0.94190333244E+01 -0.74268837291E+01  0.92304108807E+00  0.12030328167E+02  0.51100000000E-03 0. -1.
        -11    1    3    3    0    0  0.29248434133E+02 -0.62466661011E+01 -0.55910050591E+00  0.29913280165E+02  0.51100000000E-03 0.  1.
        -12    1    3    3    0    0 -0.79449496811E+01  0.12652198378E+02 -0.88379367674E+01  0.17358268218E+02  0.00000000000E+00 0.  1.
</event>
<event>
 7    1  0.1215217E-011  0.5930196E+02  0.7816164E-02  0.1266605E+00
        -11   -1    0    0    0    0  0.00000000000E+00  0.00000000000E+00  0.45593999997E+02  0.45594000000E+02  0.51100000000E-03 0.  1.
         11   -1    0    0    0    0 -0.00000000000E+00 -0.00000000000E+00 -0.45593999997E+02  0.45594000000E+02  0.51100000000E-03 0. -1.
    9900012    2    1    2    0    0 -0.18182986403E+02  0.24430185085E+02 -0.94480061158E+01  0.59301956699E+02  0.50000023109E+02 0.  0.
        -12    1    1    2    0    0  0.18182986403E+02 -0.24430185085E+02  0.94480061158E+01  0.31886043301E+02  0.00000000000E+00 0.  1.
         11    1    3    3    0    0  0.19891107668E+01  0.79088683640E+01 -0.17516707661E+02  0.19322054962E+02  0.51100000000E-03 0. -1.
        -11    1    3    3    0    0  0.63798309922E+00 -0.13287537430E+01 -0.80446517199E+01  0.81785714217E+01  0.51100000000E-03 0.  1.
        -12    1    3    3    0    0 -0.20810080269E+02  0.17850070464E+02  0.16113353265E+02  0.31801330315E+02  0.00000000000E+00 0.  1.
</event>
<event>
 7    1  0.1215217E-011  0.5930194E+02  0.7816164E-02  0.1266605E+00
        -11   -1    0    0    0    0  0.00000000000E+00  0.00000000000E+00  0.45593999997E+02  0.45594000000E+02  0.51100000000E-03 0.  1.
         11   -1    0    0    0    0 -0.00000000000E+00 -0.00000000000E+00 -0.45593999997E+02  0.45594000000E+02  0.51100000000E-03 0. -1.
    9900012    2    1    2    0    0 -0.87195737097E+00 -0.28690733194E+02 -0.13885335820E+02  0.59301936717E+02  0.49999986667E+02 0.  0.
        -12    1    1    2    0    0  0.87195737097E+00  0.28690733194E+02  0.13885335820E+02  0.31886063283E+02  0.00000000000E+00 0.  1.
         11    1    3    3    0    0 -0.81864068398E+01 -0.64213896070E+01  0.62202547840E+01  0.12122007724E+02  0.51100000000E-03 0. -1.
        -11    1    3    3    0    0  0.19343036708E+02 -0.40771717692E+01 -0.42593993886E+01  0.20221742806E+02  0.51100000000E-03 0.  1.
         12    1    3    3    0    0 -0.12028587239E+02 -0.18192171818E+02 -0.15846191216E+02  0.26958186186E+02  0.00000000000E+00 0. -1.
</event>
<event>
 7    1  0.1215217E-011  0.5930210E+02  0.7816164E-02  0.1266604E+00
        -11   -1    0    0    0    0  0.00000000000E+00  0.00000000000E+00  0.45593999997E+02  0.45594000000E+02  0.51100000000E-03 0.  1.
         11   -1    0    0    0    0 -0.00000000000E+00 -0.00000000000E+00 -0.45593999997E+02  0.45594000000E+02  0.51100000000E-03 0. -1.
    9900012    2    1    2    0    0  0.16937057901E+02 -0.58913983665E+01 -0.26365472637E+02  0.59302099473E+02  0.50000283494E+02 0.  0.
        -12    1    1    2    0    0 -0.16937057901E+02  0.58913983665E+01  0.26365472637E+02  0.31885900527E+02  0.00000000000E+00 0.  1.
         11    1    3    3    0    0  0.99642773060E+01  0.10862918802E+02 -0.11247577643E+02  0.18541786058E+02  0.51100000000E-03 0. -1.
        -11    1    3    3    0    0  0.13859622662E+02 -0.11254665232E+02  0.52147479730E+01  0.18599737270E+02  0.51100000000E-03 0.  1.
         12    1    3    3    0    0 -0.68868420671E+01 -0.54996519360E+01 -0.20332642967E+02  0.22160576145E+02  0.00000000000E+00 0. -1.
</event>
<event>
 7    1  0.1215217E-011  0.5930192E+02  0.7816164E-02  0.1266605E+00
        -11   -1    0    0    0    0  0.00000000000E+00  0.00000000000E+00  0.45593999997E+02  0.45594000000E+02  0.51100000000E-03 0.  1.
         11   -1    0    0    0    0 -0.00000000000E+00 -0.00000000000E+00 -0.45593999997E+02  0.45594000000E+02  0.51100000000E-03 0. -1.
    9900012    2    1    2    0    0  0.15059110534E+02  0.17259366270E+01 -0.28052916413E+02  0.59301924879E+02  0.49999965078E+02 0.  0.
        -12    1    1    2    0    0 -0.15059110534E+02 -0.17259366270E+01  0.28052916413E+02  0.31886075121E+02  0.00000000000E+00 0.  1.
         11    1    3    3    0    0  0.38715519663E+01 -0.90380540710E+01  0.59130601319E+01  0.11473430891E+02  0.51100000000E-03 0.  1.
        -11    1    3    3    0    0  0.13968375530E+02 -0.19315734740E+01 -0.32426222659E+01  0.14469315480E+02  0.51100000000E-03 0. -1.
         12    1    3    3    0    0 -0.27808169625E+01  0.12695564172E+02 -0.30723354279E+02  0.33359178509E+02  0.00000000000E+00 0. -1.
</event>
<event>
 7    1  0.1215217E-011  0.5930194E+02  0.7816164E-02  0.1266605E+00
        -11   -1    0    0    0    0  0.00000000000E+00  0.00000000000E+00  0.45593999997E+02  0.45594000000E+02  0.51100000000E-03 0.  1.
         11   -1    0    0    0    0 -0.00000000000E+00 -0.00000000000E+00 -0.45593999997E+02  0.45594000000E+02  0.51100000000E-03 0. -1.
    9900012    2    1    2    0    0  0.27408006229E+02 -0.11631572718E+02 -0.11411762120E+02  0.59301943423E+02  0.49999998897E+02 0.  0.
        -12    1    1    2    0    0 -0.27408006229E+02  0.11631572718E+02  0.11411762120E+02  0.31886056577E+02  0.00000000000E+00 0.  1.
         11    1    3    3    0    0  0.19571925336E+02  0.53583800155E+01 -0.55344167275E+01  0.21033360800E+02  0.51100000000E-03 0. -1.
        -11    1    3    3    0    0 -0.21034522131E+01  0.92527426148E+01  0.45986857045E+00  0.94999598142E+01  0.51100000000E-03 0.  1.
        -12    1    3    3    0    0  0.99395331057E+01 -0.26242695348E+02 -0.63372139634E+01  0.28768622809E+02  0.00000000000E+00 0.  1.
</event>
<event>
 7    1  0.1215217E-011  0.5930196E+02  0.7816164E-02  0.1266605E+00
        -11   -1    0    0    0    0  0.00000000000E+00  0.00000000000E+00  0.45593999997E+02  0.45594000000E+02  0.51100000000E-03 0.  1.
         11   -1    0    0    0    0 -0.00000000000E+00 -0.00000000000E+00 -0.45593999997E+02  0.45594000000E+02  0.51100000000E-03 0. -1.
    9900012    2    1    2    0    0 -0.16703319318E+02  0.26628017796E+02 -0.53541842718E+01  0.59301960779E+02  0.50000030550E+02 0.  0.
        -12    1    1    2    0    0  0.16703319318E+02 -0.26628017796E+02  0.53541842718E+01  0.31886039221E+02  0.00000000000E+00 0.  1.
         11    1    3    3    0    0 -0.86469938511E+01  0.83482489857E+01  0.57000425046E-01  0.12019443128E+02  0.51100000000E-03 0. -1.
        -11    1    3    3    0    0 -0.13210894481E+02  0.29653404050E+02  0.24030173362E+01  0.32551906201E+02  0.51100000000E-03 0.  1.
        -12    1    3    3    0    0  0.51545690140E+01 -0.11373635240E+02 -0.78142020331E+01  0.14730611450E+02  0.00000000000E+00 0.  1.
</event>
<event>
 7    1  0.1215217E-011  0.5930199E+02  0.7816164E-02  0.1266605E+00
        -11   -1    0    0    0    0  0.00000000000E+00  0.00000000000E+00  0.45593999997E+02  0.45594000000E+02  0.51100000000E-03 0.  1.
         11   -1    0    0    0    0 -0.00000000000E+00 -0.00000000000E+00 -0.45593999997E+02  0.45594000000E+02  0.51100000000E-03 0. -1.
    9900012    2    1    2    0    0  0.10837271996E+02 -0.19859468773E+02 -0.22469374190E+02  0.59301988322E+02  0.50000080781E+02 0.  0.
        -12    1    1    2    0    0 -0.10837271996E+02  0.19859468773E+02  0.22469374190E+02  0.31886011678E+02  0.00000000000E+00 0.  1.
         11    1    3    3    0    0 -0.23636448038E+01 -0.67764620617E+01 -0.22060890735E+02  0.23198925732E+02  0.51100000000E-03 0. -1.
        -11    1    3    3    0    0 -0.40782868604E+01  0.25052687605E+01 -0.98796660644E+01  0.10978005150E+02  0.51100000000E-03 0.  1.
         12    1    3    3    0    0  0.17279203660E+02 -0.15588275472E+02  0.94711826092E+01  0.25125057439E+02  0.00000000000E+00 0. -1.
</event>
<event>
 7    1  0.1215217E-011  0.5930206E+02  0.7816164E-02  0.1266604E+00
        -11   -1    0    0    0    0  0.00000000000E+00  0.00000000000E+00  0.45593999997E+02  0.45594000000E+02  0.51100000000E-03 0.  1.
         11   -1    0    0    0    0 -0.00000000000E+00 -0.00000000000E+00 -0.45593999997E+02  0.45594000000E+02  0.51100000000E-03 0. -1.
    9900012    2    1    2    0    0 -0.24521568212E+02  0.14069884139E+02 -0.14745991570E+02  0.59302059295E+02  0.50000210219E+02 0.  0.
        -12    1    1    2    0    0  0.24521568212E+02 -0.14069884139E+02  0.14745991570E+02  0.31885940705E+02  0.00000000000E+00 0.  1.
         11    1    3    3    0    0 -0.18562760983E+02  0.15552750246E+02 -0.12594113128E+02  0.27296077031E+02  0.51100000000E-03 0. -1.
        -11    1    3    3    0    0 -0.33534248101E+01  0.14829388744E+02 -0.28657866441E+01  0.15471553310E+02  0.51100000000E-03 0.  1.
         12    1    3    3    0    0 -0.26053824196E+01 -0.16312254851E+02  0.71390820238E+00  0.16534428953E+02  0.00000000000E+00 0. -1.
</event>
<event>
 7    1  0.1215217E-011  0.5930193E+02  0.7816164E-02  0.1266605E+00
        -11   -1    0    0    0    0  0.00000000000E+00  0.00000000000E+00  0.45593999997E+02  0.45594000000E+02  0.51100000000E-03 0.  1.
         11   -1    0    0    0    0 -0.00000000000E+00 -0.00000000000E+00 -0.45593999997E+02  0.45594000000E+02  0.51100000000E-03 0. -1.
    9900012    2    1    2    0    0 -0.75948921478E+01  0.23641623472E+01 -0.30877984954E+02  0.59301927725E+02  0.49999970268E+02 0.  0.
        -12    1    1    2    0    0  0.75948921478E+01 -0.23641623472E+01  0.30877984954E+02  0.31886072275E+02  0.00000000000E+00 0.  1.
         11    1    3    3    0    0  0.11696887260E+01 -0.71903187969E+01 -0.17658838722E+02  0.19102445953E+02  0.51100000000E-03 0. -1.
        -11    1    3    3    0    0  0.11550789790E+01 -0.97919218881E+01  0.56915287578E+01  0.11384614248E+02  0.51100000000E-03 0.  1.
        -12    1    3    3    0    0 -0.99196598528E+01  0.19346403032E+02 -0.18910674990E+02  0.28814867524E+02  0.00000000000E+00 0.  1.
</event>
<event>
 7    1  0.1215217E-011  0.5930197E+02  0.7816164E-02  0.1266605E+00
        -11   -1    0    0    0    0  0.00000000000E+00  0.00000000000E+00  0.45593999997E+02  0.45594000000E+02  0.51100000000E-03 0. -1.
         11   -1    0    0    0    0 -0.00000000000E+00 -0.00000000000E+00 -0.45593999997E+02  0.45594000000E+02  0.51100000000E-03 0.  1.
    9900012    2    1    2    0    0  0.35034193886E+01  0.21908565556E+02  0.22901088152E+02  0.59301968094E+02  0.50000043892E+02 0.  0.
        -12    1    1    2    0    0 -0.35034193886E+01 -0.21908565556E+02 -0.22901088152E+02  0.31886031906E+02  0.00000000000E+00 0.  1.
         11    1    3    3    0    0  0.17175256514E+02  0.14560528166E+02  0.95140492224E+01  0.24444131191E+02  0.51100000000E-03 0. -1.
        -11    1    3    3    0    0 -0.10027905137E+02 -0.98944033622E+01  0.30070957612E+01  0.14404885439E+02  0.51100000000E-03 0.  1.
         12    1    3    3    0    0 -0.36439319889E+01  0.17242440752E+02  0.10379943168E+02  0.20452951465E+02  0.00000000000E+00 0. -1.
</event>
<event>
 7    1  0.1215217E-011  0.5930191E+02  0.7816164E-02  0.1266605E+00
        -11   -1    0    0    0    0  0.00000000000E+00  0.00000000000E+00  0.45593999997E+02  0.45594000000E+02  0.51100000000E-03 0. -1.
         11   -1    0    0    0    0 -0.00000000000E+00 -0.00000000000E+00 -0.45593999997E+02  0.45594000000E+02  0.51100000000E-03 0.  1.
    9900012    2    1    2    0    0 -0.31467925691E+02 -0.50653831782E+01  0.91336535409E+00  0.59301910709E+02  0.49999939234E+02 0.  0.
        -12    1    1    2    0    0  0.31467925691E+02  0.50653831782E+01 -0.91336535409E+00  0.31886089291E+02  0.00000000000E+00 0.  1.
         11    1    3    3    0    0 -0.22900694531E+01  0.97966148852E+00  0.15197214961E+02  0.15399983687E+02  0.51100000000E-03 0. -1.
        -11    1    3    3    0    0 -0.18004693624E+02 -0.22036310716E+00  0.68762752718E+01  0.19274353797E+02  0.51100000000E-03 0.  1.
        -12    1    3    3    0    0 -0.11173162613E+02 -0.58246815596E+01 -0.21160124879E+02  0.24627573225E+02  0.00000000000E+00 0.  1.
</event>
<event>
 7    1  0.1215217E-011  0.5930193E+02  0.7816164E-02  0.1266605E+00
        -11   -1    0    0    0    0  0.00000000000E+00  0.00000000000E+00  0.45593999997E+02  0.45594000000E+02  0.51100000000E-03 0. -1.
         11   -1    0    0    0    0 -0.00000000000E+00 -0.00000000000E+00 -0.45593999997E+02  0.45594000000E+02  0.51100000000E-03 0.  1.
    9900012    2    1    2    0    0 -0.10705174632E+02  0.29804135285E+02 -0.37194044599E+01  0.59301933866E+02  0.49999981467E+02 0.  0.
        -12    1    1    2    0    0  0.10705174632E+02 -0.29804135285E+02  0.37194044599E+01  0.31886066134E+02  0.00000000000E+00 0.  1.
         11    1    3    3    0    0 -0.65293282533E+00  0.75116549857E+01  0.32747144126E+01  0.82204036789E+01  0.51100000000E-03 0. -1.
        -11    1    3    3    0    0  0.67583873708E+01  0.58712925061E+01  0.15916542951E+02  0.18261550189E+02  0.51100000000E-03 0.  1.
        -12    1    3    3    0    0 -0.16810629177E+02  0.16421187793E+02 -0.22910661823E+02  0.32819979998E+02  0.00000000000E+00 0.  1.
</event>
<event>
 7    1  0.1215217E-011  0.5930168E+02  0.7816164E-02  0.1266606E+00
        -11   -1    0    0    0    0  0.00000000000E+00  0.00000000000E+00  0.45593999997E+02  0.45594000000E+02  0.51100000000E-03 0.  1.
         11   -1    0    0    0    0 -0.00000000000E+00 -0.00000000000E+00 -0.45593999997E+02  0.45594000000E+02  0.51100000000E-03 0. -1.
    9900012    2    1    2    0    0 -0.13381154856E+01 -0.12785122087E+01 -0.31832562851E+02  0.59301683120E+02  0.49999524164E+02 0.  0.
        -12    1    1    2    0    0  0.13381154856E+01  0.12785122087E+01  0.31832562851E+02  0.31886316880E+02  0.00000000000E+00 0.  1.
         11    1    3    3    0    0  0.40183545417E+01 -0.61722482601E+01 -0.67378993230E+01  0.99821395179E+01  0.51100000000E-03 0. -1.
        -11    1    3    3    0    0  0.20824424412E+01 -0.13094677971E+01 -0.35220940701E+02  0.35306740667E+02  0.51100000000E-03 0.  1.
        -12    1    3    3    0    0 -0.74389124685E+01  0.62032038485E+01  0.10126277173E+02  0.14012802935E+02  0.00000000000E+00 0.  1.
</event>
<event>
 7    1  0.1215217E-011  0.5930196E+02  0.7816164E-02  0.1266605E+00
        -11   -1    0    0    0    0  0.00000000000E+00  0.00000000000E+00  0.45593999997E+02  0.45594000000E+02  0.51100000000E-03 0. -1.
         11   -1    0    0    0    0 -0.00000000000E+00 -0.00000000000E+00 -0.45593999997E+02  0.45594000000E+02  0.51100000000E-03 0.  1.
    9900012    2    1    2    0    0 -0.12608778185E+02 -0.21342723462E+02  0.20055586589E+02  0.59301957826E+02  0.50000025165E+02 0.  0.
        -12    1    1    2    0    0  0.12608778185E+02  0.21342723462E+02 -0.20055586589E+02  0.31886042174E+02  0.00000000000E+00 0.  1.
         11    1    3    3    0    0 -0.20561044815E+01 -0.60212446719E+01  0.13523436739E+01  0.65047510875E+01  0.51100000000E-03 0. -1.
        -11    1    3    3    0    0 -0.18217718908E+01 -0.24257569523E+02 -0.60525882053E+01  0.25067555849E+02  0.51100000000E-03 0.  1.
         12    1    3    3    0    0 -0.87309018126E+01  0.89360907327E+01  0.24755831120E+02  0.27729650890E+02  0.00000000000E+00 0. -1.
</event>
<event>
 7    1  0.1215217E-011  0.5930195E+02  0.7816164E-02  0.1266605E+00
        -11   -1    0    0    0    0  0.00000000000E+00  0.00000000000E+00  0.45593999997E+02  0.45594000000E+02  0.51100000000E-03 0. -1.
         11   -1    0    0    0    0 -0.00000000000E+00 -0.00000000000E+00 -0.45593999997E+02  0.45594000000E+02  0.51100000000E-03 0.  1.
    9900012    2    1    2    0    0  0.17021533277E+02  0.13778809954E+02  0.23176111144E+02  0.59301947773E+02  0.50000006830E+02 0.  0.
        -12    1    1    2    0    0 -0.17021533277E+02 -0.13778809954E+02 -0.23176111144E+02  0.31886052227E+02  0.00000000000E+00 0.  1.
         11    1    3    3    0    0  0.14379240989E+02  0.59912539461E+01  0.17803830082E+02  0.23656585999E+02  0.51100000000E-03 0. -1.
        -11    1    3    3    0    0  0.97656617567E+01  0.57611166587E+01  0.17843326042E+02  0.21141024081E+02  0.51100000000E-03 0.  1.
        -12    1    3    3    0    0 -0.71233694686E+01  0.20264393496E+01 -0.12471044980E+02  0.14504337693E+02  0.00000000000E+00 0.  1.
</event>
<event>
 7    1  0.1215217E-011  0.5930198E+02  0.7816164E-02  0.1266605E+00
        -11   -1    0    0    0    0  0.00000000000E+00  0.00000000000E+00  0.45593999997E+02  0.45594000000E+02  0.51100000000E-03 0. -1.
         11   -1    0    0    0    0 -0.00000000000E+00 -0.00000000000E+00 -0.45593999997E+02  0.45594000000E+02  0.51100000000E-03 0.  1.
    9900012    2    1    2    0    0 -0.13136532613E+02  0.23699649468E+02  0.16807028927E+02  0.59301982761E+02  0.50000070641E+02 0.  0.
        -12    1    1    2    0    0  0.13136532613E+02 -0.23699649468E+02 -0.16807028927E+02  0.31886017239E+02  0.00000000000E+00 0.  1.
         11    1    3    3    0    0 -0.15666254871E+02  0.11938302262E+01 -0.86336318093E-01  0.15711913522E+02  0.51100000000E-03 0. -1.
        -11    1    3    3    0    0  0.44266576508E+01 -0.64119021014E+01 -0.30968050759E+01  0.83843895696E+01  0.51100000000E-03 0.  1.
         12    1    3    3    0    0 -0.18969353930E+01  0.28917721343E+02  0.19990170321E+02  0.35205679670E+02  0.00000000000E+00 0. -1.
</event>
<event>
 7    1  0.1215217E-011  0.5930194E+02  0.7816164E-02  0.1266605E+00
        -11   -1    0    0    0    0  0.00000000000E+00  0.00000000000E+00  0.45593999997E+02  0.45594000000E+02  0.51100000000E-03 0.  1.
         11   -1    0    0    0    0 -0.00000000000E+00 -0.00000000000E+00 -0.45593999997E+02  0.45594000000E+02  0.51100000000E-03 0. -1.
    9900012    2    1    2    0    0  0.19840518155E+02  0.24369964446E+01 -0.24842211022E+02  0.59301944101E+02  0.50000000133E+02 0.  0.
        -12    1    1    2    0    0 -0.19840518155E+02 -0.24369964446E+01  0.24842211022E+02  0.31886055899E+02  0.00000000000E+00 0.  1.
         11    1    3    3    0    0 -0.85347524414E+01  0.30187426813E+01  0.49537900274E+01  0.10319633836E+02  0.51100000000E-03 0. -1.
        -11    1    3    3    0    0 -0.49297513417E+01 -0.16729506560E+01 -0.19595701608E+01  0.55624749585E+01  0.51100000000E-03 0.  1.
         12    1    3    3    0    0  0.33305021938E+02  0.10912044193E+01 -0.27836430889E+02  0.43419835306E+02  0.00000000000E+00 0. -1.
</event>
<event>
 7    1  0.1215217E-011  0.5930195E+02  0.7816164E-02  0.1266605E+00
        -11   -1    0    0    0    0  0.00000000000E+00  0.00000000000E+00  0.45593999997E+02  0.45594000000E+02  0.51100000000E-03 0.  1.
         11   -1    0    0    0    0 -0.00000000000E+00 -0.00000000000E+00 -0.45593999997E+02  0.45594000000E+02  0.51100000000E-03 0. -1.
    9900012    2    1    2    0    0  0.30772380856E+02  0.45645528560E+01  0.69961296263E+01  0.59301946684E+02  0.50000004844E+02 0.  0.
        -12    1    1    2    0    0 -0.30772380856E+02 -0.45645528560E+01 -0.69961296263E+01  0.31886053316E+02  0.00000000000E+00 0.  1.
         11    1    3    3    0    0 -0.33482351025E+01 -0.10688803452E+02 -0.34097027659E+01  0.11708427339E+02  0.51100000000E-03 0. -1.
        -11    1    3    3    0    0  0.14375554759E+02 -0.14662961377E+01 -0.73518078958E+01  0.16212824510E+02  0.51100000000E-03 0.  1.
        -12    1    3    3    0    0  0.19745061199E+02  0.16719652446E+02  0.17757640288E+02  0.31380694834E+02  0.00000000000E+00 0.  1.
</event>
<event>
 7    1  0.1215217E-011  0.5930196E+02  0.7816164E-02  0.1266605E+00
        -11   -1    0    0    0    0  0.00000000000E+00  0.00000000000E+00  0.45593999997E+02  0.45594000000E+02  0.51100000000E-03 0.  1.
         11   -1    0    0    0    0 -0.00000000000E+00 -0.00000000000E+00 -0.45593999997E+02  0.45594000000E+02  0.51100000000E-03 0. -1.
    9900012    2    1    2    0    0  0.20183901958E+01 -0.30655034407E+02  0.85389993561E+01  0.59301960053E+02  0.50000029227E+02 0.  0.
        -12    1    1    2    0    0 -0.20183901958E+01  0.30655034407E+02 -0.85389993561E+01  0.31886039947E+02  0.00000000000E+00 0.  1.
         11    1    3    3    0    0  0.52675956765E+01 -0.41300681318E+01 -0.10798742796E+02  0.12705033381E+02  0.51100000000E-03 0. -1.
        -11    1    3    3    0    0  0.85566444451E+01  0.22019245031E+00  0.14680181531E+02  0.16993303943E+02  0.51100000000E-03 0.  1.
         12    1    3    3    0    0 -0.11805849926E+02 -0.26745158726E+02  0.46575606212E+01  0.29603622729E+02  0.00000000000E+00 0. -1.
</event>
<event>
 7    1  0.1215217E-011  0.5930196E+02  0.7816164E-02  0.1266605E+00
        -11   -1    0    0    0    0  0.00000000000E+00  0.00000000000E+00  0.45593999997E+02  0.45594000000E+02  0.51100000000E-03 0.  1.
         11   -1    0    0    0    0 -0.00000000000E+00 -0.00000000000E+00 -0.45593999997E+02  0.45594000000E+02  0.51100000000E-03 0. -1.
    9900012    2    1    2    0    0 -0.20868298593E+02  0.11213448941E+02 -0.21342257460E+02  0.59301964235E+02  0.50000036853E+02 0.  0.
        -12    1    1    2    0    0  0.20868298593E+02 -0.11213448941E+02  0.21342257460E+02  0.31886035765E+02  0.00000000000E+00 0.  1.
         11    1    3    3    0    0 -0.20451558280E+02  0.68015565875E+01 -0.36960695106E+01  0.21867517879E+02  0.51100000000E-03 0. -1.
        -11    1    3    3    0    0 -0.43080282686E+01  0.48783781403E+01  0.86627660984E+01  0.10835183320E+02  0.51100000000E-03 0.  1.
         12    1    3    3    0    0  0.38912879561E+01 -0.46648578647E+00 -0.26308954048E+02  0.26599263036E+02  0.00000000000E+00 0. -1.
</event>
<event>
 7    1  0.1215217E-011  0.5930194E+02  0.7816164E-02  0.1266605E+00
        -11   -1    0    0    0    0  0.00000000000E+00  0.00000000000E+00  0.45593999997E+02  0.45594000000E+02  0.51100000000E-03 0.  1.
         11   -1    0    0    0    0 -0.00000000000E+00 -0.00000000000E+00 -0.45593999997E+02  0.45594000000E+02  0.51100000000E-03 0. -1.
    9900012    2    1    2    0    0  0.32097558715E+01  0.20058399567E+01 -0.31660621155E+02  0.59301939431E+02  0.49999991617E+02 0.  0.
        -12    1    1    2    0    0 -0.32097558715E+01 -0.20058399567E+01  0.31660621155E+02  0.31886060569E+02  0.00000000000E+00 0.  1.
         11    1    3    3    0    0  0.55973276979E+00 -0.22727342802E+01  0.61356114141E+01  0.65669132451E+01  0.51100000000E-03 0. -1.
        -11    1    3    3    0    0 -0.47897684123E+01  0.14699415443E+02 -0.31219021011E+01  0.15772158026E+02  0.51100000000E-03 0.  1.
         12    1    3    3    0    0  0.74397915140E+01 -0.10420841206E+02 -0.34674330468E+02  0.36962868160E+02  0.00000000000E+00 0. -1.
</event>
<event>
 7    1  0.1215217E-011  0.5930167E+02  0.7816164E-02  0.1266606E+00
        -11   -1    0    0    0    0  0.00000000000E+00  0.00000000000E+00  0.45593999997E+02  0.45594000000E+02  0.51100000000E-03 0.  1.
         11   -1    0    0    0    0 -0.00000000000E+00 -0.00000000000E+00 -0.45593999997E+02  0.45594000000E+02  0.51100000000E-03 0. -1.
    9900012    2    1    2    0    0  0.26995565287E+02 -0.29942546295E+01 -0.16703651776E+02  0.59301669251E+02  0.49999498871E+02 0.  0.
        -12    1    1    2    0    0 -0.26995565287E+02  0.29942546295E+01  0.16703651776E+02  0.31886330749E+02  0.00000000000E+00 0.  1.
         11    1    3    3    0    0  0.17355288600E+02 -0.20487867014E+02 -0.13197140921E+01  0.26883087299E+02  0.51100000000E-03 0. -1.
        -11    1    3    3    0    0 -0.13990693454E+01  0.55175601824E+01  0.41061565773E+01  0.70186457026E+01  0.51100000000E-03 0.  1.
        -12    1    3    3    0    0  0.11039346033E+02  0.11976052202E+02 -0.19490094261E+02  0.25399936250E+02  0.00000000000E+00 0.  1.
</event>
<event>
 7    1  0.1215217E-011  0.5930203E+02  0.7816164E-02  0.1266604E+00
        -11   -1    0    0    0    0  0.00000000000E+00  0.00000000000E+00  0.45593999997E+02  0.45594000000E+02  0.51100000000E-03 0.  1.
         11   -1    0    0    0    0 -0.00000000000E+00 -0.00000000000E+00 -0.45593999997E+02  0.45594000000E+02  0.51100000000E-03 0. -1.
    9900012    2    1    2    0    0 -0.15420799637E+02  0.26686974090E+02 -0.81681969639E+01  0.59302029901E+02  0.50000156612E+02 0.  0.
        -12    1    1    2    0    0  0.15420799637E+02 -0.26686974090E+02  0.81681969639E+01  0.31885970099E+02  0.00000000000E+00 0.  1.
         11    1    3    3    0    0 -0.10221263021E+01  0.10625534456E+01  0.35627073000E+01  0.38557289283E+01  0.51100000000E-03 0. -1.
        -11    1    3    3    0    0  0.14654090675E+01  0.15148955679E+02  0.15833350119E+02  0.21962086835E+02  0.51100000000E-03 0.  1.
         12    1    3    3    0    0 -0.15864082403E+02  0.10475464965E+02 -0.27564254383E+02  0.33484214137E+02  0.00000000000E+00 0. -1.
</event>
<event>
 7    1  0.1215217E-011  0.5930186E+02  0.7816164E-02  0.1266605E+00
        -11   -1    0    0    0    0  0.00000000000E+00  0.00000000000E+00  0.45593999997E+02  0.45594000000E+02  0.51100000000E-03 0.  1.
         11   -1    0    0    0    0 -0.00000000000E+00 -0.00000000000E+00 -0.45593999997E+02  0.45594000000E+02  0.51100000000E-03 0. -1.
    9900012    2    1    2    0    0 -0.92112084425E+01 -0.23227571020E+02 -0.19808059399E+02  0.59301864555E+02  0.49999855060E+02 0.  0.
        -12    1    1    2    0    0  0.92112084425E+01  0.23227571020E+02  0.19808059399E+02  0.31886135445E+02  0.00000000000E+00 0.  1.
         11    1    3    3    0    0  0.55217006574E+01 -0.24788970268E+02 -0.84791487978E+01  0.26774581036E+02  0.51100000000E-03 0. -1.
        -11    1    3    3    0    0 -0.31038594774E+01 -0.97969871042E+01 -0.12555764134E+02  0.16225354024E+02  0.51100000000E-03 0.  1.
        -12    1    3    3    0    0 -0.11629049623E+02  0.11358386352E+02  0.12268535325E+01  0.16301929494E+02  0.00000000000E+00 0.  1.
</event>
<event>
 7    1  0.1215217E-011  0.5930192E+02  0.7816164E-02  0.1266605E+00
        -11   -1    0    0    0    0  0.00000000000E+00  0.00000000000E+00  0.45593999997E+02  0.45594000000E+02  0.51100000000E-03 0. -1.
         11   -1    0    0    0    0 -0.00000000000E+00 -0.00000000000E+00 -0.45593999997E+02  0.45594000000E+02  0.51100000000E-03 0.  1.
    9900012    2    1    2    0    0  0.12091276602E+02 -0.25384924402E+02  0.15037567102E+02  0.59301924965E+02  0.49999965235E+02 0.  0.
        -12    1    1    2    0    0 -0.12091276602E+02  0.25384924402E+02 -0.15037567102E+02  0.31886075035E+02  0.00000000000E+00 0.  1.
         11    1    3    3    0    0  0.18801010364E+02 -0.24554289162E+02  0.38850772278E+01  0.31168653040E+02  0.51100000000E-03 0. -1.
        -11    1    3    3    0    0 -0.37953508168E+01 -0.11979561969E+02  0.71701426512E+00  0.12586846409E+02  0.51100000000E-03 0.  1.
        -12    1    3    3    0    0 -0.29143829451E+01  0.11148926730E+02  0.10435475609E+02  0.15546425517E+02  0.00000000000E+00 0.  1.
</event>
<event>
 7    1  0.1215217E-011  0.5930186E+02  0.7816164E-02  0.1266605E+00
        -11   -1    0    0    0    0  0.00000000000E+00  0.00000000000E+00  0.45593999997E+02  0.45594000000E+02  0.51100000000E-03 0. -1.
         11   -1    0    0    0    0 -0.00000000000E+00 -0.00000000000E+00 -0.45593999997E+02  0.45594000000E+02  0.51100000000E-03 0.  1.
    9900012    2    1    2    0    0 -0.42271723486E+01 -0.30274990372E+02  0.90709496274E+01  0.59301856376E+02  0.49999840143E+02 0.  0.
        -12    1    1    2    0    0  0.42271723486E+01  0.30274990372E+02 -0.90709496274E+01  0.31886143624E+02  0.00000000000E+00 0.  1.
         11    1    3    3    0    0  0.37765600820E+01 -0.20580332491E+01 -0.27408175360E+01  0.50999988171E+01  0.51100000000E-03 0.  1.
        -11    1    3    3    0    0 -0.39000333103E+01 -0.30951803701E+01 -0.15848087454E+02  0.16611811387E+02  0.51100000000E-03 0. -1.
         12    1    3    3    0    0 -0.41036991202E+01 -0.25121776753E+02  0.27659854618E+02  0.37590046171E+02  0.00000000000E+00 0. -1.
</event>
<event>
 7    1  0.1215217E-011  0.5930195E+02  0.7816164E-02  0.1266605E+00
        -11   -1    0    0    0    0  0.00000000000E+00  0.00000000000E+00  0.45593999997E+02  0.45594000000E+02  0.51100000000E-03 0.  1.
         11   -1    0    0    0    0 -0.00000000000E+00 -0.00000000000E+00 -0.45593999997E+02  0.45594000000E+02  0.51100000000E-03 0. -1.
    9900012    2    1    2    0    0  0.21836952330E+02 -0.20032207449E+02 -0.11771932181E+02  0.59301949608E+02  0.50000010177E+02 0.  0.
        -12    1    1    2    0    0 -0.21836952330E+02  0.20032207449E+02  0.11771932181E+02  0.31886050392E+02  0.00000000000E+00 0.  1.
         11    1    3    3    0    0 -0.35185414077E+01 -0.13200505790E+02  0.14302116955E+02  0.19778372947E+02  0.51100000000E-03 0. -1.
        -11    1    3    3    0    0  0.49486244542E+00  0.17235377099E+01  0.76777302466E+00  0.19506272724E+01  0.51100000000E-03 0.  1.
         12    1    3    3    0    0  0.24860631292E+02 -0.85552393685E+01 -0.26841822161E+02  0.37572949389E+02  0.00000000000E+00 0. -1.
</event>
<event>
 7    1  0.1215217E-011  0.5930195E+02  0.7816164E-02  0.1266605E+00
        -11   -1    0    0    0    0  0.00000000000E+00  0.00000000000E+00  0.45593999997E+02  0.45594000000E+02  0.51100000000E-03 0.  1.
         11   -1    0    0    0    0 -0.00000000000E+00 -0.00000000000E+00 -0.45593999997E+02  0.45594000000E+02  0.51100000000E-03 0. -1.
    9900012    2    1    2    0    0  0.61011005208E+00  0.22615960804E+02 -0.22469229102E+02  0.59301950169E+02  0.50000011201E+02 0.  0.
        -12    1    1    2    0    0 -0.61011005208E+00 -0.22615960804E+02  0.22469229102E+02  0.31886049831E+02  0.00000000000E+00 0.  1.
         11    1    3    3    0    0 -0.62020154710E+01  0.43893366848E+00 -0.21562907418E+01  0.65808243171E+01  0.51100000000E-03 0. -1.
        -11    1    3    3    0    0 -0.11489299571E+02  0.47367319642E+01 -0.24141423959E+02  0.27152329281E+02  0.51100000000E-03 0.  1.
         12    1    3    3    0    0  0.18301425094E+02  0.17440295171E+02  0.38284855993E+01  0.25568796571E+02  0.00000000000E+00 0. -1.
</event>
<event>
 7    1  0.1215217E-011  0.5930198E+02  0.7816164E-02  0.1266605E+00
        -11   -1    0    0    0    0  0.00000000000E+00  0.00000000000E+00  0.45593999997E+02  0.45594000000E+02  0.51100000000E-03 0.  1.
         11   -1    0    0    0    0 -0.00000000000E+00 -0.00000000000E+00 -0.45593999997E+02  0.45594000000E+02  0.51100000000E-03 0. -1.
    9900012    2    1    2    0    0  0.34539413417E+01 -0.29893575003E+02 -0.10543382247E+02  0.59301977256E+02  0.50000060600E+02 0.  0.
        -12    1    1    2    0    0 -0.34539413417E+01  0.29893575003E+02  0.10543382247E+02  0.31886022744E+02  0.00000000000E+00 0.  1.
         11    1    3    3    0    0  0.12945569750E+02 -0.14106596619E+02 -0.20249831510E+02  0.27868252919E+02  0.51100000000E-03 0. -1.
        -11    1    3    3    0    0  0.26716251556E+01  0.50397741713E+01  0.27481578560E+01  0.63316093161E+01  0.51100000000E-03 0.  1.
        -12    1    3    3    0    0 -0.12163253563E+02 -0.20826752555E+02  0.69582914069E+01  0.25102115021E+02  0.00000000000E+00 0.  1.
</event>
<event>
 7    1  0.1215217E-011  0.5930194E+02  0.7816164E-02  0.1266605E+00
        -11   -1    0    0    0    0  0.00000000000E+00  0.00000000000E+00  0.45593999997E+02  0.45594000000E+02  0.51100000000E-03 0. -1.
         11   -1    0    0    0    0 -0.00000000000E+00 -0.00000000000E+00 -0.45593999997E+02  0.45594000000E+02  0.51100000000E-03 0.  1.
    9900012    2    1    2    0    0  0.15556715223E+02 -0.24315845119E+02  0.13544349813E+02  0.59301935265E+02  0.49999984020E+02 0.  0.
        -12    1    1    2    0    0 -0.15556715223E+02  0.24315845119E+02 -0.13544349813E+02  0.31886064735E+02  0.00000000000E+00 0.  1.
         11    1    3    3    0    0 -0.81992453841E+01 -0.18592575703E+02  0.41973730787E+01  0.20749203290E+02  0.51100000000E-03 0. -1.
        -11    1    3    3    0    0 -0.22937885499E+01 -0.20605196102E+01  0.11739966863E+02  0.12138122967E+02  0.51100000000E-03 0.  1.
        -12    1    3    3    0    0  0.26049749157E+02 -0.36627498061E+01 -0.23929901286E+01  0.26414609008E+02  0.00000000000E+00 0.  1.
</event>
<event>
 7    1  0.1215217E-011  0.5930197E+02  0.7816164E-02  0.1266605E+00
        -11   -1    0    0    0    0  0.00000000000E+00  0.00000000000E+00  0.45593999997E+02  0.45594000000E+02  0.51100000000E-03 0.  1.
         11   -1    0    0    0    0 -0.00000000000E+00 -0.00000000000E+00 -0.45593999997E+02  0.45594000000E+02  0.51100000000E-03 0. -1.
    9900012    2    1    2    0    0  0.21246180944E+02  0.18471048673E+02  0.14971275648E+02  0.59301969543E+02  0.50000046533E+02 0.  0.
        -12    1    1    2    0    0 -0.21246180944E+02 -0.18471048673E+02 -0.14971275648E+02  0.31886030457E+02  0.00000000000E+00 0.  1.
         11    1    3    3    0    0  0.23808818009E+02 -0.49389225145E+01  0.28177180158E+01  0.24478404884E+02  0.51100000000E-03 0. -1.
        -11    1    3    3    0    0 -0.31306052117E+01  0.22632383830E+01  0.13090373173E+02  0.13648472700E+02  0.51100000000E-03 0.  1.
         12    1    3    3    0    0  0.56796814751E+00  0.21146732805E+02 -0.93681554066E+00  0.21175091959E+02  0.00000000000E+00 0. -1.
</event>
<event>
 7    1  0.1215217E-011  0.5930195E+02  0.7816164E-02  0.1266605E+00
        -11   -1    0    0    0    0  0.00000000000E+00  0.00000000000E+00  0.45593999997E+02  0.45594000000E+02  0.51100000000E-03 0.  1.
         11   -1    0    0    0    0 -0.00000000000E+00 -0.00000000000E+00 -0.45593999997E+02  0.45594000000E+02  0.51100000000E-03 0. -1.
    9900012    2    1    2    0    0  0.11696322426E+01 -0.16866097195E+02 -0.27034914762E+02  0.59301954614E+02  0.50000019307E+02 0.  0.
        -12    1    1    2    0    0 -0.11696322426E+01  0.16866097195E+02  0.27034914762E+02  0.31886045386E+02  0.00000000000E+00 0.  1.
         11    1    3    3    0    0  0.93008570165E+01  0.28249824846E+00  0.51410586749E+01  0.10630909230E+02  0.51100000000E-03 0.  1.
        -11    1    3    3    0    0 -0.61205607741E+01 -0.14285023432E+02  0.75055391190E+00  0.15559128834E+02  0.51100000000E-03 0. -1.
         12    1    3    3    0    0 -0.20106639998E+01 -0.28635720111E+01 -0.32926527349E+02  0.33111916550E+02  0.00000000000E+00 0. -1.
</event>
<event>
 7    1  0.1215217E-011  0.5930193E+02  0.7816164E-02  0.1266605E+00
        -11   -1    0    0    0    0  0.00000000000E+00  0.00000000000E+00  0.45593999997E+02  0.45594000000E+02  0.51100000000E-03 0. -1.
         11   -1    0    0    0    0 -0.00000000000E+00 -0.00000000000E+00 -0.45593999997E+02  0.45594000000E+02  0.51100000000E-03 0.  1.
    9900012    2    1    2    0    0 -0.27736357515E+02  0.15499051265E+02  0.26823626873E+01  0.59301934267E+02  0.49999982199E+02 0.  0.
        -12    1    1    2    0    0  0.27736357515E+02 -0.15499051265E+02 -0.26823626873E+01  0.31886065733E+02  0.00000000000E+00 0.  1.
         11    1    3    3    0    0 -0.31126172696E+02  0.15643469989E+02  0.55905785993E+01  0.35281884152E+02  0.51100000000E-03 0. -1.
        -11    1    3    3    0    0 -0.63937520787E+01  0.70471989815E+01 -0.63010581189E+01  0.11412555052E+02  0.51100000000E-03 0.  1.
         12    1    3    3    0    0  0.97835672592E+01 -0.71916177054E+01  0.33928422069E+01  0.12607495064E+02  0.00000000000E+00 0. -1.
</event>
<event>
 7    1  0.1215217E-011  0.5930193E+02  0.7816164E-02  0.1266605E+00
        -11   -1    0    0    0    0  0.00000000000E+00  0.00000000000E+00  0.45593999997E+02  0.45594000000E+02  0.51100000000E-03 0.  1.
         11   -1    0    0    0    0 -0.00000000000E+00 -0.00000000000E+00 -0.45593999997E+02  0.45594000000E+02  0.51100000000E-03 0. -1.
    9900012    2    1    2    0    0 -0.82797511831E+01 -0.29110853053E+02  0.10036204074E+02  0.59301930356E+02  0.49999975066E+02 0.  0.
        -12    1    1    2    0    0  0.82797511831E+01  0.29110853053E+02 -0.10036204074E+02  0.31886069644E+02  0.00000000000E+00 0.  1.
         11    1    3    3    0    0  0.33225834161E+01  0.63075279131E+01 -0.82196034953E+01  0.10880549196E+02  0.51100000000E-03 0.  1.
        -11    1    3    3    0    0 -0.16160170286E+02 -0.21985226520E+02  0.27781998977E+01  0.27426623630E+02  0.51100000000E-03 0. -1.
        -12    1    3    3    0    0  0.45578356866E+01 -0.13433154446E+02  0.15477607671E+02  0.20994757530E+02  0.00000000000E+00 0.  1.
</event>
<event>
 7    1  0.1215217E-011  0.5930203E+02  0.7816164E-02  0.1266604E+00
        -11   -1    0    0    0    0  0.00000000000E+00  0.00000000000E+00  0.45593999997E+02  0.45594000000E+02  0.51100000000E-03 0. -1.
         11   -1    0    0    0    0 -0.00000000000E+00 -0.00000000000E+00 -0.45593999997E+02  0.45594000000E+02  0.51100000000E-03 0.  1.
    9900012    2    1    2    0    0 -0.25101369184E+02 -0.11527451411E+02 -0.15929660826E+02  0.59302031848E+02  0.50000160162E+02 0.  0.
        -12    1    1    2    0    0  0.25101369184E+02  0.11527451411E+02  0.15929660826E+02  0.31885968152E+02  0.00000000000E+00 0.  1.
         11    1    3    3    0    0 -0.17982404085E+02 -0.57110400037E+01 -0.12399232296E+02  0.22577063502E+02  0.51100000000E-03 0. -1.
        -11    1    3    3    0    0 -0.18114622618E+02 -0.97337167674E+01 -0.10541508736E+02  0.23108617470E+02  0.51100000000E-03 0.  1.
        -12    1    3    3    0    0  0.10995657518E+02  0.39173053603E+01  0.70110802050E+01  0.13616350876E+02  0.00000000000E+00 0.  1.
</event>
<event>
 7    1  0.1215217E-011  0.5930191E+02  0.7816164E-02  0.1266605E+00
        -11   -1    0    0    0    0  0.00000000000E+00  0.00000000000E+00  0.45593999997E+02  0.45594000000E+02  0.51100000000E-03 0. -1.
         11   -1    0    0    0    0 -0.00000000000E+00 -0.00000000000E+00 -0.45593999997E+02  0.45594000000E+02  0.51100000000E-03 0.  1.
    9900012    2    1    2    0    0 -0.31588637465E+02  0.24477736307E+01  0.35901276078E+01  0.59301911672E+02  0.49999940990E+02 0.  0.
        -12    1    1    2    0    0  0.31588637465E+02 -0.24477736307E+01 -0.35901276078E+01  0.31886088328E+02  0.00000000000E+00 0.  1.
         11    1    3    3    0    0 -0.65311151820E+01 -0.10009849347E+02 -0.48631444857E+01  0.12903593454E+02  0.51100000000E-03 0. -1.
        -11    1    3    3    0    0  0.13913799061E+01 -0.85692565838E+01 -0.50131936977E+01  0.10024979190E+02  0.51100000000E-03 0.  1.
         12    1    3    3    0    0 -0.26448902189E+02  0.21026879562E+02  0.13466465791E+02  0.36373339028E+02  0.00000000000E+00 0. -1.
</event>
<event>
 7    1  0.1215217E-011  0.5930198E+02  0.7816164E-02  0.1266605E+00
        -11   -1    0    0    0    0  0.00000000000E+00  0.00000000000E+00  0.45593999997E+02  0.45594000000E+02  0.51100000000E-03 0.  1.
         11   -1    0    0    0    0 -0.00000000000E+00 -0.00000000000E+00 -0.45593999997E+02  0.45594000000E+02  0.51100000000E-03 0. -1.
    9900012    2    1    2    0    0  0.24363340097E+02 -0.52457863381E+01 -0.19890395395E+02  0.59301977295E+02  0.50000060671E+02 0.  0.
        -12    1    1    2    0    0 -0.24363340097E+02  0.52457863381E+01  0.19890395395E+02  0.31886022705E+02  0.00000000000E+00 0.  1.
         11    1    3    3    0    0 -0.20761917390E+01 -0.41939550121E+01 -0.24994124767E+02  0.25428450679E+02  0.51100000000E-03 0. -1.
        -11    1    3    3    0    0  0.53827622614E+01 -0.78114911547E+01  0.68325271366E+01  0.11690891795E+02  0.51100000000E-03 0.  1.
        -12    1    3    3    0    0  0.21056769575E+02  0.67596598287E+01 -0.17287977641E+01  0.22182634822E+02  0.00000000000E+00 0.  1.
</event>
<event>
 7    1  0.1215217E-011  0.5930193E+02  0.7816164E-02  0.1266605E+00
        -11   -1    0    0    0    0  0.00000000000E+00  0.00000000000E+00  0.45593999997E+02  0.45594000000E+02  0.51100000000E-03 0. -1.
         11   -1    0    0    0    0 -0.00000000000E+00 -0.00000000000E+00 -0.45593999997E+02  0.45594000000E+02  0.51100000000E-03 0.  1.
    9900012    2    1    2    0    0  0.12320870689E+02  0.26895167478E+02 -0.11898208096E+02  0.59301933386E+02  0.49999980593E+02 0.  0.
        -12    1    1    2    0    0 -0.12320870689E+02 -0.26895167478E+02  0.11898208096E+02  0.31886066614E+02  0.00000000000E+00 0.  1.
         11    1    3    3    0    0  0.11433076020E+02  0.29448988196E+02 -0.99534763311E+01  0.33121440554E+02  0.51100000000E-03 0. -1.
        -11    1    3    3    0    0  0.88158823148E+00  0.66479569180E+01 -0.11247892240E+02  0.13095327759E+02  0.51100000000E-03 0.  1.
        -12    1    3    3    0    0  0.62064369665E-02 -0.92017776354E+01  0.93031604759E+01  0.13085165074E+02  0.00000000000E+00 0.  1.
</event>
<event>
 7    1  0.1215217E-011  0.5930192E+02  0.7816164E-02  0.1266605E+00
        -11   -1    0    0    0    0  0.00000000000E+00  0.00000000000E+00  0.45593999997E+02  0.45594000000E+02  0.51100000000E-03 0.  1.
         11   -1    0    0    0    0 -0.00000000000E+00 -0.00000000000E+00 -0.45593999997E+02  0.45594000000E+02  0.51100000000E-03 0. -1.
    9900012    2    1    2    0    0 -0.12932714138E+02 -0.24125562301E+02 -0.16353110441E+02  0.59301920397E+02  0.49999956904E+02 0.  0.
        -12    1    1    2    0    0  0.12932714138E+02  0.24125562301E+02  0.16353110441E+02  0.31886079603E+02  0.00000000000E+00 0.  1.
         11    1    3    3    0    0  0.12952095886E+02  0.24143973814E+01  0.29641566315E+01  0.13504529882E+02  0.51100000000E-03 0. -1.
        -11    1    3    3    0    0 -0.39769792562E+01 -0.17029753957E+02 -0.62357005946E+01  0.18566444087E+02  0.51100000000E-03 0.  1.
        -12    1    3    3    0    0 -0.21907830768E+02 -0.95102057253E+01 -0.13081566478E+02  0.27230946428E+02  0.00000000000E+00 0.  1.
</event>
<event>
 7    1  0.1215217E-011  0.5930193E+02  0.7816164E-02  0.1266605E+00
        -11   -1    0    0    0    0  0.00000000000E+00  0.00000000000E+00  0.45593999997E+02  0.45594000000E+02  0.51100000000E-03 0.  1.
         11   -1    0    0    0    0 -0.00000000000E+00 -0.00000000000E+00 -0.45593999997E+02  0.45594000000E+02  0.51100000000E-03 0. -1.
    9900012    2    1    2    0    0  0.33347404658E+01  0.15482105799E+02 -0.27674992712E+02  0.59301932266E+02  0.49999978549E+02 0.  0.
        -12    1    1    2    0    0 -0.33347404658E+01 -0.15482105799E+02  0.27674992712E+02  0.31886067734E+02  0.00000000000E+00 0.  1.
         11    1    3    3    0    0 -0.14612506104E+02  0.86786102574E+01 -0.85494633632E+01  0.19024640199E+02  0.51100000000E-03 0.  1.
        -11    1    3    3    0    0  0.36956584876E+01 -0.77774064656E+01  0.39594481152E+01  0.94775087774E+01  0.51100000000E-03 0. -1.
         12    1    3    3    0    0  0.14251588082E+02  0.14580902007E+02 -0.23084977464E+02  0.30799783290E+02  0.00000000000E+00 0. -1.
</event>
<event>
 7    1  0.1215217E-011  0.5930175E+02  0.7816164E-02  0.1266605E+00
        -11   -1    0    0    0    0  0.00000000000E+00  0.00000000000E+00  0.45593999997E+02  0.45594000000E+02  0.51100000000E-03 0.  1.
         11   -1    0    0    0    0 -0.00000000000E+00 -0.00000000000E+00 -0.45593999997E+02  0.45594000000E+02  0.51100000000E-03 0. -1.
    9900012    2    1    2    0    0 -0.29982452820E+02  0.98724214787E+01 -0.45078587786E+01  0.59301749457E+02  0.49999645148E+02 0.  0.
        -12    1    1    2    0    0  0.29982452820E+02 -0.98724214787E+01  0.45078587786E+01  0.31886250543E+02  0.00000000000E+00 0.  1.
         11    1    3    3    0    0  0.26263774919E+01 -0.63376200258E+01  0.19948186638E+01  0.71444095686E+01  0.51100000000E-03 0. -1.
        -11    1    3    3    0    0  0.27706261400E+01 -0.65492197824E+01  0.48221594873E+01  0.85919655113E+01  0.51100000000E-03 0.  1.
         12    1    3    3    0    0 -0.35379456451E+02  0.22759261287E+02 -0.11324836930E+02  0.43565374377E+02  0.00000000000E+00 0. -1.
</event>
<event>
 7    1  0.1215217E-011  0.5930195E+02  0.7816164E-02  0.1266605E+00
        -11   -1    0    0    0    0  0.00000000000E+00  0.00000000000E+00  0.45593999997E+02  0.45594000000E+02  0.51100000000E-03 0.  1.
         11   -1    0    0    0    0 -0.00000000000E+00 -0.00000000000E+00 -0.45593999997E+02  0.45594000000E+02  0.51100000000E-03 0. -1.
    9900012    2    1    2    0    0  0.13690557905E+02 -0.55008262996E+01 -0.28267118783E+02  0.59301945524E+02  0.50000002729E+02 0.  0.
        -12    1    1    2    0    0 -0.13690557905E+02  0.55008262996E+01  0.28267118783E+02  0.31886054476E+02  0.00000000000E+00 0.  1.
         11    1    3    3    0    0 -0.78389331740E+01 -0.82677571279E+01 -0.23562857499E+02  0.26172751766E+02  0.51100000000E-03 0. -1.
        -11    1    3    3    0    0 -0.11704191204E+01  0.80486332816E+01 -0.54847872477E+01  0.98098557600E+01  0.51100000000E-03 0.  1.
        -12    1    3    3    0    0  0.22699910200E+02 -0.52817024532E+01  0.78052596393E+00  0.23319337998E+02  0.00000000000E+00 0.  1.
</event>
<event>
 7    1  0.1215217E-011  0.5930192E+02  0.7816164E-02  0.1266605E+00
        -11   -1    0    0    0    0  0.00000000000E+00  0.00000000000E+00  0.45593999997E+02  0.45594000000E+02  0.51100000000E-03 0.  1.
         11   -1    0    0    0    0 -0.00000000000E+00 -0.00000000000E+00 -0.45593999997E+02  0.45594000000E+02  0.51100000000E-03 0. -1.
    9900012    2    1    2    0    0 -0.11807193731E+01 -0.17140342890E+02 -0.26861436266E+02  0.59301918226E+02  0.49999952944E+02 0.  0.
        -12    1    1    2    0    0  0.11807193731E+01  0.17140342890E+02  0.26861436266E+02  0.31886081774E+02  0.00000000000E+00 0.  1.
         11    1    3    3    0    0 -0.65849513776E+01 -0.15579208857E+02 -0.21632071665E+02  0.27459422027E+02  0.51100000000E-03 0. -1.
        -11    1    3    3    0    0  0.59799877662E+00 -0.11359858922E+02  0.85745587631E+01  0.14245246769E+02  0.51100000000E-03 0.  1.
         12    1    3    3    0    0  0.48062332280E+01  0.97987248891E+01 -0.13803923363E+02  0.17597249430E+02  0.00000000000E+00 0. -1.
</event>
<event>
 7    1  0.1215217E-011  0.5930186E+02  0.7816164E-02  0.1266605E+00
        -11   -1    0    0    0    0  0.00000000000E+00  0.00000000000E+00  0.45593999997E+02  0.45594000000E+02  0.51100000000E-03 0. -1.
         11   -1    0    0    0    0 -0.00000000000E+00 -0.00000000000E+00 -0.45593999997E+02  0.45594000000E+02  0.51100000000E-03 0.  1.
    9900012    2    1    2    0    0 -0.20416408603E+02  0.23859628374E+02  0.55330046787E+01  0.59301862775E+02  0.49999851814E+02 0.  0.
        -12    1    1    2    0    0  0.20416408603E+02 -0.23859628374E+02 -0.55330046787E+01  0.31886137225E+02  0.00000000000E+00 0.  1.
         11    1    3    3    0    0 -0.75204438887E+01  0.27155432985E+02  0.19652055249E+02  0.34353717304E+02  0.51100000000E-03 0. -1.
        -11    1    3    3    0    0 -0.17843793058E+01 -0.34495608743E+01  0.27421933316E+01  0.47542722115E+01  0.51100000000E-03 0.  1.
        -12    1    3    3    0    0 -0.11111585409E+02  0.15375626315E+00 -0.16861243902E+02  0.20193873259E+02  0.00000000000E+00 0.  1.
</event>
<event>
 7    1  0.1215217E-011  0.5930194E+02  0.7816164E-02  0.1266605E+00
        -11   -1    0    0    0    0  0.00000000000E+00  0.00000000000E+00  0.45593999997E+02  0.45594000000E+02  0.51100000000E-03 0. -1.
         11   -1    0    0    0    0 -0.00000000000E+00 -0.00000000000E+00 -0.45593999997E+02  0.45594000000E+02  0.51100000000E-03 0.  1.
    9900012    2    1    2    0    0 -0.27707400116E+02 -0.33365272450E+00 -0.15776874760E+02  0.59301935292E+02  0.49999984069E+02 0.  0.
        -12    1    1    2    0    0  0.27707400116E+02  0.33365272450E+00  0.15776874760E+02  0.31886064708E+02  0.00000000000E+00 0.  1.
         11    1    3    3    0    0 -0.32425484577E+01  0.24036232111E+01 -0.26053136350E+01  0.48040799784E+01  0.51100000000E-03 0. -1.
        -11    1    3    3    0    0  0.21509728925E+01  0.16283453160E+02 -0.14281105662E+02  0.21765282226E+02  0.51100000000E-03 0.  1.
         12    1    3    3    0    0 -0.26615824551E+02 -0.19020729096E+02  0.11095445366E+01  0.32732573088E+02  0.00000000000E+00 0. -1.
</event>
<event>
 7    1  0.1215217E-011  0.5930194E+02  0.7816164E-02  0.1266605E+00
        -11   -1    0    0    0    0  0.00000000000E+00  0.00000000000E+00  0.45593999997E+02  0.45594000000E+02  0.51100000000E-03 0. -1.
         11   -1    0    0    0    0 -0.00000000000E+00 -0.00000000000E+00 -0.45593999997E+02  0.45594000000E+02  0.51100000000E-03 0.  1.
    9900012    2    1    2    0    0 -0.14793920687E+02  0.26656977235E+02  0.93416296492E+01  0.59301943971E+02  0.49999999897E+02 0.  0.
        -12    1    1    2    0    0  0.14793920687E+02 -0.26656977235E+02 -0.93416296492E+01  0.31886056029E+02  0.00000000000E+00 0.  1.
         11    1    3    3    0    0  0.75649334099E+01  0.10401232115E+02 -0.18079016222E+01  0.12987777159E+02  0.51100000000E-03 0. -1.
        -11    1    3    3    0    0 -0.82940723903E+01 -0.16324596324E+01  0.20143943512E+02  0.21845709458E+02  0.51100000000E-03 0.  1.
        -12    1    3    3    0    0 -0.14064781707E+02  0.17888204752E+02 -0.89944122404E+01  0.24468457354E+02  0.00000000000E+00 0.  1.
</event>
<event>
 7    1  0.1215217E-011  0.5930193E+02  0.7816164E-02  0.1266605E+00
        -11   -1    0    0    0    0  0.00000000000E+00  0.00000000000E+00  0.45593999997E+02  0.45594000000E+02  0.51100000000E-03 0. -1.
         11   -1    0    0    0    0 -0.00000000000E+00 -0.00000000000E+00 -0.45593999997E+02  0.45594000000E+02  0.51100000000E-03 0.  1.
    9900012    2    1    2    0    0 -0.21065519718E+01  0.28244938143E+02  0.14646071967E+02  0.59301929123E+02  0.49999972818E+02 0.  0.
        -12    1    1    2    0    0  0.21065519718E+01 -0.28244938143E+02 -0.14646071967E+02  0.31886070877E+02  0.00000000000E+00 0.  1.
         11    1    3    3    0    0  0.79091163292E+00  0.53102791460E+01 -0.11652208684E+02  0.12829597550E+02  0.51100000000E-03 0. -1.
        -11    1    3    3    0    0  0.62899468219E+01 -0.38968804538E+01 -0.54898497523E+00  0.74196019474E+01  0.51100000000E-03 0.  1.
         12    1    3    3    0    0 -0.91874104266E+01  0.26831539450E+02  0.26847265626E+02  0.39052729626E+02  0.00000000000E+00 0. -1.
</event>
<event>
 7    1  0.1215217E-011  0.5930193E+02  0.7816164E-02  0.1266605E+00
        -11   -1    0    0    0    0  0.00000000000E+00  0.00000000000E+00  0.45593999997E+02  0.45594000000E+02  0.51100000000E-03 0.  1.
         11   -1    0    0    0    0 -0.00000000000E+00 -0.00000000000E+00 -0.45593999997E+02  0.45594000000E+02  0.51100000000E-03 0. -1.
    9900012    2    1    2    0    0  0.97824481560E+01 -0.31132354793E+01 -0.30188289540E+02  0.59301931687E+02  0.49999977494E+02 0.  0.
        -12    1    1    2    0    0 -0.97824481560E+01  0.31132354793E+01  0.30188289540E+02  0.31886068313E+02  0.00000000000E+00 0.  1.
         11    1    3    3    0    0  0.17842233577E+02  0.55307289809E+01 -0.12735934714E+02  0.22608367817E+02  0.51100000000E-03 0. -1.
        -11    1    3    3    0    0  0.59997351412E+00 -0.46303060082E+01  0.81373947209E+01  0.93817319857E+01  0.51100000000E-03 0.  1.
        -12    1    3    3    0    0 -0.86597589349E+01 -0.40136584520E+01 -0.25589749547E+02  0.27311831884E+02  0.00000000000E+00 0.  1.
</event>
<event>
 7    1  0.1215217E-011  0.5930156E+02  0.7816164E-02  0.1266606E+00
        -11   -1    0    0    0    0  0.00000000000E+00  0.00000000000E+00  0.45593999997E+02  0.45594000000E+02  0.51100000000E-03 0.  1.
         11   -1    0    0    0    0 -0.00000000000E+00 -0.00000000000E+00 -0.45593999997E+02  0.45594000000E+02  0.51100000000E-03 0. -1.
    9900012    2    1    2    0    0  0.24288686144E+02 -0.73721190752E+01 -0.19299135619E+02  0.59301560094E+02  0.49999299791E+02 0.  0.
        -12    1    1    2    0    0 -0.24288686144E+02  0.73721190752E+01  0.19299135619E+02  0.31886439906E+02  0.00000000000E+00 0.  1.
         11    1    3    3    0    0  0.10404505787E+02  0.50825071967E+01 -0.86295488921E+01  0.14441424252E+02  0.51100000000E-03 0. -1.
        -11    1    3    3    0    0  0.25955262902E+01  0.91838954914E+01  0.92998261430E+01  0.13325444070E+02  0.51100000000E-03 0.  1.
        -12    1    3    3    0    0  0.11288654066E+02 -0.21638521763E+02 -0.19969412870E+02  0.31534691771E+02  0.00000000000E+00 0.  1.
</event>
<event>
 7    1  0.1215217E-011  0.5930189E+02  0.7816164E-02  0.1266605E+00
        -11   -1    0    0    0    0  0.00000000000E+00  0.00000000000E+00  0.45593999997E+02  0.45594000000E+02  0.51100000000E-03 0. -1.
         11   -1    0    0    0    0 -0.00000000000E+00 -0.00000000000E+00 -0.45593999997E+02  0.45594000000E+02  0.51100000000E-03 0.  1.
    9900012    2    1    2    0    0  0.24578708924E+02  0.18905731542E+01  0.20224652605E+02  0.59301893744E+02  0.49999908294E+02 0.  0.
        -12    1    1    2    0    0 -0.24578708924E+02 -0.18905731542E+01 -0.20224652605E+02  0.31886106256E+02  0.00000000000E+00 0.  1.
         11    1    3    3    0    0  0.21067995114E+02  0.12803696092E+02  0.40115155883E+01  0.24977736273E+02  0.51100000000E-03 0. -1.
        -11    1    3    3    0    0  0.14556567430E+02 -0.12207530657E+02  0.86477509230E+01  0.20873453389E+02  0.51100000000E-03 0.  1.
         12    1    3    3    0    0 -0.11045853620E+02  0.12944077193E+01  0.75653860933E+01  0.13450704081E+02  0.00000000000E+00 0. -1.
</event>
<event>
 7    1  0.1215217E-011  0.5930194E+02  0.7816164E-02  0.1266605E+00
        -11   -1    0    0    0    0  0.00000000000E+00  0.00000000000E+00  0.45593999997E+02  0.45594000000E+02  0.51100000000E-03 0.  1.
         11   -1    0    0    0    0 -0.00000000000E+00 -0.00000000000E+00 -0.45593999997E+02  0.45594000000E+02  0.51100000000E-03 0. -1.
    9900012    2    1    2    0    0 -0.12255207506E+02  0.24466393410E+02 -0.16368450253E+02  0.59301942213E+02  0.49999996690E+02 0.  0.
        -12    1    1    2    0    0  0.12255207506E+02 -0.24466393410E+02  0.16368450253E+02  0.31886057787E+02  0.00000000000E+00 0.  1.
         11    1    3    3    0    0 -0.10002865682E+02 -0.18454769232E+01 -0.14693640000E+02  0.17870818773E+02  0.51100000000E-03 0. -1.
        -11    1    3    3    0    0  0.10953716674E+02 -0.98869426202E+00 -0.15278973338E+01  0.11103868508E+02  0.51100000000E-03 0.  1.
        -12    1    3    3    0    0 -0.13206058498E+02  0.27300564595E+02 -0.14691291932E+00  0.30327254932E+02  0.00000000000E+00 0.  1.
</event>
<event>
 7    1  0.1215217E-011  0.5930195E+02  0.7816164E-02  0.1266605E+00
        -11   -1    0    0    0    0  0.00000000000E+00  0.00000000000E+00  0.45593999997E+02  0.45594000000E+02  0.51100000000E-03 0. -1.
         11   -1    0    0    0    0 -0.00000000000E+00 -0.00000000000E+00 -0.45593999997E+02  0.45594000000E+02  0.51100000000E-03 0.  1.
    9900012    2    1    2    0    0 -0.18760885469E+02 -0.16933400596E+02  0.19442458226E+02  0.59301951935E+02  0.50000014422E+02 0.  0.
        -12    1    1    2    0    0  0.18760885469E+02  0.16933400596E+02 -0.19442458226E+02  0.31886048065E+02  0.00000000000E+00 0.  1.
         11    1    3    3    0    0 -0.11274984287E+02 -0.26503559102E+02  0.34704161682E+01  0.29010475770E+02  0.51100000000E-03 0. -1.
        -11    1    3    3    0    0 -0.54475209179E+01 -0.60200603018E+01  0.34896088753E+00  0.81264004424E+01  0.51100000000E-03 0.  1.
        -12    1    3    3    0    0 -0.20383802637E+01  0.15590218808E+02  0.15623081170E+02  0.22165075723E+02  0.00000000000E+00 0.  1.
</event>
<event>
 7    1  0.1215217E-011  0.5930195E+02  0.7816164E-02  0.1266605E+00
        -11   -1    0    0    0    0  0.00000000000E+00  0.00000000000E+00  0.45593999997E+02  0.45594000000E+02  0.51100000000E-03 0.  1.
         11   -1    0    0    0    0 -0.00000000000E+00 -0.00000000000E+00 -0.45593999997E+02  0.45594000000E+02  0.51100000000E-03 0. -1.
    9900012    2    1    2    0    0 -0.33753521219E+01  0.10692357555E+02 -0.29849637210E+02  0.59301947350E+02  0.50000006060E+02 0.  0.
        -12    1    1    2    0    0  0.33753521219E+01 -0.10692357555E+02  0.29849637210E+02  0.31886052650E+02  0.00000000000E+00 0.  1.
         11    1    3    3    0    0 -0.14235563744E+01  0.11921341823E+02 -0.17042331969E+02  0.20846725949E+02  0.51100000000E-03 0. -1.
        -11    1    3    3    0    0 -0.11910239241E+02 -0.47091319278E-01  0.86835434451E+01  0.14739740276E+02  0.51100000000E-03 0.  1.
         12    1    3    3    0    0  0.99584434937E+01 -0.11818929487E+01 -0.21490848686E+02  0.23715481125E+02  0.00000000000E+00 0. -1.
</event>
<event>
 7    1  0.1215217E-011  0.5930191E+02  0.7816164E-02  0.1266605E+00
        -11   -1    0    0    0    0  0.00000000000E+00  0.00000000000E+00  0.45593999997E+02  0.45594000000E+02  0.51100000000E-03 0.  1.
         11   -1    0    0    0    0 -0.00000000000E+00 -0.00000000000E+00 -0.45593999997E+02  0.45594000000E+02  0.51100000000E-03 0. -1.
    9900012    2    1    2    0    0  0.17074099078E+02  0.25305365576E+02  0.92106614726E+01  0.59301911011E+02  0.49999939785E+02 0.  0.
        -12    1    1    2    0    0 -0.17074099078E+02 -0.25305365576E+02 -0.92106614726E+01  0.31886088989E+02  0.00000000000E+00 0.  1.
         11    1    3    3    0    0  0.17849221479E+02  0.53744123420E+01  0.95904726286E+00  0.18665443669E+02  0.51100000000E-03 0.  1.
        -11    1    3    3    0    0  0.88289348356E+00  0.25140446274E+02 -0.55767251380E+01  0.25766672336E+02  0.51100000000E-03 0. -1.
         12    1    3    3    0    0 -0.16580158852E+01 -0.52094930394E+01  0.13828339348E+02  0.14869795006E+02  0.00000000000E+00 0. -1.
</event>
<event>
 7    1  0.1215217E-011  0.5930205E+02  0.7816164E-02  0.1266604E+00
        -11   -1    0    0    0    0  0.00000000000E+00  0.00000000000E+00  0.45593999997E+02  0.45594000000E+02  0.51100000000E-03 0. -1.
         11   -1    0    0    0    0 -0.00000000000E+00 -0.00000000000E+00 -0.45593999997E+02  0.45594000000E+02  0.51100000000E-03 0.  1.
    9900012    2    1    2    0    0  0.17990664719E+02 -0.25648689956E+02  0.59324684104E+01  0.59302054900E+02  0.50000202203E+02 0.  0.
        -12    1    1    2    0    0 -0.17990664719E+02  0.25648689956E+02 -0.59324684104E+01  0.31885945100E+02  0.00000000000E+00 0.  1.
         11    1    3    3    0    0  0.28242546129E+02 -0.31449750662E+02  0.40355353496E+01  0.42461909688E+02  0.51100000000E-03 0. -1.
        -11    1    3    3    0    0  0.22453340341E+01 -0.55509607016E+00 -0.10056677355E+01  0.25221071403E+01  0.51100000000E-03 0.  1.
         12    1    3    3    0    0 -0.12497215444E+02  0.63561567764E+01  0.29026007963E+01  0.14318038071E+02  0.00000000000E+00 0. -1.
</event>
<event>
 7    1  0.1215217E-011  0.5930178E+02  0.7816164E-02  0.1266605E+00
        -11   -1    0    0    0    0  0.00000000000E+00  0.00000000000E+00  0.45593999997E+02  0.45594000000E+02  0.51100000000E-03 0.  1.
         11   -1    0    0    0    0 -0.00000000000E+00 -0.00000000000E+00 -0.45593999997E+02  0.45594000000E+02  0.51100000000E-03 0. -1.
    9900012    2    1    2    0    0  0.21400263957E+02  0.15234162785E+02 -0.18074293170E+02  0.59301779045E+02  0.49999699110E+02 0.  0.
        -12    1    1    2    0    0 -0.21400263957E+02 -0.15234162785E+02  0.18074293170E+02  0.31886220955E+02  0.00000000000E+00 0.  1.
         11    1    3    3    0    0  0.10612105948E+02  0.18628759920E+01  0.69721959826E+01  0.12833495887E+02  0.51100000000E-03 0. -1.
        -11    1    3    3    0    0  0.73810006404E+01 -0.37950369723E+01  0.63994891312E+01  0.10480216480E+02  0.51100000000E-03 0.  1.
         12    1    3    3    0    0  0.34071573690E+01  0.17166323765E+02 -0.31445978284E+02  0.35988066678E+02  0.00000000000E+00 0. -1.
</event>
<event>
 7    1  0.1215217E-011  0.5930196E+02  0.7816164E-02  0.1266605E+00
        -11   -1    0    0    0    0  0.00000000000E+00  0.00000000000E+00  0.45593999997E+02  0.45594000000E+02  0.51100000000E-03 0.  1.
         11   -1    0    0    0    0 -0.00000000000E+00 -0.00000000000E+00 -0.45593999997E+02  0.45594000000E+02  0.51100000000E-03 0. -1.
    9900012    2    1    2    0    0  0.11020068802E+02 -0.20460655231E+01 -0.29851150166E+02  0.59301961257E+02  0.50000031421E+02 0.  0.
        -12    1    1    2    0    0 -0.11020068802E+02  0.20460655231E+01  0.29851150166E+02  0.31886038743E+02  0.00000000000E+00 0.  1.
         11    1    3    3    0    0  0.89277899064E+01  0.99981389218E+01 -0.17214557585E+02  0.21817635244E+02  0.51100000000E-03 0. -1.
        -11    1    3    3    0    0 -0.35001260164E+01 -0.90071774801E+01 -0.23211255964E+02  0.25142444829E+02  0.51100000000E-03 0.  1.
        -12    1    3    3    0    0  0.55924049118E+01 -0.30370269649E+01  0.10574663383E+02  0.12341881184E+02  0.00000000000E+00 0.  1.
</event>
<event>
 7    1  0.1215217E-011  0.5930190E+02  0.7816164E-02  0.1266605E+00
        -11   -1    0    0    0    0  0.00000000000E+00  0.00000000000E+00  0.45593999997E+02  0.45594000000E+02  0.51100000000E-03 0. -1.
         11   -1    0    0    0    0 -0.00000000000E+00 -0.00000000000E+00 -0.45593999997E+02  0.45594000000E+02  0.51100000000E-03 0.  1.
    9900012    2    1    2    0    0  0.21455328284E+02 -0.79367741746E+01  0.22212600486E+02  0.59301904027E+02  0.49999927048E+02 0.  0.
        -12    1    1    2    0    0 -0.21455328284E+02  0.79367741746E+01 -0.22212600486E+02  0.31886095973E+02  0.00000000000E+00 0.  1.
         11    1    3    3    0    0  0.92398127384E+01  0.35858083255E+00 -0.84263720076E+01  0.12510254399E+02  0.51100000000E-03 0. -1.
        -11    1    3    3    0    0  0.58285048292E+01  0.12374356128E+02  0.13126855987E+02  0.18958125078E+02  0.51100000000E-03 0.  1.
         12    1    3    3    0    0  0.63870107162E+01 -0.20669711135E+02  0.17512116507E+02  0.27833524549E+02  0.00000000000E+00 0. -1.
</event>
<event>
 7    1  0.1215217E-011  0.5930188E+02  0.7816164E-02  0.1266605E+00
        -11   -1    0    0    0    0  0.00000000000E+00  0.00000000000E+00  0.45593999997E+02  0.45594000000E+02  0.51100000000E-03 0.  1.
         11   -1    0    0    0    0 -0.00000000000E+00 -0.00000000000E+00 -0.45593999997E+02  0.45594000000E+02  0.51100000000E-03 0. -1.
    9900012    2    1    2    0    0 -0.42598678133E+01  0.28406986836E+02 -0.13842723973E+02  0.59301884183E+02  0.49999890858E+02 0.  0.
        -12    1    1    2    0    0  0.42598678133E+01 -0.28406986836E+02  0.13842723973E+02  0.31886115817E+02  0.00000000000E+00 0.  1.
         11    1    3    3    0    0  0.78214024526E+01  0.71290700640E+01  0.29600870211E+00  0.10587048584E+02  0.51100000000E-03 0. -1.
        -11    1    3    3    0    0  0.65795165424E+01 -0.45359780899E+01 -0.14839578531E+02  0.16854620328E+02  0.51100000000E-03 0.  1.
         12    1    3    3    0    0 -0.18660786808E+02  0.25813894862E+02  0.70084585564E+00  0.31860215272E+02  0.00000000000E+00 0. -1.
</event>
<event>
 7    1  0.1215217E-011  0.5930198E+02  0.7816164E-02  0.1266605E+00
        -11   -1    0    0    0    0  0.00000000000E+00  0.00000000000E+00  0.45593999997E+02  0.45594000000E+02  0.51100000000E-03 0. -1.
         11   -1    0    0    0    0 -0.00000000000E+00 -0.00000000000E+00 -0.45593999997E+02  0.45594000000E+02  0.51100000000E-03 0.  1.
    9900012    2    1    2    0    0  0.25643782874E+02  0.14960320879E+02 -0.11632001672E+02  0.59301980120E+02  0.50000065823E+02 0.  0.
        -12    1    1    2    0    0 -0.25643782874E+02 -0.14960320879E+02  0.11632001672E+02  0.31886019880E+02  0.00000000000E+00 0.  1.
         11    1    3    3    0    0  0.10993212907E+02  0.29037064017E+01  0.17766261202E+02  0.21093180847E+02  0.51100000000E-03 0. -1.
        -11    1    3    3    0    0  0.14346044052E+02  0.28681223199E+01 -0.13850248944E+02  0.20146079064E+02  0.51100000000E-03 0.  1.
        -12    1    3    3    0    0  0.30452591494E+00  0.91884921571E+01 -0.15548013930E+02  0.18062720209E+02  0.00000000000E+00 0.  1.
</event>
<event>
 7    1  0.1215217E-011  0.5930195E+02  0.7816164E-02  0.1266605E+00
        -11   -1    0    0    0    0  0.00000000000E+00  0.00000000000E+00  0.45593999997E+02  0.45594000000E+02  0.51100000000E-03 0.  1.
         11   -1    0    0    0    0 -0.00000000000E+00 -0.00000000000E+00 -0.45593999997E+02  0.45594000000E+02  0.51100000000E-03 0. -1.
    9900012    2    1    2    0    0  0.43959737736E+01  0.15572087936E+02 -0.27475547452E+02  0.59301949510E+02  0.50000009998E+02 0.  0.
        -12    1    1    2    0    0 -0.43959737736E+01 -0.15572087936E+02  0.27475547452E+02  0.31886050490E+02  0.00000000000E+00 0.  1.
         11    1    3    3    0    0  0.46520157397E+01  0.14139879616E+02 -0.79615758647E+01  0.16880880798E+02  0.51100000000E-03 0. -1.
        -11    1    3    3    0    0  0.49017188203E+01  0.17535589770E+02 -0.24046102999E+01  0.18365889767E+02  0.51100000000E-03 0.  1.
        -12    1    3    3    0    0 -0.51577607865E+01 -0.16103381450E+02 -0.17109361287E+02  0.24055178945E+02  0.00000000000E+00 0.  1.
</event>
<event>
 7    1  0.1215217E-011  0.5930194E+02  0.7816164E-02  0.1266605E+00
        -11   -1    0    0    0    0  0.00000000000E+00  0.00000000000E+00  0.45593999997E+02  0.45594000000E+02  0.51100000000E-03 0. -1.
         11   -1    0    0    0    0 -0.00000000000E+00 -0.00000000000E+00 -0.45593999997E+02  0.45594000000E+02  0.51100000000E-03 0.  1.
    9900012    2    1    2    0    0 -0.17563543948E-02 -0.31781903129E+02  0.25752133502E+01  0.59301935750E+02  0.49999984903E+02 0.  0.
        -12    1    1    2    0    0  0.17563543948E-02  0.31781903129E+02 -0.25752133502E+01  0.31886064250E+02  0.00000000000E+00 0.  1.
         11    1    3    3    0    0  0.43126806238E+00  0.50349279691E+00 -0.22752501850E+01  0.23698651446E+01  0.51100000000E-03 0. -1.
        -11    1    3    3    0    0  0.23618883862E+01 -0.26371483028E+02 -0.18748816655E+02  0.32443054111E+02  0.51100000000E-03 0.  1.
         12    1    3    3    0    0 -0.27949128029E+01 -0.59139128982E+01  0.23599280190E+02  0.24489016494E+02  0.00000000000E+00 0. -1.
</event>
<event>
 7    1  0.1215217E-011  0.5930195E+02  0.7816164E-02  0.1266605E+00
        -11   -1    0    0    0    0  0.00000000000E+00  0.00000000000E+00  0.45593999997E+02  0.45594000000E+02  0.51100000000E-03 0.  1.
         11   -1    0    0    0    0 -0.00000000000E+00 -0.00000000000E+00 -0.45593999997E+02  0.45594000000E+02  0.51100000000E-03 0. -1.
    9900012    2    1    2    0    0 -0.29017262350E+01 -0.27953720472E+02 -0.15062856969E+02  0.59301950332E+02  0.50000011497E+02 0.  0.
        -12    1    1    2    0    0  0.29017262350E+01  0.27953720472E+02  0.15062856969E+02  0.31886049668E+02  0.00000000000E+00 0.  1.
         11    1    3    3    0    0 -0.17071701872E+02  0.18819120968E+01 -0.67650134042E+01  0.18459415065E+02  0.51100000000E-03 0. -1.
        -11    1    3    3    0    0  0.28270182493E+01 -0.10476822225E+02 -0.13979716835E+02  0.17697127427E+02  0.51100000000E-03 0.  1.
        -12    1    3    3    0    0  0.11342957387E+02 -0.19358810344E+02  0.56818732697E+01  0.23145407840E+02  0.00000000000E+00 0.  1.
</event>
<event>
 7    1  0.1215217E-011  0.5930189E+02  0.7816164E-02  0.1266605E+00
        -11   -1    0    0    0    0  0.00000000000E+00  0.00000000000E+00  0.45593999997E+02  0.45594000000E+02  0.51100000000E-03 0.  1.
         11   -1    0    0    0    0 -0.00000000000E+00 -0.00000000000E+00 -0.45593999997E+02  0.45594000000E+02  0.51100000000E-03 0. -1.
    9900012    2    1    2    0    0  0.11186716487E+02 -0.20416526902E+02 -0.21788688516E+02  0.59301887918E+02  0.49999897669E+02 0.  0.
        -12    1    1    2    0    0 -0.11186716487E+02  0.20416526902E+02  0.21788688516E+02  0.31886112082E+02  0.00000000000E+00 0.  1.
         11    1    3    3    0    0  0.11366788440E+02 -0.93910455799E+00 -0.87519348386E+01  0.14376444640E+02  0.51100000000E-03 0. -1.
        -11    1    3    3    0    0  0.13342998229E+02 -0.12793050428E+02 -0.20910213638E+02  0.27909402997E+02  0.51100000000E-03 0.  1.
        -12    1    3    3    0    0 -0.13523070182E+02 -0.66843719155E+01  0.78734599613E+01  0.17016040280E+02  0.00000000000E+00 0.  1.
</event>
<event>
 7    1  0.1215217E-011  0.5930194E+02  0.7816164E-02  0.1266605E+00
        -11   -1    0    0    0    0  0.00000000000E+00  0.00000000000E+00  0.45593999997E+02  0.45594000000E+02  0.51100000000E-03 0.  1.
         11   -1    0    0    0    0 -0.00000000000E+00 -0.00000000000E+00 -0.45593999997E+02  0.45594000000E+02  0.51100000000E-03 0. -1.
    9900012    2    1    2    0    0 -0.10758265233E+02 -0.48978117985E+01 -0.29614045342E+02  0.59301944855E+02  0.50000001508E+02 0.  0.
        -12    1    1    2    0    0  0.10758265233E+02  0.48978117985E+01  0.29614045342E+02  0.31886055145E+02  0.00000000000E+00 0.  1.
         11    1    3    3    0    0  0.20251931797E+01  0.17058412220E+02 -0.10508106585E+02  0.20137307147E+02  0.51100000000E-03 0. -1.
        -11    1    3    3    0    0 -0.12729023364E+02 -0.32835112437E+01 -0.15184928136E+02  0.20084609149E+02  0.51100000000E-03 0.  1.
        -12    1    3    3    0    0 -0.54435048654E-01 -0.18672712774E+02 -0.39210106206E+01  0.19080028559E+02  0.00000000000E+00 0.  1.
</event>
<event>
 7    1  0.1215217E-011  0.5930202E+02  0.7816164E-02  0.1266604E+00
        -11   -1    0    0    0    0  0.00000000000E+00  0.00000000000E+00  0.45593999997E+02  0.45594000000E+02  0.51100000000E-03 0.  1.
         11   -1    0    0    0    0 -0.00000000000E+00 -0.00000000000E+00 -0.45593999997E+02  0.45594000000E+02  0.51100000000E-03 0. -1.
    9900012    2    1    2    0    0  0.23356122117E+00 -0.40275424618E+01 -0.31629732063E+02  0.59302021899E+02  0.50000142018E+02 0.  0.
        -12    1    1    2    0    0 -0.23356122117E+00  0.40275424618E+01  0.31629732063E+02  0.31885978101E+02  0.00000000000E+00 0.  1.
         11    1    3    3    0    0  0.12642364108E+02  0.25669141117E+01 -0.30542112351E+02  0.33154774097E+02  0.51100000000E-03 0. -1.
        -11    1    3    3    0    0 -0.76180269647E+00 -0.11351783233E+02 -0.57276971229E+01  0.12737732942E+02  0.51100000000E-03 0.  1.
        -12    1    3    3    0    0 -0.11647000190E+02  0.47573266596E+01  0.46400774118E+01  0.13409514859E+02  0.00000000000E+00 0.  1.
</event>
<event>
 7    1  0.1215217E-011  0.5930194E+02  0.7816164E-02  0.1266605E+00
        -11   -1    0    0    0    0  0.00000000000E+00  0.00000000000E+00  0.45593999997E+02  0.45594000000E+02  0.51100000000E-03 0.  1.
         11   -1    0    0    0    0 -0.00000000000E+00 -0.00000000000E+00 -0.45593999997E+02  0.45594000000E+02  0.51100000000E-03 0. -1.
    9900012    2    1    2    0    0 -0.66981883212E+01 -0.75104647707E+01 -0.30256374557E+02  0.59301937070E+02  0.49999987311E+02 0.  0.
        -12    1    1    2    0    0  0.66981883212E+01  0.75104647707E+01  0.30256374557E+02  0.31886062930E+02  0.00000000000E+00 0.  1.
         11    1    3    3    0    0 -0.10504669801E+02 -0.77719784785E+01 -0.11938977389E+02  0.17700025945E+02  0.51100000000E-03 0. -1.
        -11    1    3    3    0    0 -0.12019317356E+02 -0.66072995637E+01 -0.20018120483E+02  0.24266139890E+02  0.51100000000E-03 0.  1.
        -12    1    3    3    0    0  0.15825798835E+02  0.68688132716E+01  0.17007233156E+01  0.17335771235E+02  0.00000000000E+00 0.  1.
</event>
<event>
 7    1  0.1215217E-011  0.5930196E+02  0.7816164E-02  0.1266605E+00
        -11   -1    0    0    0    0  0.00000000000E+00  0.00000000000E+00  0.45593999997E+02  0.45594000000E+02  0.51100000000E-03 0. -1.
         11   -1    0    0    0    0 -0.00000000000E+00 -0.00000000000E+00 -0.45593999997E+02  0.45594000000E+02  0.51100000000E-03 0.  1.
    9900012    2    1    2    0    0  0.72611559756E+01  0.83911098246E+01  0.29892884915E+02  0.59301957932E+02  0.50000025358E+02 0.  0.
        -12    1    1    2    0    0 -0.72611559756E+01 -0.83911098246E+01 -0.29892884915E+02  0.31886042068E+02  0.00000000000E+00 0.  1.
         11    1    3    3    0    0  0.71388611096E+01  0.65054295628E+01  0.39909456335E+02  0.41061522828E+02  0.51100000000E-03 0. -1.
        -11    1    3    3    0    0  0.47461124867E+01 -0.25643985212E+01  0.10043087680E+01  0.54872907591E+01  0.51100000000E-03 0.  1.
         12    1    3    3    0    0 -0.46238176207E+01  0.44500787829E+01 -0.11020880188E+02  0.12753144345E+02  0.00000000000E+00 0. -1.
</event>
<event>
 7    1  0.1215217E-011  0.5930197E+02  0.7816164E-02  0.1266605E+00
        -11   -1    0    0    0    0  0.00000000000E+00  0.00000000000E+00  0.45593999997E+02  0.45594000000E+02  0.51100000000E-03 0.  1.
         11   -1    0    0    0    0 -0.00000000000E+00 -0.00000000000E+00 -0.45593999997E+02  0.45594000000E+02  0.51100000000E-03 0. -1.
    9900012    2    1    2    0    0 -0.40138939961E+01  0.20146295079E+02 -0.24387169935E+02  0.59301974725E+02  0.50000055984E+02 0.  0.
        -12    1    1    2    0    0  0.40138939961E+01 -0.20146295079E+02  0.24387169935E+02  0.31886025275E+02  0.00000000000E+00 0.  1.
         11    1    3    3    0    0  0.36061051574E+01 -0.14474224866E+02 -0.50580009065E+01  0.15750890556E+02  0.51100000000E-03 0. -1.
        -11    1    3    3    0    0  0.33314867524E+01  0.90471538486E+00 -0.77023319017E+00  0.35370288855E+01  0.51100000000E-03 0.  1.
        -12    1    3    3    0    0 -0.10951485906E+02  0.33715804561E+02 -0.18558935838E+02  0.40014055283E+02  0.00000000000E+00 0.  1.
</event>
<event>
 7    1  0.1215217E-011  0.5930195E+02  0.7816164E-02  0.1266605E+00
        -11   -1    0    0    0    0  0.00000000000E+00  0.00000000000E+00  0.45593999997E+02  0.45594000000E+02  0.51100000000E-03 0. -1.
         11   -1    0    0    0    0 -0.00000000000E+00 -0.00000000000E+00 -0.45593999997E+02  0.45594000000E+02  0.51100000000E-03 0.  1.
    9900012    2    1    2    0    0  0.19741044513E+02 -0.70315812318E+01  0.24032646816E+02  0.59301951545E+02  0.50000013711E+02 0.  0.
        -12    1    1    2    0    0 -0.19741044513E+02  0.70315812318E+01 -0.24032646816E+02  0.31886048455E+02  0.00000000000E+00 0.  1.
         11    1    3    3    0    0 -0.70009321296E+00 -0.79308383423E+01 -0.12135107559E+02  0.14513757717E+02  0.51100000000E-03 0.  1.
        -11    1    3    3    0    0  0.15698538995E+02  0.30427080392E+01  0.11805998346E+02  0.19876714920E+02  0.51100000000E-03 0. -1.
        -12    1    3    3    0    0  0.47425987302E+01 -0.21434509287E+01  0.24361756030E+02  0.24911478909E+02  0.00000000000E+00 0.  1.
</event>
<event>
 7    1  0.1215217E-011  0.5930190E+02  0.7816164E-02  0.1266605E+00
        -11   -1    0    0    0    0  0.00000000000E+00  0.00000000000E+00  0.45593999997E+02  0.45594000000E+02  0.51100000000E-03 0.  1.
         11   -1    0    0    0    0 -0.00000000000E+00 -0.00000000000E+00 -0.45593999997E+02  0.45594000000E+02  0.51100000000E-03 0. -1.
    9900012    2    1    2    0    0  0.24449512656E+02  0.71593966403E+00 -0.20455606151E+02  0.59301904884E+02  0.49999928612E+02 0.  0.
        -12    1    1    2    0    0 -0.24449512656E+02 -0.71593966403E+00  0.20455606151E+02  0.31886095116E+02  0.00000000000E+00 0.  1.
         11    1    3    3    0    0 -0.61692614103E+01  0.19337647976E+00  0.87261576452E+01  0.10688452101E+02  0.51100000000E-03 0. -1.
        -11    1    3    3    0    0  0.18537558536E+02  0.44017173882E+01 -0.26929364966E+01  0.19242351719E+02  0.51100000000E-03 0.  1.
         12    1    3    3    0    0  0.12081215530E+02 -0.38791542039E+01 -0.26488827299E+02  0.29371101064E+02  0.00000000000E+00 0. -1.
</event>
<event>
 7    1  0.1215217E-011  0.5930193E+02  0.7816164E-02  0.1266605E+00
        -11   -1    0    0    0    0  0.00000000000E+00  0.00000000000E+00  0.45593999997E+02  0.45594000000E+02  0.51100000000E-03 0.  1.
         11   -1    0    0    0    0 -0.00000000000E+00 -0.00000000000E+00 -0.45593999997E+02  0.45594000000E+02  0.51100000000E-03 0. -1.
    9900012    2    1    2    0    0  0.21807418951E+01 -0.27170925903E+02  0.16544084673E+02  0.59301928004E+02  0.49999970777E+02 0.  0.
        -12    1    1    2    0    0 -0.21807418951E+01  0.27170925903E+02 -0.16544084673E+02  0.31886071996E+02  0.00000000000E+00 0.  1.
         11    1    3    3    0    0  0.83485946740E+01 -0.81385733219E+01  0.18356238994E+02  0.21745963281E+02  0.51100000000E-03 0. -1.
        -11    1    3    3    0    0  0.49513090870E+01  0.42942866238E+01 -0.86241305003E+01  0.10831989034E+02  0.51100000000E-03 0.  1.
         12    1    3    3    0    0 -0.11119161866E+02 -0.23326639205E+02  0.68119761797E+01  0.26723975690E+02  0.00000000000E+00 0. -1.
</event>
<event>
 7    1  0.1215217E-011  0.5930188E+02  0.7816164E-02  0.1266605E+00
        -11   -1    0    0    0    0  0.00000000000E+00  0.00000000000E+00  0.45593999997E+02  0.45594000000E+02  0.51100000000E-03 0. -1.
         11   -1    0    0    0    0 -0.00000000000E+00 -0.00000000000E+00 -0.45593999997E+02  0.45594000000E+02  0.51100000000E-03 0.  1.
    9900012    2    1    2    0    0  0.20347420720E+02  0.79936829484E+01  0.23212248265E+02  0.59301875015E+02  0.49999874138E+02 0.  0.
        -12    1    1    2    0    0 -0.20347420720E+02 -0.79936829484E+01 -0.23212248265E+02  0.31886124985E+02  0.00000000000E+00 0.  1.
         11    1    3    3    0    0  0.10683693434E+02 -0.72347954156E+01 -0.57688340209E+01  0.14133754502E+02  0.51100000000E-03 0. -1.
        -11    1    3    3    0    0 -0.72408082931E+01 -0.36936562883E+01  0.12504965414E+02  0.14914642529E+02  0.51100000000E-03 0.  1.
        -12    1    3    3    0    0  0.16904535578E+02  0.18922134652E+02  0.16476116872E+02  0.30253477984E+02  0.00000000000E+00 0.  1.
</event>
<event>
 7    1  0.1215217E-011  0.5930193E+02  0.7816164E-02  0.1266605E+00
        -11   -1    0    0    0    0  0.00000000000E+00  0.00000000000E+00  0.45593999997E+02  0.45594000000E+02  0.51100000000E-03 0. -1.
         11   -1    0    0    0    0 -0.00000000000E+00 -0.00000000000E+00 -0.45593999997E+02  0.45594000000E+02  0.51100000000E-03 0.  1.
    9900012    2    1    2    0    0 -0.69268642055E+01  0.30135570249E+02  0.77837738704E+01  0.59301934428E+02  0.49999982493E+02 0.  0.
        -12    1    1    2    0    0  0.69268642055E+01 -0.30135570249E+02 -0.77837738704E+01  0.31886065572E+02  0.00000000000E+00 0.  1.
         11    1    3    3    0    0 -0.19493723415E+01  0.16322007821E+01  0.61028180031E+01  0.66112419226E+01  0.51100000000E-03 0. -1.
        -11    1    3    3    0    0  0.10737925244E+02  0.62862157343E+01  0.17302758377E+02  0.21312085645E+02  0.51100000000E-03 0.  1.
         12    1    3    3    0    0 -0.15715417108E+02  0.22217153733E+02 -0.15621802510E+02  0.31378606861E+02  0.00000000000E+00 0. -1.
</event>
<event>
 7    1  0.1215217E-011  0.5930192E+02  0.7816164E-02  0.1266605E+00
        -11   -1    0    0    0    0  0.00000000000E+00  0.00000000000E+00  0.45593999997E+02  0.45594000000E+02  0.51100000000E-03 0.  1.
         11   -1    0    0    0    0 -0.00000000000E+00 -0.00000000000E+00 -0.45593999997E+02  0.45594000000E+02  0.51100000000E-03 0. -1.
    9900012    2    1    2    0    0  0.23074904811E+02  0.19830007529E+01 -0.21916622080E+02  0.59301923926E+02  0.49999963339E+02 0.  0.
        -12    1    1    2    0    0 -0.23074904811E+02 -0.19830007529E+01  0.21916622080E+02  0.31886076074E+02  0.00000000000E+00 0.  1.
         11    1    3    3    0    0  0.95729904250E+01  0.93690801235E+01 -0.18652021605E+02  0.22963443084E+02  0.51100000000E-03 0. -1.
        -11    1    3    3    0    0  0.44418308399E+01  0.14730600989E+00 -0.17387058703E+02  0.17946068396E+02  0.51100000000E-03 0.  1.
        -12    1    3    3    0    0  0.90600835461E+01 -0.75333853805E+01  0.14122458229E+02  0.18392412446E+02  0.00000000000E+00 0.  1.
</event>
<event>
 7    1  0.1215217E-011  0.5930199E+02  0.7816164E-02  0.1266605E+00
        -11   -1    0    0    0    0  0.00000000000E+00  0.00000000000E+00  0.45593999997E+02  0.45594000000E+02  0.51100000000E-03 0. -1.
         11   -1    0    0    0    0 -0.00000000000E+00 -0.00000000000E+00 -0.45593999997E+02  0.45594000000E+02  0.51100000000E-03 0.  1.
    9900012    2    1    2    0    0  0.90108938167E+01 -0.30038186978E+02 -0.57644607266E+01  0.59301985953E+02  0.50000076462E+02 0.  0.
        -12    1    1    2    0    0 -0.90108938167E+01  0.30038186978E+02  0.57644607266E+01  0.31886014047E+02  0.00000000000E+00 0.  1.
         11    1    3    3    0    0  0.86768476778E+01 -0.26078784636E+01 -0.36989645162E+01  0.97862686688E+01  0.51100000000E-03 0. -1.
        -11    1    3    3    0    0  0.11254339135E+02  0.60884095352E+01 -0.58325165414E+01  0.14062259047E+02  0.51100000000E-03 0.  1.
         12    1    3    3    0    0 -0.10920292996E+02 -0.33518718050E+02  0.37670203310E+01  0.35453458238E+02  0.00000000000E+00 0. -1.
</event>
<event>
 7    1  0.1215217E-011  0.5930195E+02  0.7816164E-02  0.1266605E+00
        -11   -1    0    0    0    0  0.00000000000E+00  0.00000000000E+00  0.45593999997E+02  0.45594000000E+02  0.51100000000E-03 0. -1.
         11   -1    0    0    0    0 -0.00000000000E+00 -0.00000000000E+00 -0.45593999997E+02  0.45594000000E+02  0.51100000000E-03 0.  1.
    9900012    2    1    2    0    0  0.14169186195E+02 -0.28319407558E+02  0.37370776303E+01  0.59301946135E+02  0.50000003844E+02 0.  0.
        -12    1    1    2    0    0 -0.14169186195E+02  0.28319407558E+02 -0.37370776303E+01  0.31886053865E+02  0.00000000000E+00 0.  1.
         11    1    3    3    0    0  0.98726841060E+01 -0.62760766078E+01 -0.15884661902E+02  0.19727683925E+02  0.51100000000E-03 0. -1.
        -11    1    3    3    0    0  0.52959829231E+01  0.44580565357E+01  0.81116254527E+01  0.10663966004E+02  0.51100000000E-03 0.  1.
         12    1    3    3    0    0 -0.99948083435E+00 -0.26501387486E+02  0.11510114079E+02  0.28910296206E+02  0.00000000000E+00 0. -1.
</event>
<event>
 7    1  0.1215217E-011  0.5930197E+02  0.7816164E-02  0.1266605E+00
        -11   -1    0    0    0    0  0.00000000000E+00  0.00000000000E+00  0.45593999997E+02  0.45594000000E+02  0.51100000000E-03 0.  1.
         11   -1    0    0    0    0 -0.00000000000E+00 -0.00000000000E+00 -0.45593999997E+02  0.45594000000E+02  0.51100000000E-03 0. -1.
    9900012    2    1    2    0    0  0.88649547482E+01 -0.99778773016E+01 -0.28958127444E+02  0.59301974798E+02  0.50000056118E+02 0.  0.
        -12    1    1    2    0    0 -0.88649547482E+01  0.99778773016E+01  0.28958127444E+02  0.31886025202E+02  0.00000000000E+00 0.  1.
         11    1    3    3    0    0  0.95979190913E+01  0.11995965631E+02 -0.17902194755E+02  0.23590502742E+02  0.51100000000E-03 0. -1.
        -11    1    3    3    0    0  0.18516446883E+01  0.53270596921E+01 -0.51980853504E+01  0.76698268942E+01  0.51100000000E-03 0.  1.
         12    1    3    3    0    0 -0.25846090314E+01 -0.27300902625E+02 -0.58578473382E+01  0.28041645162E+02  0.00000000000E+00 0. -1.
</event>
<event>
 7    1  0.1215217E-011  0.5930192E+02  0.7816164E-02  0.1266605E+00
        -11   -1    0    0    0    0  0.00000000000E+00  0.00000000000E+00  0.45593999997E+02  0.45594000000E+02  0.51100000000E-03 0. -1.
         11   -1    0    0    0    0 -0.00000000000E+00 -0.00000000000E+00 -0.45593999997E+02  0.45594000000E+02  0.51100000000E-03 0.  1.
    9900012    2    1    2    0    0 -0.11243328243E+02  0.18329866741E+02  0.23544115562E+02  0.59301924319E+02  0.49999964056E+02 0.  0.
        -12    1    1    2    0    0  0.11243328243E+02 -0.18329866741E+02 -0.23544115562E+02  0.31886075681E+02  0.00000000000E+00 0.  1.
         11    1    3    3    0    0  0.17554077744E+01  0.21059817209E+01  0.28403452777E+02  0.28535464695E+02  0.51100000000E-03 0. -1.
        -11    1    3    3    0    0  0.26383987242E+01  0.14361712697E+02 -0.16482437970E+01  0.14694782996E+02  0.51100000000E-03 0.  1.
        -12    1    3    3    0    0 -0.15637134742E+02  0.18621723232E+01 -0.32110934179E+01  0.16071676628E+02  0.00000000000E+00 0.  1.
</event>
<event>
 7    1  0.1400355E-011  0.5930194E+02  0.7816164E-02  0.1266605E+00
        -11   -1    0    0    0    0  0.00000000000E+00  0.00000000000E+00  0.45593999997E+02  0.45594000000E+02  0.51100000000E-03 0. -1.
         11   -1    0    0    0    0 -0.00000000000E+00 -0.00000000000E+00 -0.45593999997E+02  0.45594000000E+02  0.51100000000E-03 0.  1.
    9900012    2    1    2    0    0  0.23209165546E+02  0.17889066365E+01  0.21791179129E+02  0.59301936585E+02  0.49999986427E+02 0.  0.
        -12    1    1    2    0    0 -0.23209165546E+02 -0.17889066365E+01 -0.21791179129E+02  0.31886063415E+02  0.00000000000E+00 0.  1.
         11    1    3    3    0    0  0.54167937865E+00  0.11508125515E+02  0.21101295382E+02  0.24041527333E+02  0.51100000000E-03 0. -1.
        -11    1    3    3    0    0  0.66572453513E+01 -0.78988967092E+01  0.11803968899E+02  0.15685826944E+02  0.51100000000E-03 0.  1.
        -12    1    3    3    0    0  0.16010240816E+02 -0.18203221696E+01 -0.11114085152E+02  0.19574582309E+02  0.00000000000E+00 0.  1.
</event>
<event>
 7    1  0.1215217E-011  0.5930195E+02  0.7816164E-02  0.1266605E+00
        -11   -1    0    0    0    0  0.00000000000E+00  0.00000000000E+00  0.45593999997E+02  0.45594000000E+02  0.51100000000E-03 0.  1.
         11   -1    0    0    0    0 -0.00000000000E+00 -0.00000000000E+00 -0.45593999997E+02  0.45594000000E+02  0.51100000000E-03 0. -1.
    9900012    2    1    2    0    0  0.13203465488E+02 -0.50942904271E+01 -0.28573357304E+02  0.59301952213E+02  0.50000014928E+02 0.  0.
        -12    1    1    2    0    0 -0.13203465488E+02  0.50942904271E+01  0.28573357304E+02  0.31886047787E+02  0.00000000000E+00 0.  1.
         11    1    3    3    0    0 -0.86268896149E+00 -0.19409130739E+02 -0.16390465930E+02  0.25418614477E+02  0.51100000000E-03 0. -1.
        -11    1    3    3    0    0  0.97169960182E+01  0.56368143434E+01  0.63921545695E+01  0.12924911135E+02  0.51100000000E-03 0.  1.
         12    1    3    3    0    0  0.43491584317E+01  0.86780259681E+01 -0.18575045943E+02  0.20958426600E+02  0.00000000000E+00 0. -1.
</event>
<event>
 7    1  0.1215217E-011  0.5930175E+02  0.7816164E-02  0.1266605E+00
        -11   -1    0    0    0    0  0.00000000000E+00  0.00000000000E+00  0.45593999997E+02  0.45594000000E+02  0.51100000000E-03 0. -1.
         11   -1    0    0    0    0 -0.00000000000E+00 -0.00000000000E+00 -0.45593999997E+02  0.45594000000E+02  0.51100000000E-03 0.  1.
    9900012    2    1    2    0    0  0.27536100469E+02  0.82426218045E+01  0.13804170255E+02  0.59301752813E+02  0.49999651269E+02 0.  0.
        -12    1    1    2    0    0 -0.27536100469E+02 -0.82426218045E+01 -0.13804170255E+02  0.31886247187E+02  0.00000000000E+00 0.  1.
         11    1    3    3    0    0  0.27850978402E+02  0.19410176471E+01 -0.22054863118E+01  0.28005512271E+02  0.51100000000E-03 0. -1.
        -11    1    3    3    0    0 -0.37479647196E+01 -0.53009661187E+01 -0.42064561806E+01  0.77357452900E+01  0.51100000000E-03 0.  1.
         12    1    3    3    0    0  0.34330867866E+01  0.11602570276E+02  0.20216112747E+02  0.23560495252E+02  0.00000000000E+00 0. -1.
</event>
<event>
 7    1  0.1215217E-011  0.5930195E+02  0.7816164E-02  0.1266605E+00
        -11   -1    0    0    0    0  0.00000000000E+00  0.00000000000E+00  0.45593999997E+02  0.45594000000E+02  0.51100000000E-03 0. -1.
         11   -1    0    0    0    0 -0.00000000000E+00 -0.00000000000E+00 -0.45593999997E+02  0.45594000000E+02  0.51100000000E-03 0.  1.
    9900012    2    1    2    0    0  0.95587392452E+01 -0.80014719450E+01  0.29348372025E+02  0.59301953056E+02  0.50000016465E+02 0.  0.
        -12    1    1    2    0    0 -0.95587392452E+01  0.80014719450E+01 -0.29348372025E+02  0.31886046944E+02  0.00000000000E+00 0.  1.
         11    1    3    3    0    0 -0.10433244255E+01 -0.60812955743E+01 -0.12110732670E+02  0.13591928774E+02  0.51100000000E-03 0. -1.
        -11    1    3    3    0    0 -0.31084349023E+01  0.69437560148E+00  0.17823240966E+01  0.36498225250E+01  0.51100000000E-03 0.  1.
         12    1    3    3    0    0  0.13710498573E+02 -0.26145519722E+01  0.39676780599E+02  0.42060201757E+02  0.00000000000E+00 0. -1.
</event>
<event>
 7    1  0.1215217E-011  0.5930196E+02  0.7816164E-02  0.1266605E+00
        -11   -1    0    0    0    0  0.00000000000E+00  0.00000000000E+00  0.45593999997E+02  0.45594000000E+02  0.51100000000E-03 0. -1.
         11   -1    0    0    0    0 -0.00000000000E+00 -0.00000000000E+00 -0.45593999997E+02  0.45594000000E+02  0.51100000000E-03 0.  1.
    9900012    2    1    2    0    0 -0.24153065304E+02 -0.42594452069E+01  0.20376608566E+02  0.59301958952E+02  0.50000027219E+02 0.  0.
        -12    1    1    2    0    0  0.24153065304E+02  0.42594452069E+01 -0.20376608566E+02  0.31886041048E+02  0.00000000000E+00 0.  1.
         11    1    3    3    0    0 -0.12807479084E+02 -0.46008423922E+01  0.10925124359E+02  0.17451579119E+02  0.51100000000E-03 0. -1.
        -11    1    3    3    0    0 -0.22870829835E+02 -0.28937871364E+01 -0.44778079236E+01  0.23484029156E+02  0.51100000000E-03 0.  1.
         12    1    3    3    0    0  0.11525243615E+02  0.32351843218E+01  0.13929292130E+02  0.18366350678E+02  0.00000000000E+00 0. -1.
</event>
<event>
 7    1  0.1215217E-011  0.5930192E+02  0.7816164E-02  0.1266605E+00
        -11   -1    0    0    0    0  0.00000000000E+00  0.00000000000E+00  0.45593999997E+02  0.45594000000E+02  0.51100000000E-03 0.  1.
         11   -1    0    0    0    0 -0.00000000000E+00 -0.00000000000E+00 -0.45593999997E+02  0.45594000000E+02  0.51100000000E-03 0. -1.
    9900012    2    1    2    0    0  0.30300992297E+02  0.98640503221E+01 -0.11281440719E+01  0.59301916327E+02  0.49999949480E+02 0.  0.
        -12    1    1    2    0    0 -0.30300992297E+02 -0.98640503221E+01  0.11281440719E+01  0.31886083673E+02  0.00000000000E+00 0.  1.
         11    1    3    3    0    0  0.17588439042E+02  0.71423889086E+01  0.22961069383E+01  0.19121689637E+02  0.51100000000E-03 0. -1.
        -11    1    3    3    0    0  0.85227717765E+01 -0.12700363512E+02  0.10849935267E+02  0.18752545632E+02  0.51100000000E-03 0.  1.
         12    1    3    3    0    0  0.41897814793E+01  0.15422024926E+02 -0.14274186277E+02  0.21427681058E+02  0.00000000000E+00 0. -1.
</event>
<event>
 7    1  0.1215217E-011  0.5930194E+02  0.7816164E-02  0.1266605E+00
        -11   -1    0    0    0    0  0.00000000000E+00  0.00000000000E+00  0.45593999997E+02  0.45594000000E+02  0.51100000000E-03 0.  1.
         11   -1    0    0    0    0 -0.00000000000E+00 -0.00000000000E+00 -0.45593999997E+02  0.45594000000E+02  0.51100000000E-03 0. -1.
    9900012    2    1    2    0    0 -0.16050737774E+02  0.27519254996E+02 -0.13361762180E+01  0.59301938069E+02  0.49999989132E+02 0.  0.
        -12    1    1    2    0    0  0.16050737774E+02 -0.27519254996E+02  0.13361762180E+01  0.31886061931E+02  0.00000000000E+00 0.  1.
         11    1    3    3    0    0  0.36136551815E+01 -0.36131192946E+01 -0.36205866100E+01  0.62627296341E+01  0.51100000000E-03 0. -1.
        -11    1    3    3    0    0  0.59918275706E+01  0.55884356240E+01  0.12925576044E+02  0.15303696504E+02  0.51100000000E-03 0.  1.
        -12    1    3    3    0    0 -0.25656220526E+02  0.25543938666E+02 -0.10641165652E+02  0.37735511931E+02  0.00000000000E+00 0.  1.
</event>
<event>
 7    1  0.1215217E-011  0.5930195E+02  0.7816164E-02  0.1266605E+00
        -11   -1    0    0    0    0  0.00000000000E+00  0.00000000000E+00  0.45593999997E+02  0.45594000000E+02  0.51100000000E-03 0. -1.
         11   -1    0    0    0    0 -0.00000000000E+00 -0.00000000000E+00 -0.45593999997E+02  0.45594000000E+02  0.51100000000E-03 0.  1.
    9900012    2    1    2    0    0  0.46207345878E+00  0.23285333045E+02  0.21778432064E+02  0.59301947405E+02  0.50000006160E+02 0.  0.
        -12    1    1    2    0    0 -0.46207345878E+00 -0.23285333045E+02 -0.21778432064E+02  0.31886052595E+02  0.00000000000E+00 0.  1.
         11    1    3    3    0    0  0.11373076591E+02 -0.79680447917E+00  0.89247767237E+01  0.14478722607E+02  0.51100000000E-03 0. -1.
        -11    1    3    3    0    0 -0.59668707721E+01 -0.60476761141E+01 -0.45925529697E+01  0.96576123464E+01  0.51100000000E-03 0.  1.
         12    1    3    3    0    0 -0.49441323598E+01  0.30129813639E+02  0.17446208310E+02  0.35165612451E+02  0.00000000000E+00 0. -1.
</event>
<event>
 7    1  0.1215217E-011  0.5930197E+02  0.7816164E-02  0.1266605E+00
        -11   -1    0    0    0    0  0.00000000000E+00  0.00000000000E+00  0.45593999997E+02  0.45594000000E+02  0.51100000000E-03 0.  1.
         11   -1    0    0    0    0 -0.00000000000E+00 -0.00000000000E+00 -0.45593999997E+02  0.45594000000E+02  0.51100000000E-03 0. -1.
    9900012    2    1    2    0    0 -0.25936413644E+02  0.15998241733E+02 -0.93849785125E+01  0.59301966805E+02  0.50000041539E+02 0.  0.
        -12    1    1    2    0    0  0.25936413644E+02 -0.15998241733E+02  0.93849785125E+01  0.31886033195E+02  0.00000000000E+00 0.  1.
         11    1    3    3    0    0 -0.60787626791E+01  0.25627318861E+02 -0.15406996203E+02  0.30513707739E+02  0.51100000000E-03 0. -1.
        -11    1    3    3    0    0  0.14840994728E+01  0.18159781439E+01  0.38054547090E+01  0.44701021988E+01  0.51100000000E-03 0.  1.
         12    1    3    3    0    0 -0.21341750438E+02 -0.11445055272E+02  0.22165629818E+01  0.24318156866E+02  0.00000000000E+00 0. -1.
</event>
<event>
 7    1  0.1215217E-011  0.5930195E+02  0.7816164E-02  0.1266605E+00
        -11   -1    0    0    0    0  0.00000000000E+00  0.00000000000E+00  0.45593999997E+02  0.45594000000E+02  0.51100000000E-03 0.  1.
         11   -1    0    0    0    0 -0.00000000000E+00 -0.00000000000E+00 -0.45593999997E+02  0.45594000000E+02  0.51100000000E-03 0. -1.
    9900012    2    1    2    0    0 -0.83482340263E+01  0.36339007795E+00 -0.30771660622E+02  0.59301950368E+02  0.50000011563E+02 0.  0.
        -12    1    1    2    0    0  0.83482340263E+01 -0.36339007795E+00  0.30771660622E+02  0.31886049632E+02  0.00000000000E+00 0.  1.
         11    1    3    3    0    0  0.48511558982E+01 -0.15872068922E+02 -0.13505536365E+02  0.21397565240E+02  0.51100000000E-03 0. -1.
        -11    1    3    3    0    0  0.74756482764E+01  0.29806874669E+01 -0.88045708304E+01  0.11928549061E+02  0.51100000000E-03 0.  1.
        -12    1    3    3    0    0 -0.20675038201E+02  0.13254771533E+02 -0.84615534262E+01  0.25975836067E+02  0.00000000000E+00 0.  1.
</event>
<event>
 7    1  0.1215217E-011  0.5930195E+02  0.7816164E-02  0.1266605E+00
        -11   -1    0    0    0    0  0.00000000000E+00  0.00000000000E+00  0.45593999997E+02  0.45594000000E+02  0.51100000000E-03 0.  1.
         11   -1    0    0    0    0 -0.00000000000E+00 -0.00000000000E+00 -0.45593999997E+02  0.45594000000E+02  0.51100000000E-03 0. -1.
    9900012    2    1    2    0    0 -0.31467140369E+02  0.51504412598E+01 -0.10988887110E+00  0.59301952209E+02  0.50000014920E+02 0.  0.
        -12    1    1    2    0    0  0.31467140369E+02 -0.51504412598E+01  0.10988887110E+00  0.31886047791E+02  0.00000000000E+00 0.  1.
         11    1    3    3    0    0 -0.17727122391E+00  0.62478482522E+01  0.90478704224E+01  0.10996862840E+02  0.51100000000E-03 0. -1.
        -11    1    3    3    0    0 -0.24962654552E+02  0.62583876009E+01  0.93721128669E+01  0.27388647968E+02  0.51100000000E-03 0.  1.
         12    1    3    3    0    0 -0.63272145930E+01 -0.73557945933E+01 -0.18529872160E+02  0.20916441401E+02  0.00000000000E+00 0. -1.
</event>
<event>
 7    1  0.1215217E-011  0.5930192E+02  0.7816164E-02  0.1266605E+00
        -11   -1    0    0    0    0  0.00000000000E+00  0.00000000000E+00  0.45593999997E+02  0.45594000000E+02  0.51100000000E-03 0.  1.
         11   -1    0    0    0    0 -0.00000000000E+00 -0.00000000000E+00 -0.45593999997E+02  0.45594000000E+02  0.51100000000E-03 0. -1.
    9900012    2    1    2    0    0  0.10609093464E+02  0.23665615165E+02 -0.18550152483E+02  0.59301915850E+02  0.49999948611E+02 0.  0.
        -12    1    1    2    0    0 -0.10609093464E+02 -0.23665615165E+02  0.18550152483E+02  0.31886084150E+02  0.00000000000E+00 0.  1.
         11    1    3    3    0    0  0.11785736038E+02  0.14832551843E+02 -0.49546097484E+01  0.19582040909E+02  0.51100000000E-03 0.  1.
        -11    1    3    3    0    0 -0.67471173716E+01  0.18100439583E+02 -0.19459570805E+02  0.27419416517E+02  0.51100000000E-03 0. -1.
        -12    1    3    3    0    0  0.55704747975E+01 -0.92673762609E+01  0.58640280711E+01  0.12300458424E+02  0.00000000000E+00 0.  1.
</event>
<event>
 7    1  0.1215217E-011  0.5930193E+02  0.7816164E-02  0.1266605E+00
        -11   -1    0    0    0    0  0.00000000000E+00  0.00000000000E+00  0.45593999997E+02  0.45594000000E+02  0.51100000000E-03 0. -1.
         11   -1    0    0    0    0 -0.00000000000E+00 -0.00000000000E+00 -0.45593999997E+02  0.45594000000E+02  0.51100000000E-03 0.  1.
    9900012    2    1    2    0    0  0.43772078805E+01 -0.18053228866E+02  0.25916065240E+02  0.59301930019E+02  0.49999974452E+02 0.  0.
        -12    1    1    2    0    0 -0.43772078805E+01  0.18053228866E+02 -0.25916065240E+02  0.31886069981E+02  0.00000000000E+00 0.  1.
         11    1    3    3    0    0 -0.32617026182E+01  0.12288643038E+02  0.19532798426E+02  0.23306215186E+02  0.51100000000E-03 0. -1.
        -11    1    3    3    0    0 -0.30410420548E+00  0.18024337670E+01  0.18061428660E+01  0.25697079923E+01  0.51100000000E-03 0.  1.
        -12    1    3    3    0    0  0.79430147042E+01 -0.32144305671E+02  0.45771239477E+01  0.33426006841E+02  0.00000000000E+00 0.  1.
</event>
<event>
 7    1  0.1215217E-011  0.5930201E+02  0.7816164E-02  0.1266605E+00
        -11   -1    0    0    0    0  0.00000000000E+00  0.00000000000E+00  0.45593999997E+02  0.45594000000E+02  0.51100000000E-03 0. -1.
         11   -1    0    0    0    0 -0.00000000000E+00 -0.00000000000E+00 -0.45593999997E+02  0.45594000000E+02  0.51100000000E-03 0.  1.
    9900012    2    1    2    0    0  0.14069593956E+02  0.28146007900E+02 -0.51541094430E+01  0.59302014380E+02  0.50000128306E+02 0.  0.
        -12    1    1    2    0    0 -0.14069593956E+02 -0.28146007900E+02  0.51541094430E+01  0.31885985620E+02  0.00000000000E+00 0.  1.
         11    1    3    3    0    0 -0.24356840230E+01  0.23603345368E+02 -0.12340932956E+02  0.26746010837E+02  0.51100000000E-03 0. -1.
        -11    1    3    3    0    0 -0.28943182573E+01  0.99138709717E+01 -0.18483331404E+01  0.10491818311E+02  0.51100000000E-03 0.  1.
        -12    1    3    3    0    0  0.19399596236E+02 -0.53712084394E+01  0.90351566532E+01  0.22064185232E+02  0.00000000000E+00 0.  1.
</event>
<event>
 7    1  0.1215217E-011  0.5930196E+02  0.7816164E-02  0.1266605E+00
        -11   -1    0    0    0    0  0.00000000000E+00  0.00000000000E+00  0.45593999997E+02  0.45594000000E+02  0.51100000000E-03 0.  1.
         11   -1    0    0    0    0 -0.00000000000E+00 -0.00000000000E+00 -0.45593999997E+02  0.45594000000E+02  0.51100000000E-03 0. -1.
    9900012    2    1    2    0    0  0.25676229911E+02  0.58988091969E+01 -0.17962590335E+02  0.59301962555E+02  0.50000033790E+02 0.  0.
        -12    1    1    2    0    0 -0.25676229911E+02 -0.58988091969E+01  0.17962590335E+02  0.31886037445E+02  0.00000000000E+00 0.  1.
         11    1    3    3    0    0  0.58957448818E+01  0.32221794902E+01 -0.37782821556E+01  0.77082854570E+01  0.51100000000E-03 0. -1.
        -11    1    3    3    0    0  0.11075193762E+02  0.23911186221E+02 -0.10421895877E+02  0.28337619118E+02  0.51100000000E-03 0.  1.
        -12    1    3    3    0    0  0.87052912675E+01 -0.21234556515E+02 -0.37624123029E+01  0.23256057980E+02  0.00000000000E+00 0.  1.
</event>
<event>
 7    1  0.1215217E-011  0.5930194E+02  0.7816164E-02  0.1266605E+00
        -11   -1    0    0    0    0  0.00000000000E+00  0.00000000000E+00  0.45593999997E+02  0.45594000000E+02  0.51100000000E-03 0. -1.
         11   -1    0    0    0    0 -0.00000000000E+00 -0.00000000000E+00 -0.45593999997E+02  0.45594000000E+02  0.51100000000E-03 0.  1.
    9900012    2    1    2    0    0  0.24432984528E+02 -0.16441281646E+02 -0.12224329626E+02  0.59301941762E+02  0.49999995869E+02 0.  0.
        -12    1    1    2    0    0 -0.24432984528E+02  0.16441281646E+02  0.12224329626E+02  0.31886058238E+02  0.00000000000E+00 0.  1.
         11    1    3    3    0    0  0.96262836909E+01  0.11728024058E+01  0.76934395254E+01  0.12378603119E+02  0.51100000000E-03 0. -1.
        -11    1    3    3    0    0  0.18078378920E+02  0.21673739406E+01 -0.19763837744E+02  0.26872561784E+02  0.51100000000E-03 0.  1.
         12    1    3    3    0    0 -0.32716780830E+01 -0.19781457993E+02 -0.15393140675E+00  0.20050776860E+02  0.00000000000E+00 0. -1.
</event>
<event>
 7    1  0.1215217E-011  0.5930199E+02  0.7816164E-02  0.1266605E+00
        -11   -1    0    0    0    0  0.00000000000E+00  0.00000000000E+00  0.45593999997E+02  0.45594000000E+02  0.51100000000E-03 0.  1.
         11   -1    0    0    0    0 -0.00000000000E+00 -0.00000000000E+00 -0.45593999997E+02  0.45594000000E+02  0.51100000000E-03 0. -1.
    9900012    2    1    2    0    0 -0.18162258718E+02  0.19391774396E+02 -0.17629777363E+02  0.59301990437E+02  0.50000084640E+02 0.  0.
        -12    1    1    2    0    0  0.18162258718E+02 -0.19391774396E+02  0.17629777363E+02  0.31886009563E+02  0.00000000000E+00 0.  1.
         11    1    3    3    0    0 -0.13177802945E+02  0.30457009353E+02 -0.55575836556E+00  0.33190251231E+02  0.51100000000E-03 0. -1.
        -11    1    3    3    0    0  0.41738739309E+01 -0.12449266825E+01 -0.10059414421E+02  0.10961883269E+02  0.51100000000E-03 0.  1.
        -12    1    3    3    0    0 -0.91583297039E+01 -0.98203082740E+01 -0.70146045761E+01  0.15149855937E+02  0.00000000000E+00 0.  1.
</event>
<event>
 7    1  0.1215217E-011  0.5930194E+02  0.7816164E-02  0.1266605E+00
        -11   -1    0    0    0    0  0.00000000000E+00  0.00000000000E+00  0.45593999997E+02  0.45594000000E+02  0.51100000000E-03 0. -1.
         11   -1    0    0    0    0 -0.00000000000E+00 -0.00000000000E+00 -0.45593999997E+02  0.45594000000E+02  0.51100000000E-03 0.  1.
    9900012    2    1    2    0    0 -0.22484889112E+02 -0.16319477215E+02  0.15646898158E+02  0.59301937262E+02  0.49999987661E+02 0.  0.
        -12    1    1    2    0    0  0.22484889112E+02  0.16319477215E+02 -0.15646898158E+02  0.31886062738E+02  0.00000000000E+00 0.  1.
         11    1    3    3    0    0 -0.20550416894E+02 -0.10231322657E+02 -0.75500938037E+01  0.24166164663E+02  0.51100000000E-03 0. -1.
        -11    1    3    3    0    0  0.44495501146E+01 -0.14865415156E+02  0.14308994836E+02  0.21107496238E+02  0.51100000000E-03 0.  1.
        -12    1    3    3    0    0 -0.63840223328E+01  0.87772605973E+01  0.88879971257E+01  0.14028276360E+02  0.00000000000E+00 0.  1.
</event>
<event>
 7    1  0.1215217E-011  0.5930196E+02  0.7816164E-02  0.1266605E+00
        -11   -1    0    0    0    0  0.00000000000E+00  0.00000000000E+00  0.45593999997E+02  0.45594000000E+02  0.51100000000E-03 0.  1.
         11   -1    0    0    0    0 -0.00000000000E+00 -0.00000000000E+00 -0.45593999997E+02  0.45594000000E+02  0.51100000000E-03 0. -1.
    9900012    2    1    2    0    0 -0.29270154461E+02 -0.12629869612E+02 -0.68099068123E+00  0.59301963920E+02  0.50000036279E+02 0.  0.
        -12    1    1    2    0    0  0.29270154461E+02  0.12629869612E+02  0.68099068123E+00  0.31886036080E+02  0.00000000000E+00 0.  1.
         11    1    3    3    0    0 -0.17735127519E+02 -0.16608119314E+02  0.19700482447E+01  0.24377150482E+02  0.51100000000E-03 0. -1.
        -11    1    3    3    0    0 -0.16353122793E+01  0.18943662186E+01  0.14661261194E+02  0.14873313339E+02  0.51100000000E-03 0.  1.
         12    1    3    3    0    0 -0.98997146624E+01  0.20838834835E+01 -0.17312300120E+02  0.20051500099E+02  0.00000000000E+00 0. -1.
</event>
<event>
 7    1  0.1215217E-011  0.5930193E+02  0.7816164E-02  0.1266605E+00
        -11   -1    0    0    0    0  0.00000000000E+00  0.00000000000E+00  0.45593999997E+02  0.45594000000E+02  0.51100000000E-03 0. -1.
         11   -1    0    0    0    0 -0.00000000000E+00 -0.00000000000E+00 -0.45593999997E+02  0.45594000000E+02  0.51100000000E-03 0.  1.
    9900012    2    1    2    0    0  0.17640879897E+02  0.26161264402E+02  0.45944267397E+01  0.59301934772E+02  0.49999983120E+02 0.  0.
        -12    1    1    2    0    0 -0.17640879897E+02 -0.26161264402E+02 -0.45944267397E+01  0.31886065228E+02  0.00000000000E+00 0.  1.
         11    1    3    3    0    0 -0.92127335278E+01  0.28332265520E+01  0.17334888040E+01  0.97931923010E+01  0.51100000000E-03 0. -1.
        -11    1    3    3    0    0  0.96007712501E+01  0.25311844712E+02 -0.89430649850E+01  0.28510396400E+02  0.51100000000E-03 0.  1.
         12    1    3    3    0    0  0.17252842174E+02 -0.19838068615E+01  0.11804002921E+02  0.20998346071E+02  0.00000000000E+00 0. -1.
</event>
<event>
 7    1  0.1215217E-011  0.5930195E+02  0.7816164E-02  0.1266605E+00
        -11   -1    0    0    0    0  0.00000000000E+00  0.00000000000E+00  0.45593999997E+02  0.45594000000E+02  0.51100000000E-03 0. -1.
         11   -1    0    0    0    0 -0.00000000000E+00 -0.00000000000E+00 -0.45593999997E+02  0.45594000000E+02  0.51100000000E-03 0.  1.
    9900012    2    1    2    0    0  0.11059662705E+02  0.27511381230E+02  0.11727221409E+02  0.59301953548E+02  0.50000017363E+02 0.  0.
        -12    1    1    2    0    0 -0.11059662705E+02 -0.27511381230E+02 -0.11727221409E+02  0.31886046452E+02  0.00000000000E+00 0.  1.
         11    1    3    3    0    0 -0.60686696022E+01 -0.48559233430E+01 -0.36021350722E+01  0.85664531513E+01  0.51100000000E-03 0.  1.
        -11    1    3    3    0    0  0.13898435816E+02  0.25057942328E+02 -0.48222983361E+01  0.29057211728E+02  0.51100000000E-03 0. -1.
         12    1    3    3    0    0  0.32298964904E+01  0.73093622449E+01  0.20151654817E+02  0.21678288670E+02  0.00000000000E+00 0. -1.
</event>
<event>
 7    1  0.1215217E-011  0.5930199E+02  0.7816164E-02  0.1266605E+00
        -11   -1    0    0    0    0  0.00000000000E+00  0.00000000000E+00  0.45593999997E+02  0.45594000000E+02  0.51100000000E-03 0.  1.
         11   -1    0    0    0    0 -0.00000000000E+00 -0.00000000000E+00 -0.45593999997E+02  0.45594000000E+02  0.51100000000E-03 0. -1.
    9900012    2    1    2    0    0 -0.21126939147E+01 -0.27745440643E+02 -0.15570641240E+02  0.59301987068E+02  0.50000078495E+02 0.  0.
        -12    1    1    2    0    0  0.21126939147E+01  0.27745440643E+02  0.15570641240E+02  0.31886012932E+02  0.00000000000E+00 0.  1.
         11    1    3    3    0    0  0.94482274899E-01 -0.30121685182E+01  0.88375686170E+01  0.93372750524E+01  0.51100000000E-03 0. -1.
        -11    1    3    3    0    0  0.10253221887E+02  0.49231722869E+01 -0.74977509833E+01  0.13622865135E+02  0.51100000000E-03 0.  1.
         12    1    3    3    0    0 -0.12460398076E+02 -0.29656444412E+02 -0.16910458874E+02  0.36341846881E+02  0.00000000000E+00 0. -1.
</event>
<event>
 7    1  0.1215217E-011  0.5930196E+02  0.7816164E-02  0.1266605E+00
        -11   -1    0    0    0    0  0.00000000000E+00  0.00000000000E+00  0.45593999997E+02  0.45594000000E+02  0.51100000000E-03 0. -1.
         11   -1    0    0    0    0 -0.00000000000E+00 -0.00000000000E+00 -0.45593999997E+02  0.45594000000E+02  0.51100000000E-03 0.  1.
    9900012    2    1    2    0    0  0.16063807498E+02  0.25778016594E+02  0.97040095364E+01  0.59301955216E+02  0.50000020405E+02 0.  0.
        -12    1    1    2    0    0 -0.16063807498E+02 -0.25778016594E+02 -0.97040095364E+01  0.31886044784E+02  0.00000000000E+00 0.  1.
         11    1    3    3    0    0  0.89250093391E+01  0.14687186717E+02  0.83293604048E+01  0.19098363552E+02  0.51100000000E-03 0. -1.
        -11    1    3    3    0    0 -0.59094983012E+01 -0.96752177403E+01  0.90489428838E+01  0.14505701502E+02  0.51100000000E-03 0.  1.
         12    1    3    3    0    0  0.13048296460E+02  0.20766047618E+02 -0.76742937522E+01  0.25697890162E+02  0.00000000000E+00 0. -1.
</event>
<event>
 7    1  0.1215217E-011  0.5930190E+02  0.7816164E-02  0.1266605E+00
        -11   -1    0    0    0    0  0.00000000000E+00  0.00000000000E+00  0.45593999997E+02  0.45594000000E+02  0.51100000000E-03 0. -1.
         11   -1    0    0    0    0 -0.00000000000E+00 -0.00000000000E+00 -0.45593999997E+02  0.45594000000E+02  0.51100000000E-03 0.  1.
    9900012    2    1    2    0    0  0.36446725226E+01 -0.19204649460E+01  0.31618843403E+02  0.59301904573E+02  0.49999928045E+02 0.  0.
        -12    1    1    2    0    0 -0.36446725226E+01  0.19204649460E+01 -0.31618843403E+02  0.31886095427E+02  0.00000000000E+00 0.  1.
         11    1    3    3    0    0 -0.47378705812E+00 -0.49404879831E+01  0.14887423925E+01  0.51816261791E+01  0.51100000000E-03 0. -1.
        -11    1    3    3    0    0 -0.51094713240E+01 -0.18927409379E+02  0.67045483135E+01  0.20719664364E+02  0.51100000000E-03 0.  1.
        -12    1    3    3    0    0  0.92279309047E+01  0.21947432416E+02  0.23425552697E+02  0.33400614030E+02  0.00000000000E+00 0.  1.
</event>
<event>
 7    1  0.1215217E-011  0.5930194E+02  0.7816164E-02  0.1266605E+00
        -11   -1    0    0    0    0  0.00000000000E+00  0.00000000000E+00  0.45593999997E+02  0.45594000000E+02  0.51100000000E-03 0.  1.
         11   -1    0    0    0    0 -0.00000000000E+00 -0.00000000000E+00 -0.45593999997E+02  0.45594000000E+02  0.51100000000E-03 0. -1.
    9900012    2    1    2    0    0  0.31721544742E+02  0.28140864618E+01  0.15953767643E+01  0.59301941754E+02  0.49999995853E+02 0.  0.
        -12    1    1    2    0    0 -0.31721544742E+02 -0.28140864618E+01 -0.15953767643E+01  0.31886058246E+02  0.00000000000E+00 0.  1.
         11    1    3    3    0    0 -0.20222350672E+01  0.12484298854E+02  0.61148361856E+01  0.14047717764E+02  0.51100000000E-03 0. -1.
        -11    1    3    3    0    0  0.12047112652E+02  0.49344012151E+01  0.89862638086E+01  0.15818791866E+02  0.51100000000E-03 0.  1.
         12    1    3    3    0    0  0.21696667158E+02 -0.14604613607E+02 -0.13505723230E+02  0.29435432124E+02  0.00000000000E+00 0. -1.
</event>
<event>
 7    1  0.1215217E-011  0.5930190E+02  0.7816164E-02  0.1266605E+00
        -11   -1    0    0    0    0  0.00000000000E+00  0.00000000000E+00  0.45593999997E+02  0.45594000000E+02  0.51100000000E-03 0. -1.
         11   -1    0    0    0    0 -0.00000000000E+00 -0.00000000000E+00 -0.45593999997E+02  0.45594000000E+02  0.51100000000E-03 0.  1.
    9900012    2    1    2    0    0  0.12517681227E+02  0.55363727588E+01  0.28798948245E+02  0.59301902926E+02  0.49999925039E+02 0.  0.
        -12    1    1    2    0    0 -0.12517681227E+02 -0.55363727588E+01 -0.28798948245E+02  0.31886097074E+02  0.00000000000E+00 0.  1.
         11    1    3    3    0    0  0.26336389414E+01  0.77187514001E+01  0.61669392809E+00  0.81789662496E+01  0.51100000000E-03 0. -1.
        -11    1    3    3    0    0  0.27840135644E+01  0.17233191767E+02  0.17176147880E+01  0.17540918757E+02  0.51100000000E-03 0.  1.
         12    1    3    3    0    0  0.71000287215E+01 -0.19415570409E+02  0.26464639529E+02  0.33582017919E+02  0.00000000000E+00 0. -1.
</event>
<event>
 7    1  0.1215217E-011  0.5930199E+02  0.7816164E-02  0.1266605E+00
        -11   -1    0    0    0    0  0.00000000000E+00  0.00000000000E+00  0.45593999997E+02  0.45594000000E+02  0.51100000000E-03 0. -1.
         11   -1    0    0    0    0 -0.00000000000E+00 -0.00000000000E+00 -0.45593999997E+02  0.45594000000E+02  0.51100000000E-03 0.  1.
    9900012    2    1    2    0    0  0.29222498231E+02 -0.26080533583E+01  0.12488454746E+02  0.59301986654E+02  0.50000077740E+02 0.  0.
        -12    1    1    2    0    0 -0.29222498231E+02  0.26080533583E+01 -0.12488454746E+02  0.31886013346E+02  0.00000000000E+00 0.  1.
         11    1    3    3    0    0 -0.75615735345E+01  0.43530325486E+00 -0.43804617649E+01  0.87495902062E+01  0.51100000000E-03 0. -1.
        -11    1    3    3    0    0 -0.27196665381E+01 -0.18815419575E+01 -0.45310892542E+01  0.56095950216E+01  0.51100000000E-03 0.  1.
         12    1    3    3    0    0  0.39503738303E+02 -0.11618146557E+01  0.21400005766E+02  0.44942801426E+02  0.00000000000E+00 0. -1.
</event>
<event>
 7    1  0.1215217E-011  0.5930197E+02  0.7816164E-02  0.1266605E+00
        -11   -1    0    0    0    0  0.00000000000E+00  0.00000000000E+00  0.45593999997E+02  0.45594000000E+02  0.51100000000E-03 0.  1.
         11   -1    0    0    0    0 -0.00000000000E+00 -0.00000000000E+00 -0.45593999997E+02  0.45594000000E+02  0.51100000000E-03 0. -1.
    9900012    2    1    2    0    0  0.28774246734E+02  0.10191288362E+02 -0.92140791460E+01  0.59301970330E+02  0.50000047970E+02 0.  0.
        -12    1    1    2    0    0 -0.28774246734E+02 -0.10191288362E+02  0.92140791460E+01  0.31886029670E+02  0.00000000000E+00 0.  1.
         11    1    3    3    0    0  0.72595260959E+01 -0.13184933012E+02 -0.24194627586E+01  0.15244572082E+02  0.51100000000E-03 0. -1.
        -11    1    3    3    0    0 -0.27557085891E+01 -0.51453612572E+01 -0.25418063130E+01  0.63662745692E+01  0.51100000000E-03 0.  1.
        -12    1    3    3    0    0  0.24270429227E+02  0.28521582631E+02 -0.42528100745E+01  0.37691123679E+02  0.00000000000E+00 0.  1.
</event>
<event>
 7    1  0.1215217E-011  0.5930196E+02  0.7816164E-02  0.1266605E+00
        -11   -1    0    0    0    0  0.00000000000E+00  0.00000000000E+00  0.45593999997E+02  0.45594000000E+02  0.51100000000E-03 0.  1.
         11   -1    0    0    0    0 -0.00000000000E+00 -0.00000000000E+00 -0.45593999997E+02  0.45594000000E+02  0.51100000000E-03 0. -1.
    9900012    2    1    2    0    0  0.46811549642E+01 -0.21074535471E+02 -0.23466371299E+02  0.59301955419E+02  0.50000020774E+02 0.  0.
        -12    1    1    2    0    0 -0.46811549642E+01  0.21074535471E+02  0.23466371299E+02  0.31886044581E+02  0.00000000000E+00 0.  1.
         11    1    3    3    0    0  0.52230044455E+00 -0.55524181554E+01 -0.22390533658E+02  0.23074621186E+02  0.51100000000E-03 0. -1.
        -11    1    3    3    0    0 -0.62618173150E+01 -0.14782279655E+02 -0.12794126758E+02  0.20528415127E+02  0.51100000000E-03 0.  1.
        -12    1    3    3    0    0  0.10420671835E+02 -0.73983766074E+00  0.11718289117E+02  0.15698919106E+02  0.00000000000E+00 0.  1.
</event>
<event>
 7    1  0.1215217E-011  0.5930194E+02  0.7816164E-02  0.1266605E+00
        -11   -1    0    0    0    0  0.00000000000E+00  0.00000000000E+00  0.45593999997E+02  0.45594000000E+02  0.51100000000E-03 0.  1.
         11   -1    0    0    0    0 -0.00000000000E+00 -0.00000000000E+00 -0.45593999997E+02  0.45594000000E+02  0.51100000000E-03 0. -1.
    9900012    2    1    2    0    0 -0.30121500553E+02  0.10303748658E+02  0.18024599465E+01  0.59301938879E+02  0.49999990610E+02 0.  0.
        -12    1    1    2    0    0  0.30121500553E+02 -0.10303748658E+02 -0.18024599465E+01  0.31886061121E+02  0.00000000000E+00 0.  1.
         11    1    3    3    0    0  0.11248627326E+01  0.32087806852E+01 -0.93691712018E+01  0.99670938052E+01  0.51100000000E-03 0. -1.
        -11    1    3    3    0    0 -0.20649083142E+02 -0.12769299959E+02  0.11394964165E+02  0.26819486659E+02  0.51100000000E-03 0.  1.
         12    1    3    3    0    0 -0.10597280143E+02  0.19864267932E+02 -0.22333301625E+00  0.22515358415E+02  0.00000000000E+00 0. -1.
</event>
<event>
 7    1  0.1215217E-011  0.5930196E+02  0.7816164E-02  0.1266605E+00
        -11   -1    0    0    0    0  0.00000000000E+00  0.00000000000E+00  0.45593999997E+02  0.45594000000E+02  0.51100000000E-03 0.  1.
         11   -1    0    0    0    0 -0.00000000000E+00 -0.00000000000E+00 -0.45593999997E+02  0.45594000000E+02  0.51100000000E-03 0. -1.
    9900012    2    1    2    0    0  0.22216272832E+02  0.29724690624E+01 -0.22678656418E+02  0.59301955909E+02  0.50000021668E+02 0.  0.
        -12    1    1    2    0    0 -0.22216272832E+02 -0.29724690624E+01  0.22678656418E+02  0.31886044091E+02  0.00000000000E+00 0.  1.
         11    1    3    3    0    0  0.63703707002E+01  0.35755246431E+01 -0.10777072350E+02  0.13019650073E+02  0.51100000000E-03 0. -1.
        -11    1    3    3    0    0 -0.71601927674E+01  0.12387278317E+02 -0.13689147075E+02  0.19801660851E+02  0.51100000000E-03 0.  1.
         12    1    3    3    0    0  0.23006094899E+02 -0.12990333898E+02  0.17875630070E+01  0.26480644984E+02  0.00000000000E+00 0. -1.
</event>
<event>
 7    1  0.1215217E-011  0.5930191E+02  0.7816164E-02  0.1266605E+00
        -11   -1    0    0    0    0  0.00000000000E+00  0.00000000000E+00  0.45593999997E+02  0.45594000000E+02  0.51100000000E-03 0.  1.
         11   -1    0    0    0    0 -0.00000000000E+00 -0.00000000000E+00 -0.45593999997E+02  0.45594000000E+02  0.51100000000E-03 0. -1.
    9900012    2    1    2    0    0  0.18846039070E+02 -0.19924371338E+02  0.16265582453E+02  0.59301906881E+02  0.49999932253E+02 0.  0.
        -12    1    1    2    0    0 -0.18846039070E+02  0.19924371338E+02 -0.16265582453E+02  0.31886093119E+02  0.00000000000E+00 0.  1.
         11    1    3    3    0    0  0.10517794001E+02 -0.32732094169E+02  0.80136435276E+01  0.35302017821E+02  0.51100000000E-03 0.  1.
        -11    1    3    3    0    0  0.54133538279E+01  0.27034976071E+01 -0.44489043671E+01  0.75103960818E+01  0.51100000000E-03 0. -1.
        -12    1    3    3    0    0  0.29148912414E+01  0.10104225224E+02  0.12700843293E+02  0.16489492978E+02  0.00000000000E+00 0.  1.
</event>
<event>
 7    1  0.1215217E-011  0.5930198E+02  0.7816164E-02  0.1266605E+00
        -11   -1    0    0    0    0  0.00000000000E+00  0.00000000000E+00  0.45593999997E+02  0.45594000000E+02  0.51100000000E-03 0. -1.
         11   -1    0    0    0    0 -0.00000000000E+00 -0.00000000000E+00 -0.45593999997E+02  0.45594000000E+02  0.51100000000E-03 0.  1.
    9900012    2    1    2    0    0 -0.15994575582E+00 -0.22105832980E+02 -0.22978796719E+02  0.59301975898E+02  0.50000058124E+02 0.  0.
        -12    1    1    2    0    0  0.15994575582E+00  0.22105832980E+02  0.22978796719E+02  0.31886024102E+02  0.00000000000E+00 0.  1.
         11    1    3    3    0    0  0.14748462698E+02 -0.24930161867E+02 -0.12092294889E+02  0.31388751466E+02  0.51100000000E-03 0. -1.
        -11    1    3    3    0    0  0.70762526517E+00 -0.71189848498E+01 -0.23811277731E+01  0.75399236429E+01  0.51100000000E-03 0.  1.
        -12    1    3    3    0    0 -0.15616033719E+02  0.99433137371E+01 -0.85053740570E+01  0.20373300789E+02  0.00000000000E+00 0.  1.
</event>
<event>
 7    1  0.1215217E-011  0.5930179E+02  0.7816164E-02  0.1266605E+00
        -11   -1    0    0    0    0  0.00000000000E+00  0.00000000000E+00  0.45593999997E+02  0.45594000000E+02  0.51100000000E-03 0.  1.
         11   -1    0    0    0    0 -0.00000000000E+00 -0.00000000000E+00 -0.45593999997E+02  0.45594000000E+02  0.51100000000E-03 0. -1.
    9900012    2    1    2    0    0 -0.16661394051E+02  0.90246777279E+01 -0.25645336237E+02  0.59301794040E+02  0.49999726458E+02 0.  0.
        -12    1    1    2    0    0  0.16661394051E+02 -0.90246777279E+01  0.25645336237E+02  0.31886205960E+02  0.00000000000E+00 0.  1.
         11    1    3    3    0    0 -0.17904642836E+02  0.77170867446E+00 -0.75901817187E+01  0.19462338712E+02  0.51100000000E-03 0. -1.
        -11    1    3    3    0    0 -0.15222192651E+02 -0.27555265764E+01 -0.10213697618E+02  0.18537197607E+02  0.51100000000E-03 0.  1.
        -12    1    3    3    0    0  0.16465441436E+02  0.11008495630E+02 -0.78414568997E+01  0.21302257721E+02  0.00000000000E+00 0.  1.
</event>
<event>
 7    1  0.1215217E-011  0.5930195E+02  0.7816164E-02  0.1266605E+00
        -11   -1    0    0    0    0  0.00000000000E+00  0.00000000000E+00  0.45593999997E+02  0.45594000000E+02  0.51100000000E-03 0.  1.
         11   -1    0    0    0    0 -0.00000000000E+00 -0.00000000000E+00 -0.45593999997E+02  0.45594000000E+02  0.51100000000E-03 0. -1.
    9900012    2    1    2    0    0  0.21430828859E+02 -0.95221885445E+01 -0.21604807564E+02  0.59301949599E+02  0.50000010161E+02 0.  0.
        -12    1    1    2    0    0 -0.21430828859E+02  0.95221885445E+01  0.21604807564E+02  0.31886050401E+02  0.00000000000E+00 0.  1.
         11    1    3    3    0    0 -0.25596528838E+01 -0.31228237079E+01  0.50332467733E+00  0.40690523207E+01  0.51100000000E-03 0. -1.
        -11    1    3    3    0    0  0.97325345928E+01 -0.10567230717E+02 -0.33540891844E+02  0.36488080527E+02  0.51100000000E-03 0.  1.
         12    1    3    3    0    0  0.14257947150E+02  0.41678658802E+01  0.11432759602E+02  0.18744816752E+02  0.00000000000E+00 0. -1.
</event>
<event>
 7    1  0.1215217E-011  0.5930195E+02  0.7816164E-02  0.1266605E+00
        -11   -1    0    0    0    0  0.00000000000E+00  0.00000000000E+00  0.45593999997E+02  0.45594000000E+02  0.51100000000E-03 0.  1.
         11   -1    0    0    0    0 -0.00000000000E+00 -0.00000000000E+00 -0.45593999997E+02  0.45594000000E+02  0.51100000000E-03 0. -1.
    9900012    2    1    2    0    0  0.10538439639E+02  0.30087866727E+02  0.61773870672E+00  0.59301952341E+02  0.50000015161E+02 0.  0.
        -12    1    1    2    0    0 -0.10538439639E+02 -0.30087866727E+02 -0.61773870672E+00  0.31886047659E+02  0.00000000000E+00 0.  1.
         11    1    3    3    0    0  0.13751704536E+02  0.22769170621E+02 -0.10841980217E+02  0.28724432870E+02  0.51100000000E-03 0. -1.
        -11    1    3    3    0    0  0.18592886883E+01  0.60332523778E+01 -0.81342882612E+01  0.10296782724E+02  0.51100000000E-03 0.  1.
        -12    1    3    3    0    0 -0.50725535857E+01  0.12854437283E+01  0.19594007185E+02  0.20280736747E+02  0.00000000000E+00 0.  1.
</event>
<event>
 7    1  0.1215217E-011  0.5930194E+02  0.7816164E-02  0.1266605E+00
        -11   -1    0    0    0    0  0.00000000000E+00  0.00000000000E+00  0.45593999997E+02  0.45594000000E+02  0.51100000000E-03 0.  1.
         11   -1    0    0    0    0 -0.00000000000E+00 -0.00000000000E+00 -0.45593999997E+02  0.45594000000E+02  0.51100000000E-03 0. -1.
    9900012    2    1    2    0    0 -0.13623664921E+02  0.53148166477E+01 -0.28334947922E+02  0.59301940419E+02  0.49999993419E+02 0.  0.
        -12    1    1    2    0    0  0.13623664921E+02 -0.53148166477E+01  0.28334947922E+02  0.31886059581E+02  0.00000000000E+00 0.  1.
         11    1    3    3    0    0  0.16480900266E+01  0.36543838724E+01 -0.33415689762E+01  0.52188893173E+01  0.51100000000E-03 0. -1.
        -11    1    3    3    0    0 -0.92610518554E+01 -0.16702670263E+02  0.37363439677E+01  0.19460383909E+02  0.51100000000E-03 0.  1.
         12    1    3    3    0    0 -0.60107030919E+01  0.18363103039E+02 -0.28729722913E+02  0.34622667193E+02  0.00000000000E+00 0. -1.
</event>
<event>
 7    1  0.1215217E-011  0.5930195E+02  0.7816164E-02  0.1266605E+00
        -11   -1    0    0    0    0  0.00000000000E+00  0.00000000000E+00  0.45593999997E+02  0.45594000000E+02  0.51100000000E-03 0.  1.
         11   -1    0    0    0    0 -0.00000000000E+00 -0.00000000000E+00 -0.45593999997E+02  0.45594000000E+02  0.51100000000E-03 0. -1.
    9900012    2    1    2    0    0  0.15365315509E+02 -0.15540897799E+01  0.27896450778E+02  0.59301951613E+02  0.50000013833E+02 0.  0.
        -12    1    1    2    0    0 -0.15365315509E+02  0.15540897799E+01 -0.27896450778E+02  0.31886048387E+02  0.00000000000E+00 0.  1.
         11    1    3    3    0    0  0.24917251368E+02 -0.18084238752E+01  0.19223234615E+02  0.31522572262E+02  0.51100000000E-03 0. -1.
        -11    1    3    3    0    0  0.27726294688E+01  0.62521874279E+01  0.11875083732E+02  0.13703829235E+02  0.51100000000E-03 0.  1.
        -12    1    3    3    0    0 -0.12324565328E+02 -0.59978533326E+01 -0.32018675695E+01  0.14075550115E+02  0.00000000000E+00 0.  1.
</event>
<event>
 7    1  0.1215217E-011  0.5930196E+02  0.7816164E-02  0.1266605E+00
        -11   -1    0    0    0    0  0.00000000000E+00  0.00000000000E+00  0.45593999997E+02  0.45594000000E+02  0.51100000000E-03 0.  1.
         11   -1    0    0    0    0 -0.00000000000E+00 -0.00000000000E+00 -0.45593999997E+02  0.45594000000E+02  0.51100000000E-03 0. -1.
    9900012    2    1    2    0    0  0.41538607115E+01  0.15777056527E+02 -0.27396153616E+02  0.59301963802E+02  0.50000036064E+02 0.  0.
        -12    1    1    2    0    0 -0.41538607115E+01 -0.15777056527E+02  0.27396153616E+02  0.31886036198E+02  0.00000000000E+00 0.  1.
         11    1    3    3    0    0  0.30876676197E+01  0.26647165780E+02 -0.88343544634E+01  0.28242715069E+02  0.51100000000E-03 0.  1.
        -11    1    3    3    0    0  0.11267686582E+02 -0.86754545982E+01 -0.85209009967E+01  0.16577998295E+02  0.51100000000E-03 0. -1.
        -12    1    3    3    0    0 -0.10201493490E+02 -0.21946546547E+01 -0.10040898156E+02  0.14481250438E+02  0.00000000000E+00 0.  1.
</event>
<event>
 7    1  0.1215217E-011  0.5930194E+02  0.7816164E-02  0.1266605E+00
        -11   -1    0    0    0    0  0.00000000000E+00  0.00000000000E+00  0.45593999997E+02  0.45594000000E+02  0.51100000000E-03 0.  1.
         11   -1    0    0    0    0 -0.00000000000E+00 -0.00000000000E+00 -0.45593999997E+02  0.45594000000E+02  0.51100000000E-03 0. -1.
    9900012    2    1    2    0    0 -0.19756455577E+02  0.25014699130E+02 -0.81736216022E+00  0.59301940501E+02  0.49999993567E+02 0.  0.
        -12    1    1    2    0    0  0.19756455577E+02 -0.25014699130E+02  0.81736216022E+00  0.31886059499E+02  0.00000000000E+00 0.  1.
         11    1    3    3    0    0 -0.13392372726E+02  0.23270777417E+02 -0.52669225066E+01  0.27361016096E+02  0.51100000000E-03 0.  1.
        -11    1    3    3    0    0 -0.47689291873E+01  0.13767535545E+02  0.10906824486E+02  0.18200179703E+02  0.51100000000E-03 0. -1.
         12    1    3    3    0    0 -0.15951536633E+01 -0.12023613833E+02 -0.64572641396E+01  0.13740744702E+02  0.00000000000E+00 0. -1.
</event>
<event>
 7    1  0.1215217E-011  0.5930194E+02  0.7816164E-02  0.1266605E+00
        -11   -1    0    0    0    0  0.00000000000E+00  0.00000000000E+00  0.45593999997E+02  0.45594000000E+02  0.51100000000E-03 0. -1.
         11   -1    0    0    0    0 -0.00000000000E+00 -0.00000000000E+00 -0.45593999997E+02  0.45594000000E+02  0.51100000000E-03 0.  1.
    9900012    2    1    2    0    0 -0.21838211567E+02 -0.19099109475E+02 -0.13230176774E+02  0.59301936514E+02  0.49999986296E+02 0.  0.
        -12    1    1    2    0    0  0.21838211567E+02  0.19099109475E+02  0.13230176774E+02  0.31886063486E+02  0.00000000000E+00 0.  1.
         11    1    3    3    0    0 -0.85636665733E+01 -0.38334875855E+01  0.61415014898E+00  0.94026162802E+01  0.51100000000E-03 0. -1.
        -11    1    3    3    0    0 -0.22585223198E+02  0.51856962437E+01  0.60997622971E+00  0.23180936644E+02  0.51100000000E-03 0.  1.
        -12    1    3    3    0    0  0.93106782041E+01 -0.20451318133E+02 -0.14454303153E+02  0.26718383589E+02  0.00000000000E+00 0.  1.
</event>
<event>
 7    1  0.1215217E-011  0.5930191E+02  0.7816164E-02  0.1266605E+00
        -11   -1    0    0    0    0  0.00000000000E+00  0.00000000000E+00  0.45593999997E+02  0.45594000000E+02  0.51100000000E-03 0.  1.
         11   -1    0    0    0    0 -0.00000000000E+00 -0.00000000000E+00 -0.45593999997E+02  0.45594000000E+02  0.51100000000E-03 0. -1.
    9900012    2    1    2    0    0 -0.18231619969E+02  0.16429527466E+02 -0.20356854905E+02  0.59301907717E+02  0.49999933779E+02 0.  0.
        -12    1    1    2    0    0  0.18231619969E+02 -0.16429527466E+02  0.20356854905E+02  0.31886092283E+02  0.00000000000E+00 0.  1.
         11    1    3    3    0    0 -0.50927333939E+01 -0.93284253175E+01 -0.13747735898E+02  0.17376872414E+02  0.51100000000E-03 0. -1.
        -11    1    3    3    0    0  0.65208384961E+01  0.29072682497E+01  0.59261029770E+01  0.92785904168E+01  0.51100000000E-03 0.  1.
        -12    1    3    3    0    0 -0.19659725071E+02  0.22850684534E+02 -0.12535221984E+02  0.32646444886E+02  0.00000000000E+00 0.  1.
</event>
<event>
 7    1  0.1215217E-011  0.5930195E+02  0.7816164E-02  0.1266605E+00
        -11   -1    0    0    0    0  0.00000000000E+00  0.00000000000E+00  0.45593999997E+02  0.45594000000E+02  0.51100000000E-03 0. -1.
         11   -1    0    0    0    0 -0.00000000000E+00 -0.00000000000E+00 -0.45593999997E+02  0.45594000000E+02  0.51100000000E-03 0.  1.
    9900012    2    1    2    0    0 -0.86441497957E+01 -0.30019004561E+02 -0.63920623211E+01  0.59301946289E+02  0.50000004124E+02 0.  0.
        -12    1    1    2    0    0  0.86441497957E+01  0.30019004561E+02  0.63920623211E+01  0.31886053711E+02  0.00000000000E+00 0.  1.
         11    1    3    3    0    0  0.16851467419E+02 -0.74293247239E+01  0.74541031860E-01  0.18416633152E+02  0.51100000000E-03 0. -1.
        -11    1    3    3    0    0 -0.36987501845E+01 -0.13421203700E+02 -0.97718478975E+01  0.17008776360E+02  0.51100000000E-03 0.  1.
        -12    1    3    3    0    0 -0.21796867030E+02 -0.91684761376E+01  0.33052445445E+01  0.23876536778E+02  0.00000000000E+00 0.  1.
</event>
<event>
 7    1  0.1215217E-011  0.5930195E+02  0.7816164E-02  0.1266605E+00
        -11   -1    0    0    0    0  0.00000000000E+00  0.00000000000E+00  0.45593999997E+02  0.45594000000E+02  0.51100000000E-03 0.  1.
         11   -1    0    0    0    0 -0.00000000000E+00 -0.00000000000E+00 -0.45593999997E+02  0.45594000000E+02  0.51100000000E-03 0. -1.
    9900012    2    1    2    0    0  0.16104446313E+02  0.17610827844E+02 -0.21147719176E+02  0.59301945451E+02  0.50000002595E+02 0.  0.
        -12    1    1    2    0    0 -0.16104446313E+02 -0.17610827844E+02  0.21147719176E+02  0.31886054549E+02  0.00000000000E+00 0.  1.
         11    1    3    3    0    0  0.53594868347E+01  0.18251161020E+01 -0.20379468283E+02  0.21151309077E+02  0.51100000000E-03 0. -1.
        -11    1    3    3    0    0 -0.26172728240E+01  0.24654938740E+01 -0.14420477308E+02  0.14861996606E+02  0.51100000000E-03 0.  1.
        -12    1    3    3    0    0  0.13362232303E+02  0.13320217868E+02  0.13652226415E+02  0.23288639768E+02  0.00000000000E+00 0.  1.
</event>
<event>
 7    1  0.1215217E-011  0.5930195E+02  0.7816164E-02  0.1266605E+00
        -11   -1    0    0    0    0  0.00000000000E+00  0.00000000000E+00  0.45593999997E+02  0.45594000000E+02  0.51100000000E-03 0.  1.
         11   -1    0    0    0    0 -0.00000000000E+00 -0.00000000000E+00 -0.45593999997E+02  0.45594000000E+02  0.51100000000E-03 0. -1.
    9900012    2    1    2    0    0 -0.53879466468E+01  0.30864408551E+02 -0.59226852991E+01  0.59301954691E+02  0.50000019448E+02 0.  0.
        -12    1    1    2    0    0  0.53879466468E+01 -0.30864408551E+02  0.59226852991E+01  0.31886045309E+02  0.00000000000E+00 0.  1.
         11    1    3    3    0    0  0.13329554842E+02  0.90681920668E+01  0.42046498289E+00  0.16127179874E+02  0.51100000000E-03 0.  1.
        -11    1    3    3    0    0 -0.14780741031E+02 -0.28559812835E+01 -0.98133037900E+01  0.17970193824E+02  0.51100000000E-03 0. -1.
         12    1    3    3    0    0 -0.39367604571E+01  0.24652197768E+02  0.34701535080E+01  0.25204580993E+02  0.00000000000E+00 0. -1.
</event>
<event>
 7    1  0.1215217E-011  0.5930201E+02  0.7816164E-02  0.1266605E+00
        -11   -1    0    0    0    0  0.00000000000E+00  0.00000000000E+00  0.45593999997E+02  0.45594000000E+02  0.51100000000E-03 0. -1.
         11   -1    0    0    0    0 -0.00000000000E+00 -0.00000000000E+00 -0.45593999997E+02  0.45594000000E+02  0.51100000000E-03 0.  1.
    9900012    2    1    2    0    0  0.12140581139E+02 -0.19521734555E+02  0.22095803865E+02  0.59302009677E+02  0.50000119729E+02 0.  0.
        -12    1    1    2    0    0 -0.12140581139E+02  0.19521734555E+02 -0.22095803865E+02  0.31885990323E+02  0.00000000000E+00 0.  1.
         11    1    3    3    0    0  0.28400259579E+01  0.66548088352E+01  0.79649795300E+01  0.10760721502E+02  0.51100000000E-03 0. -1.
        -11    1    3    3    0    0 -0.12851585535E+02 -0.11267589534E+02 -0.22133959691E+01  0.17234295653E+02  0.51100000000E-03 0.  1.
         12    1    3    3    0    0  0.22152140717E+02 -0.14908953856E+02  0.16344220304E+02  0.31306992522E+02  0.00000000000E+00 0. -1.
</event>
<event>
 7    1  0.1215217E-011  0.5930194E+02  0.7816164E-02  0.1266605E+00
        -11   -1    0    0    0    0  0.00000000000E+00  0.00000000000E+00  0.45593999997E+02  0.45594000000E+02  0.51100000000E-03 0.  1.
         11   -1    0    0    0    0 -0.00000000000E+00 -0.00000000000E+00 -0.45593999997E+02  0.45594000000E+02  0.51100000000E-03 0. -1.
    9900012    2    1    2    0    0  0.31886898187E+01 -0.29236454736E+02 -0.12320019313E+02  0.59301938717E+02  0.49999990314E+02 0.  0.
        -12    1    1    2    0    0 -0.31886898187E+01  0.29236454736E+02  0.12320019313E+02  0.31886061283E+02  0.00000000000E+00 0.  1.
         11    1    3    3    0    0 -0.69967121635E+01  0.68492461991E+01 -0.83145347140E+01  0.12845140808E+02  0.51100000000E-03 0. -1.
        -11    1    3    3    0    0  0.32537323456E+01 -0.14301806003E+02 -0.15096377835E+02  0.21048255346E+02  0.51100000000E-03 0.  1.
        -12    1    3    3    0    0  0.69316696366E+01 -0.21783894933E+02  0.11090893236E+02  0.25408542563E+02  0.00000000000E+00 0.  1.
</event>
<event>
 7    1  0.1215217E-011  0.5930187E+02  0.7816164E-02  0.1266605E+00
        -11   -1    0    0    0    0  0.00000000000E+00  0.00000000000E+00  0.45593999997E+02  0.45594000000E+02  0.51100000000E-03 0. -1.
         11   -1    0    0    0    0 -0.00000000000E+00 -0.00000000000E+00 -0.45593999997E+02  0.45594000000E+02  0.51100000000E-03 0.  1.
    9900012    2    1    2    0    0 -0.30218629655E+02  0.89422173006E+01  0.48575906114E+01  0.59301874255E+02  0.49999872752E+02 0.  0.
        -12    1    1    2    0    0  0.30218629655E+02 -0.89422173006E+01 -0.48575906114E+01  0.31886125745E+02  0.00000000000E+00 0.  1.
         11    1    3    3    0    0 -0.14716240964E+02  0.10035237995E+02 -0.91473975488E+00  0.17835652464E+02  0.51100000000E-03 0.  1.
        -11    1    3    3    0    0 -0.11266989675E+02  0.16825476035E+02 -0.39705927381E+01  0.20635098911E+02  0.51100000000E-03 0. -1.
        -12    1    3    3    0    0 -0.42353990154E+01 -0.17918496729E+02  0.97429231045E+01  0.20831122880E+02  0.00000000000E+00 0.  1.
</event>
<event>
 7    1  0.1215217E-011  0.5930198E+02  0.7816164E-02  0.1266605E+00
        -11   -1    0    0    0    0  0.00000000000E+00  0.00000000000E+00  0.45593999997E+02  0.45594000000E+02  0.51100000000E-03 0.  1.
         11   -1    0    0    0    0 -0.00000000000E+00 -0.00000000000E+00 -0.45593999997E+02  0.45594000000E+02  0.51100000000E-03 0. -1.
    9900012    2    1    2    0    0 -0.97806479276E+01 -0.30185612623E+02  0.31441918072E+01  0.59301980721E+02  0.50000066920E+02 0.  0.
        -12    1    1    2    0    0  0.97806479276E+01  0.30185612623E+02 -0.31441918072E+01  0.31886019279E+02  0.00000000000E+00 0.  1.
         11    1    3    3    0    0 -0.35194900111E+01 -0.31359202263E+00 -0.84356653429E+01  0.91457968452E+01  0.51100000000E-03 0. -1.
        -11    1    3    3    0    0 -0.10061608911E+02  0.18947599906E+00 -0.90216363103E+01  0.13515243135E+02  0.51100000000E-03 0.  1.
        -12    1    3    3    0    0  0.38004509941E+01 -0.30061496600E+02  0.20601493460E+02  0.36640940741E+02  0.00000000000E+00 0.  1.
</event>
<event>
 7    1  0.1215217E-011  0.5930195E+02  0.7816164E-02  0.1266605E+00
        -11   -1    0    0    0    0  0.00000000000E+00  0.00000000000E+00  0.45593999997E+02  0.45594000000E+02  0.51100000000E-03 0.  1.
         11   -1    0    0    0    0 -0.00000000000E+00 -0.00000000000E+00 -0.45593999997E+02  0.45594000000E+02  0.51100000000E-03 0. -1.
    9900012    2    1    2    0    0 -0.10572003278E+02  0.53658192863E+01 -0.29600010440E+02  0.59301954651E+02  0.50000019375E+02 0.  0.
        -12    1    1    2    0    0  0.10572003278E+02 -0.53658192863E+01  0.29600010440E+02  0.31886045349E+02  0.00000000000E+00 0.  1.
         11    1    3    3    0    0  0.95184433857E+01 -0.46169478055E+01  0.24056441633E+01  0.10849151839E+02  0.51100000000E-03 0. -1.
        -11    1    3    3    0    0 -0.13841722293E+02  0.26656033565E+01  0.94329761543E+00  0.14127580399E+02  0.51100000000E-03 0.  1.
        -12    1    3    3    0    0 -0.62487243710E+01  0.73171637353E+01 -0.32948952219E+02  0.34325222413E+02  0.00000000000E+00 0.  1.
</event>
<event>
 7    1  0.1215217E-011  0.5930195E+02  0.7816164E-02  0.1266605E+00
        -11   -1    0    0    0    0  0.00000000000E+00  0.00000000000E+00  0.45593999997E+02  0.45594000000E+02  0.51100000000E-03 0.  1.
         11   -1    0    0    0    0 -0.00000000000E+00 -0.00000000000E+00 -0.45593999997E+02  0.45594000000E+02  0.51100000000E-03 0. -1.
    9900012    2    1    2    0    0 -0.26124018914E+02 -0.16258870500E+02 -0.83609310835E+01  0.59301946579E+02  0.50000004653E+02 0.  0.
        -12    1    1    2    0    0  0.26124018914E+02  0.16258870500E+02  0.83609310835E+01  0.31886053421E+02  0.00000000000E+00 0.  1.
         11    1    3    3    0    0 -0.39833929762E+01 -0.14360216452E+02 -0.19281944386E+02  0.24369583823E+02  0.51100000000E-03 0. -1.
        -11    1    3    3    0    0  0.14784843995E+01 -0.24617546419E+01 -0.54696600394E+01  0.61776478731E+01  0.51100000000E-03 0.  1.
        -12    1    3    3    0    0 -0.23619110338E+02  0.56310059363E+00  0.16390673342E+02  0.28754714883E+02  0.00000000000E+00 0.  1.
</event>
<event>
 7    1  0.1215217E-011  0.5930204E+02  0.7816164E-02  0.1266604E+00
        -11   -1    0    0    0    0  0.00000000000E+00  0.00000000000E+00  0.45593999997E+02  0.45594000000E+02  0.51100000000E-03 0.  1.
         11   -1    0    0    0    0 -0.00000000000E+00 -0.00000000000E+00 -0.45593999997E+02  0.45594000000E+02  0.51100000000E-03 0. -1.
    9900012    2    1    2    0    0 -0.21096387221E+02 -0.43048590770E+01 -0.23518614011E+02  0.59302038034E+02  0.50000171445E+02 0.  0.
        -12    1    1    2    0    0  0.21096387221E+02  0.43048590770E+01  0.23518614011E+02  0.31885961966E+02  0.00000000000E+00 0.  1.
         11    1    3    3    0    0 -0.93608087266E+01 -0.70519437573E+01  0.88391586303E+01  0.14679420163E+02  0.51100000000E-03 0. -1.
        -11    1    3    3    0    0  0.46773680184E+01  0.79095004374E+01 -0.15259180536E+01  0.93148480888E+01  0.51100000000E-03 0.  1.
         12    1    3    3    0    0 -0.16412946513E+02 -0.51624157572E+01 -0.30831854588E+02  0.35307769783E+02  0.00000000000E+00 0. -1.
</event>
<event>
 7    1  0.1215217E-011  0.5930212E+02  0.7816164E-02  0.1266604E+00
        -11   -1    0    0    0    0  0.00000000000E+00  0.00000000000E+00  0.45593999997E+02  0.45594000000E+02  0.51100000000E-03 0. -1.
         11   -1    0    0    0    0 -0.00000000000E+00 -0.00000000000E+00 -0.45593999997E+02  0.45594000000E+02  0.51100000000E-03 0.  1.
    9900012    2    1    2    0    0  0.12629706543E+02 -0.27876925324E+02  0.89485576875E+01  0.59302123227E+02  0.50000326816E+02 0.  0.
        -12    1    1    2    0    0 -0.12629706543E+02  0.27876925324E+02 -0.89485576875E+01  0.31885876773E+02  0.00000000000E+00 0.  1.
         11    1    3    3    0    0  0.42857091379E+01 -0.66506679682E+00 -0.97389362661E+01  0.10660980092E+02  0.51100000000E-03 0. -1.
        -11    1    3    3    0    0 -0.13655617611E+02 -0.11366233559E+02  0.65463294249E+01  0.18934666273E+02  0.51100000000E-03 0.  1.
         12    1    3    3    0    0  0.21999615016E+02 -0.15845624968E+02  0.12141164529E+02  0.29706476863E+02  0.00000000000E+00 0. -1.
</event>
<event>
 7    1  0.1215217E-011  0.5930196E+02  0.7816164E-02  0.1266605E+00
        -11   -1    0    0    0    0  0.00000000000E+00  0.00000000000E+00  0.45593999997E+02  0.45594000000E+02  0.51100000000E-03 0.  1.
         11   -1    0    0    0    0 -0.00000000000E+00 -0.00000000000E+00 -0.45593999997E+02  0.45594000000E+02  0.51100000000E-03 0. -1.
    9900012    2    1    2    0    0 -0.96285047820E+01 -0.25206029928E+02 -0.16990209840E+02  0.59301964193E+02  0.50000036777E+02 0.  0.
        -12    1    1    2    0    0  0.96285047820E+01  0.25206029928E+02  0.16990209840E+02  0.31886035807E+02  0.00000000000E+00 0.  1.
         11    1    3    3    0    0  0.38350567083E+01 -0.65453049403E+01 -0.78943197757E+01  0.10948468464E+02  0.51100000000E-03 0. -1.
        -11    1    3    3    0    0  0.10125348810E+02 -0.15718131148E+02 -0.14871437531E+02  0.23890206985E+02  0.51100000000E-03 0.  1.
         12    1    3    3    0    0 -0.23588910300E+02 -0.29425938393E+01  0.57755474657E+01  0.24463288744E+02  0.00000000000E+00 0. -1.
</event>
<event>
 7    1  0.1215217E-011  0.5930193E+02  0.7816164E-02  0.1266605E+00
        -11   -1    0    0    0    0  0.00000000000E+00  0.00000000000E+00  0.45593999997E+02  0.45594000000E+02  0.51100000000E-03 0. -1.
         11   -1    0    0    0    0 -0.00000000000E+00 -0.00000000000E+00 -0.45593999997E+02  0.45594000000E+02  0.51100000000E-03 0.  1.
    9900012    2    1    2    0    0  0.80587133776E+01  0.11363658228E+02  0.28681805753E+02  0.59301928262E+02  0.49999971248E+02 0.  0.
        -12    1    1    2    0    0 -0.80587133776E+01 -0.11363658228E+02 -0.28681805753E+02  0.31886071738E+02  0.00000000000E+00 0.  1.
         11    1    3    3    0    0  0.19134279222E+01 -0.93133934151E+01  0.18785942062E+02  0.21054978574E+02  0.51100000000E-03 0. -1.
        -11    1    3    3    0    0  0.25907679889E+01 -0.40671623148E+01 -0.66900779097E+01  0.82468800625E+01  0.51100000000E-03 0.  1.
         12    1    3    3    0    0  0.35545174664E+01  0.24744213958E+02  0.16585941600E+02  0.30000069626E+02  0.00000000000E+00 0. -1.
</event>
<event>
 7    1  0.1215217E-011  0.5930194E+02  0.7816164E-02  0.1266605E+00
        -11   -1    0    0    0    0  0.00000000000E+00  0.00000000000E+00  0.45593999997E+02  0.45594000000E+02  0.51100000000E-03 0.  1.
         11   -1    0    0    0    0 -0.00000000000E+00 -0.00000000000E+00 -0.45593999997E+02  0.45594000000E+02  0.51100000000E-03 0. -1.
    9900012    2    1    2    0    0 -0.27152185521E+02 -0.54210156934E+00 -0.16708845425E+02  0.59301943986E+02  0.49999999925E+02 0.  0.
        -12    1    1    2    0    0  0.27152185521E+02  0.54210156934E+00  0.16708845425E+02  0.31886056014E+02  0.00000000000E+00 0.  1.
         11    1    3    3    0    0 -0.13700793355E+02 -0.18885115617E+01 -0.18824447909E+02  0.23358896674E+02  0.51100000000E-03 0. -1.
        -11    1    3    3    0    0 -0.63497294809E+01  0.15879763695E+02  0.78009265618E+01  0.18797351275E+02  0.51100000000E-03 0.  1.
         12    1    3    3    0    0 -0.71016626848E+01 -0.14533353702E+02 -0.56853240772E+01  0.17145696037E+02  0.00000000000E+00 0. -1.
</event>
<event>
 7    1  0.1215217E-011  0.5930192E+02  0.7816164E-02  0.1266605E+00
        -11   -1    0    0    0    0  0.00000000000E+00  0.00000000000E+00  0.45593999997E+02  0.45594000000E+02  0.51100000000E-03 0. -1.
         11   -1    0    0    0    0 -0.00000000000E+00 -0.00000000000E+00 -0.45593999997E+02  0.45594000000E+02  0.51100000000E-03 0.  1.
    9900012    2    1    2    0    0  0.18020822727E+02 -0.25364656505E+02 -0.69718050881E+01  0.59301922826E+02  0.49999961333E+02 0.  0.
        -12    1    1    2    0    0 -0.18020822727E+02  0.25364656505E+02  0.69718050881E+01  0.31886077174E+02  0.00000000000E+00 0.  1.
         11    1    3    3    0    0  0.10125861187E+01  0.34959296350E+01 -0.14480223307E+02  0.14930630327E+02  0.51100000000E-03 0. -1.
        -11    1    3    3    0    0 -0.60495738927E+01 -0.97605567368E+01 -0.41929242237E+01  0.12224828257E+02  0.51100000000E-03 0.  1.
         12    1    3    3    0    0  0.23057810501E+02 -0.19100029403E+02  0.11701342443E+02  0.32146464242E+02  0.00000000000E+00 0. -1.
</event>
<event>
 7    1  0.1215217E-011  0.5930193E+02  0.7816164E-02  0.1266605E+00
        -11   -1    0    0    0    0  0.00000000000E+00  0.00000000000E+00  0.45593999997E+02  0.45594000000E+02  0.51100000000E-03 0. -1.
         11   -1    0    0    0    0 -0.00000000000E+00 -0.00000000000E+00 -0.45593999997E+02  0.45594000000E+02  0.51100000000E-03 0.  1.
    9900012    2    1    2    0    0  0.12047560215E+02 -0.20654212148E+02  0.21094579376E+02  0.59301929912E+02  0.49999974257E+02 0.  0.
        -12    1    1    2    0    0 -0.12047560215E+02  0.20654212148E+02 -0.21094579376E+02  0.31886070088E+02  0.00000000000E+00 0.  1.
         11    1    3    3    0    0 -0.64636238106E+01 -0.79380847619E+01 -0.78025203128E+01  0.12871322618E+02  0.51100000000E-03 0. -1.
        -11    1    3    3    0    0  0.20382266070E+02 -0.10389191591E+02  0.64269648585E+01  0.23762953302E+02  0.51100000000E-03 0.  1.
         12    1    3    3    0    0 -0.18710820449E+01 -0.23269357955E+01  0.22470134831E+02  0.22667653992E+02  0.00000000000E+00 0. -1.
</event>
<event>
 7    1  0.1215217E-011  0.5930195E+02  0.7816164E-02  0.1266605E+00
        -11   -1    0    0    0    0  0.00000000000E+00  0.00000000000E+00  0.45593999997E+02  0.45594000000E+02  0.51100000000E-03 0. -1.
         11   -1    0    0    0    0 -0.00000000000E+00 -0.00000000000E+00 -0.45593999997E+02  0.45594000000E+02  0.51100000000E-03 0.  1.
    9900012    2    1    2    0    0 -0.60061516561E+01  0.71192507378E+00  0.31307174963E+02  0.59301954475E+02  0.50000019054E+02 0.  0.
        -12    1    1    2    0    0  0.60061516561E+01 -0.71192507378E+00 -0.31307174963E+02  0.31886045525E+02  0.00000000000E+00 0.  1.
         11    1    3    3    0    0  0.54186226726E+01  0.34286071234E+01 -0.47909994472E+00  0.64301131788E+01  0.51100000000E-03 0. -1.
        -11    1    3    3    0    0  0.67328295315E+01 -0.79511192310E+00 -0.71583971449E+01  0.98593025319E+01  0.51100000000E-03 0.  1.
         12    1    3    3    0    0 -0.18157603860E+02 -0.19215701265E+01  0.38944672053E+02  0.43012538765E+02  0.00000000000E+00 0. -1.
</event>
<event>
 7    1  0.1215217E-011  0.5930194E+02  0.7816164E-02  0.1266605E+00
        -11   -1    0    0    0    0  0.00000000000E+00  0.00000000000E+00  0.45593999997E+02  0.45594000000E+02  0.51100000000E-03 0.  1.
         11   -1    0    0    0    0 -0.00000000000E+00 -0.00000000000E+00 -0.45593999997E+02  0.45594000000E+02  0.51100000000E-03 0. -1.
    9900012    2    1    2    0    0 -0.10193240662E+02  0.63599095148E+01 -0.29535912367E+02  0.59301941548E+02  0.49999995478E+02 0.  0.
        -12    1    1    2    0    0  0.10193240662E+02 -0.63599095148E+01  0.29535912367E+02  0.31886058452E+02  0.00000000000E+00 0.  1.
         11    1    3    3    0    0 -0.14650817757E+02  0.25079630020E+02 -0.17524519923E+02  0.33922604583E+02  0.51100000000E-03 0. -1.
        -11    1    3    3    0    0 -0.21935486626E+00  0.10053803359E+01 -0.30427077616E+01  0.32120051309E+01  0.51100000000E-03 0.  1.
        -12    1    3    3    0    0  0.46769319614E+01 -0.19725100841E+02 -0.89686846818E+01  0.22167331835E+02  0.00000000000E+00 0.  1.
</event>
<event>
 7    1  0.1215217E-011  0.5930192E+02  0.7816164E-02  0.1266605E+00
        -11   -1    0    0    0    0  0.00000000000E+00  0.00000000000E+00  0.45593999997E+02  0.45594000000E+02  0.51100000000E-03 0.  1.
         11   -1    0    0    0    0 -0.00000000000E+00 -0.00000000000E+00 -0.45593999997E+02  0.45594000000E+02  0.51100000000E-03 0. -1.
    9900012    2    1    2    0    0  0.12422840979E+02  0.64602039159E+01 -0.28647179175E+02  0.59301920164E+02  0.49999956478E+02 0.  0.
        -12    1    1    2    0    0 -0.12422840979E+02 -0.64602039159E+01  0.28647179175E+02  0.31886079836E+02  0.00000000000E+00 0.  1.
         11    1    3    3    0    0 -0.25871501466E+01  0.16099684844E+02  0.48952449346E+01  0.17025176099E+02  0.51100000000E-03 0. -1.
        -11    1    3    3    0    0  0.11672742009E+02  0.78325197165E+00 -0.71640865273E+01  0.13718255199E+02  0.51100000000E-03 0.  1.
         12    1    3    3    0    0  0.33372491164E+01 -0.10422732900E+02 -0.26378337582E+02  0.28558488867E+02  0.00000000000E+00 0. -1.
</event>
<event>
 7    1  0.1215217E-011  0.5930182E+02  0.7816164E-02  0.1266605E+00
        -11   -1    0    0    0    0  0.00000000000E+00  0.00000000000E+00  0.45593999997E+02  0.45594000000E+02  0.51100000000E-03 0.  1.
         11   -1    0    0    0    0 -0.00000000000E+00 -0.00000000000E+00 -0.45593999997E+02  0.45594000000E+02  0.51100000000E-03 0. -1.
    9900012    2    1    2    0    0  0.22788995038E+02 -0.10802300632E+02 -0.19511540819E+02  0.59301824015E+02  0.49999781125E+02 0.  0.
        -12    1    1    2    0    0 -0.22788995038E+02  0.10802300632E+02  0.19511540819E+02  0.31886175985E+02  0.00000000000E+00 0.  1.
         11    1    3    3    0    0  0.12432308113E+02 -0.48647201565E+01 -0.14648918012E+02  0.19819651521E+02  0.51100000000E-03 0. -1.
        -11    1    3    3    0    0  0.41250519143E+00  0.15043923259E+02 -0.60804662149E+01  0.16231508162E+02  0.51100000000E-03 0.  1.
         12    1    3    3    0    0  0.99441817341E+01 -0.20981503735E+02  0.12178434078E+01  0.23250664333E+02  0.00000000000E+00 0. -1.
</event>
<event>
 7    1  0.1215217E-011  0.5930193E+02  0.7816164E-02  0.1266605E+00
        -11   -1    0    0    0    0  0.00000000000E+00  0.00000000000E+00  0.45593999997E+02  0.45594000000E+02  0.51100000000E-03 0.  1.
         11   -1    0    0    0    0 -0.00000000000E+00 -0.00000000000E+00 -0.45593999997E+02  0.45594000000E+02  0.51100000000E-03 0. -1.
    9900012    2    1    2    0    0 -0.93428967801E+01  0.64867990562E+00 -0.30479676062E+02  0.59301934725E+02  0.49999983034E+02 0.  0.
        -12    1    1    2    0    0  0.93428967801E+01 -0.64867990562E+00  0.30479676062E+02  0.31886065275E+02  0.00000000000E+00 0.  1.
         11    1    3    3    0    0  0.88226048764E+01 -0.82716743655E+01 -0.56277648622E+01  0.13339066355E+02  0.51100000000E-03 0. -1.
        -11    1    3    3    0    0 -0.19262800761E+02 -0.64618740259E+01 -0.51815481720E+01  0.20968065023E+02  0.51100000000E-03 0.  1.
         12    1    3    3    0    0  0.10972991049E+01  0.15382228297E+02 -0.19670363028E+02  0.24994803347E+02  0.00000000000E+00 0. -1.
</event>
<event>
 7    1  0.1215217E-011  0.5930195E+02  0.7816164E-02  0.1266605E+00
        -11   -1    0    0    0    0  0.00000000000E+00  0.00000000000E+00  0.45593999997E+02  0.45594000000E+02  0.51100000000E-03 0.  1.
         11   -1    0    0    0    0 -0.00000000000E+00 -0.00000000000E+00 -0.45593999997E+02  0.45594000000E+02  0.51100000000E-03 0. -1.
    9900012    2    1    2    0    0 -0.18297794173E+02 -0.18916486547E+02 -0.18002153947E+02  0.59301948479E+02  0.50000008119E+02 0.  0.
        -12    1    1    2    0    0  0.18297794173E+02  0.18916486547E+02  0.18002153947E+02  0.31886051521E+02  0.00000000000E+00 0.  1.
         11    1    3    3    0    0  0.33815842388E+00  0.11257862419E+01  0.32592675333E+00  0.12198255169E+01  0.51100000000E-03 0. -1.
        -11    1    3    3    0    0  0.58155792024E+01  0.75324061461E+01  0.82898047394E+01  0.12620577114E+02  0.51100000000E-03 0.  1.
         12    1    3    3    0    0 -0.24451531799E+02 -0.27574678935E+02 -0.26617885439E+02  0.45461545848E+02  0.00000000000E+00 0. -1.
</event>
<event>
 7    1  0.1215217E-011  0.5930195E+02  0.7816164E-02  0.1266605E+00
        -11   -1    0    0    0    0  0.00000000000E+00  0.00000000000E+00  0.45593999997E+02  0.45594000000E+02  0.51100000000E-03 0.  1.
         11   -1    0    0    0    0 -0.00000000000E+00 -0.00000000000E+00 -0.45593999997E+02  0.45594000000E+02  0.51100000000E-03 0. -1.
    9900012    2    1    2    0    0  0.87311433659E+01 -0.15151163376E+02 -0.26663262890E+02  0.59301949695E+02  0.50000010336E+02 0.  0.
        -12    1    1    2    0    0 -0.87311433659E+01  0.15151163376E+02  0.26663262890E+02  0.31886050305E+02  0.00000000000E+00 0.  1.
         11    1    3    3    0    0  0.82081998762E+01  0.53397594005E+01 -0.92909387348E+01  0.13498485785E+02  0.51100000000E-03 0. -1.
        -11    1    3    3    0    0  0.75410297841E+01  0.80463626310E+01 -0.11311301669E+02  0.15797361410E+02  0.51100000000E-03 0.  1.
        -12    1    3    3    0    0 -0.70180862943E+01 -0.28537285408E+02 -0.60610224854E+01  0.30006102500E+02  0.00000000000E+00 0.  1.
</event>
<event>
 7    1  0.1215217E-011  0.5930195E+02  0.7816164E-02  0.1266605E+00
        -11   -1    0    0    0    0  0.00000000000E+00  0.00000000000E+00  0.45593999997E+02  0.45594000000E+02  0.51100000000E-03 0.  1.
         11   -1    0    0    0    0 -0.00000000000E+00 -0.00000000000E+00 -0.45593999997E+02  0.45594000000E+02  0.51100000000E-03 0. -1.
    9900012    2    1    2    0    0 -0.95318086706E+01 -0.10400315929E+02 -0.28595419520E+02  0.59301953436E+02  0.50000017159E+02 0.  0.
        -12    1    1    2    0    0  0.95318086706E+01  0.10400315929E+02  0.28595419520E+02  0.31886046564E+02  0.00000000000E+00 0.  1.
         11    1    3    3    0    0 -0.18563794386E+01 -0.10580767079E+01 -0.12568247145E+02  0.12748588451E+02  0.51100000000E-03 0. -1.
        -11    1    3    3    0    0 -0.20840408348E+02 -0.71551390841E+01  0.40912180465E+01  0.22411084329E+02  0.51100000000E-03 0.  1.
         12    1    3    3    0    0  0.13164979116E+02 -0.21871001370E+01 -0.20118390421E+02  0.24142280656E+02  0.00000000000E+00 0. -1.
</event>
<event>
 7    1  0.1215217E-011  0.5930192E+02  0.7816164E-02  0.1266605E+00
        -11   -1    0    0    0    0  0.00000000000E+00  0.00000000000E+00  0.45593999997E+02  0.45594000000E+02  0.51100000000E-03 0.  1.
         11   -1    0    0    0    0 -0.00000000000E+00 -0.00000000000E+00 -0.45593999997E+02  0.45594000000E+02  0.51100000000E-03 0. -1.
    9900012    2    1    2    0    0  0.25189422681E+01 -0.26308809232E+02 -0.17838830581E+02  0.59301915419E+02  0.49999947825E+02 0.  0.
        -12    1    1    2    0    0 -0.25189422681E+01  0.26308809232E+02  0.17838830581E+02  0.31886084581E+02  0.00000000000E+00 0.  1.
         11    1    3    3    0    0 -0.43197227315E+01  0.86134327078E+00 -0.20543354398E+02  0.21010267178E+02  0.51100000000E-03 0. -1.
        -11    1    3    3    0    0 -0.14101923673E+00  0.45573046849E+01  0.35749263788E+01  0.57938770517E+01  0.51100000000E-03 0.  1.
         12    1    3    3    0    0  0.69796842364E+01 -0.31727457188E+02 -0.87040256156E+00  0.32497771189E+02  0.00000000000E+00 0. -1.
</event>
<event>
 7    1  0.1215217E-011  0.5930191E+02  0.7816164E-02  0.1266605E+00
        -11   -1    0    0    0    0  0.00000000000E+00  0.00000000000E+00  0.45593999997E+02  0.45594000000E+02  0.51100000000E-03 0. -1.
         11   -1    0    0    0    0 -0.00000000000E+00 -0.00000000000E+00 -0.45593999997E+02  0.45594000000E+02  0.51100000000E-03 0.  1.
    9900012    2    1    2    0    0  0.11906609344E+02  0.22217132091E+02  0.19528299786E+02  0.59301909036E+02  0.49999936184E+02 0.  0.
        -12    1    1    2    0    0 -0.11906609344E+02 -0.22217132091E+02 -0.19528299786E+02  0.31886090964E+02  0.00000000000E+00 0.  1.
         11    1    3    3    0    0  0.75973277458E+01  0.26307678842E+01  0.79952018252E+01  0.11338588141E+02  0.51100000000E-03 0. -1.
        -11    1    3    3    0    0  0.10794466009E+02 -0.85943872623E+01  0.13069561042E+02  0.19005194419E+02  0.51100000000E-03 0.  1.
        -12    1    3    3    0    0 -0.64851844107E+01  0.28180751469E+02 -0.15364630809E+01  0.28958126476E+02  0.00000000000E+00 0.  1.
</event>
<event>
 7    1  0.1215217E-011  0.5930197E+02  0.7816164E-02  0.1266605E+00
        -11   -1    0    0    0    0  0.00000000000E+00  0.00000000000E+00  0.45593999997E+02  0.45594000000E+02  0.51100000000E-03 0. -1.
         11   -1    0    0    0    0 -0.00000000000E+00 -0.00000000000E+00 -0.45593999997E+02  0.45594000000E+02  0.51100000000E-03 0.  1.
    9900012    2    1    2    0    0  0.24146168240E+02 -0.18888388404E+02 -0.87698613269E+01  0.59301966617E+02  0.50000041198E+02 0.  0.
        -12    1    1    2    0    0 -0.24146168240E+02  0.18888388404E+02  0.87698613269E+01  0.31886033383E+02  0.00000000000E+00 0.  1.
         11    1    3    3    0    0  0.10478320867E+01  0.57463416671E+01  0.38693105714E+01  0.70064227103E+01  0.51100000000E-03 0. -1.
        -11    1    3    3    0    0 -0.98180004035E+01 -0.10558515152E+02 -0.70948042706E+01  0.16068964560E+02  0.51100000000E-03 0.  1.
         12    1    3    3    0    0  0.32916336557E+02 -0.14076214919E+02 -0.55443676277E+01  0.36226579347E+02  0.00000000000E+00 0. -1.
</event>
<event>
 7    1  0.1215217E-011  0.5930186E+02  0.7816164E-02  0.1266605E+00
        -11   -1    0    0    0    0  0.00000000000E+00  0.00000000000E+00  0.45593999997E+02  0.45594000000E+02  0.51100000000E-03 0. -1.
         11   -1    0    0    0    0 -0.00000000000E+00 -0.00000000000E+00 -0.45593999997E+02  0.45594000000E+02  0.51100000000E-03 0.  1.
    9900012    2    1    2    0    0 -0.12704592633E+02  0.32790273472E+00  0.29243999416E+02  0.59301863576E+02  0.49999853276E+02 0.  0.
        -12    1    1    2    0    0  0.12704592633E+02 -0.32790273472E+00 -0.29243999416E+02  0.31886136424E+02  0.00000000000E+00 0.  1.
         11    1    3    3    0    0 -0.10885038342E+02  0.18164251824E+02  0.10729198420E+02  0.23738993303E+02  0.51100000000E-03 0. -1.
        -11    1    3    3    0    0  0.61854583124E+00  0.61144414778E+01  0.24260596922E+01  0.66071748442E+01  0.51100000000E-03 0.  1.
        -12    1    3    3    0    0 -0.24381001222E+01 -0.23950790568E+02  0.16088741304E+02  0.28955695429E+02  0.00000000000E+00 0.  1.
</event>
<event>
 7    1  0.1215217E-011  0.5930196E+02  0.7816164E-02  0.1266605E+00
        -11   -1    0    0    0    0  0.00000000000E+00  0.00000000000E+00  0.45593999997E+02  0.45594000000E+02  0.51100000000E-03 0. -1.
         11   -1    0    0    0    0 -0.00000000000E+00 -0.00000000000E+00 -0.45593999997E+02  0.45594000000E+02  0.51100000000E-03 0.  1.
    9900012    2    1    2    0    0 -0.26021471209E+02 -0.12426037188E+02  0.13608674082E+02  0.59301962705E+02  0.50000034063E+02 0.  0.
        -12    1    1    2    0    0  0.26021471209E+02  0.12426037188E+02 -0.13608674082E+02  0.31886037295E+02  0.00000000000E+00 0.  1.
         11    1    3    3    0    0 -0.82883113256E+01 -0.36650026296E+01  0.12216941434E+02  0.15211246076E+02  0.51100000000E-03 0. -1.
        -11    1    3    3    0    0 -0.11846316257E+02  0.92387909105E+01  0.14641609883E+02  0.20977778877E+02  0.51100000000E-03 0.  1.
        -12    1    3    3    0    0 -0.58868436265E+01 -0.17999825469E+02 -0.13249877236E+02  0.23112937753E+02  0.00000000000E+00 0.  1.
</event>
<event>
 7    1  0.1215217E-011  0.5930192E+02  0.7816164E-02  0.1266605E+00
        -11   -1    0    0    0    0  0.00000000000E+00  0.00000000000E+00  0.45593999997E+02  0.45594000000E+02  0.51100000000E-03 0.  1.
         11   -1    0    0    0    0 -0.00000000000E+00 -0.00000000000E+00 -0.45593999997E+02  0.45594000000E+02  0.51100000000E-03 0. -1.
    9900012    2    1    2    0    0 -0.23160495893E+01 -0.63946983586E+01 -0.31152297954E+02  0.59301922778E+02  0.49999961246E+02 0.  0.
        -12    1    1    2    0    0  0.23160495893E+01  0.63946983586E+01  0.31152297954E+02  0.31886077222E+02  0.00000000000E+00 0.  1.
         11    1    3    3    0    0 -0.52982061173E+01  0.75652079841E+01 -0.40415818454E+01  0.10081554641E+02  0.51100000000E-03 0. -1.
        -11    1    3    3    0    0 -0.17154084769E+02 -0.49447163554E+01 -0.17997600392E+02  0.25350078190E+02  0.51100000000E-03 0.  1.
         12    1    3    3    0    0  0.20136241297E+02 -0.90151899873E+01 -0.91131157161E+01  0.23870289947E+02  0.00000000000E+00 0. -1.
</event>
<event>
 7    1  0.1215217E-011  0.5930198E+02  0.7816164E-02  0.1266605E+00
        -11   -1    0    0    0    0  0.00000000000E+00  0.00000000000E+00  0.45593999997E+02  0.45594000000E+02  0.51100000000E-03 0.  1.
         11   -1    0    0    0    0 -0.00000000000E+00 -0.00000000000E+00 -0.45593999997E+02  0.45594000000E+02  0.51100000000E-03 0. -1.
    9900012    2    1    2    0    0  0.73863918472E+01 -0.17655814451E+01 -0.30968407397E+02  0.59301979253E+02  0.50000064242E+02 0.  0.
        -12    1    1    2    0    0 -0.73863918472E+01  0.17655814451E+01  0.30968407397E+02  0.31886020747E+02  0.00000000000E+00 0.  1.
         11    1    3    3    0    0  0.19779614781E+02  0.22052951839E+01 -0.46701482658E+01  0.20442768228E+02  0.51100000000E-03 0.  1.
        -11    1    3    3    0    0 -0.99498819909E+01 -0.14161859501E+02 -0.11710058343E+02  0.20896982624E+02  0.51100000000E-03 0. -1.
        -12    1    3    3    0    0 -0.24433409431E+01  0.10190982872E+02 -0.14588200789E+02  0.17962228400E+02  0.00000000000E+00 0.  1.
</event>
<event>
 7    1  0.1215217E-011  0.5930195E+02  0.7816164E-02  0.1266605E+00
        -11   -1    0    0    0    0  0.00000000000E+00  0.00000000000E+00  0.45593999997E+02  0.45594000000E+02  0.51100000000E-03 0.  1.
         11   -1    0    0    0    0 -0.00000000000E+00 -0.00000000000E+00 -0.45593999997E+02  0.45594000000E+02  0.51100000000E-03 0. -1.
    9900012    2    1    2    0    0 -0.11415038986E+02 -0.16145038026E+01 -0.29728952381E+02  0.59301947449E+02  0.50000006240E+02 0.  0.
        -12    1    1    2    0    0  0.11415038986E+02  0.16145038026E+01  0.29728952381E+02  0.31886052551E+02  0.00000000000E+00 0.  1.
         11    1    3    3    0    0  0.33150617874E+01 -0.16791491103E+02  0.27677822767E+00  0.17117839074E+02  0.51100000000E-03 0.  1.
        -11    1    3    3    0    0 -0.74840046078E+01 -0.54511024904E-01  0.31141900038E+00  0.74906794402E+01  0.51100000000E-03 0. -1.
         12    1    3    3    0    0 -0.72460961653E+01  0.15231498325E+02 -0.30317149609E+02  0.34693428935E+02  0.00000000000E+00 0. -1.
</event>
<event>
 7    1  0.1215217E-011  0.5930194E+02  0.7816164E-02  0.1266605E+00
        -11   -1    0    0    0    0  0.00000000000E+00  0.00000000000E+00  0.45593999997E+02  0.45594000000E+02  0.51100000000E-03 0.  1.
         11   -1    0    0    0    0 -0.00000000000E+00 -0.00000000000E+00 -0.45593999997E+02  0.45594000000E+02  0.51100000000E-03 0. -1.
    9900012    2    1    2    0    0  0.74028724149E+01  0.87505899539E+01 -0.29754750311E+02  0.59301944888E+02  0.50000001568E+02 0.  0.
        -12    1    1    2    0    0 -0.74028724149E+01 -0.87505899539E+01  0.29754750311E+02  0.31886055112E+02  0.00000000000E+00 0.  1.
         11    1    3    3    0    0  0.69087758251E+01  0.11457410932E+01 -0.28076113957E+02  0.28936345333E+02  0.51100000000E-03 0. -1.
        -11    1    3    3    0    0  0.12343175386E+02  0.12145043293E+02  0.11867436769E+01  0.17356970244E+02  0.51100000000E-03 0.  1.
         12    1    3    3    0    0 -0.11849078797E+02 -0.45401944327E+01 -0.28653800312E+01  0.13008629311E+02  0.00000000000E+00 0. -1.
</event>
<event>
 7    1  0.1215217E-011  0.5930196E+02  0.7816164E-02  0.1266605E+00
        -11   -1    0    0    0    0  0.00000000000E+00  0.00000000000E+00  0.45593999997E+02  0.45594000000E+02  0.51100000000E-03 0.  1.
         11   -1    0    0    0    0 -0.00000000000E+00 -0.00000000000E+00 -0.45593999997E+02  0.45594000000E+02  0.51100000000E-03 0. -1.
    9900012    2    1    2    0    0 -0.11566356499E+02 -0.35928032109E+00 -0.29712118992E+02  0.59301957598E+02  0.50000024750E+02 0.  0.
        -12    1    1    2    0    0  0.11566356499E+02  0.35928032109E+00  0.29712118992E+02  0.31886042402E+02  0.00000000000E+00 0.  1.
         11    1    3    3    0    0 -0.57518882552E+01 -0.15581216346E+01  0.47348990835E+01  0.76112568686E+01  0.51100000000E-03 0. -1.
        -11    1    3    3    0    0 -0.14141516648E+02 -0.13554975661E+02 -0.26562479836E+02  0.33004320832E+02  0.51100000000E-03 0.  1.
         12    1    3    3    0    0  0.83270484038E+01  0.14753816974E+02 -0.78845382398E+01  0.18686379898E+02  0.00000000000E+00 0. -1.
</event>
<event>
 7    1  0.1215217E-011  0.5930201E+02  0.7816164E-02  0.1266605E+00
        -11   -1    0    0    0    0  0.00000000000E+00  0.00000000000E+00  0.45593999997E+02  0.45594000000E+02  0.51100000000E-03 0.  1.
         11   -1    0    0    0    0 -0.00000000000E+00 -0.00000000000E+00 -0.45593999997E+02  0.45594000000E+02  0.51100000000E-03 0. -1.
    9900012    2    1    2    0    0  0.48184051718E+01  0.43837841342E+01 -0.31213485500E+02  0.59302011403E+02  0.50000122876E+02 0.  0.
        -12    1    1    2    0    0 -0.48184051718E+01 -0.43837841342E+01  0.31213485500E+02  0.31885988597E+02  0.00000000000E+00 0.  1.
         11    1    3    3    0    0  0.92829621147E+01  0.19099746816E+00 -0.73162801841E+01  0.11821075317E+02  0.51100000000E-03 0. -1.
        -11    1    3    3    0    0  0.90528461834E+01  0.16149031699E+02 -0.12957564619E+01  0.18558670046E+02  0.51100000000E-03 0.  1.
         12    1    3    3    0    0 -0.13517403126E+02 -0.11956245032E+02 -0.22601448854E+02  0.28922266040E+02  0.00000000000E+00 0. -1.
</event>
<event>
 7    1  0.1215217E-011  0.5930193E+02  0.7816164E-02  0.1266605E+00
        -11   -1    0    0    0    0  0.00000000000E+00  0.00000000000E+00  0.45593999997E+02  0.45594000000E+02  0.51100000000E-03 0.  1.
         11   -1    0    0    0    0 -0.00000000000E+00 -0.00000000000E+00 -0.45593999997E+02  0.45594000000E+02  0.51100000000E-03 0. -1.
    9900012    2    1    2    0    0 -0.26560138748E+02  0.67697270761E+01 -0.16292675775E+02  0.59301930018E+02  0.49999974449E+02 0.  0.
        -12    1    1    2    0    0  0.26560138748E+02 -0.67697270761E+01  0.16292675775E+02  0.31886069982E+02  0.00000000000E+00 0.  1.
         11    1    3    3    0    0  0.64402854580E+00 -0.80669324823E+01  0.93376359530E+01  0.12356440341E+02  0.51100000000E-03 0. -1.
        -11    1    3    3    0    0 -0.11947206113E+02 -0.33712926165E+01 -0.58676545736E+00  0.12427616093E+02  0.51100000000E-03 0.  1.
         12    1    3    3    0    0 -0.15256961182E+02  0.18207952175E+02 -0.25043546271E+02  0.34517873583E+02  0.00000000000E+00 0. -1.
</event>
<event>
 7    1  0.1215217E-011  0.5930195E+02  0.7816164E-02  0.1266605E+00
        -11   -1    0    0    0    0  0.00000000000E+00  0.00000000000E+00  0.45593999997E+02  0.45594000000E+02  0.51100000000E-03 0.  1.
         11   -1    0    0    0    0 -0.00000000000E+00 -0.00000000000E+00 -0.45593999997E+02  0.45594000000E+02  0.51100000000E-03 0. -1.
    9900012    2    1    2    0    0  0.22914687339E+01 -0.29700921454E+02 -0.11372097227E+02  0.59301950393E+02  0.50000011609E+02 0.  0.
        -12    1    1    2    0    0 -0.22914687339E+01  0.29700921454E+02  0.11372097227E+02  0.31886049607E+02  0.00000000000E+00 0.  1.
         11    1    3    3    0    0  0.14599093537E+01 -0.26828303599E+02 -0.42210381141E+01  0.27197543498E+02  0.51100000000E-03 0. -1.
        -11    1    3    3    0    0  0.10745589591E+02  0.36284202972E+01 -0.14306657168E+02  0.18256877309E+02  0.51100000000E-03 0.  1.
        -12    1    3    3    0    0 -0.99140302111E+01 -0.65010381527E+01  0.71555980552E+01  0.13847529585E+02  0.00000000000E+00 0.  1.
</event>
<event>
 7    1  0.1215217E-011  0.5930206E+02  0.7816164E-02  0.1266604E+00
        -11   -1    0    0    0    0  0.00000000000E+00  0.00000000000E+00  0.45593999997E+02  0.45594000000E+02  0.51100000000E-03 0. -1.
         11   -1    0    0    0    0 -0.00000000000E+00 -0.00000000000E+00 -0.45593999997E+02  0.45594000000E+02  0.51100000000E-03 0.  1.
    9900012    2    1    2    0    0 -0.58707765867E+01  0.65420374910E+01  0.30650433426E+02  0.59302057306E+02  0.50000206592E+02 0.  0.
        -12    1    1    2    0    0  0.58707765867E+01 -0.65420374910E+01 -0.30650433426E+02  0.31885942694E+02  0.00000000000E+00 0.  1.
         11    1    3    3    0    0  0.12251409982E+02  0.13649914751E+02  0.66022712417E+01  0.19493773495E+02  0.51100000000E-03 0. -1.
        -11    1    3    3    0    0  0.45980965565E+01  0.43005623227E+01  0.45205678295E+01  0.77506684871E+01  0.51100000000E-03 0.  1.
         12    1    3    3    0    0 -0.22720283125E+02 -0.11408439583E+02  0.19527594355E+02  0.32057615324E+02  0.00000000000E+00 0. -1.
</event>
<event>
 7    1  0.1215217E-011  0.5930191E+02  0.7816164E-02  0.1266605E+00
        -11   -1    0    0    0    0  0.00000000000E+00  0.00000000000E+00  0.45593999997E+02  0.45594000000E+02  0.51100000000E-03 0.  1.
         11   -1    0    0    0    0 -0.00000000000E+00 -0.00000000000E+00 -0.45593999997E+02  0.45594000000E+02  0.51100000000E-03 0. -1.
    9900012    2    1    2    0    0 -0.28154356164E+02 -0.77794611926E+01 -0.12788085424E+02  0.59301907165E+02  0.49999932772E+02 0.  0.
        -12    1    1    2    0    0  0.28154356164E+02  0.77794611926E+01  0.12788085424E+02  0.31886092835E+02  0.00000000000E+00 0.  1.
         11    1    3    3    0    0 -0.20035815117E+02 -0.84113990575E+01 -0.24136980296E+00  0.21731170727E+02  0.51100000000E-03 0. -1.
        -11    1    3    3    0    0 -0.11245025714E+01  0.52631791568E+01  0.11178300821E+02  0.12406448742E+02  0.51100000000E-03 0.  1.
         12    1    3    3    0    0 -0.69940384752E+01 -0.46312412919E+01 -0.23725016443E+02  0.25164287697E+02  0.00000000000E+00 0. -1.
</event>
<event>
 7    1  0.1215217E-011  0.5930195E+02  0.7816164E-02  0.1266605E+00
        -11   -1    0    0    0    0  0.00000000000E+00  0.00000000000E+00  0.45593999997E+02  0.45594000000E+02  0.51100000000E-03 0. -1.
         11   -1    0    0    0    0 -0.00000000000E+00 -0.00000000000E+00 -0.45593999997E+02  0.45594000000E+02  0.51100000000E-03 0.  1.
    9900012    2    1    2    0    0  0.25987884201E+02 -0.17642003979E+02  0.54872490405E+01  0.59301947694E+02  0.50000006687E+02 0.  0.
        -12    1    1    2    0    0 -0.25987884201E+02  0.17642003979E+02 -0.54872490405E+01  0.31886052306E+02  0.00000000000E+00 0.  1.
         11    1    3    3    0    0  0.12328317351E+02 -0.15689344605E+00  0.15308944103E+02  0.19656444085E+02  0.51100000000E-03 0. -1.
        -11    1    3    3    0    0  0.19702514062E+02  0.21465109512E+00 -0.47892275608E+01  0.20277372521E+02  0.51100000000E-03 0.  1.
        -12    1    3    3    0    0 -0.60429472124E+01 -0.17699761628E+02 -0.50324675019E+01  0.19368131088E+02  0.00000000000E+00 0.  1.
</event>
<event>
 7    1  0.1215217E-011  0.5930204E+02  0.7816164E-02  0.1266604E+00
        -11   -1    0    0    0    0  0.00000000000E+00  0.00000000000E+00  0.45593999997E+02  0.45594000000E+02  0.51100000000E-03 0.  1.
         11   -1    0    0    0    0 -0.00000000000E+00 -0.00000000000E+00 -0.45593999997E+02  0.45594000000E+02  0.51100000000E-03 0. -1.
    9900012    2    1    2    0    0 -0.22378171173E+02  0.99187838835E+01 -0.20434032320E+02  0.59302039208E+02  0.50000173585E+02 0.  0.
        -12    1    1    2    0    0  0.22378171173E+02 -0.99187838835E+01  0.20434032320E+02  0.31885960792E+02  0.00000000000E+00 0.  1.
         11    1    3    3    0    0  0.78069750660E+01 -0.12175755596E+01  0.13373735364E+01  0.80137330978E+01  0.51100000000E-03 0. -1.
        -11    1    3    3    0    0 -0.52290036334E+00  0.84632723796E+01 -0.19684123201E+02  0.21432804544E+02  0.51100000000E-03 0.  1.
        -12    1    3    3    0    0 -0.29662245876E+02  0.26730870636E+01 -0.20872826550E+01  0.29855501566E+02  0.00000000000E+00 0.  1.
</event>
<event>
 7    1  0.1215217E-011  0.5930188E+02  0.7816164E-02  0.1266605E+00
        -11   -1    0    0    0    0  0.00000000000E+00  0.00000000000E+00  0.45593999997E+02  0.45594000000E+02  0.51100000000E-03 0.  1.
         11   -1    0    0    0    0 -0.00000000000E+00 -0.00000000000E+00 -0.45593999997E+02  0.45594000000E+02  0.51100000000E-03 0. -1.
    9900012    2    1    2    0    0  0.14056156392E+02  0.19411443537E+01 -0.28554874094E+02  0.59301883767E+02  0.49999890099E+02 0.  0.
        -12    1    1    2    0    0 -0.14056156392E+02 -0.19411443537E+01  0.28554874094E+02  0.31886116233E+02  0.00000000000E+00 0.  1.
         11    1    3    3    0    0 -0.40537867934E+01  0.32842743554E+01 -0.34769176689E+01  0.62696572590E+01  0.51100000000E-03 0. -1.
        -11    1    3    3    0    0 -0.10736191578E+02  0.85762241121E+01 -0.31891943705E+00  0.13744785902E+02  0.51100000000E-03 0.  1.
         12    1    3    3    0    0  0.28846134763E+02 -0.99193541138E+01 -0.24759036988E+02  0.39287440606E+02  0.00000000000E+00 0. -1.
</event>
<event>
 7    1  0.1215217E-011  0.5930194E+02  0.7816164E-02  0.1266605E+00
        -11   -1    0    0    0    0  0.00000000000E+00  0.00000000000E+00  0.45593999997E+02  0.45594000000E+02  0.51100000000E-03 0.  1.
         11   -1    0    0    0    0 -0.00000000000E+00 -0.00000000000E+00 -0.45593999997E+02  0.45594000000E+02  0.51100000000E-03 0. -1.
    9900012    2    1    2    0    0 -0.28812675369E+02 -0.96413730000E+01 -0.96744241673E+01  0.59301940065E+02  0.49999992772E+02 0.  0.
        -12    1    1    2    0    0  0.28812675369E+02  0.96413730000E+01  0.96744241673E+01  0.31886059935E+02  0.00000000000E+00 0.  1.
         11    1    3    3    0    0 -0.46827632238E+01  0.75406451664E+01 -0.85903809398E+01  0.12352499581E+02  0.51100000000E-03 0. -1.
        -11    1    3    3    0    0  0.90527173045E+01 -0.41406117720E+01  0.43873509413E+01  0.10878658235E+02  0.51100000000E-03 0.  1.
         12    1    3    3    0    0 -0.33182629450E+02 -0.13041406394E+02 -0.54713941688E+01  0.36070782249E+02  0.00000000000E+00 0. -1.
</event>
<event>
 7    1  0.1215217E-011  0.5930193E+02  0.7816164E-02  0.1266605E+00
        -11   -1    0    0    0    0  0.00000000000E+00  0.00000000000E+00  0.45593999997E+02  0.45594000000E+02  0.51100000000E-03 0.  1.
         11   -1    0    0    0    0 -0.00000000000E+00 -0.00000000000E+00 -0.45593999997E+02  0.45594000000E+02  0.51100000000E-03 0. -1.
    9900012    2    1    2    0    0 -0.90772263976E+01 -0.17848807360E+02 -0.24814225785E+02  0.59301925225E+02  0.49999965708E+02 0.  0.
        -12    1    1    2    0    0  0.90772263976E+01  0.17848807360E+02  0.24814225785E+02  0.31886074775E+02  0.00000000000E+00 0.  1.
         11    1    3    3    0    0 -0.80730888341E+01 -0.80068624252E+01  0.56546392619E+01  0.12698801308E+02  0.51100000000E-03 0.  1.
        -11    1    3    3    0    0  0.63926385291E+01 -0.71148592379E+01 -0.35820007702E+02  0.37075059020E+02  0.51100000000E-03 0. -1.
         12    1    3    3    0    0 -0.73967760927E+01 -0.27270856970E+01  0.53511426548E+01  0.95280648967E+01  0.00000000000E+00 0. -1.
</event>
<event>
 7    1  0.1215217E-011  0.5930194E+02  0.7816164E-02  0.1266605E+00
        -11   -1    0    0    0    0  0.00000000000E+00  0.00000000000E+00  0.45593999997E+02  0.45594000000E+02  0.51100000000E-03 0. -1.
         11   -1    0    0    0    0 -0.00000000000E+00 -0.00000000000E+00 -0.45593999997E+02  0.45594000000E+02  0.51100000000E-03 0.  1.
    9900012    2    1    2    0    0 -0.26546087001E+02 -0.17619614284E+02  0.12550076020E+01  0.59301943695E+02  0.49999999394E+02 0.  0.
        -12    1    1    2    0    0  0.26546087001E+02  0.17619614284E+02 -0.12550076020E+01  0.31886056305E+02  0.00000000000E+00 0.  1.
         11    1    3    3    0    0  0.76220291893E+01  0.19243853988E+01 -0.86836348419E+01  0.11713415491E+02  0.51100000000E-03 0. -1.
        -11    1    3    3    0    0 -0.11973254119E+02 -0.24372913271E+01  0.14752670559E+02  0.19155690854E+02  0.51100000000E-03 0.  1.
         12    1    3    3    0    0 -0.22194862071E+02 -0.17106708355E+02 -0.48140281148E+01  0.28432837351E+02  0.00000000000E+00 0. -1.
</event>
<event>
 7    1  0.1215217E-011  0.5930202E+02  0.7816164E-02  0.1266605E+00
        -11   -1    0    0    0    0  0.00000000000E+00  0.00000000000E+00  0.45593999997E+02  0.45594000000E+02  0.51100000000E-03 0.  1.
         11   -1    0    0    0    0 -0.00000000000E+00 -0.00000000000E+00 -0.45593999997E+02  0.45594000000E+02  0.51100000000E-03 0. -1.
    9900012    2    1    2    0    0 -0.30706755185E+02 -0.96787719830E+00  0.85366414942E+01  0.59302017997E+02  0.50000134902E+02 0.  0.
        -12    1    1    2    0    0  0.30706755185E+02  0.96787719830E+00 -0.85366414942E+01  0.31885982003E+02  0.00000000000E+00 0.  1.
         11    1    3    3    0    0 -0.64433969294E+01 -0.85264392070E+00  0.93874857056E+01  0.11417935618E+02  0.51100000000E-03 0. -1.
        -11    1    3    3    0    0 -0.81742872664E+01 -0.10089960932E+02  0.17317855465E+02  0.21645655501E+02  0.51100000000E-03 0.  1.
         12    1    3    3    0    0 -0.16089070990E+02  0.99747276545E+01 -0.18168699676E+02  0.26238426878E+02  0.00000000000E+00 0. -1.
</event>
<event>
 7    1  0.1215217E-011  0.5930193E+02  0.7816164E-02  0.1266605E+00
        -11   -1    0    0    0    0  0.00000000000E+00  0.00000000000E+00  0.45593999997E+02  0.45594000000E+02  0.51100000000E-03 0.  1.
         11   -1    0    0    0    0 -0.00000000000E+00 -0.00000000000E+00 -0.45593999997E+02  0.45594000000E+02  0.51100000000E-03 0. -1.
    9900012    2    1    2    0    0 -0.30431468950E+02 -0.64432995922E+00  0.94990605195E+01  0.59301927581E+02  0.49999970005E+02 0.  0.
        -12    1    1    2    0    0  0.30431468950E+02  0.64432995922E+00 -0.94990605195E+01  0.31886072419E+02  0.00000000000E+00 0.  1.
         11    1    3    3    0    0  0.59274428886E+01 -0.68868786717E+01 -0.48598845464E+01  0.10304472578E+02  0.51100000000E-03 0. -1.
        -11    1    3    3    0    0  0.42407280934E+01 -0.30491005667E+00 -0.20504438158E+01  0.47202823017E+01  0.51100000000E-03 0.  1.
        -12    1    3    3    0    0 -0.40599639932E+02  0.65474587691E+01  0.16409388882E+02  0.44277172702E+02  0.00000000000E+00 0.  1.
</event>
<event>
 7    1  0.1215217E-011  0.5930195E+02  0.7816164E-02  0.1266605E+00
        -11   -1    0    0    0    0  0.00000000000E+00  0.00000000000E+00  0.45593999997E+02  0.45594000000E+02  0.51100000000E-03 0.  1.
         11   -1    0    0    0    0 -0.00000000000E+00 -0.00000000000E+00 -0.45593999997E+02  0.45594000000E+02  0.51100000000E-03 0. -1.
    9900012    2    1    2    0    0 -0.37643449016E+01 -0.28285635357E+02 -0.14229280092E+02  0.59301954902E+02  0.50000019831E+02 0.  0.
        -12    1    1    2    0    0  0.37643449016E+01  0.28285635357E+02  0.14229280092E+02  0.31886045098E+02  0.00000000000E+00 0.  1.
         11    1    3    3    0    0 -0.89366456460E+01 -0.17789650900E+02 -0.19084034873E+02  0.27577811767E+02  0.51100000000E-03 0. -1.
        -11    1    3    3    0    0 -0.96871096178E+01 -0.12389640904E+02 -0.71294210718E+00  0.15743302741E+02  0.51100000000E-03 0.  1.
        -12    1    3    3    0    0  0.14859410362E+02  0.18936564473E+01  0.55676968882E+01  0.15980840394E+02  0.00000000000E+00 0.  1.
</event>
<event>
 7    1  0.1215217E-011  0.5930192E+02  0.7816164E-02  0.1266605E+00
        -11   -1    0    0    0    0  0.00000000000E+00  0.00000000000E+00  0.45593999997E+02  0.45594000000E+02  0.51100000000E-03 0.  1.
         11   -1    0    0    0    0 -0.00000000000E+00 -0.00000000000E+00 -0.45593999997E+02  0.45594000000E+02  0.51100000000E-03 0. -1.
    9900012    2    1    2    0    0  0.79187142050E+01 -0.27633443459E+02 -0.13798875423E+02  0.59301918476E+02  0.49999953399E+02 0.  0.
        -12    1    1    2    0    0 -0.79187142050E+01  0.27633443459E+02  0.13798875423E+02  0.31886081524E+02  0.00000000000E+00 0.  1.
         11    1    3    3    0    0  0.27739419550E+01 -0.11639126104E+02 -0.11123568701E+02  0.16337006805E+02  0.51100000000E-03 0. -1.
        -11    1    3    3    0    0 -0.24863514818E+01 -0.28293674493E+02 -0.14800807430E+01  0.28441248202E+02  0.51100000000E-03 0.  1.
         12    1    3    3    0    0  0.76311237318E+01  0.12299357138E+02 -0.11952259790E+01  0.14523663469E+02  0.00000000000E+00 0. -1.
</event>
<event>
 7    1  0.1215217E-011  0.5930195E+02  0.7816164E-02  0.1266605E+00
        -11   -1    0    0    0    0  0.00000000000E+00  0.00000000000E+00  0.45593999997E+02  0.45594000000E+02  0.51100000000E-03 0. -1.
         11   -1    0    0    0    0 -0.00000000000E+00 -0.00000000000E+00 -0.45593999997E+02  0.45594000000E+02  0.51100000000E-03 0.  1.
    9900012    2    1    2    0    0  0.11113356232E+02 -0.89098405161E+01  0.28527673574E+02  0.59301951259E+02  0.50000013188E+02 0.  0.
        -12    1    1    2    0    0 -0.11113356232E+02  0.89098405161E+01 -0.28527673574E+02  0.31886048741E+02  0.00000000000E+00 0.  1.
         11    1    3    3    0    0 -0.79544920930E+01 -0.20667022792E+02  0.21403233553E+02  0.30797697679E+02  0.51100000000E-03 0. -1.
        -11    1    3    3    0    0 -0.24920446404E+01  0.21415531980E+01  0.31750647280E+01  0.45691982751E+01  0.51100000000E-03 0.  1.
        -12    1    3    3    0    0  0.21559892965E+02  0.96156290781E+01  0.39493752930E+01  0.23935055305E+02  0.00000000000E+00 0.  1.
</event>
<event>
 7    1  0.1215217E-011  0.5930196E+02  0.7816164E-02  0.1266605E+00
        -11   -1    0    0    0    0  0.00000000000E+00  0.00000000000E+00  0.45593999997E+02  0.45594000000E+02  0.51100000000E-03 0.  1.
         11   -1    0    0    0    0 -0.00000000000E+00 -0.00000000000E+00 -0.45593999997E+02  0.45594000000E+02  0.51100000000E-03 0. -1.
    9900012    2    1    2    0    0 -0.59022974732E+00 -0.22699444458E+02 -0.22385410702E+02  0.59301956625E+02  0.50000022974E+02 0.  0.
        -12    1    1    2    0    0  0.59022974732E+00  0.22699444458E+02  0.22385410702E+02  0.31886043375E+02  0.00000000000E+00 0.  1.
         11    1    3    3    0    0 -0.13333722554E+02 -0.29879099554E+01 -0.40346558046E+01  0.14247603685E+02  0.51100000000E-03 0. -1.
        -11    1    3    3    0    0 -0.10338361248E+02  0.62036739421E+00 -0.38676992401E+01  0.11055571748E+02  0.51100000000E-03 0.  1.
        -12    1    3    3    0    0  0.23081854055E+02 -0.20331901897E+02 -0.14483055657E+02  0.33998781192E+02  0.00000000000E+00 0.  1.
</event>
<event>
 7    1  0.1215217E-011  0.5930201E+02  0.7816164E-02  0.1266605E+00
        -11   -1    0    0    0    0  0.00000000000E+00  0.00000000000E+00  0.45593999997E+02  0.45594000000E+02  0.51100000000E-03 0.  1.
         11   -1    0    0    0    0 -0.00000000000E+00 -0.00000000000E+00 -0.45593999997E+02  0.45594000000E+02  0.51100000000E-03 0. -1.
    9900012    2    1    2    0    0  0.23035432969E+02 -0.83717449507E+01 -0.20396057601E+02  0.59302008542E+02  0.50000117659E+02 0.  0.
        -12    1    1    2    0    0 -0.23035432969E+02  0.83717449507E+01  0.20396057601E+02  0.31885991458E+02  0.00000000000E+00 0.  1.
         11    1    3    3    0    0  0.35033026350E+01  0.49667300269E+01 -0.14294277494E+02  0.15532800966E+02  0.51100000000E-03 0. -1.
        -11    1    3    3    0    0  0.73107406945E+01  0.11099081107E+02  0.51048090723E+01  0.14237120736E+02  0.51100000000E-03 0.  1.
        -12    1    3    3    0    0  0.12221389640E+02 -0.24437556085E+02 -0.11206589179E+02  0.29532086841E+02  0.00000000000E+00 0.  1.
</event>
<event>
 7    1  0.1215217E-011  0.5930195E+02  0.7816164E-02  0.1266605E+00
        -11   -1    0    0    0    0  0.00000000000E+00  0.00000000000E+00  0.45593999997E+02  0.45594000000E+02  0.51100000000E-03 0. -1.
         11   -1    0    0    0    0 -0.00000000000E+00 -0.00000000000E+00 -0.45593999997E+02  0.45594000000E+02  0.51100000000E-03 0.  1.
    9900012    2    1    2    0    0 -0.30862880067E+02 -0.77921180107E+01 -0.18669218642E+01  0.59301954990E+02  0.50000019993E+02 0.  0.
        -12    1    1    2    0    0  0.30862880067E+02  0.77921180107E+01  0.18669218642E+01  0.31886045010E+02  0.00000000000E+00 0.  1.
         11    1    3    3    0    0  0.29998920579E+00  0.32806859445E+01 -0.16885478447E+01  0.37019032774E+01  0.51100000000E-03 0. -1.
        -11    1    3    3    0    0  0.11523824955E+02 -0.16647824223E+01  0.20923471914E+01  0.11829960234E+02  0.51100000000E-03 0.  1.
         12    1    3    3    0    0 -0.42686694228E+02 -0.94080215329E+01 -0.22707212109E+01  0.43770091479E+02  0.00000000000E+00 0. -1.
</event>
<event>
 7    1  0.1215217E-011  0.5930195E+02  0.7816164E-02  0.1266605E+00
        -11   -1    0    0    0    0  0.00000000000E+00  0.00000000000E+00  0.45593999997E+02  0.45594000000E+02  0.51100000000E-03 0.  1.
         11   -1    0    0    0    0 -0.00000000000E+00 -0.00000000000E+00 -0.45593999997E+02  0.45594000000E+02  0.51100000000E-03 0. -1.
    9900012    2    1    2    0    0 -0.62187551715E+01 -0.15918858645E+02 -0.26919090250E+02  0.59301946679E+02  0.50000004836E+02 0.  0.
        -12    1    1    2    0    0  0.62187551715E+01  0.15918858645E+02  0.26919090250E+02  0.31886053321E+02  0.00000000000E+00 0.  1.
         11    1    3    3    0    0  0.44737430124E+01 -0.86948898228E+00  0.50654278827E+01  0.68138790368E+01  0.51100000000E-03 0. -1.
        -11    1    3    3    0    0 -0.10109458018E+02  0.91931072444E+01 -0.18201963890E+01  0.13785045426E+02  0.51100000000E-03 0.  1.
         12    1    3    3    0    0 -0.58304016552E+00 -0.24242476907E+02 -0.30164321744E+02  0.38703022217E+02  0.00000000000E+00 0. -1.
</event>
<event>
 7    1  0.1215217E-011  0.5930195E+02  0.7816164E-02  0.1266605E+00
        -11   -1    0    0    0    0  0.00000000000E+00  0.00000000000E+00  0.45593999997E+02  0.45594000000E+02  0.51100000000E-03 0. -1.
         11   -1    0    0    0    0 -0.00000000000E+00 -0.00000000000E+00 -0.45593999997E+02  0.45594000000E+02  0.51100000000E-03 0.  1.
    9900012    2    1    2    0    0  0.56107393327E+01 -0.19771879194E+02  0.24378528413E+02  0.59301948969E+02  0.50000009012E+02 0.  0.
        -12    1    1    2    0    0 -0.56107393327E+01  0.19771879194E+02 -0.24378528413E+02  0.31886051031E+02  0.00000000000E+00 0.  1.
         11    1    3    3    0    0 -0.36851611327E+01 -0.10246449338E+02  0.14111628283E+02  0.17824370667E+02  0.51100000000E-03 0. -1.
        -11    1    3    3    0    0  0.93363147234E+01 -0.10409821928E+02  0.23967516630E+02  0.27748387680E+02  0.51100000000E-03 0.  1.
        -12    1    3    3    0    0 -0.40414257940E-01  0.88439207157E+00 -0.13700616500E+02  0.13729190622E+02  0.00000000000E+00 0.  1.
</event>
<event>
 7    1  0.1215217E-011  0.5930194E+02  0.7816164E-02  0.1266605E+00
        -11   -1    0    0    0    0  0.00000000000E+00  0.00000000000E+00  0.45593999997E+02  0.45594000000E+02  0.51100000000E-03 0. -1.
         11   -1    0    0    0    0 -0.00000000000E+00 -0.00000000000E+00 -0.45593999997E+02  0.45594000000E+02  0.51100000000E-03 0.  1.
    9900012    2    1    2    0    0 -0.16265612417E+02  0.40379663316E+01  0.27126474421E+02  0.59301938250E+02  0.49999989463E+02 0.  0.
        -12    1    1    2    0    0  0.16265612417E+02 -0.40379663316E+01 -0.27126474421E+02  0.31886061750E+02  0.00000000000E+00 0.  1.
         11    1    3    3    0    0 -0.11854072196E+01  0.53431912935E+01  0.36082943305E+02  0.36495666610E+02  0.51100000000E-03 0. -1.
        -11    1    3    3    0    0 -0.10763770897E+01 -0.60196124471E+01 -0.17143665897E+01  0.63508562193E+01  0.51100000000E-03 0.  1.
        -12    1    3    3    0    0 -0.14003828107E+02  0.47143874852E+01 -0.72421022943E+01  0.16455415421E+02  0.00000000000E+00 0.  1.
</event>
<event>
 7    1  0.1215217E-011  0.5930195E+02  0.7816164E-02  0.1266605E+00
        -11   -1    0    0    0    0  0.00000000000E+00  0.00000000000E+00  0.45593999997E+02  0.45594000000E+02  0.51100000000E-03 0.  1.
         11   -1    0    0    0    0 -0.00000000000E+00 -0.00000000000E+00 -0.45593999997E+02  0.45594000000E+02  0.51100000000E-03 0. -1.
    9900012    2    1    2    0    0  0.14794330339E+02  0.19503307732E+02 -0.20432053082E+02  0.59301952647E+02  0.50000015720E+02 0.  0.
        -12    1    1    2    0    0 -0.14794330339E+02 -0.19503307732E+02  0.20432053082E+02  0.31886047353E+02  0.00000000000E+00 0.  1.
         11    1    3    3    0    0  0.72602658252E+01  0.38818613975E+01 -0.11271029641E+02  0.13957665177E+02  0.51100000000E-03 0. -1.
        -11    1    3    3    0    0  0.97424322045E+01 -0.12582739175E+02 -0.54005327691E+01  0.16804941679E+02  0.51100000000E-03 0.  1.
        -12    1    3    3    0    0 -0.22083676903E+01  0.28204185509E+02 -0.37604906717E+01  0.28539345791E+02  0.00000000000E+00 0.  1.
</event>
<event>
 7    1  0.1215217E-011  0.5930195E+02  0.7816164E-02  0.1266605E+00
        -11   -1    0    0    0    0  0.00000000000E+00  0.00000000000E+00  0.45593999997E+02  0.45594000000E+02  0.51100000000E-03 0. -1.
         11   -1    0    0    0    0 -0.00000000000E+00 -0.00000000000E+00 -0.45593999997E+02  0.45594000000E+02  0.51100000000E-03 0.  1.
    9900012    2    1    2    0    0  0.12678647306E+01 -0.28362226377E+02  0.14515402092E+02  0.59301948756E+02  0.50000008623E+02 0.  0.
        -12    1    1    2    0    0 -0.12678647306E+01  0.28362226377E+02 -0.14515402092E+02  0.31886051244E+02  0.00000000000E+00 0.  1.
         11    1    3    3    0    0  0.37851728435E+01 -0.91089231353E+01  0.14590594256E+02  0.17612082647E+02  0.51100000000E-03 0. -1.
        -11    1    3    3    0    0 -0.13550787480E+02 -0.22294217218E+02  0.84445892618E+01  0.27422017627E+02  0.51100000000E-03 0.  1.
        -12    1    3    3    0    0  0.11033479367E+02  0.30409139755E+01 -0.85197814259E+01  0.14267848482E+02  0.00000000000E+00 0.  1.
</event>
<event>
 7    1  0.1215217E-011  0.5930194E+02  0.7816164E-02  0.1266605E+00
        -11   -1    0    0    0    0  0.00000000000E+00  0.00000000000E+00  0.45593999997E+02  0.45594000000E+02  0.51100000000E-03 0. -1.
         11   -1    0    0    0    0 -0.00000000000E+00 -0.00000000000E+00 -0.45593999997E+02  0.45594000000E+02  0.51100000000E-03 0.  1.
    9900012    2    1    2    0    0  0.10604422367E+02  0.28891802853E+02  0.83385019922E+01  0.59301942525E+02  0.49999997260E+02 0.  0.
        -12    1    1    2    0    0 -0.10604422367E+02 -0.28891802853E+02 -0.83385019922E+01  0.31886057475E+02  0.00000000000E+00 0.  1.
         11    1    3    3    0    0 -0.59618161849E+01  0.11881572660E+02 -0.80589925875E+01  0.15545493974E+02  0.51100000000E-03 0. -1.
        -11    1    3    3    0    0 -0.17403822245E+01 -0.64010413704E+01  0.12003367426E+02  0.13714338873E+02  0.51100000000E-03 0.  1.
         12    1    3    3    0    0  0.18306620777E+02  0.23411271563E+02  0.43941271538E+01  0.30042109678E+02  0.00000000000E+00 0. -1.
</event>
<event>
 7    1  0.1215217E-011  0.5930195E+02  0.7816164E-02  0.1266605E+00
        -11   -1    0    0    0    0  0.00000000000E+00  0.00000000000E+00  0.45593999997E+02  0.45594000000E+02  0.51100000000E-03 0. -1.
         11   -1    0    0    0    0 -0.00000000000E+00 -0.00000000000E+00 -0.45593999997E+02  0.45594000000E+02  0.51100000000E-03 0.  1.
    9900012    2    1    2    0    0 -0.29819587167E+02  0.12325809700E+01 -0.11224677968E+02  0.59301946149E+02  0.50000003869E+02 0.  0.
        -12    1    1    2    0    0  0.29819587167E+02 -0.12325809700E+01  0.11224677968E+02  0.31886053851E+02  0.00000000000E+00 0.  1.
         11    1    3    3    0    0  0.26297878640E+01  0.24837379116E+01 -0.43892658948E+01  0.56877406393E+01  0.51100000000E-03 0. -1.
        -11    1    3    3    0    0 -0.22553548018E+02  0.19401444533E+02 -0.75812098017E+01  0.30701031261E+02  0.51100000000E-03 0.  1.
        -12    1    3    3    0    0 -0.98958270134E+01 -0.20652601474E+02  0.74579772859E+00  0.22913174249E+02  0.00000000000E+00 0.  1.
</event>
<event>
 7    1  0.1215217E-011  0.5930194E+02  0.7816164E-02  0.1266605E+00
        -11   -1    0    0    0    0  0.00000000000E+00  0.00000000000E+00  0.45593999997E+02  0.45594000000E+02  0.51100000000E-03 0.  1.
         11   -1    0    0    0    0 -0.00000000000E+00 -0.00000000000E+00 -0.45593999997E+02  0.45594000000E+02  0.51100000000E-03 0. -1.
    9900012    2    1    2    0    0 -0.17096398718E+02 -0.28042551002E+01 -0.26768832603E+02  0.59301935729E+02  0.49999984865E+02 0.  0.
        -12    1    1    2    0    0  0.17096398718E+02  0.28042551002E+01  0.26768832603E+02  0.31886064271E+02  0.00000000000E+00 0.  1.
         11    1    3    3    0    0 -0.46478182097E+01  0.85118290493E+01  0.56613221792E+00  0.97146257686E+01  0.51100000000E-03 0. -1.
        -11    1    3    3    0    0  0.32789248992E+01 -0.21799048166E+02 -0.11150560762E+02  0.24703944118E+02  0.51100000000E-03 0.  1.
         12    1    3    3    0    0 -0.15727505407E+02  0.10482964016E+02 -0.16184404059E+02  0.24883365842E+02  0.00000000000E+00 0. -1.
</event>
<event>
 7    1  0.1215217E-011  0.5930194E+02  0.7816164E-02  0.1266605E+00
        -11   -1    0    0    0    0  0.00000000000E+00  0.00000000000E+00  0.45593999997E+02  0.45594000000E+02  0.51100000000E-03 0.  1.
         11   -1    0    0    0    0 -0.00000000000E+00 -0.00000000000E+00 -0.45593999997E+02  0.45594000000E+02  0.51100000000E-03 0. -1.
    9900012    2    1    2    0    0  0.67666556299E+00 -0.10765768025E+02 -0.30006024066E+02  0.59301935369E+02  0.49999984208E+02 0.  0.
        -12    1    1    2    0    0 -0.67666556299E+00  0.10765768025E+02  0.30006024066E+02  0.31886064631E+02  0.00000000000E+00 0.  1.
         11    1    3    3    0    0  0.33019737457E+01  0.63416271522E+01 -0.94156374321E+01  0.11822584069E+02  0.51100000000E-03 0. -1.
        -11    1    3    3    0    0  0.52218607345E+01 -0.31484012999E+01  0.10707924800E+02  0.12322333954E+02  0.51100000000E-03 0.  1.
        -12    1    3    3    0    0 -0.78471689172E+01 -0.13958993877E+02 -0.31298311434E+02  0.35157017346E+02  0.00000000000E+00 0.  1.
</event>
<event>
 7    1  0.1215217E-011  0.5930195E+02  0.7816164E-02  0.1266605E+00
        -11   -1    0    0    0    0  0.00000000000E+00  0.00000000000E+00  0.45593999997E+02  0.45594000000E+02  0.51100000000E-03 0.  1.
         11   -1    0    0    0    0 -0.00000000000E+00 -0.00000000000E+00 -0.45593999997E+02  0.45594000000E+02  0.51100000000E-03 0. -1.
    9900012    2    1    2    0    0  0.29569381808E+02  0.76522552166E+01 -0.91550478493E+01  0.59301948951E+02  0.50000008979E+02 0.  0.
        -12    1    1    2    0    0 -0.29569381808E+02 -0.76522552166E+01  0.91550478493E+01  0.31886051049E+02  0.00000000000E+00 0.  1.
         11    1    3    3    0    0  0.92632498260E+00  0.64204166641E+01 -0.32625389333E+01  0.72611286083E+01  0.51100000000E-03 0. -1.
        -11    1    3    3    0    0  0.80956002265E+01 -0.42034942269E+01 -0.23009093919E+02  0.24751293097E+02  0.51100000000E-03 0.  1.
        -12    1    3    3    0    0  0.20547456598E+02  0.54353327794E+01  0.17116585003E+02  0.27289527245E+02  0.00000000000E+00 0.  1.
</event>
<event>
 7    1  0.1215217E-011  0.5930194E+02  0.7816164E-02  0.1266605E+00
        -11   -1    0    0    0    0  0.00000000000E+00  0.00000000000E+00  0.45593999997E+02  0.45594000000E+02  0.51100000000E-03 0. -1.
         11   -1    0    0    0    0 -0.00000000000E+00 -0.00000000000E+00 -0.45593999997E+02  0.45594000000E+02  0.51100000000E-03 0.  1.
    9900012    2    1    2    0    0  0.22594851439E+02 -0.19645899913E+02  0.10965041045E+02  0.59301940036E+02  0.49999992719E+02 0.  0.
        -12    1    1    2    0    0 -0.22594851439E+02  0.19645899913E+02 -0.10965041045E+02  0.31886059964E+02  0.00000000000E+00 0.  1.
         11    1    3    3    0    0 -0.22798460571E+01  0.23315755568E+01 -0.10784286866E+02  0.11266533899E+02  0.51100000000E-03 0. -1.
        -11    1    3    3    0    0  0.22928773705E+02 -0.51121367950E+01  0.20209501066E+02  0.30988490441E+02  0.51100000000E-03 0.  1.
         12    1    3    3    0    0  0.19459237912E+01 -0.16865338675E+02  0.15398268457E+01  0.17046915695E+02  0.00000000000E+00 0. -1.
</event>
<event>
 7    1  0.1215217E-011  0.5930194E+02  0.7816164E-02  0.1266605E+00
        -11   -1    0    0    0    0  0.00000000000E+00  0.00000000000E+00  0.45593999997E+02  0.45594000000E+02  0.51100000000E-03 0.  1.
         11   -1    0    0    0    0 -0.00000000000E+00 -0.00000000000E+00 -0.45593999997E+02  0.45594000000E+02  0.51100000000E-03 0. -1.
    9900012    2    1    2    0    0 -0.65278486805E+01 -0.29598234063E+02 -0.99021560084E+01  0.59301937815E+02  0.49999988670E+02 0.  0.
        -12    1    1    2    0    0  0.65278486805E+01  0.29598234063E+02  0.99021560084E+01  0.31886062185E+02  0.00000000000E+00 0.  1.
         11    1    3    3    0    0 -0.11620238727E+02 -0.12181710482E+02 -0.15020368742E+01  0.16902074825E+02  0.51100000000E-03 0. -1.
        -11    1    3    3    0    0 -0.10967236604E+02  0.64717398650E+01 -0.17180568098E+01  0.12849724319E+02  0.51100000000E-03 0.  1.
         12    1    3    3    0    0  0.16059626651E+02 -0.23888263445E+02 -0.66820623244E+01  0.29550138672E+02  0.00000000000E+00 0. -1.
</event>
<event>
 7    1  0.1215217E-011  0.5930195E+02  0.7816164E-02  0.1266605E+00
        -11   -1    0    0    0    0  0.00000000000E+00  0.00000000000E+00  0.45593999997E+02  0.45594000000E+02  0.51100000000E-03 0.  1.
         11   -1    0    0    0    0 -0.00000000000E+00 -0.00000000000E+00 -0.45593999997E+02  0.45594000000E+02  0.51100000000E-03 0. -1.
    9900012    2    1    2    0    0  0.21359426268E+02  0.23657711247E+02 -0.89885522216E+00  0.59301947679E+02  0.50000006658E+02 0.  0.
        -12    1    1    2    0    0 -0.21359426268E+02 -0.23657711247E+02  0.89885522216E+00  0.31886052321E+02  0.00000000000E+00 0.  1.
         11    1    3    3    0    0  0.11376692346E+02  0.34684038858E+01 -0.18355362125E+01  0.12034456685E+02  0.51100000000E-03 0. -1.
        -11    1    3    3    0    0  0.60623411976E+01  0.11954315087E+02 -0.20202572565E+02  0.24244619372E+02  0.51100000000E-03 0.  1.
        -12    1    3    3    0    0  0.39203927246E+01  0.82349922737E+01  0.21139253555E+02  0.23022871622E+02  0.00000000000E+00 0.  1.
</event>
<event>
 7    1  0.1215217E-011  0.5930194E+02  0.7816164E-02  0.1266605E+00
        -11   -1    0    0    0    0  0.00000000000E+00  0.00000000000E+00  0.45593999997E+02  0.45594000000E+02  0.51100000000E-03 0.  1.
         11   -1    0    0    0    0 -0.00000000000E+00 -0.00000000000E+00 -0.45593999997E+02  0.45594000000E+02  0.51100000000E-03 0. -1.
    9900012    2    1    2    0    0 -0.48265752161E+01 -0.25526792630E+02 -0.18488044264E+02  0.59301941119E+02  0.49999994694E+02 0.  0.
        -12    1    1    2    0    0  0.48265752161E+01  0.25526792630E+02  0.18488044264E+02  0.31886058881E+02  0.00000000000E+00 0.  1.
         11    1    3    3    0    0 -0.25416079274E+00  0.25378848768E+01 -0.65818011105E+01  0.70587225102E+01  0.51100000000E-03 0. -1.
        -11    1    3    3    0    0 -0.33002335965E+01  0.11133434685E+02 -0.18836962271E+01  0.11764064834E+02  0.51100000000E-03 0.  1.
         12    1    3    3    0    0 -0.12721808269E+01 -0.39198112191E+02 -0.10022546927E+02  0.40479153775E+02  0.00000000000E+00 0. -1.
</event>
<event>
 7    1  0.1215217E-011  0.5930194E+02  0.7816164E-02  0.1266605E+00
        -11   -1    0    0    0    0  0.00000000000E+00  0.00000000000E+00  0.45593999997E+02  0.45594000000E+02  0.51100000000E-03 0. -1.
         11   -1    0    0    0    0 -0.00000000000E+00 -0.00000000000E+00 -0.45593999997E+02  0.45594000000E+02  0.51100000000E-03 0.  1.
    9900012    2    1    2    0    0 -0.15104818106E+02  0.26555388838E+02 -0.91310828962E+01  0.59301939076E+02  0.49999990970E+02 0.  0.
        -12    1    1    2    0    0  0.15104818106E+02 -0.26555388838E+02  0.91310828962E+01  0.31886060924E+02  0.00000000000E+00 0.  1.
         11    1    3    3    0    0 -0.12026252088E+02  0.63238884211E+01 -0.71287159592E+01  0.15344083405E+02  0.51100000000E-03 0. -1.
        -11    1    3    3    0    0 -0.11941524295E+02 -0.73551697599E+01  0.35222039874E+01  0.14460444180E+02  0.51100000000E-03 0.  1.
        -12    1    3    3    0    0  0.88629582761E+01  0.27586670177E+02 -0.55245709244E+01  0.29497411492E+02  0.00000000000E+00 0.  1.
</event>
<event>
 7    1  0.1215217E-011  0.5930203E+02  0.7816164E-02  0.1266604E+00
        -11   -1    0    0    0    0  0.00000000000E+00  0.00000000000E+00  0.45593999997E+02  0.45594000000E+02  0.51100000000E-03 0.  1.
         11   -1    0    0    0    0 -0.00000000000E+00 -0.00000000000E+00 -0.45593999997E+02  0.45594000000E+02  0.51100000000E-03 0. -1.
    9900012    2    1    2    0    0  0.74954405108E+01  0.11925629948E+02 -0.28606172725E+02  0.59302025088E+02  0.50000147834E+02 0.  0.
        -12    1    1    2    0    0 -0.74954405108E+01 -0.11925629948E+02  0.28606172725E+02  0.31885974912E+02  0.00000000000E+00 0.  1.
         11    1    3    3    0    0 -0.33083971446E+00 -0.14322603637E+02 -0.46320554707E+01  0.15056638669E+02  0.51100000000E-03 0. -1.
        -11    1    3    3    0    0  0.10435089483E+02  0.89623871619E+00 -0.21495198603E+01  0.10691808652E+02  0.51100000000E-03 0.  1.
        -12    1    3    3    0    0 -0.26088092577E+01  0.25351994869E+02 -0.21824597394E+02  0.33553577768E+02  0.00000000000E+00 0.  1.
</event>
<event>
 7    1  0.1215217E-011  0.5930197E+02  0.7816164E-02  0.1266605E+00
        -11   -1    0    0    0    0  0.00000000000E+00  0.00000000000E+00  0.45593999997E+02  0.45594000000E+02  0.51100000000E-03 0.  1.
         11   -1    0    0    0    0 -0.00000000000E+00 -0.00000000000E+00 -0.45593999997E+02  0.45594000000E+02  0.51100000000E-03 0. -1.
    9900012    2    1    2    0    0 -0.79464067895E+01  0.30113365611E+02 -0.68380396353E+01  0.59301969276E+02  0.50000046047E+02 0.  0.
        -12    1    1    2    0    0  0.79464067895E+01 -0.30113365611E+02  0.68380396353E+01  0.31886030724E+02  0.00000000000E+00 0.  1.
         11    1    3    3    0    0 -0.86514949752E+01  0.12093939424E+02 -0.63039557294E+01  0.16150900724E+02  0.51100000000E-03 0. -1.
        -11    1    3    3    0    0 -0.51541291264E+01  0.21986297924E+02  0.14290680734E+02  0.26724256764E+02  0.51100000000E-03 0.  1.
         12    1    3    3    0    0  0.58592173122E+01 -0.39668717378E+01 -0.14824764640E+02  0.16426811789E+02  0.00000000000E+00 0. -1.
</event>
<event>
 7    1  0.1215217E-011  0.5930193E+02  0.7816164E-02  0.1266605E+00
        -11   -1    0    0    0    0  0.00000000000E+00  0.00000000000E+00  0.45593999997E+02  0.45594000000E+02  0.51100000000E-03 0. -1.
         11   -1    0    0    0    0 -0.00000000000E+00 -0.00000000000E+00 -0.45593999997E+02  0.45594000000E+02  0.51100000000E-03 0.  1.
    9900012    2    1    2    0    0 -0.90188474405E+01  0.19414490972E+02  0.23631743805E+02  0.59301931190E+02  0.49999976588E+02 0.  0.
        -12    1    1    2    0    0  0.90188474405E+01 -0.19414490972E+02 -0.23631743805E+02  0.31886068810E+02  0.00000000000E+00 0.  1.
         11    1    3    3    0    0 -0.12754449505E+02  0.29151321056E+02  0.37135218784E+01  0.32035382727E+02  0.51100000000E-03 0. -1.
        -11    1    3    3    0    0 -0.36406957623E+00 -0.25583919562E+01 -0.23627307640E+01  0.35014872528E+01  0.51100000000E-03 0.  1.
        -12    1    3    3    0    0  0.40996716405E+01 -0.71784381280E+01  0.22280952691E+02  0.23765061210E+02  0.00000000000E+00 0.  1.
</event>
<event>
 7    1  0.1215217E-011  0.5930202E+02  0.7816164E-02  0.1266604E+00
        -11   -1    0    0    0    0  0.00000000000E+00  0.00000000000E+00  0.45593999997E+02  0.45594000000E+02  0.51100000000E-03 0. -1.
         11   -1    0    0    0    0 -0.00000000000E+00 -0.00000000000E+00 -0.45593999997E+02  0.45594000000E+02  0.51100000000E-03 0.  1.
    9900012    2    1    2    0    0  0.50566724109E+01  0.26840358469E+02  0.16454198280E+02  0.59302024719E+02  0.50000147161E+02 0.  0.
        -12    1    1    2    0    0 -0.50566724109E+01 -0.26840358469E+02 -0.16454198280E+02  0.31885975281E+02  0.00000000000E+00 0.  1.
         11    1    3    3    0    0  0.12572072236E+02  0.76930107558E+01 -0.39939476044E+01  0.15270593719E+02  0.51100000000E-03 0. -1.
        -11    1    3    3    0    0  0.68587991139E+01  0.21002454947E+02  0.46233990662E+01  0.22572595293E+02  0.51100000000E-03 0.  1.
        -12    1    3    3    0    0 -0.14374198939E+02 -0.18551072342E+01  0.15824746818E+02  0.21458835706E+02  0.00000000000E+00 0.  1.
</event>
<event>
 7    1  0.1215217E-011  0.5930197E+02  0.7816164E-02  0.1266605E+00
        -11   -1    0    0    0    0  0.00000000000E+00  0.00000000000E+00  0.45593999997E+02  0.45594000000E+02  0.51100000000E-03 0. -1.
         11   -1    0    0    0    0 -0.00000000000E+00 -0.00000000000E+00 -0.45593999997E+02  0.45594000000E+02  0.51100000000E-03 0.  1.
    9900012    2    1    2    0    0 -0.15593932776E+02  0.31160330264E+01  0.27637624932E+02  0.59301973074E+02  0.50000052974E+02 0.  0.
        -12    1    1    2    0    0  0.15593932776E+02 -0.31160330264E+01 -0.27637624932E+02  0.31886026926E+02  0.00000000000E+00 0.  1.
         11    1    3    3    0    0  0.39650986974E+01  0.59526626179E+01  0.69238153524E+01  0.99546682123E+01  0.51100000000E-03 0. -1.
        -11    1    3    3    0    0  0.67488435578E+01  0.12481107942E+02  0.46811872496E+01  0.14941166593E+02  0.51100000000E-03 0.  1.
        -12    1    3    3    0    0 -0.26307875032E+02 -0.15317737534E+02  0.16032622330E+02  0.34406138269E+02  0.00000000000E+00 0.  1.
</event>
<event>
 7    1  0.1215217E-011  0.5930195E+02  0.7816164E-02  0.1266605E+00
        -11   -1    0    0    0    0  0.00000000000E+00  0.00000000000E+00  0.45593999997E+02  0.45594000000E+02  0.51100000000E-03 0.  1.
         11   -1    0    0    0    0 -0.00000000000E+00 -0.00000000000E+00 -0.45593999997E+02  0.45594000000E+02  0.51100000000E-03 0. -1.
    9900012    2    1    2    0    0 -0.12779345912E+02  0.23714578029E+02 -0.17059518888E+02  0.59301951676E+02  0.50000013949E+02 0.  0.
        -12    1    1    2    0    0  0.12779345912E+02 -0.23714578029E+02  0.17059518888E+02  0.31886048324E+02  0.00000000000E+00 0.  1.
         11    1    3    3    0    0 -0.20640782116E+02  0.30650232087E+02 -0.14840832523E+02  0.39821211980E+02  0.51100000000E-03 0. -1.
        -11    1    3    3    0    0 -0.43221079865E+01  0.96118854026E+00 -0.22394336721E+01  0.49618105858E+01  0.51100000000E-03 0.  1.
         12    1    3    3    0    0  0.12183544190E+02 -0.78968425984E+01  0.20747306648E-01  0.14518929110E+02  0.00000000000E+00 0. -1.
</event>
<event>
 7    1  0.1215217E-011  0.5930193E+02  0.7816164E-02  0.1266605E+00
        -11   -1    0    0    0    0  0.00000000000E+00  0.00000000000E+00  0.45593999997E+02  0.45594000000E+02  0.51100000000E-03 0. -1.
         11   -1    0    0    0    0 -0.00000000000E+00 -0.00000000000E+00 -0.45593999997E+02  0.45594000000E+02  0.51100000000E-03 0.  1.
    9900012    2    1    2    0    0  0.20093929364E+02  0.21362614686E+02  0.12513754713E+02  0.59301931561E+02  0.49999977263E+02 0.  0.
        -12    1    1    2    0    0 -0.20093929364E+02 -0.21362614686E+02 -0.12513754713E+02  0.31886068439E+02  0.00000000000E+00 0.  1.
         11    1    3    3    0    0  0.12580148001E+02 -0.50132903284E+01  0.14099093440E+02  0.19549364177E+02  0.51100000000E-03 0. -1.
        -11    1    3    3    0    0 -0.99463009878E+01  0.10644088007E+02  0.49037731176E+01  0.15371158183E+02  0.51100000000E-03 0.  1.
         12    1    3    3    0    0  0.17460082350E+02  0.15731817008E+02 -0.64891118450E+01  0.24381409200E+02  0.00000000000E+00 0. -1.
</event>
<event>
 7    1  0.1215217E-011  0.5930194E+02  0.7816164E-02  0.1266605E+00
        -11   -1    0    0    0    0  0.00000000000E+00  0.00000000000E+00  0.45593999997E+02  0.45594000000E+02  0.51100000000E-03 0.  1.
         11   -1    0    0    0    0 -0.00000000000E+00 -0.00000000000E+00 -0.45593999997E+02  0.45594000000E+02  0.51100000000E-03 0. -1.
    9900012    2    1    2    0    0  0.65436024151E+00 -0.20733189282E+02 -0.24216260486E+02  0.59301943532E+02  0.49999999096E+02 0.  0.
        -12    1    1    2    0    0 -0.65436024151E+00  0.20733189282E+02  0.24216260486E+02  0.31886056468E+02  0.00000000000E+00 0.  1.
         11    1    3    3    0    0 -0.18990280425E+01  0.74648293556E+00 -0.24649192383E+02  0.24733504193E+02  0.51100000000E-03 0. -1.
        -11    1    3    3    0    0  0.29187125721E+01 -0.11963258151E+02 -0.13126723536E+02  0.17998591604E+02  0.51100000000E-03 0.  1.
        -12    1    3    3    0    0 -0.36532428816E+00 -0.95164140664E+01  0.13559655432E+02  0.16569847735E+02  0.00000000000E+00 0.  1.
</event>
<event>
 7    1  0.1215217E-011  0.5930197E+02  0.7816164E-02  0.1266605E+00
        -11   -1    0    0    0    0  0.00000000000E+00  0.00000000000E+00  0.45593999997E+02  0.45594000000E+02  0.51100000000E-03 0.  1.
         11   -1    0    0    0    0 -0.00000000000E+00 -0.00000000000E+00 -0.45593999997E+02  0.45594000000E+02  0.51100000000E-03 0. -1.
    9900012    2    1    2    0    0  0.12666471253E+02 -0.26233566457E+02  0.12964537914E+02  0.59301972552E+02  0.50000052021E+02 0.  0.
        -12    1    1    2    0    0 -0.12666471253E+02  0.26233566457E+02 -0.12964537914E+02  0.31886027448E+02  0.00000000000E+00 0.  1.
         11    1    3    3    0    0  0.10630371270E+02 -0.15161401930E+02  0.54088037477E+01  0.19290621039E+02  0.51100000000E-03 0. -1.
        -11    1    3    3    0    0  0.15526542798E+02 -0.13324931915E+02  0.14100796000E+02  0.24848738195E+02  0.51100000000E-03 0.  1.
        -12    1    3    3    0    0 -0.13490442814E+02  0.22527673881E+01 -0.65450618332E+01  0.15162613318E+02  0.00000000000E+00 0.  1.
</event>
<event>
 7    1  0.1215217E-011  0.5930174E+02  0.7816164E-02  0.1266605E+00
        -11   -1    0    0    0    0  0.00000000000E+00  0.00000000000E+00  0.45593999997E+02  0.45594000000E+02  0.51100000000E-03 0.  1.
         11   -1    0    0    0    0 -0.00000000000E+00 -0.00000000000E+00 -0.45593999997E+02  0.45594000000E+02  0.51100000000E-03 0. -1.
    9900012    2    1    2    0    0 -0.31574866224E+02 -0.41384476069E+01 -0.16231452020E+01  0.59301740797E+02  0.49999629354E+02 0.  0.
        -12    1    1    2    0    0  0.31574866224E+02  0.41384476069E+01  0.16231452020E+01  0.31886259203E+02  0.00000000000E+00 0.  1.
         11    1    3    3    0    0 -0.85407554256E+01 -0.10291241211E+02 -0.17221424768E+02  0.21804394516E+02  0.51100000000E-03 0. -1.
        -11    1    3    3    0    0 -0.30663762268E+01 -0.15368945339E+01 -0.61159574583E+01  0.70121069491E+01  0.51100000000E-03 0.  1.
        -12    1    3    3    0    0 -0.19967734571E+02  0.76896881385E+01  0.21714237024E+02  0.30485239332E+02  0.00000000000E+00 0.  1.
</event>
<event>
 7    1  0.1215217E-011  0.5930193E+02  0.7816164E-02  0.1266605E+00
        -11   -1    0    0    0    0  0.00000000000E+00  0.00000000000E+00  0.45593999997E+02  0.45594000000E+02  0.51100000000E-03 0. -1.
         11   -1    0    0    0    0 -0.00000000000E+00 -0.00000000000E+00 -0.45593999997E+02  0.45594000000E+02  0.51100000000E-03 0.  1.
    9900012    2    1    2    0    0 -0.18901354427E+00  0.31211475432E+02 -0.65214645275E+01  0.59301930559E+02  0.49999975437E+02 0.  0.
        -12    1    1    2    0    0  0.18901354427E+00 -0.31211475432E+02  0.65214645275E+01  0.31886069441E+02  0.00000000000E+00 0.  1.
         11    1    3    3    0    0 -0.16661475108E+01  0.65956666101E+01  0.11789241166E+02  0.13611211301E+02  0.51100000000E-03 0. -1.
        -11    1    3    3    0    0  0.85477811247E+01  0.19770187227E+02 -0.26285396073E+02  0.33983038594E+02  0.51100000000E-03 0.  1.
         12    1    3    3    0    0 -0.70706471582E+01  0.48456215950E+01  0.79746903793E+01  0.11707680664E+02  0.00000000000E+00 0. -1.
</event>
<event>
 7    1  0.1215217E-011  0.5930197E+02  0.7816164E-02  0.1266605E+00
        -11   -1    0    0    0    0  0.00000000000E+00  0.00000000000E+00  0.45593999997E+02  0.45594000000E+02  0.51100000000E-03 0.  1.
         11   -1    0    0    0    0 -0.00000000000E+00 -0.00000000000E+00 -0.45593999997E+02  0.45594000000E+02  0.51100000000E-03 0. -1.
    9900012    2    1    2    0    0  0.77070519697E+01  0.11117008395E+02 -0.28874421060E+02  0.59301973009E+02  0.50000052854E+02 0.  0.
        -12    1    1    2    0    0 -0.77070519697E+01 -0.11117008395E+02  0.28874421060E+02  0.31886026991E+02  0.00000000000E+00 0.  1.
         11    1    3    3    0    0 -0.86196257087E+01  0.85265407229E+01 -0.94522391414E+01  0.15373505427E+02  0.51100000000E-03 0. -1.
        -11    1    3    3    0    0 -0.72957694156E+01 -0.61563705998E+01 -0.15827462681E+02  0.18483444633E+02  0.51100000000E-03 0.  1.
        -12    1    3    3    0    0  0.23622447094E+02  0.87468382722E+01 -0.35947192380E+01  0.25445022949E+02  0.00000000000E+00 0.  1.
</event>
<event>
 7    1  0.1215217E-011  0.5930202E+02  0.7816164E-02  0.1266604E+00
        -11   -1    0    0    0    0  0.00000000000E+00  0.00000000000E+00  0.45593999997E+02  0.45594000000E+02  0.51100000000E-03 0.  1.
         11   -1    0    0    0    0 -0.00000000000E+00 -0.00000000000E+00 -0.45593999997E+02  0.45594000000E+02  0.51100000000E-03 0. -1.
    9900012    2    1    2    0    0  0.19032361083E+02 -0.15463263967E+02 -0.20380680022E+02  0.59302024728E+02  0.50000147177E+02 0.  0.
        -12    1    1    2    0    0 -0.19032361083E+02  0.15463263967E+02  0.20380680022E+02  0.31885975272E+02  0.00000000000E+00 0.  1.
         11    1    3    3    0    0 -0.21697993953E+01  0.23054271814E+01 -0.11246639238E+02  0.11683745903E+02  0.51100000000E-03 0. -1.
        -11    1    3    3    0    0  0.67609109499E+01  0.10865482209E+02  0.33108434641E+01  0.13218559120E+02  0.51100000000E-03 0.  1.
         12    1    3    3    0    0  0.14441249528E+02 -0.28634173358E+02 -0.12444884248E+02  0.34399719705E+02  0.00000000000E+00 0. -1.
</event>
<event>
 7    1  0.1215217E-011  0.5930195E+02  0.7816164E-02  0.1266605E+00
        -11   -1    0    0    0    0  0.00000000000E+00  0.00000000000E+00  0.45593999997E+02  0.45594000000E+02  0.51100000000E-03 0. -1.
         11   -1    0    0    0    0 -0.00000000000E+00 -0.00000000000E+00 -0.45593999997E+02  0.45594000000E+02  0.51100000000E-03 0.  1.
    9900012    2    1    2    0    0  0.24061288335E+02 -0.16658472695E+02 -0.12659771896E+02  0.59301950805E+02  0.50000012359E+02 0.  0.
        -12    1    1    2    0    0 -0.24061288335E+02  0.16658472695E+02  0.12659771896E+02  0.31886049195E+02  0.00000000000E+00 0.  1.
         11    1    3    3    0    0 -0.14612362477E+02 -0.18228253177E+01 -0.45905309850E+00  0.14732771610E+02  0.51100000000E-03 0. -1.
        -11    1    3    3    0    0  0.10616198904E+02 -0.34681221245E+01  0.16299136525E+01  0.11286636745E+02  0.51100000000E-03 0.  1.
        -12    1    3    3    0    0  0.28057451908E+02 -0.11367525252E+02 -0.13830632450E+02  0.33282542450E+02  0.00000000000E+00 0.  1.
</event>
<event>
 7    1  0.1215217E-011  0.5930194E+02  0.7816164E-02  0.1266605E+00
        -11   -1    0    0    0    0  0.00000000000E+00  0.00000000000E+00  0.45593999997E+02  0.45594000000E+02  0.51100000000E-03 0. -1.
         11   -1    0    0    0    0 -0.00000000000E+00 -0.00000000000E+00 -0.45593999997E+02  0.45594000000E+02  0.51100000000E-03 0.  1.
    9900012    2    1    2    0    0 -0.26771665670E+02  0.30352064357E+01  0.17052447616E+02  0.59301944575E+02  0.50000000998E+02 0.  0.
        -12    1    1    2    0    0  0.26771665670E+02 -0.30352064357E+01 -0.17052447616E+02  0.31886055425E+02  0.00000000000E+00 0.  1.
         11    1    3    3    0    0  0.69193588075E+01 -0.31795534485E+01 -0.60880076278E+01  0.97494063192E+01  0.51100000000E-03 0. -1.
        -11    1    3    3    0    0 -0.14934575434E+02  0.93304868204E+01 -0.23352431959E+01  0.17763808396E+02  0.51100000000E-03 0.  1.
         12    1    3    3    0    0 -0.18756449044E+02 -0.31157269362E+01  0.25475698440E+02  0.31788729859E+02  0.00000000000E+00 0. -1.
</event>
<event>
 7    1  0.1215217E-011  0.5930186E+02  0.7816164E-02  0.1266605E+00
        -11   -1    0    0    0    0  0.00000000000E+00  0.00000000000E+00  0.45593999997E+02  0.45594000000E+02  0.51100000000E-03 0.  1.
         11   -1    0    0    0    0 -0.00000000000E+00 -0.00000000000E+00 -0.45593999997E+02  0.45594000000E+02  0.51100000000E-03 0. -1.
    9900012    2    1    2    0    0  0.14957354817E+02  0.26163912036E+02 -0.10414083364E+02  0.59301860559E+02  0.49999847772E+02 0.  0.
        -12    1    1    2    0    0 -0.14957354817E+02 -0.26163912036E+02  0.10414083364E+02  0.31886139441E+02  0.00000000000E+00 0.  1.
         11    1    3    3    0    0 -0.13095650667E+00  0.70317043303E+01 -0.35627070975E+01  0.78838377405E+01  0.51100000000E-03 0. -1.
        -11    1    3    3    0    0 -0.40484186647E+01  0.18071776092E+02 -0.20697676042E+02  0.27773594989E+02  0.51100000000E-03 0.  1.
         12    1    3    3    0    0  0.19136729989E+02  0.10604316136E+01  0.13846299776E+02  0.23644427829E+02  0.00000000000E+00 0. -1.
</event>
<event>
 7    1  0.1215217E-011  0.5930192E+02  0.7816164E-02  0.1266605E+00
        -11   -1    0    0    0    0  0.00000000000E+00  0.00000000000E+00  0.45593999997E+02  0.45594000000E+02  0.51100000000E-03 0.  1.
         11   -1    0    0    0    0 -0.00000000000E+00 -0.00000000000E+00 -0.45593999997E+02  0.45594000000E+02  0.51100000000E-03 0. -1.
    9900012    2    1    2    0    0  0.21425522822E+02  0.12161890787E+02 -0.20242470859E+02  0.59301917735E+02  0.49999952049E+02 0.  0.
        -12    1    1    2    0    0 -0.21425522822E+02 -0.12161890787E+02  0.20242470859E+02  0.31886082265E+02  0.00000000000E+00 0.  1.
         11    1    3    3    0    0  0.28351970249E+02 -0.16488878095E+01 -0.17033508861E+02  0.33116362608E+02  0.51100000000E-03 0. -1.
        -11    1    3    3    0    0 -0.18232640180E+01 -0.54124694866E+01 -0.26307110944E+01  0.62880647855E+01  0.51100000000E-03 0.  1.
        -12    1    3    3    0    0 -0.51031834089E+01  0.19223248083E+02 -0.57825090303E+00  0.19897490341E+02  0.00000000000E+00 0.  1.
</event>
<event>
 7    1  0.1215217E-011  0.5930193E+02  0.7816164E-02  0.1266605E+00
        -11   -1    0    0    0    0  0.00000000000E+00  0.00000000000E+00  0.45593999997E+02  0.45594000000E+02  0.51100000000E-03 0. -1.
         11   -1    0    0    0    0 -0.00000000000E+00 -0.00000000000E+00 -0.45593999997E+02  0.45594000000E+02  0.51100000000E-03 0.  1.
    9900012    2    1    2    0    0 -0.31197325610E+02  0.64500093239E+01 -0.13586047863E+01  0.59301928550E+02  0.49999971773E+02 0.  0.
        -12    1    1    2    0    0  0.31197325610E+02 -0.64500093239E+01  0.13586047863E+01  0.31886071450E+02  0.00000000000E+00 0.  1.
         11    1    3    3    0    0 -0.46532234610E+01  0.12849804027E+02 -0.51660011513E+01  0.14610185498E+02  0.51100000000E-03 0. -1.
        -11    1    3    3    0    0 -0.49614616852E+01  0.13484487894E+02 -0.27323160424E+01  0.14625767229E+02  0.51100000000E-03 0.  1.
        -12    1    3    3    0    0 -0.21582640464E+02 -0.19884282598E+02  0.65397124073E+01  0.30065975823E+02  0.00000000000E+00 0.  1.
</event>
<event>
 7    1  0.1215217E-011  0.5930195E+02  0.7816164E-02  0.1266605E+00
        -11   -1    0    0    0    0  0.00000000000E+00  0.00000000000E+00  0.45593999997E+02  0.45594000000E+02  0.51100000000E-03 0.  1.
         11   -1    0    0    0    0 -0.00000000000E+00 -0.00000000000E+00 -0.45593999997E+02  0.45594000000E+02  0.51100000000E-03 0. -1.
    9900012    2    1    2    0    0  0.31170225417E+02  0.65004998345E+01 -0.16972605920E+01  0.59301950635E+02  0.50000012049E+02 0.  0.
        -12    1    1    2    0    0 -0.31170225417E+02 -0.65004998345E+01  0.16972605920E+01  0.31886049365E+02  0.00000000000E+00 0.  1.
         11    1    3    3    0    0  0.18025079016E+02 -0.27048436820E+01 -0.27523223780E+01  0.18433527379E+02  0.51100000000E-03 0.  1.
        -11    1    3    3    0    0  0.20783921402E+02  0.99485355267E+01  0.13160032396E+02  0.26535470617E+02  0.51100000000E-03 0. -1.
        -12    1    3    3    0    0 -0.76387750015E+01 -0.74319201019E+00 -0.12104970610E+02  0.14332952639E+02  0.00000000000E+00 0.  1.
</event>
<event>
 7    1  0.1215217E-011  0.5930188E+02  0.7816164E-02  0.1266605E+00
        -11   -1    0    0    0    0  0.00000000000E+00  0.00000000000E+00  0.45593999997E+02  0.45594000000E+02  0.51100000000E-03 0. -1.
         11   -1    0    0    0    0 -0.00000000000E+00 -0.00000000000E+00 -0.45593999997E+02  0.45594000000E+02  0.51100000000E-03 0.  1.
    9900012    2    1    2    0    0 -0.12503961245E+02  0.28782177450E+02 -0.56534964963E+01  0.59301877498E+02  0.49999878665E+02 0.  0.
        -12    1    1    2    0    0  0.12503961245E+02 -0.28782177450E+02  0.56534964963E+01  0.31886122502E+02  0.00000000000E+00 0.  1.
         11    1    3    3    0    0 -0.44435930755E+01  0.13474623591E+01 -0.86873654775E+01  0.98504565087E+01  0.51100000000E-03 0. -1.
        -11    1    3    3    0    0 -0.30039811982E+01 -0.21472340412E+01 -0.14317144046E+02  0.14785639349E+02  0.51100000000E-03 0.  1.
         12    1    3    3    0    0 -0.50563869710E+01  0.29581949132E+02  0.17351013027E+02  0.34665781640E+02  0.00000000000E+00 0. -1.
</event>
<event>
 7    1  0.1215217E-011  0.5930193E+02  0.7816164E-02  0.1266605E+00
        -11   -1    0    0    0    0  0.00000000000E+00  0.00000000000E+00  0.45593999997E+02  0.45594000000E+02  0.51100000000E-03 0. -1.
         11   -1    0    0    0    0 -0.00000000000E+00 -0.00000000000E+00 -0.45593999997E+02  0.45594000000E+02  0.51100000000E-03 0.  1.
    9900012    2    1    2    0    0 -0.84721355014E+00  0.16707922637E+02  0.27144960724E+02  0.59301931845E+02  0.49999977782E+02 0.  0.
        -12    1    1    2    0    0  0.84721355014E+00 -0.16707922637E+02 -0.27144960724E+02  0.31886068155E+02  0.00000000000E+00 0.  1.
         11    1    3    3    0    0 -0.19304101396E+01  0.84342715366E+01  0.29988399878E+02  0.31211657232E+02  0.51100000000E-03 0. -1.
        -11    1    3    3    0    0  0.84175092377E+01  0.72022129334E+01  0.88951449639E+01  0.14207390228E+02  0.51100000000E-03 0.  1.
        -12    1    3    3    0    0 -0.73343126482E+01  0.10714381670E+01 -0.11738584117E+02  0.13882884385E+02  0.00000000000E+00 0.  1.
</event>
<event>
 7    1  0.1215217E-011  0.5930198E+02  0.7816164E-02  0.1266605E+00
        -11   -1    0    0    0    0  0.00000000000E+00  0.00000000000E+00  0.45593999997E+02  0.45594000000E+02  0.51100000000E-03 0.  1.
         11   -1    0    0    0    0 -0.00000000000E+00 -0.00000000000E+00 -0.45593999997E+02  0.45594000000E+02  0.51100000000E-03 0. -1.
    9900012    2    1    2    0    0 -0.56886420635E+01 -0.25535462659E+02 -0.18229039155E+02  0.59301978451E+02  0.50000062779E+02 0.  0.
        -12    1    1    2    0    0  0.56886420635E+01  0.25535462659E+02  0.18229039155E+02  0.31886021549E+02  0.00000000000E+00 0.  1.
         11    1    3    3    0    0 -0.71043007853E+00 -0.25302071629E+01 -0.13591236196E+02  0.13842989590E+02  0.51100000000E-03 0. -1.
        -11    1    3    3    0    0 -0.96384999331E+01  0.13700844520E+01 -0.15552299050E+02  0.18348073969E+02  0.51100000000E-03 0.  1.
        -12    1    3    3    0    0  0.46602879482E+01 -0.24375339948E+02  0.10914496092E+02  0.27110914892E+02  0.00000000000E+00 0.  1.
</event>
<event>
 7    1  0.1215217E-011  0.5930195E+02  0.7816164E-02  0.1266605E+00
        -11   -1    0    0    0    0  0.00000000000E+00  0.00000000000E+00  0.45593999997E+02  0.45594000000E+02  0.51100000000E-03 0.  1.
         11   -1    0    0    0    0 -0.00000000000E+00 -0.00000000000E+00 -0.45593999997E+02  0.45594000000E+02  0.51100000000E-03 0. -1.
    9900012    2    1    2    0    0  0.21690741082E+02  0.14283958800E+01 -0.23327918036E+02  0.59301947824E+02  0.50000006924E+02 0.  0.
        -12    1    1    2    0    0 -0.21690741082E+02 -0.14283958800E+01  0.23327918036E+02  0.31886052176E+02  0.00000000000E+00 0.  1.
         11    1    3    3    0    0  0.85541733378E+01 -0.98598528735E+01 -0.22819671620E+02  0.26289313291E+02  0.51100000000E-03 0.  1.
        -11    1    3    3    0    0  0.14500543607E+02  0.77940553941E+01 -0.12357095149E+02  0.20584238270E+02  0.51100000000E-03 0. -1.
        -12    1    3    3    0    0 -0.13639758631E+01  0.34941933594E+01  0.11848848733E+02  0.12428396264E+02  0.00000000000E+00 0.  1.
</event>
<event>
 7    1  0.1215217E-011  0.5930194E+02  0.7816164E-02  0.1266605E+00
        -11   -1    0    0    0    0  0.00000000000E+00  0.00000000000E+00  0.45593999997E+02  0.45594000000E+02  0.51100000000E-03 0. -1.
         11   -1    0    0    0    0 -0.00000000000E+00 -0.00000000000E+00 -0.45593999997E+02  0.45594000000E+02  0.51100000000E-03 0.  1.
    9900012    2    1    2    0    0 -0.18625836810E+02 -0.25878593008E+02 -0.31233002495E+00  0.59301938421E+02  0.49999989775E+02 0.  0.
        -12    1    1    2    0    0  0.18625836810E+02  0.25878593008E+02  0.31233002495E+00  0.31886061579E+02  0.00000000000E+00 0.  1.
         11    1    3    3    0    0  0.58433108357E+01 -0.19364428325E+01 -0.30887816883E+01  0.68872828420E+01  0.51100000000E-03 0. -1.
        -11    1    3    3    0    0 -0.17395500043E+02  0.67221565177E+01  0.83879094910E+01  0.20448663426E+02  0.51100000000E-03 0.  1.
         12    1    3    3    0    0 -0.70736476028E+01 -0.30664306693E+02 -0.56114578277E+01  0.31965992153E+02  0.00000000000E+00 0. -1.
</event>
<event>
 7    1  0.1215217E-011  0.5930189E+02  0.7816164E-02  0.1266605E+00
        -11   -1    0    0    0    0  0.00000000000E+00  0.00000000000E+00  0.45593999997E+02  0.45594000000E+02  0.51100000000E-03 0. -1.
         11   -1    0    0    0    0 -0.00000000000E+00 -0.00000000000E+00 -0.45593999997E+02  0.45594000000E+02  0.51100000000E-03 0.  1.
    9900012    2    1    2    0    0 -0.30924508011E+02 -0.15519987687E+01 -0.76151317870E+01  0.59301888164E+02  0.49999898118E+02 0.  0.
        -12    1    1    2    0    0  0.30924508011E+02  0.15519987687E+01  0.76151317870E+01  0.31886111836E+02  0.00000000000E+00 0.  1.
         11    1    3    3    0    0 -0.14409052589E+02  0.64658698347E+01  0.32183184262E+01  0.16117873401E+02  0.51100000000E-03 0. -1.
        -11    1    3    3    0    0  0.19051771899E+01 -0.82275277483E+01  0.11478052873E+02  0.14250179332E+02  0.51100000000E-03 0.  1.
         12    1    3    3    0    0 -0.18420632612E+02  0.20965914492E+00 -0.22311503086E+02  0.28933835431E+02  0.00000000000E+00 0. -1.
</event>
<event>
 7    1  0.1215217E-011  0.5930199E+02  0.7816164E-02  0.1266605E+00
        -11   -1    0    0    0    0  0.00000000000E+00  0.00000000000E+00  0.45593999997E+02  0.45594000000E+02  0.51100000000E-03 0.  1.
         11   -1    0    0    0    0 -0.00000000000E+00 -0.00000000000E+00 -0.45593999997E+02  0.45594000000E+02  0.51100000000E-03 0. -1.
    9900012    2    1    2    0    0  0.22837599517E+02 -0.14491572709E+02 -0.16886570286E+02  0.59301986024E+02  0.50000076590E+02 0.  0.
        -12    1    1    2    0    0 -0.22837599517E+02  0.14491572709E+02  0.16886570286E+02  0.31886013976E+02  0.00000000000E+00 0.  1.
         11    1    3    3    0    0 -0.61178077452E+01  0.44716869317E+01 -0.99995065495E+01  0.12546461139E+02  0.51100000000E-03 0. -1.
        -11    1    3    3    0    0 -0.35028094656E+01  0.41975896512E+01 -0.40051250071E+01  0.67772014590E+01  0.51100000000E-03 0.  1.
        -12    1    3    3    0    0  0.32458216728E+02 -0.23160849291E+02 -0.28819387291E+01  0.39978323426E+02  0.00000000000E+00 0.  1.
</event>
<event>
 7    1  0.1215217E-011  0.5930198E+02  0.7816164E-02  0.1266605E+00
        -11   -1    0    0    0    0  0.00000000000E+00  0.00000000000E+00  0.45593999997E+02  0.45594000000E+02  0.51100000000E-03 0.  1.
         11   -1    0    0    0    0 -0.00000000000E+00 -0.00000000000E+00 -0.45593999997E+02  0.45594000000E+02  0.51100000000E-03 0. -1.
    9900012    2    1    2    0    0 -0.14531378757E+02 -0.17840808612E+02 -0.22074034177E+02  0.59301977900E+02  0.50000061775E+02 0.  0.
        -12    1    1    2    0    0  0.14531378757E+02  0.17840808612E+02  0.22074034177E+02  0.31886022100E+02  0.00000000000E+00 0.  1.
         11    1    3    3    0    0 -0.51734599615E+01 -0.68194814672E+01 -0.83492823087E+01  0.11957446667E+02  0.51100000000E-03 0. -1.
        -11    1    3    3    0    0 -0.97058165444E+01 -0.26229060421E+02 -0.15589861829E+02  0.32018905001E+02  0.51100000000E-03 0.  1.
         12    1    3    3    0    0  0.34789774946E+00  0.15207733276E+02  0.18651099614E+01  0.15325626232E+02  0.00000000000E+00 0. -1.
</event>
<event>
 7    1  0.1215217E-011  0.5930195E+02  0.7816164E-02  0.1266605E+00
        -11   -1    0    0    0    0  0.00000000000E+00  0.00000000000E+00  0.45593999997E+02  0.45594000000E+02  0.51100000000E-03 0.  1.
         11   -1    0    0    0    0 -0.00000000000E+00 -0.00000000000E+00 -0.45593999997E+02  0.45594000000E+02  0.51100000000E-03 0. -1.
    9900012    2    1    2    0    0  0.24429251742E+02  0.87219455924E+01 -0.18543453768E+02  0.59301947355E+02  0.50000006068E+02 0.  0.
        -12    1    1    2    0    0 -0.24429251742E+02 -0.87219455924E+01  0.18543453768E+02  0.31886052645E+02  0.00000000000E+00 0.  1.
         11    1    3    3    0    0  0.80081354258E+01  0.22284072279E+02 -0.14269378677E+02  0.27646433376E+02  0.51100000000E-03 0. -1.
        -11    1    3    3    0    0  0.62505443501E+01  0.27807302877E+01 -0.95024973095E+01  0.11708937654E+02  0.51100000000E-03 0.  1.
        -12    1    3    3    0    0  0.10170571967E+02 -0.16342856974E+02  0.52284222178E+01  0.19946576325E+02  0.00000000000E+00 0.  1.
</event>
<event>
 7    1  0.1215217E-011  0.5930196E+02  0.7816164E-02  0.1266605E+00
        -11   -1    0    0    0    0  0.00000000000E+00  0.00000000000E+00  0.45593999997E+02  0.45594000000E+02  0.51100000000E-03 0. -1.
         11   -1    0    0    0    0 -0.00000000000E+00 -0.00000000000E+00 -0.45593999997E+02  0.45594000000E+02  0.51100000000E-03 0.  1.
    9900012    2    1    2    0    0 -0.72604783264E+01  0.22342571172E+02  0.21559564294E+02  0.59301955331E+02  0.50000020614E+02 0.  0.
        -12    1    1    2    0    0  0.72604783264E+01 -0.22342571172E+02 -0.21559564294E+02  0.31886044669E+02  0.00000000000E+00 0.  1.
         11    1    3    3    0    0 -0.16503231440E+02  0.86056104168E+01  0.12115861268E+02  0.22208270377E+02  0.51100000000E-03 0. -1.
        -11    1    3    3    0    0 -0.10986690752E+02 -0.58494240752E+00  0.17466285243E+01  0.11140028849E+02  0.51100000000E-03 0.  1.
        -12    1    3    3    0    0  0.20229443866E+02  0.14321903162E+02  0.76970745023E+01  0.25953656105E+02  0.00000000000E+00 0.  1.
</event>
<event>
 7    1  0.1215217E-011  0.5930196E+02  0.7816164E-02  0.1266605E+00
        -11   -1    0    0    0    0  0.00000000000E+00  0.00000000000E+00  0.45593999997E+02  0.45594000000E+02  0.51100000000E-03 0.  1.
         11   -1    0    0    0    0 -0.00000000000E+00 -0.00000000000E+00 -0.45593999997E+02  0.45594000000E+02  0.51100000000E-03 0. -1.
    9900012    2    1    2    0    0  0.16971736236E+02  0.85268540053E+01 -0.25611959270E+02  0.59301960300E+02  0.50000029677E+02 0.  0.
        -12    1    1    2    0    0 -0.16971736236E+02 -0.85268540053E+01  0.25611959270E+02  0.31886039700E+02  0.00000000000E+00 0.  1.
         11    1    3    3    0    0  0.91600181879E+01  0.34886129764E+01 -0.42796873230E+01  0.10695423206E+02  0.51100000000E-03 0. -1.
        -11    1    3    3    0    0  0.18819988760E+02  0.13813186371E+02 -0.36049790937E+00  0.23347934677E+02  0.51100000000E-03 0.  1.
         12    1    3    3    0    0 -0.11008270712E+02 -0.87749453418E+01 -0.20971774038E+02  0.25258602418E+02  0.00000000000E+00 0. -1.
</event>
<event>
 7    1  0.1215217E-011  0.5930194E+02  0.7816164E-02  0.1266605E+00
        -11   -1    0    0    0    0  0.00000000000E+00  0.00000000000E+00  0.45593999997E+02  0.45594000000E+02  0.51100000000E-03 0.  1.
         11   -1    0    0    0    0 -0.00000000000E+00 -0.00000000000E+00 -0.45593999997E+02  0.45594000000E+02  0.51100000000E-03 0. -1.
    9900012    2    1    2    0    0  0.58171878372E+01 -0.46735245609E+00 -0.31347450972E+02  0.59301940740E+02  0.49999994005E+02 0.  0.
        -12    1    1    2    0    0 -0.58171878372E+01  0.46735245609E+00  0.31347450972E+02  0.31886059260E+02  0.00000000000E+00 0.  1.
         11    1    3    3    0    0  0.12089271712E+02  0.32927255939E+01 -0.45675128680E+01  0.13336217846E+02  0.51100000000E-03 0. -1.
        -11    1    3    3    0    0  0.14067302945E+02 -0.66052502936E+01 -0.57483251905E+01  0.16569900010E+02  0.51100000000E-03 0.  1.
         12    1    3    3    0    0 -0.20339386820E+02  0.28451722436E+01 -0.21031612914E+02  0.29395822885E+02  0.00000000000E+00 0. -1.
</event>
<event>
 7    1  0.1215217E-011  0.5930193E+02  0.7816164E-02  0.1266605E+00
        -11   -1    0    0    0    0  0.00000000000E+00  0.00000000000E+00  0.45593999997E+02  0.45594000000E+02  0.51100000000E-03 0.  1.
         11   -1    0    0    0    0 -0.00000000000E+00 -0.00000000000E+00 -0.45593999997E+02  0.45594000000E+02  0.51100000000E-03 0. -1.
    9900012    2    1    2    0    0 -0.23441024662E+02 -0.13269071176E+02  0.17063741686E+02  0.59301934589E+02  0.49999982785E+02 0.  0.
        -12    1    1    2    0    0  0.23441024662E+02  0.13269071176E+02 -0.17063741686E+02  0.31886065411E+02  0.00000000000E+00 0.  1.
         11    1    3    3    0    0 -0.21466183870E+01 -0.73752498546E+01 -0.47806528770E+01  0.90474815893E+01  0.51100000000E-03 0. -1.
        -11    1    3    3    0    0 -0.23752720926E+02 -0.19833201460E+01 -0.38533858458E+01  0.24144852307E+02  0.51100000000E-03 0.  1.
        -12    1    3    3    0    0  0.24583146509E+01 -0.39105011757E+01  0.25697780409E+02  0.26109600692E+02  0.00000000000E+00 0.  1.
</event>
<event>
 7    1  0.1215217E-011  0.5930197E+02  0.7816164E-02  0.1266605E+00
        -11   -1    0    0    0    0  0.00000000000E+00  0.00000000000E+00  0.45593999997E+02  0.45594000000E+02  0.51100000000E-03 0.  1.
         11   -1    0    0    0    0 -0.00000000000E+00 -0.00000000000E+00 -0.45593999997E+02  0.45594000000E+02  0.51100000000E-03 0. -1.
    9900012    2    1    2    0    0  0.24752799353E+02 -0.16912087203E+02 -0.10862736352E+02  0.59301971548E+02  0.50000050190E+02 0.  0.
        -12    1    1    2    0    0 -0.24752799353E+02  0.16912087203E+02  0.10862736352E+02  0.31886028452E+02  0.00000000000E+00 0.  1.
         11    1    3    3    0    0  0.16881017838E+02 -0.15027676730E+02 -0.16885636987E+02  0.28212135117E+02  0.51100000000E-03 0. -1.
        -11    1    3    3    0    0  0.13552625604E+02 -0.70979952939E+01 -0.63066534070E+01  0.16547781586E+02  0.51100000000E-03 0.  1.
        -12    1    3    3    0    0 -0.56808440887E+01  0.52135848206E+01  0.12329554042E+02  0.14542054845E+02  0.00000000000E+00 0.  1.
</event>
<event>
 7    1  0.1215217E-011  0.5930181E+02  0.7816164E-02  0.1266605E+00
        -11   -1    0    0    0    0  0.00000000000E+00  0.00000000000E+00  0.45593999997E+02  0.45594000000E+02  0.51100000000E-03 0.  1.
         11   -1    0    0    0    0 -0.00000000000E+00 -0.00000000000E+00 -0.45593999997E+02  0.45594000000E+02  0.51100000000E-03 0. -1.
    9900012    2    1    2    0    0  0.21503732230E+02 -0.15234543076E+01 -0.23494636932E+02  0.59301805850E+02  0.49999747996E+02 0.  0.
        -12    1    1    2    0    0 -0.21503732230E+02  0.15234543076E+01  0.23494636932E+02  0.31886194150E+02  0.00000000000E+00 0.  1.
         11    1    3    3    0    0  0.12394976637E+02  0.57167676454E+01 -0.33495503390E+01  0.14054763103E+02  0.51100000000E-03 0. -1.
        -11    1    3    3    0    0  0.15745183529E+02  0.63309257949E+01  0.33659496521E+01  0.17300897177E+02  0.51100000000E-03 0.  1.
         12    1    3    3    0    0 -0.66364279362E+01 -0.13571147748E+02 -0.23511036245E+02  0.27946145570E+02  0.00000000000E+00 0. -1.
</event>
<event>
 7    1  0.1215217E-011  0.5930196E+02  0.7816164E-02  0.1266605E+00
        -11   -1    0    0    0    0  0.00000000000E+00  0.00000000000E+00  0.45593999997E+02  0.45594000000E+02  0.51100000000E-03 0.  1.
         11   -1    0    0    0    0 -0.00000000000E+00 -0.00000000000E+00 -0.45593999997E+02  0.45594000000E+02  0.51100000000E-03 0. -1.
    9900012    2    1    2    0    0  0.66384382517E+01  0.29054769716E+02  0.11334505117E+02  0.59301960548E+02  0.50000030129E+02 0.  0.
        -12    1    1    2    0    0 -0.66384382517E+01 -0.29054769716E+02 -0.11334505117E+02  0.31886039452E+02  0.00000000000E+00 0.  1.
         11    1    3    3    0    0  0.56296721530E+01  0.12477281558E+02  0.21292548986E+01  0.13853140089E+02  0.51100000000E-03 0. -1.
        -11    1    3    3    0    0  0.48976019825E+01 -0.10586311445E+02  0.13315492207E+02  0.17701944192E+02  0.51100000000E-03 0.  1.
         12    1    3    3    0    0 -0.38888358838E+01  0.27163799603E+02 -0.41102419888E+01  0.27746876267E+02  0.00000000000E+00 0. -1.
</event>
<event>
 7    1  0.1215217E-011  0.5930194E+02  0.7816164E-02  0.1266605E+00
        -11   -1    0    0    0    0  0.00000000000E+00  0.00000000000E+00  0.45593999997E+02  0.45594000000E+02  0.51100000000E-03 0.  1.
         11   -1    0    0    0    0 -0.00000000000E+00 -0.00000000000E+00 -0.45593999997E+02  0.45594000000E+02  0.51100000000E-03 0. -1.
    9900012    2    1    2    0    0 -0.67012292294E+01 -0.21959791375E+02 -0.22126490964E+02  0.59301944854E+02  0.50000001507E+02 0.  0.
        -12    1    1    2    0    0  0.67012292294E+01  0.21959791375E+02  0.22126490964E+02  0.31886055146E+02  0.00000000000E+00 0.  1.
         11    1    3    3    0    0 -0.87471408072E+01  0.32607760948E+01 -0.44727316491E+01  0.10351350719E+02  0.51100000000E-03 0. -1.
        -11    1    3    3    0    0 -0.11082874676E+02  0.46032084938E+01 -0.96422570432E+01  0.15394569194E+02  0.51100000000E-03 0.  1.
         12    1    3    3    0    0  0.13128786254E+02 -0.29823775963E+02 -0.80115022715E+01  0.33556024941E+02  0.00000000000E+00 0. -1.
</event>
<event>
 7    1  0.1215217E-011  0.5930198E+02  0.7816164E-02  0.1266605E+00
        -11   -1    0    0    0    0  0.00000000000E+00  0.00000000000E+00  0.45593999997E+02  0.45594000000E+02  0.51100000000E-03 0.  1.
         11   -1    0    0    0    0 -0.00000000000E+00 -0.00000000000E+00 -0.45593999997E+02  0.45594000000E+02  0.51100000000E-03 0. -1.
    9900012    2    1    2    0    0  0.11095583139E+02  0.26996604406E+02  0.12837034121E+02  0.59301983321E+02  0.50000071661E+02 0.  0.
        -12    1    1    2    0    0 -0.11095583139E+02 -0.26996604406E+02 -0.12837034121E+02  0.31886016679E+02  0.00000000000E+00 0.  1.
         11    1    3    3    0    0  0.20335406436E+02 -0.89854453992E+00  0.17216578045E+02  0.26659833028E+02  0.51100000000E-03 0.  1.
        -11    1    3    3    0    0 -0.53611026006E+01  0.36475546526E+01 -0.48246030475E+01  0.80822565454E+01  0.51100000000E-03 0. -1.
        -12    1    3    3    0    0 -0.38787206971E+01  0.24247594293E+02  0.44505912376E+00  0.24559893747E+02  0.00000000000E+00 0.  1.
</event>
<event>
 7    1  0.1215217E-011  0.5930193E+02  0.7816164E-02  0.1266605E+00
        -11   -1    0    0    0    0  0.00000000000E+00  0.00000000000E+00  0.45593999997E+02  0.45594000000E+02  0.51100000000E-03 0.  1.
         11   -1    0    0    0    0 -0.00000000000E+00 -0.00000000000E+00 -0.45593999997E+02  0.45594000000E+02  0.51100000000E-03 0. -1.
    9900012    2    1    2    0    0 -0.24010357087E+02  0.17147806370E+02 -0.12090354884E+02  0.59301934204E+02  0.49999982083E+02 0.  0.
        -12    1    1    2    0    0  0.24010357087E+02 -0.17147806370E+02  0.12090354884E+02  0.31886065796E+02  0.00000000000E+00 0.  1.
         11    1    3    3    0    0 -0.22473493253E+01  0.16291666099E+02 -0.12863662661E+01  0.16496172335E+02  0.51100000000E-03 0. -1.
        -11    1    3    3    0    0 -0.79012801633E+01 -0.19939433907E+01  0.12865011836E+02  0.15228741519E+02  0.51100000000E-03 0.  1.
        -12    1    3    3    0    0 -0.13861727598E+02  0.28500836616E+01 -0.23669000453E+02  0.27577020349E+02  0.00000000000E+00 0.  1.
</event>
<event>
 7    1  0.1215217E-011  0.5930195E+02  0.7816164E-02  0.1266605E+00
        -11   -1    0    0    0    0  0.00000000000E+00  0.00000000000E+00  0.45593999997E+02  0.45594000000E+02  0.51100000000E-03 0.  1.
         11   -1    0    0    0    0 -0.00000000000E+00 -0.00000000000E+00 -0.45593999997E+02  0.45594000000E+02  0.51100000000E-03 0. -1.
    9900012    2    1    2    0    0  0.27644353421E+02 -0.10150529392E+02 -0.12226057048E+02  0.59301952990E+02  0.50000016344E+02 0.  0.
        -12    1    1    2    0    0 -0.27644353421E+02  0.10150529392E+02  0.12226057048E+02  0.31886047010E+02  0.00000000000E+00 0.  1.
         11    1    3    3    0    0  0.13087625698E+02  0.31044469261E+00 -0.46603756939E+01  0.13896093846E+02  0.51100000000E-03 0. -1.
        -11    1    3    3    0    0  0.99684952014E+01  0.13196959838E+02 -0.12594175925E+02  0.20788071412E+02  0.51100000000E-03 0.  1.
        -12    1    3    3    0    0  0.45882325221E+01 -0.23657933922E+02  0.50284945702E+01  0.24617787732E+02  0.00000000000E+00 0.  1.
</event>
<event>
 7    1  0.1215217E-011  0.5930193E+02  0.7816164E-02  0.1266605E+00
        -11   -1    0    0    0    0  0.00000000000E+00  0.00000000000E+00  0.45593999997E+02  0.45594000000E+02  0.51100000000E-03 0.  1.
         11   -1    0    0    0    0 -0.00000000000E+00 -0.00000000000E+00 -0.45593999997E+02  0.45594000000E+02  0.51100000000E-03 0. -1.
    9900012    2    1    2    0    0 -0.29964826860E+02  0.10618487464E+02 -0.24654455922E+01  0.59301928640E+02  0.49999971937E+02 0.  0.
        -12    1    1    2    0    0  0.29964826860E+02 -0.10618487464E+02  0.24654455922E+01  0.31886071360E+02  0.00000000000E+00 0.  1.
         11    1    3    3    0    0 -0.79003586075E+01 -0.35769731839E+00 -0.93631459652E+01  0.12256105259E+02  0.51100000000E-03 0. -1.
        -11    1    3    3    0    0 -0.21821098620E+02  0.16360807473E+02 -0.10200229879E+02  0.29118397208E+02  0.51100000000E-03 0.  1.
        -12    1    3    3    0    0 -0.24336963268E+00 -0.53846226903E+01  0.17097930252E+02  0.17927426173E+02  0.00000000000E+00 0.  1.
</event>
<event>
 7    1  0.1215217E-011  0.5930191E+02  0.7816164E-02  0.1266605E+00
        -11   -1    0    0    0    0  0.00000000000E+00  0.00000000000E+00  0.45593999997E+02  0.45594000000E+02  0.51100000000E-03 0. -1.
         11   -1    0    0    0    0 -0.00000000000E+00 -0.00000000000E+00 -0.45593999997E+02  0.45594000000E+02  0.51100000000E-03 0.  1.
    9900012    2    1    2    0    0  0.25598826503E+02 -0.13596597949E+02  0.13287403831E+02  0.59301913776E+02  0.49999944827E+02 0.  0.
        -12    1    1    2    0    0 -0.25598826503E+02  0.13596597949E+02 -0.13287403831E+02  0.31886086224E+02  0.00000000000E+00 0.  1.
         11    1    3    3    0    0  0.90175846328E+01 -0.30346510168E+01  0.15897792013E+02  0.18527431839E+02  0.51100000000E-03 0. -1.
        -11    1    3    3    0    0 -0.89947282622E-02  0.12367256400E+02 -0.17882177637E+00  0.12368552432E+02  0.51100000000E-03 0.  1.
         12    1    3    3    0    0  0.16590236599E+02 -0.22929203332E+02 -0.24315664049E+01  0.28405929505E+02  0.00000000000E+00 0. -1.
</event>
<event>
 7    1  0.1215217E-011  0.5930191E+02  0.7816164E-02  0.1266605E+00
        -11   -1    0    0    0    0  0.00000000000E+00  0.00000000000E+00  0.45593999997E+02  0.45594000000E+02  0.51100000000E-03 0.  1.
         11   -1    0    0    0    0 -0.00000000000E+00 -0.00000000000E+00 -0.45593999997E+02  0.45594000000E+02  0.51100000000E-03 0. -1.
    9900012    2    1    2    0    0 -0.52240521049E+01 -0.30374034017E+02  0.81761829754E+01  0.59301911640E+02  0.49999940933E+02 0.  0.
        -12    1    1    2    0    0  0.52240521049E+01  0.30374034017E+02 -0.81761829754E+01  0.31886088360E+02  0.00000000000E+00 0.  1.
         11    1    3    3    0    0  0.33880077024E+01 -0.16668271584E+02 -0.14614172669E+02  0.22425073397E+02  0.51100000000E-03 0. -1.
        -11    1    3    3    0    0 -0.12579459357E+02 -0.62427784045E+01  0.16875283922E+01  0.14144356905E+02  0.51100000000E-03 0.  1.
        -12    1    3    3    0    0  0.39673995497E+01 -0.74629840276E+01  0.21102827252E+02  0.22732481338E+02  0.00000000000E+00 0.  1.
</event>
<event>
 7    1  0.1215217E-011  0.5930193E+02  0.7816164E-02  0.1266605E+00
        -11   -1    0    0    0    0  0.00000000000E+00  0.00000000000E+00  0.45593999997E+02  0.45594000000E+02  0.51100000000E-03 0. -1.
         11   -1    0    0    0    0 -0.00000000000E+00 -0.00000000000E+00 -0.45593999997E+02  0.45594000000E+02  0.51100000000E-03 0.  1.
    9900012    2    1    2    0    0  0.21885624943E+02  0.29528513993E+01  0.23000469502E+02  0.59301929250E+02  0.49999973049E+02 0.  0.
        -12    1    1    2    0    0 -0.21885624943E+02 -0.29528513993E+01 -0.23000469502E+02  0.31886070750E+02  0.00000000000E+00 0.  1.
         11    1    3    3    0    0 -0.75069890887E+01  0.38194572047E+01 -0.40061280325E+01  0.93269609515E+01  0.51100000000E-03 0.  1.
        -11    1    3    3    0    0 -0.17287657671E+01 -0.84487948989E+01  0.11535487134E+02  0.14402716064E+02  0.51100000000E-03 0. -1.
         12    1    3    3    0    0  0.31121379799E+02  0.75821890936E+01  0.15471110400E+02  0.35572252235E+02  0.00000000000E+00 0. -1.
</event>
<event>
 7    1  0.1215217E-011  0.5930196E+02  0.7816164E-02  0.1266605E+00
        -11   -1    0    0    0    0  0.00000000000E+00  0.00000000000E+00  0.45593999997E+02  0.45594000000E+02  0.51100000000E-03 0.  1.
         11   -1    0    0    0    0 -0.00000000000E+00 -0.00000000000E+00 -0.45593999997E+02  0.45594000000E+02  0.51100000000E-03 0. -1.
    9900012    2    1    2    0    0  0.94836708543E+01  0.30440522939E+02  0.39288764511E+00  0.59301955868E+02  0.50000021594E+02 0.  0.
        -12    1    1    2    0    0 -0.94836708543E+01 -0.30440522939E+02 -0.39288764511E+00  0.31886044132E+02  0.00000000000E+00 0.  1.
         11    1    3    3    0    0  0.90518712883E+01  0.23546779794E+01 -0.12296670303E+01  0.94336081895E+01  0.51100000000E-03 0. -1.
        -11    1    3    3    0    0  0.75973151664E+01 -0.69322124887E+01  0.86521170491E+01  0.13440011065E+02  0.51100000000E-03 0.  1.
        -12    1    3    3    0    0 -0.71655156004E+01  0.35018057449E+02 -0.70295623737E+01  0.36428336614E+02  0.00000000000E+00 0.  1.
</event>
<event>
 7    1  0.1215217E-011  0.5930195E+02  0.7816164E-02  0.1266605E+00
        -11   -1    0    0    0    0  0.00000000000E+00  0.00000000000E+00  0.45593999997E+02  0.45594000000E+02  0.51100000000E-03 0.  1.
         11   -1    0    0    0    0 -0.00000000000E+00 -0.00000000000E+00 -0.45593999997E+02  0.45594000000E+02  0.51100000000E-03 0. -1.
    9900012    2    1    2    0    0  0.29132285954E+02 -0.12857831984E+02 -0.16450744997E+01  0.59301949784E+02  0.50000010499E+02 0.  0.
        -12    1    1    2    0    0 -0.29132285954E+02  0.12857831984E+02  0.16450744997E+01  0.31886050216E+02  0.00000000000E+00 0.  1.
         11    1    3    3    0    0  0.87217961316E+01 -0.14770018890E+02  0.67113836840E+01  0.18419170910E+02  0.51100000000E-03 0.  1.
        -11    1    3    3    0    0  0.28335464836E+02  0.78136602663E+01 -0.96065504506E+01  0.30923092763E+02  0.51100000000E-03 0. -1.
         12    1    3    3    0    0 -0.79249750127E+01 -0.59014733596E+01  0.12500922669E+01  0.99596861116E+01  0.00000000000E+00 0. -1.
</event>
<event>
 7    1  0.1215217E-011  0.5930211E+02  0.7816164E-02  0.1266604E+00
        -11   -1    0    0    0    0  0.00000000000E+00  0.00000000000E+00  0.45593999997E+02  0.45594000000E+02  0.51100000000E-03 0.  1.
         11   -1    0    0    0    0 -0.00000000000E+00 -0.00000000000E+00 -0.45593999997E+02  0.45594000000E+02  0.51100000000E-03 0. -1.
    9900012    2    1    2    0    0 -0.18178098014E+02  0.23087853778E+02  0.12378108844E+02  0.59302112557E+02  0.50000307355E+02 0.  0.
        -12    1    1    2    0    0  0.18178098014E+02 -0.23087853778E+02 -0.12378108844E+02  0.31885887443E+02  0.00000000000E+00 0.  1.
         11    1    3    3    0    0  0.81461044075E+01  0.72203027277E+01  0.46585177857E+01  0.11840336850E+02  0.51100000000E-03 0. -1.
        -11    1    3    3    0    0 -0.40989928432E+00  0.92066062323E+00  0.16306725735E+02  0.16337837613E+02  0.51100000000E-03 0.  1.
         12    1    3    3    0    0 -0.25914303137E+02  0.14946890428E+02 -0.85871346764E+01  0.31123938094E+02  0.00000000000E+00 0. -1.
</event>
<event>
 7    1  0.1215217E-011  0.5930192E+02  0.7816164E-02  0.1266605E+00
        -11   -1    0    0    0    0  0.00000000000E+00  0.00000000000E+00  0.45593999997E+02  0.45594000000E+02  0.51100000000E-03 0.  1.
         11   -1    0    0    0    0 -0.00000000000E+00 -0.00000000000E+00 -0.45593999997E+02  0.45594000000E+02  0.51100000000E-03 0. -1.
    9900012    2    1    2    0    0  0.11645756013E+02 -0.26630796514E+02  0.13111024894E+02  0.59301922633E+02  0.49999960981E+02 0.  0.
        -12    1    1    2    0    0 -0.11645756013E+02  0.26630796514E+02 -0.13111024894E+02  0.31886077367E+02  0.00000000000E+00 0.  1.
         11    1    3    3    0    0  0.84853935405E+01 -0.14371289859E+02  0.79051209805E+01  0.18466911320E+02  0.51100000000E-03 0. -1.
        -11    1    3    3    0    0  0.82483086508E+01 -0.22389774551E+02  0.12909331536E+02  0.27129088466E+02  0.51100000000E-03 0.  1.
         12    1    3    3    0    0 -0.50879461787E+01  0.10130267895E+02 -0.77034276223E+01  0.13705922847E+02  0.00000000000E+00 0. -1.
</event>
<event>
 7    1  0.1215217E-011  0.5930196E+02  0.7816164E-02  0.1266605E+00
        -11   -1    0    0    0    0  0.00000000000E+00  0.00000000000E+00  0.45593999997E+02  0.45594000000E+02  0.51100000000E-03 0.  1.
         11   -1    0    0    0    0 -0.00000000000E+00 -0.00000000000E+00 -0.45593999997E+02  0.45594000000E+02  0.51100000000E-03 0. -1.
    9900012    2    1    2    0    0 -0.18634254672E+02  0.25672437138E+02 -0.32264787603E+01  0.59301958524E+02  0.50000026438E+02 0.  0.
        -12    1    1    2    0    0  0.18634254672E+02 -0.25672437138E+02  0.32264787603E+01  0.31886041476E+02  0.00000000000E+00 0.  1.
         11    1    3    3    0    0  0.19173898582E+01 -0.67849608701E+01  0.77117337169E+01  0.10449062879E+02  0.51100000000E-03 0. -1.
        -11    1    3    3    0    0  0.40229883766E+01 -0.26005638828E+01 -0.81597711693E+00  0.48593401716E+01  0.51100000000E-03 0.  1.
         12    1    3    3    0    0 -0.24574632907E+02  0.35057961891E+02 -0.10122235360E+02  0.43993555473E+02  0.00000000000E+00 0. -1.
</event>
<event>
 7    1  0.1215217E-011  0.5930196E+02  0.7816164E-02  0.1266605E+00
        -11   -1    0    0    0    0  0.00000000000E+00  0.00000000000E+00  0.45593999997E+02  0.45594000000E+02  0.51100000000E-03 0.  1.
         11   -1    0    0    0    0 -0.00000000000E+00 -0.00000000000E+00 -0.45593999997E+02  0.45594000000E+02  0.51100000000E-03 0. -1.
    9900012    2    1    2    0    0 -0.20974948717E+02 -0.23500234869E+02  0.49507650341E+01  0.59301959371E+02  0.50000027983E+02 0.  0.
        -12    1    1    2    0    0  0.20974948717E+02  0.23500234869E+02 -0.49507650341E+01  0.31886040629E+02  0.00000000000E+00 0.  1.
         11    1    3    3    0    0  0.28154066316E+01  0.74205357406E+01 -0.25911780419E+01  0.83489561673E+01  0.51100000000E-03 0. -1.
        -11    1    3    3    0    0  0.79091518368E+01 -0.78711144660E+01  0.25146500617E+01  0.11438207504E+02  0.51100000000E-03 0.  1.
        -12    1    3    3    0    0 -0.31699507185E+02 -0.23049656143E+02  0.50272930143E+01  0.39514795700E+02  0.00000000000E+00 0.  1.
</event>
<event>
 7    1  0.1215217E-011  0.5930194E+02  0.7816164E-02  0.1266605E+00
        -11   -1    0    0    0    0  0.00000000000E+00  0.00000000000E+00  0.45593999997E+02  0.45594000000E+02  0.51100000000E-03 0. -1.
         11   -1    0    0    0    0 -0.00000000000E+00 -0.00000000000E+00 -0.45593999997E+02  0.45594000000E+02  0.51100000000E-03 0.  1.
    9900012    2    1    2    0    0  0.30862600880E+02  0.66848426575E+01 -0.44197135788E+01  0.59301935293E+02  0.49999984069E+02 0.  0.
        -12    1    1    2    0    0 -0.30862600880E+02 -0.66848426575E+01  0.44197135788E+01  0.31886064707E+02  0.00000000000E+00 0.  1.
         11    1    3    3    0    0  0.12880317378E+01  0.30697389590E+01  0.64062251457E+01  0.72195598143E+01  0.51100000000E-03 0. -1.
        -11    1    3    3    0    0 -0.35249845843E+01 -0.35190771555E+01  0.10808666823E+02  0.11901121758E+02  0.51100000000E-03 0.  1.
        -12    1    3    3    0    0  0.33099553726E+02  0.71341808541E+01 -0.21634605548E+02  0.40181253720E+02  0.00000000000E+00 0.  1.
</event>
<event>
 7    1  0.1215217E-011  0.5930196E+02  0.7816164E-02  0.1266605E+00
        -11   -1    0    0    0    0  0.00000000000E+00  0.00000000000E+00  0.45593999997E+02  0.45594000000E+02  0.51100000000E-03 0.  1.
         11   -1    0    0    0    0 -0.00000000000E+00 -0.00000000000E+00 -0.45593999997E+02  0.45594000000E+02  0.51100000000E-03 0. -1.
    9900012    2    1    2    0    0  0.22433203384E+02  0.83464236610E+01 -0.21066759015E+02  0.59301957013E+02  0.50000023681E+02 0.  0.
        -12    1    1    2    0    0 -0.22433203384E+02 -0.83464236610E+01  0.21066759015E+02  0.31886042987E+02  0.00000000000E+00 0.  1.
         11    1    3    3    0    0  0.27111766568E+01  0.40227018177E+01 -0.17107078675E+02  0.17781584570E+02  0.51100000000E-03 0. -1.
        -11    1    3    3    0    0 -0.95376286766E+00 -0.55455873395E+01 -0.15049429879E+02  0.16067001664E+02  0.51100000000E-03 0.  1.
        -12    1    3    3    0    0  0.20675789595E+02  0.98693091827E+01  0.11089749539E+02  0.25453370778E+02  0.00000000000E+00 0.  1.
</event>
<event>
 7    1  0.1215217E-011  0.5930195E+02  0.7816164E-02  0.1266605E+00
        -11   -1    0    0    0    0  0.00000000000E+00  0.00000000000E+00  0.45593999997E+02  0.45594000000E+02  0.51100000000E-03 0. -1.
         11   -1    0    0    0    0 -0.00000000000E+00 -0.00000000000E+00 -0.45593999997E+02  0.45594000000E+02  0.51100000000E-03 0.  1.
    9900012    2    1    2    0    0  0.23996460928E+02 -0.18824203969E+02 -0.93026447742E+01  0.59301953021E+02  0.50000016402E+02 0.  0.
        -12    1    1    2    0    0 -0.23996460928E+02  0.18824203969E+02  0.93026447742E+01  0.31886046979E+02  0.00000000000E+00 0.  1.
         11    1    3    3    0    0  0.44276716970E+01  0.25978247735E+01  0.69251794833E+01  0.86203875404E+01  0.51100000000E-03 0. -1.
        -11    1    3    3    0    0  0.62176929546E+01 -0.11074612557E+01 -0.24268770365E+02  0.25077069035E+02  0.51100000000E-03 0.  1.
         12    1    3    3    0    0  0.13351096277E+02 -0.20314567486E+02  0.80409461070E+01  0.25604496446E+02  0.00000000000E+00 0. -1.
</event>
<event>
 7    1  0.1215217E-011  0.5930199E+02  0.7816164E-02  0.1266605E+00
        -11   -1    0    0    0    0  0.00000000000E+00  0.00000000000E+00  0.45593999997E+02  0.45594000000E+02  0.51100000000E-03 0.  1.
         11   -1    0    0    0    0 -0.00000000000E+00 -0.00000000000E+00 -0.45593999997E+02  0.45594000000E+02  0.51100000000E-03 0. -1.
    9900012    2    1    2    0    0  0.22636720109E+02 -0.59749902231E+01 -0.21647077286E+02  0.59301991149E+02  0.50000085937E+02 0.  0.
        -12    1    1    2    0    0 -0.22636720109E+02  0.59749902231E+01  0.21647077286E+02  0.31886008851E+02  0.00000000000E+00 0.  1.
         11    1    3    3    0    0  0.58938930448E+01  0.52487560429E+01  0.14712679685E+01  0.80282030940E+01  0.51100000000E-03 0. -1.
        -11    1    3    3    0    0  0.10472284755E+02  0.14007569604E+02 -0.16688373874E+01  0.17568886496E+02  0.51100000000E-03 0.  1.
        -12    1    3    3    0    0  0.62705423088E+01 -0.25231315870E+02 -0.21449507867E+02  0.33704901559E+02  0.00000000000E+00 0.  1.
</event>
<event>
 7    1  0.1215217E-011  0.5930194E+02  0.7816164E-02  0.1266605E+00
        -11   -1    0    0    0    0  0.00000000000E+00  0.00000000000E+00  0.45593999997E+02  0.45594000000E+02  0.51100000000E-03 0.  1.
         11   -1    0    0    0    0 -0.00000000000E+00 -0.00000000000E+00 -0.45593999997E+02  0.45594000000E+02  0.51100000000E-03 0. -1.
    9900012    2    1    2    0    0 -0.20634199593E+02  0.81927912812E+01 -0.22887310238E+02  0.59301937343E+02  0.49999987808E+02 0.  0.
        -12    1    1    2    0    0  0.20634199593E+02 -0.81927912812E+01  0.22887310238E+02  0.31886062657E+02  0.00000000000E+00 0.  1.
         11    1    3    3    0    0 -0.26484394073E+01  0.14225929015E+02 -0.28578470583E+02  0.32033112068E+02  0.51100000000E-03 0. -1.
        -11    1    3    3    0    0  0.12712592079E+01  0.27565748374E+01 -0.31081733742E+01  0.43445997276E+01  0.51100000000E-03 0.  1.
         12    1    3    3    0    0 -0.19257019394E+02 -0.87897125715E+01  0.87993337191E+01  0.22924225547E+02  0.00000000000E+00 0. -1.
</event>
<event>
 7    1  0.1215217E-011  0.5930196E+02  0.7816164E-02  0.1266605E+00
        -11   -1    0    0    0    0  0.00000000000E+00  0.00000000000E+00  0.45593999997E+02  0.45594000000E+02  0.51100000000E-03 0.  1.
         11   -1    0    0    0    0 -0.00000000000E+00 -0.00000000000E+00 -0.45593999997E+02  0.45594000000E+02  0.51100000000E-03 0. -1.
    9900012    2    1    2    0    0 -0.41772103174E+01  0.30480227311E+02 -0.83801099205E+01  0.59301959398E+02  0.50000028032E+02 0.  0.
        -12    1    1    2    0    0  0.41772103174E+01 -0.30480227311E+02  0.83801099205E+01  0.31886040602E+02  0.00000000000E+00 0.  1.
         11    1    3    3    0    0 -0.98389362261E+01  0.11747793255E+02  0.26756932378E+01  0.15555534288E+02  0.51100000000E-03 0.  1.
        -11    1    3    3    0    0 -0.61198650302E+01  0.25860441980E+02 -0.81755194709E+00  0.26587282652E+02  0.51100000000E-03 0. -1.
         12    1    3    3    0    0  0.11781590939E+02 -0.71280079243E+01 -0.10238251211E+02  0.17159142458E+02  0.00000000000E+00 0. -1.
</event>
<event>
 7    1  0.1215217E-011  0.5930190E+02  0.7816164E-02  0.1266605E+00
        -11   -1    0    0    0    0  0.00000000000E+00  0.00000000000E+00  0.45593999997E+02  0.45594000000E+02  0.51100000000E-03 0.  1.
         11   -1    0    0    0    0 -0.00000000000E+00 -0.00000000000E+00 -0.45593999997E+02  0.45594000000E+02  0.51100000000E-03 0. -1.
    9900012    2    1    2    0    0  0.23258963895E+02 -0.69101510208E+01 -0.20688004924E+02  0.59301903714E+02  0.49999926478E+02 0.  0.
        -12    1    1    2    0    0 -0.23258963895E+02  0.69101510208E+01  0.20688004924E+02  0.31886096286E+02  0.00000000000E+00 0.  1.
         11    1    3    3    0    0  0.59129826709E+01 -0.12002444695E+01 -0.70529202377E+01  0.92815750276E+01  0.51100000000E-03 0. -1.
        -11    1    3    3    0    0  0.26002038123E+02 -0.12138020525E+02 -0.22175712141E+02  0.36265682649E+02  0.51100000000E-03 0.  1.
        -12    1    3    3    0    0 -0.86560568992E+01  0.64281139737E+01  0.85406274541E+01  0.13754646037E+02  0.00000000000E+00 0.  1.
</event>
<event>
 7    1  0.1215217E-011  0.5930194E+02  0.7816164E-02  0.1266605E+00
        -11   -1    0    0    0    0  0.00000000000E+00  0.00000000000E+00  0.45593999997E+02  0.45594000000E+02  0.51100000000E-03 0. -1.
         11   -1    0    0    0    0 -0.00000000000E+00 -0.00000000000E+00 -0.45593999997E+02  0.45594000000E+02  0.51100000000E-03 0.  1.
    9900012    2    1    2    0    0 -0.24513288579E+02 -0.17085857880E+02  0.11130709599E+02  0.59301944228E+02  0.50000000366E+02 0.  0.
        -12    1    1    2    0    0  0.24513288579E+02  0.17085857880E+02 -0.11130709599E+02  0.31886055772E+02  0.00000000000E+00 0.  1.
         11    1    3    3    0    0  0.65272423874E+01 -0.22072513556E+01 -0.17097336371E+01  0.70992986345E+01  0.51100000000E-03 0. -1.
        -11    1    3    3    0    0 -0.28635741435E+02 -0.22182950634E+00 -0.49135785145E+01  0.29055088194E+02  0.51100000000E-03 0.  1.
         12    1    3    3    0    0 -0.24047895314E+01 -0.14656777018E+02  0.17754021751E+02  0.23147557400E+02  0.00000000000E+00 0. -1.
</event>
<event>
 7    1  0.1215217E-011  0.5930196E+02  0.7816164E-02  0.1266605E+00
        -11   -1    0    0    0    0  0.00000000000E+00  0.00000000000E+00  0.45593999997E+02  0.45594000000E+02  0.51100000000E-03 0. -1.
         11   -1    0    0    0    0 -0.00000000000E+00 -0.00000000000E+00 -0.45593999997E+02  0.45594000000E+02  0.51100000000E-03 0.  1.
    9900012    2    1    2    0    0 -0.19297919580E+02 -0.20009238688E+02  0.15618589111E+02  0.59301958245E+02  0.50000025928E+02 0.  0.
        -12    1    1    2    0    0  0.19297919580E+02  0.20009238688E+02 -0.15618589111E+02  0.31886041755E+02  0.00000000000E+00 0.  1.
         11    1    3    3    0    0 -0.21585266241E+02  0.30190478048E+01  0.40342203241E+01  0.22165588244E+02  0.51100000000E-03 0. -1.
        -11    1    3    3    0    0 -0.74198237821E+01  0.18224983632E+01 -0.87638334828E+00  0.76904702897E+01  0.51100000000E-03 0.  1.
        -12    1    3    3    0    0  0.97071704433E+01 -0.24850784856E+02  0.12460752136E+02  0.29445899711E+02  0.00000000000E+00 0.  1.
</event>
<event>
 7    1  0.1215217E-011  0.5930195E+02  0.7816164E-02  0.1266605E+00
        -11   -1    0    0    0    0  0.00000000000E+00  0.00000000000E+00  0.45593999997E+02  0.45594000000E+02  0.51100000000E-03 0.  1.
         11   -1    0    0    0    0 -0.00000000000E+00 -0.00000000000E+00 -0.45593999997E+02  0.45594000000E+02  0.51100000000E-03 0. -1.
    9900012    2    1    2    0    0  0.28783645660E+02 -0.13701387822E+02 -0.70270601276E+00  0.59301951617E+02  0.50000013841E+02 0.  0.
        -12    1    1    2    0    0 -0.28783645660E+02  0.13701387822E+02  0.70270601276E+00  0.31886048383E+02  0.00000000000E+00 0.  1.
         11    1    3    3    0    0  0.76636247539E+01  0.16781278488E+01 -0.11972840950E+02  0.14314194987E+02  0.51100000000E-03 0. -1.
        -11    1    3    3    0    0  0.16252136694E+02 -0.19279272670E+01 -0.10129344496E+02  0.19247141888E+02  0.51100000000E-03 0.  1.
        -12    1    3    3    0    0  0.48678842127E+01 -0.13451588403E+02  0.21399479434E+02  0.25740614742E+02  0.00000000000E+00 0.  1.
</event>
<event>
 7    1  0.1215217E-011  0.5930192E+02  0.7816164E-02  0.1266605E+00
        -11   -1    0    0    0    0  0.00000000000E+00  0.00000000000E+00  0.45593999997E+02  0.45594000000E+02  0.51100000000E-03 0. -1.
         11   -1    0    0    0    0 -0.00000000000E+00 -0.00000000000E+00 -0.45593999997E+02  0.45594000000E+02  0.51100000000E-03 0.  1.
    9900012    2    1    2    0    0  0.83567906162E+01 -0.83763246993E+01  0.29609516637E+02  0.59301917765E+02  0.49999952102E+02 0.  0.
        -12    1    1    2    0    0 -0.83567906162E+01  0.83763246993E+01 -0.29609516637E+02  0.31886082235E+02  0.00000000000E+00 0.  1.
         11    1    3    3    0    0  0.12507375316E+01  0.85490166827E+01  0.34481362786E+02  0.35547354479E+02  0.51100000000E-03 0. -1.
        -11    1    3    3    0    0  0.59548082490E+01  0.30284775425E+00 -0.16883039305E+01  0.61969208860E+01  0.51100000000E-03 0.  1.
        -12    1    3    3    0    0  0.11512448357E+01 -0.17228189136E+02 -0.31835422186E+01  0.17557642400E+02  0.00000000000E+00 0.  1.
</event>
<event>
 7    1  0.1215217E-011  0.5930197E+02  0.7816164E-02  0.1266605E+00
        -11   -1    0    0    0    0  0.00000000000E+00  0.00000000000E+00  0.45593999997E+02  0.45594000000E+02  0.51100000000E-03 0. -1.
         11   -1    0    0    0    0 -0.00000000000E+00 -0.00000000000E+00 -0.45593999997E+02  0.45594000000E+02  0.51100000000E-03 0.  1.
    9900012    2    1    2    0    0  0.30069867330E+02  0.71687724232E+01  0.78186211808E+01  0.59301967691E+02  0.50000043155E+02 0.  0.
        -12    1    1    2    0    0 -0.30069867330E+02 -0.71687724232E+01 -0.78186211808E+01  0.31886032309E+02  0.00000000000E+00 0.  1.
         11    1    3    3    0    0 -0.22019198880E+01  0.52370535859E+01 -0.86880789819E+01  0.10380650178E+02  0.51100000000E-03 0. -1.
        -11    1    3    3    0    0 -0.17822428941E+01  0.10167640813E+01 -0.71552153430E+01  0.74436083855E+01  0.51100000000E-03 0.  1.
        -12    1    3    3    0    0  0.34054030112E+02  0.91495475602E+00  0.23661915506E+02  0.41477709127E+02  0.00000000000E+00 0.  1.
</event>
<event>
 7    1  0.1215217E-011  0.5930194E+02  0.7816164E-02  0.1266605E+00
        -11   -1    0    0    0    0  0.00000000000E+00  0.00000000000E+00  0.45593999997E+02  0.45594000000E+02  0.51100000000E-03 0. -1.
         11   -1    0    0    0    0 -0.00000000000E+00 -0.00000000000E+00 -0.45593999997E+02  0.45594000000E+02  0.51100000000E-03 0.  1.
    9900012    2    1    2    0    0 -0.25588655995E+02  0.55221603742E+01  0.18205693172E+02  0.59301939805E+02  0.49999992299E+02 0.  0.
        -12    1    1    2    0    0  0.25588655995E+02 -0.55221603742E+01 -0.18205693172E+02  0.31886060195E+02  0.00000000000E+00 0.  1.
         11    1    3    3    0    0 -0.12189418179E+01 -0.68090670672E+01  0.86108745168E+01  0.11045196860E+02  0.51100000000E-03 0. -1.
        -11    1    3    3    0    0  0.62349161476E+01  0.50425888387E+01 -0.87255777657E+01  0.11850636657E+02  0.51100000000E-03 0.  1.
         12    1    3    3    0    0 -0.30604630325E+02  0.72886386027E+01  0.18320396421E+02  0.36406106288E+02  0.00000000000E+00 0. -1.
</event>
<event>
 7    1  0.1215217E-011  0.5930195E+02  0.7816164E-02  0.1266605E+00
        -11   -1    0    0    0    0  0.00000000000E+00  0.00000000000E+00  0.45593999997E+02  0.45594000000E+02  0.51100000000E-03 0. -1.
         11   -1    0    0    0    0 -0.00000000000E+00 -0.00000000000E+00 -0.45593999997E+02  0.45594000000E+02  0.51100000000E-03 0.  1.
    9900012    2    1    2    0    0 -0.22642573584E+00 -0.78477380323E+01  0.30904401777E+02  0.59301948033E+02  0.50000007305E+02 0.  0.
        -12    1    1    2    0    0  0.22642573584E+00  0.78477380323E+01 -0.30904401777E+02  0.31886051967E+02  0.00000000000E+00 0.  1.
         11    1    3    3    0    0 -0.11742405881E+02 -0.23440231503E+01  0.64123446442E+01  0.13582956398E+02  0.51100000000E-03 0. -1.
        -11    1    3    3    0    0 -0.77579401445E+01  0.29115915722E+01 -0.48628957638E+01  0.96078486790E+01  0.51100000000E-03 0.  1.
         12    1    3    3    0    0  0.19273920290E+02 -0.84153064541E+01  0.29354952897E+02  0.36111142956E+02  0.00000000000E+00 0. -1.
</event>
<event>
 7    1  0.1215217E-011  0.5930194E+02  0.7816164E-02  0.1266605E+00
        -11   -1    0    0    0    0  0.00000000000E+00  0.00000000000E+00  0.45593999997E+02  0.45594000000E+02  0.51100000000E-03 0.  1.
         11   -1    0    0    0    0 -0.00000000000E+00 -0.00000000000E+00 -0.45593999997E+02  0.45594000000E+02  0.51100000000E-03 0. -1.
    9900012    2    1    2    0    0  0.10758697124E+02 -0.86995388506E+01 -0.28727850225E+02  0.59301938491E+02  0.49999989902E+02 0.  0.
        -12    1    1    2    0    0 -0.10758697124E+02  0.86995388506E+01  0.28727850225E+02  0.31886061509E+02  0.00000000000E+00 0.  1.
         11    1    3    3    0    0  0.35684793855E+01 -0.10976649125E+02  0.50450541754E+01  0.12596564731E+02  0.51100000000E-03 0. -1.
        -11    1    3    3    0    0 -0.42726251157E+01  0.11724993556E+02 -0.34624875244E+01  0.12950660963E+02  0.51100000000E-03 0.  1.
         12    1    3    3    0    0  0.11462842854E+02 -0.94478832812E+01 -0.30310416876E+02  0.33754712797E+02  0.00000000000E+00 0. -1.
</event>
<event>
 7    1  0.1215217E-011  0.5930186E+02  0.7816164E-02  0.1266605E+00
        -11   -1    0    0    0    0  0.00000000000E+00  0.00000000000E+00  0.45593999997E+02  0.45594000000E+02  0.51100000000E-03 0.  1.
         11   -1    0    0    0    0 -0.00000000000E+00 -0.00000000000E+00 -0.45593999997E+02  0.45594000000E+02  0.51100000000E-03 0. -1.
    9900012    2    1    2    0    0  0.29735304227E+02  0.58121880024E+01  0.99376055817E+01  0.59301861137E+02  0.49999848828E+02 0.  0.
        -12    1    1    2    0    0 -0.29735304227E+02 -0.58121880024E+01 -0.99376055817E+01  0.31886138863E+02  0.00000000000E+00 0.  1.
         11    1    3    3    0    0  0.31970574443E+01  0.11019794726E+02 -0.33242811784E+01  0.11946041090E+02  0.51100000000E-03 0. -1.
        -11    1    3    3    0    0  0.10591346548E+02  0.15727104475E+02  0.34661472229E+01  0.19275181288E+02  0.51100000000E-03 0.  1.
        -12    1    3    3    0    0  0.15946900235E+02 -0.20934711198E+02  0.97957395372E+01  0.28080638759E+02  0.00000000000E+00 0.  1.
</event>
<event>
 7    1  0.1215217E-011  0.5930193E+02  0.7816164E-02  0.1266605E+00
        -11   -1    0    0    0    0  0.00000000000E+00  0.00000000000E+00  0.45593999997E+02  0.45594000000E+02  0.51100000000E-03 0. -1.
         11   -1    0    0    0    0 -0.00000000000E+00 -0.00000000000E+00 -0.45593999997E+02  0.45594000000E+02  0.51100000000E-03 0.  1.
    9900012    2    1    2    0    0 -0.19169165375E+02 -0.24088828382E+02  0.83061869639E+01  0.59301932574E+02  0.49999979111E+02 0.  0.
        -12    1    1    2    0    0  0.19169165375E+02  0.24088828382E+02 -0.83061869639E+01  0.31886067426E+02  0.00000000000E+00 0.  1.
         11    1    3    3    0    0 -0.90795694530E+01 -0.15836744473E+02  0.52536393593E+00  0.18262449575E+02  0.51100000000E-03 0. -1.
        -11    1    3    3    0    0 -0.56042435213E+01 -0.21541498645E+02 -0.41300789839E+01  0.22638490718E+02  0.51100000000E-03 0.  1.
        -12    1    3    3    0    0 -0.44853524009E+01  0.13289414736E+02  0.11910902012E+02  0.18400992281E+02  0.00000000000E+00 0.  1.
</event>
<event>
 7    1  0.1215217E-011  0.5930179E+02  0.7816164E-02  0.1266605E+00
        -11   -1    0    0    0    0  0.00000000000E+00  0.00000000000E+00  0.45593999997E+02  0.45594000000E+02  0.51100000000E-03 0.  1.
         11   -1    0    0    0    0 -0.00000000000E+00 -0.00000000000E+00 -0.45593999997E+02  0.45594000000E+02  0.51100000000E-03 0. -1.
    9900012    2    1    2    0    0 -0.57621867435E+01  0.12334259459E+02 -0.28833898702E+02  0.59301788766E+02  0.49999716839E+02 0.  0.
        -12    1    1    2    0    0  0.57621867435E+01 -0.12334259459E+02  0.28833898702E+02  0.31886211234E+02  0.00000000000E+00 0.  1.
         11    1    3    3    0    0 -0.16769190232E+02  0.13313878605E+00 -0.22539210029E+02  0.28093405916E+02  0.51100000000E-03 0. -1.
        -11    1    3    3    0    0  0.95873225138E+01 -0.57761839440E+01  0.19810080784E+01  0.11366857402E+02  0.51100000000E-03 0.  1.
        -12    1    3    3    0    0  0.14196809744E+01  0.17977304617E+02 -0.82756967521E+01  0.19841525448E+02  0.00000000000E+00 0.  1.
</event>
<event>
 7    1  0.1215217E-011  0.5930194E+02  0.7816164E-02  0.1266605E+00
        -11   -1    0    0    0    0  0.00000000000E+00  0.00000000000E+00  0.45593999997E+02  0.45594000000E+02  0.51100000000E-03 0.  1.
         11   -1    0    0    0    0 -0.00000000000E+00 -0.00000000000E+00 -0.45593999997E+02  0.45594000000E+02  0.51100000000E-03 0. -1.
    9900012    2    1    2    0    0 -0.12693540495E+02  0.21468307649E+02 -0.19867221863E+02  0.59301941790E+02  0.49999995919E+02 0.  0.
        -12    1    1    2    0    0  0.12693540495E+02 -0.21468307649E+02  0.19867221863E+02  0.31886058210E+02  0.00000000000E+00 0.  1.
         11    1    3    3    0    0 -0.30630998124E+01  0.92048504228E+01  0.60758831911E+00  0.97201345461E+01  0.51100000000E-03 0. -1.
        -11    1    3    3    0    0 -0.90156982416E+01  0.79150544185E+01  0.11907394900E+02  0.16903164047E+02  0.51100000000E-03 0.  1.
         12    1    3    3    0    0 -0.61474244137E+00  0.43484028076E+01 -0.32382205082E+02  0.32678643197E+02  0.00000000000E+00 0. -1.
</event>
<event>
 7    1  0.1215217E-011  0.5930194E+02  0.7816164E-02  0.1266605E+00
        -11   -1    0    0    0    0  0.00000000000E+00  0.00000000000E+00  0.45593999997E+02  0.45594000000E+02  0.51100000000E-03 0.  1.
         11   -1    0    0    0    0 -0.00000000000E+00 -0.00000000000E+00 -0.45593999997E+02  0.45594000000E+02  0.51100000000E-03 0. -1.
    9900012    2    1    2    0    0 -0.23074498235E+02  0.76869853460E+01  0.20620341276E+02  0.59301942124E+02  0.49999996528E+02 0.  0.
        -12    1    1    2    0    0  0.23074498235E+02 -0.76869853460E+01 -0.20620341276E+02  0.31886057876E+02  0.00000000000E+00 0.  1.
         11    1    3    3    0    0 -0.28674654068E+02  0.84195336230E+01  0.10310271680E+02  0.31613700111E+02  0.51100000000E-03 0. -1.
        -11    1    3    3    0    0 -0.41355801297E+01 -0.58447516984E+01 -0.50759481704E+01  0.87766391925E+01  0.51100000000E-03 0.  1.
        -12    1    3    3    0    0  0.97357359618E+01  0.51122034215E+01  0.15386017767E+02  0.18911602821E+02  0.00000000000E+00 0.  1.
</event>
<event>
 7    1  0.1215217E-011  0.5930195E+02  0.7816164E-02  0.1266605E+00
        -11   -1    0    0    0    0  0.00000000000E+00  0.00000000000E+00  0.45593999997E+02  0.45594000000E+02  0.51100000000E-03 0. -1.
         11   -1    0    0    0    0 -0.00000000000E+00 -0.00000000000E+00 -0.45593999997E+02  0.45594000000E+02  0.51100000000E-03 0.  1.
    9900012    2    1    2    0    0 -0.12366324131E+01  0.58957288118E+01  0.31311836126E+02  0.59301953529E+02  0.50000017328E+02 0.  0.
        -12    1    1    2    0    0  0.12366324131E+01 -0.58957288118E+01 -0.31311836126E+02  0.31886046471E+02  0.00000000000E+00 0.  1.
         11    1    3    3    0    0  0.67807106145E+01  0.11501505651E+02  0.89304589295E+01  0.16062869159E+02  0.51100000000E-03 0.  1.
        -11    1    3    3    0    0 -0.10638324302E+02  0.12789315353E+02  0.40153933865E+01  0.17113267236E+02  0.51100000000E-03 0. -1.
        -12    1    3    3    0    0  0.26209812747E+01 -0.18395092192E+02  0.18365983810E+02  0.26125817134E+02  0.00000000000E+00 0.  1.
</event>
<event>
 7    1  0.1215217E-011  0.5930193E+02  0.7816164E-02  0.1266605E+00
        -11   -1    0    0    0    0  0.00000000000E+00  0.00000000000E+00  0.45593999997E+02  0.45594000000E+02  0.51100000000E-03 0.  1.
         11   -1    0    0    0    0 -0.00000000000E+00 -0.00000000000E+00 -0.45593999997E+02  0.45594000000E+02  0.51100000000E-03 0. -1.
    9900012    2    1    2    0    0 -0.85657909265E+01  0.21831266947E+02 -0.21604265661E+02  0.59301932738E+02  0.49999979409E+02 0.  0.
        -12    1    1    2    0    0  0.85657909265E+01 -0.21831266947E+02  0.21604265661E+02  0.31886067262E+02  0.00000000000E+00 0.  1.
         11    1    3    3    0    0  0.13979956199E+01  0.24532460483E+01 -0.16286316411E+02  0.16529274347E+02  0.51100000000E-03 0. -1.
        -11    1    3    3    0    0  0.23285774486E+01 -0.58477034513E+01 -0.12334254929E+02  0.13847445739E+02  0.51100000000E-03 0.  1.
        -12    1    3    3    0    0 -0.12292363995E+02  0.25225724350E+02  0.70163056788E+01  0.28925212651E+02  0.00000000000E+00 0.  1.
</event>
<event>
 7    1  0.1215217E-011  0.5930191E+02  0.7816164E-02  0.1266605E+00
        -11   -1    0    0    0    0  0.00000000000E+00  0.00000000000E+00  0.45593999997E+02  0.45594000000E+02  0.51100000000E-03 0. -1.
         11   -1    0    0    0    0 -0.00000000000E+00 -0.00000000000E+00 -0.45593999997E+02  0.45594000000E+02  0.51100000000E-03 0.  1.
    9900012    2    1    2    0    0 -0.30053040159E+01 -0.25027714798E+02  0.19527016239E+02  0.59301910189E+02  0.49999938286E+02 0.  0.
        -12    1    1    2    0    0  0.30053040159E+01  0.25027714798E+02 -0.19527016239E+02  0.31886089811E+02  0.00000000000E+00 0.  1.
         11    1    3    3    0    0 -0.13644416563E+02  0.28479654959E+01  0.10353017439E+02  0.17362775734E+02  0.51100000000E-03 0. -1.
        -11    1    3    3    0    0 -0.63853896654E+00 -0.97629997870E+00 -0.80041501258E+01  0.80887151735E+01  0.51100000000E-03 0.  1.
         12    1    3    3    0    0  0.11277651514E+02 -0.26899380315E+02  0.17178148926E+02  0.33850419282E+02  0.00000000000E+00 0. -1.
</event>
<event>
 7    1  0.1215217E-011  0.5930194E+02  0.7816164E-02  0.1266605E+00
        -11   -1    0    0    0    0  0.00000000000E+00  0.00000000000E+00  0.45593999997E+02  0.45594000000E+02  0.51100000000E-03 0.  1.
         11   -1    0    0    0    0 -0.00000000000E+00 -0.00000000000E+00 -0.45593999997E+02  0.45594000000E+02  0.51100000000E-03 0. -1.
    9900012    2    1    2    0    0  0.85823612416E+01 -0.17991288977E+02  0.24887294651E+02  0.59301939745E+02  0.49999992189E+02 0.  0.
        -12    1    1    2    0    0 -0.85823612416E+01  0.17991288977E+02 -0.24887294651E+02  0.31886060255E+02  0.00000000000E+00 0.  1.
         11    1    3    3    0    0  0.12424675511E+02 -0.10340099990E+01  0.22187071200E+01  0.12663506614E+02  0.51100000000E-03 0. -1.
        -11    1    3    3    0    0  0.36493776879E+01 -0.25334715941E+02  0.24285757532E+02  0.35284044673E+02  0.51100000000E-03 0.  1.
         12    1    3    3    0    0 -0.74916919569E+01  0.83774369630E+01 -0.16171700009E+01  0.11354388458E+02  0.00000000000E+00 0. -1.
</event>
<event>
 7    1  0.1215217E-011  0.5930195E+02  0.7816164E-02  0.1266605E+00
        -11   -1    0    0    0    0  0.00000000000E+00  0.00000000000E+00  0.45593999997E+02  0.45594000000E+02  0.51100000000E-03 0. -1.
         11   -1    0    0    0    0 -0.00000000000E+00 -0.00000000000E+00 -0.45593999997E+02  0.45594000000E+02  0.51100000000E-03 0.  1.
    9900012    2    1    2    0    0  0.11204385779E+01  0.20168179878E+02  0.24672031456E+02  0.59301952920E+02  0.50000016217E+02 0.  0.
        -12    1    1    2    0    0 -0.11204385779E+01 -0.20168179878E+02 -0.24672031456E+02  0.31886047080E+02  0.00000000000E+00 0.  1.
         11    1    3    3    0    0  0.96463284564E+01  0.19819451969E+02  0.23358050080E+02  0.32116363942E+02  0.51100000000E-03 0. -1.
        -11    1    3    3    0    0  0.85893219235E+01 -0.17551949717E+01  0.41676291591E+01  0.97070228991E+01  0.51100000000E-03 0.  1.
        -12    1    3    3    0    0 -0.17115211802E+02  0.21039228805E+01 -0.28536477823E+01  0.17478566079E+02  0.00000000000E+00 0.  1.
</event>
<event>
 7    1  0.1215217E-011  0.5930194E+02  0.7816164E-02  0.1266605E+00
        -11   -1    0    0    0    0  0.00000000000E+00  0.00000000000E+00  0.45593999997E+02  0.45594000000E+02  0.51100000000E-03 0.  1.
         11   -1    0    0    0    0 -0.00000000000E+00 -0.00000000000E+00 -0.45593999997E+02  0.45594000000E+02  0.51100000000E-03 0. -1.
    9900012    2    1    2    0    0 -0.18116024809E+02 -0.25857083851E+02 -0.44656140776E+01  0.59301939578E+02  0.49999991885E+02 0.  0.
        -12    1    1    2    0    0  0.18116024809E+02  0.25857083851E+02  0.44656140776E+01  0.31886060422E+02  0.00000000000E+00 0.  1.
         11    1    3    3    0    0  0.86744641182E+00 -0.16258640156E+02  0.89154141989E+01  0.18562878376E+02  0.51100000000E-03 0. -1.
        -11    1    3    3    0    0  0.82425247823E+00 -0.15697739590E+02  0.61324532416E+00  0.15731321956E+02  0.51100000000E-03 0.  1.
        -12    1    3    3    0    0 -0.19807723699E+02  0.60992958960E+01 -0.13994273601E+02  0.25007739246E+02  0.00000000000E+00 0.  1.
</event>
<event>
 7    1  0.1215217E-011  0.5930195E+02  0.7816164E-02  0.1266605E+00
        -11   -1    0    0    0    0  0.00000000000E+00  0.00000000000E+00  0.45593999997E+02  0.45594000000E+02  0.51100000000E-03 0. -1.
         11   -1    0    0    0    0 -0.00000000000E+00 -0.00000000000E+00 -0.45593999997E+02  0.45594000000E+02  0.51100000000E-03 0.  1.
    9900012    2    1    2    0    0  0.31758833675E+01 -0.78534787602E+00  0.31717769947E+02  0.59301953885E+02  0.50000017978E+02 0.  0.
        -12    1    1    2    0    0 -0.31758833675E+01  0.78534787602E+00 -0.31717769947E+02  0.31886046115E+02  0.00000000000E+00 0.  1.
         11    1    3    3    0    0  0.38684908965E+01  0.10448095095E+02  0.25907890040E+02  0.28201891417E+02  0.51100000000E-03 0. -1.
        -11    1    3    3    0    0  0.13268897706E+00 -0.18743513889E+02  0.11185277948E+02  0.21827674231E+02  0.51100000000E-03 0.  1.
        -12    1    3    3    0    0 -0.82529650606E+00  0.75100709186E+01 -0.53753980410E+01  0.92723882374E+01  0.00000000000E+00 0.  1.
</event>
<event>
 7    1  0.1215217E-011  0.5930193E+02  0.7816164E-02  0.1266605E+00
        -11   -1    0    0    0    0  0.00000000000E+00  0.00000000000E+00  0.45593999997E+02  0.45594000000E+02  0.51100000000E-03 0.  1.
         11   -1    0    0    0    0 -0.00000000000E+00 -0.00000000000E+00 -0.45593999997E+02  0.45594000000E+02  0.51100000000E-03 0. -1.
    9900012    2    1    2    0    0  0.43734779615E+01 -0.16493906672E+02 -0.26935945531E+02  0.59301930496E+02  0.49999975321E+02 0.  0.
        -12    1    1    2    0    0 -0.43734779615E+01  0.16493906672E+02  0.26935945531E+02  0.31886069504E+02  0.00000000000E+00 0.  1.
         11    1    3    3    0    0  0.79654869067E+01  0.21828721189E+01 -0.12551925172E+02  0.15025469648E+02  0.51100000000E-03 0. -1.
        -11    1    3    3    0    0  0.14484049667E+02 -0.40534935740E+01 -0.14689766753E+02  0.21023980413E+02  0.51100000000E-03 0.  1.
         12    1    3    3    0    0 -0.18076058612E+02 -0.14623285217E+02  0.30574639391E+00  0.23252480434E+02  0.00000000000E+00 0. -1.
</event>
<event>
 7    1  0.1215217E-011  0.5930195E+02  0.7816164E-02  0.1266605E+00
        -11   -1    0    0    0    0  0.00000000000E+00  0.00000000000E+00  0.45593999997E+02  0.45594000000E+02  0.51100000000E-03 0.  1.
         11   -1    0    0    0    0 -0.00000000000E+00 -0.00000000000E+00 -0.45593999997E+02  0.45594000000E+02  0.51100000000E-03 0. -1.
    9900012    2    1    2    0    0  0.10271357563E+02 -0.24850104770E+02  0.17137444429E+02  0.59301945135E+02  0.50000002020E+02 0.  0.
        -12    1    1    2    0    0 -0.10271357563E+02  0.24850104770E+02 -0.17137444429E+02  0.31886054865E+02  0.00000000000E+00 0.  1.
         11    1    3    3    0    0 -0.12759687057E+01 -0.18621795015E+02  0.24720128769E+02  0.30975540549E+02  0.51100000000E-03 0. -1.
        -11    1    3    3    0    0 -0.26367597829E+01 -0.64840881964E+01  0.55972344327E+01  0.89624179465E+01  0.51100000000E-03 0.  1.
         12    1    3    3    0    0  0.14184086052E+02  0.25577844112E+00 -0.13179918772E+02  0.19363986639E+02  0.00000000000E+00 0. -1.
</event>
<event>
 7    1  0.1215217E-011  0.5930194E+02  0.7816164E-02  0.1266605E+00
        -11   -1    0    0    0    0  0.00000000000E+00  0.00000000000E+00  0.45593999997E+02  0.45594000000E+02  0.51100000000E-03 0.  1.
         11   -1    0    0    0    0 -0.00000000000E+00 -0.00000000000E+00 -0.45593999997E+02  0.45594000000E+02  0.51100000000E-03 0. -1.
    9900012    2    1    2    0    0  0.17826088721E+02  0.49187956074E+01 -0.25976079164E+02  0.59301942262E+02  0.49999996779E+02 0.  0.
        -12    1    1    2    0    0 -0.17826088721E+02 -0.49187956074E+01  0.25976079164E+02  0.31886057738E+02  0.00000000000E+00 0.  1.
         11    1    3    3    0    0  0.52029543620E+01  0.17123869967E+02  0.18451460020E+00  0.17897812789E+02  0.51100000000E-03 0. -1.
        -11    1    3    3    0    0 -0.49588105490E+01  0.14554231244E+01  0.19680026189E+01  0.55300174594E+01  0.51100000000E-03 0.  1.
         12    1    3    3    0    0  0.17581944908E+02 -0.13660497484E+02 -0.28128596383E+02  0.35874112014E+02  0.00000000000E+00 0. -1.
</event>
<event>
 7    1  0.1215217E-011  0.5930192E+02  0.7816164E-02  0.1266605E+00
        -11   -1    0    0    0    0  0.00000000000E+00  0.00000000000E+00  0.45593999997E+02  0.45594000000E+02  0.51100000000E-03 0.  1.
         11   -1    0    0    0    0 -0.00000000000E+00 -0.00000000000E+00 -0.45593999997E+02  0.45594000000E+02  0.51100000000E-03 0. -1.
    9900012    2    1    2    0    0 -0.28956377975E+02 -0.13175171702E+02 -0.21598383769E+01  0.59301923468E+02  0.49999962503E+02 0.  0.
        -12    1    1    2    0    0  0.28956377975E+02  0.13175171702E+02  0.21598383769E+01  0.31886076532E+02  0.00000000000E+00 0.  1.
         11    1    3    3    0    0 -0.29212617053E+02  0.19546330001E+01  0.10746621492E+02  0.31187937717E+02  0.51100000000E-03 0. -1.
        -11    1    3    3    0    0  0.35342312794E+01  0.33193323623E+01  0.77847635711E+00  0.49106805809E+01  0.51100000000E-03 0.  1.
        -12    1    3    3    0    0 -0.32779922011E+01 -0.18449137064E+02 -0.13684936226E+02  0.23203305170E+02  0.00000000000E+00 0.  1.
</event>
<event>
 7    1  0.1215217E-011  0.5930197E+02  0.7816164E-02  0.1266605E+00
        -11   -1    0    0    0    0  0.00000000000E+00  0.00000000000E+00  0.45593999997E+02  0.45594000000E+02  0.51100000000E-03 0. -1.
         11   -1    0    0    0    0 -0.00000000000E+00 -0.00000000000E+00 -0.45593999997E+02  0.45594000000E+02  0.51100000000E-03 0.  1.
    9900012    2    1    2    0    0 -0.17155909972E+02 -0.25811990914E+02  0.74923347900E+01  0.59301965400E+02  0.50000038978E+02 0.  0.
        -12    1    1    2    0    0  0.17155909972E+02  0.25811990914E+02 -0.74923347900E+01  0.31886034600E+02  0.00000000000E+00 0.  1.
         11    1    3    3    0    0 -0.29538440714E+02 -0.20490160735E+02  0.15066524339E+01  0.35981052910E+02  0.51100000000E-03 0.  1.
        -11    1    3    3    0    0 -0.28139584885E+01 -0.63145508892E+01 -0.11856865602E+00  0.69141864376E+01  0.51100000000E-03 0. -1.
         12    1    3    3    0    0  0.15196489230E+02  0.99272071006E+00  0.61042510121E+01  0.16406726052E+02  0.00000000000E+00 0. -1.
</event>
<event>
 7    1  0.1215217E-011  0.5930196E+02  0.7816164E-02  0.1266605E+00
        -11   -1    0    0    0    0  0.00000000000E+00  0.00000000000E+00  0.45593999997E+02  0.45594000000E+02  0.51100000000E-03 0.  1.
         11   -1    0    0    0    0 -0.00000000000E+00 -0.00000000000E+00 -0.45593999997E+02  0.45594000000E+02  0.51100000000E-03 0. -1.
    9900012    2    1    2    0    0  0.22706045261E+02  0.19889611780E+02 -0.10274154590E+02  0.59301962292E+02  0.50000033310E+02 0.  0.
        -12    1    1    2    0    0 -0.22706045261E+02 -0.19889611780E+02  0.10274154590E+02  0.31886037708E+02  0.00000000000E+00 0.  1.
         11    1    3    3    0    0  0.21113437005E+02  0.22318760835E+02 -0.77210446974E+01  0.31678365471E+02  0.51100000000E-03 0. -1.
        -11    1    3    3    0    0  0.11924179887E+02 -0.26052772701E+01  0.65506318369E+01  0.13852231349E+02  0.51100000000E-03 0.  1.
         12    1    3    3    0    0 -0.10331571631E+02  0.17612821511E+00 -0.91037417292E+01  0.13771365473E+02  0.00000000000E+00 0. -1.
</event>
<event>
 7    1  0.1215217E-011  0.5930194E+02  0.7816164E-02  0.1266605E+00
        -11   -1    0    0    0    0  0.00000000000E+00  0.00000000000E+00  0.45593999997E+02  0.45594000000E+02  0.51100000000E-03 0.  1.
         11   -1    0    0    0    0 -0.00000000000E+00 -0.00000000000E+00 -0.45593999997E+02  0.45594000000E+02  0.51100000000E-03 0. -1.
    9900012    2    1    2    0    0  0.16966637271E+02  0.26391232498E+02 -0.56883369900E+01  0.59301935477E+02  0.49999984406E+02 0.  0.
        -12    1    1    2    0    0 -0.16966637271E+02 -0.26391232498E+02  0.56883369900E+01  0.31886064523E+02  0.00000000000E+00 0.  1.
         11    1    3    3    0    0  0.36080266672E+01  0.25587493419E+02 -0.12797748197E+02  0.28836089108E+02  0.51100000000E-03 0.  1.
        -11    1    3    3    0    0  0.18118718273E+02  0.57530871464E+01 -0.19367651880E+01  0.19108558899E+02  0.51100000000E-03 0. -1.
        -12    1    3    3    0    0 -0.47601076683E+01 -0.49493480672E+01  0.90461763948E+01  0.11357287470E+02  0.00000000000E+00 0.  1.
</event>
<event>
 7    1  0.1304567E-011  0.5930195E+02  0.7816164E-02  0.1266605E+00
        -11   -1    0    0    0    0  0.00000000000E+00  0.00000000000E+00  0.45593999997E+02  0.45594000000E+02  0.51100000000E-03 0. -1.
         11   -1    0    0    0    0 -0.00000000000E+00 -0.00000000000E+00 -0.45593999997E+02  0.45594000000E+02  0.51100000000E-03 0.  1.
    9900012    2    1    2    0    0 -0.16830965798E+01 -0.50557858454E+01  0.31437660002E+02  0.59301948959E+02  0.50000008993E+02 0.  0.
        -12    1    1    2    0    0  0.16830965798E+01  0.50557858454E+01 -0.31437660002E+02  0.31886051041E+02  0.00000000000E+00 0.  1.
         11    1    3    3    0    0 -0.81978953309E+01 -0.18883038053E+01  0.22314141048E+02  0.23847265464E+02  0.51100000000E-03 0. -1.
        -11    1    3    3    0    0  0.13334166899E+02 -0.78289043021E+01  0.17730100742E+02  0.23525480272E+02  0.51100000000E-03 0.  1.
        -12    1    3    3    0    0 -0.68193681481E+01  0.46614222620E+01 -0.86065817883E+01  0.11929203222E+02  0.00000000000E+00 0.  1.
</event>
<event>
 7    1  0.1215217E-011  0.5930196E+02  0.7816164E-02  0.1266605E+00
        -11   -1    0    0    0    0  0.00000000000E+00  0.00000000000E+00  0.45593999997E+02  0.45594000000E+02  0.51100000000E-03 0. -1.
         11   -1    0    0    0    0 -0.00000000000E+00 -0.00000000000E+00 -0.45593999997E+02  0.45594000000E+02  0.51100000000E-03 0.  1.
    9900012    2    1    2    0    0  0.16423431430E+02  0.13758775147E+02  0.23615394488E+02  0.59301955242E+02  0.50000020452E+02 0.  0.
        -12    1    1    2    0    0 -0.16423431430E+02 -0.13758775147E+02 -0.23615394488E+02  0.31886044758E+02  0.00000000000E+00 0.  1.
         11    1    3    3    0    0  0.11072580383E+02  0.13349817280E+01 -0.10157298362E+02  0.15084923693E+02  0.51100000000E-03 0.  1.
        -11    1    3    3    0    0 -0.41542961206E+01 -0.44322838467E+01  0.99860116658E+00  0.61563398953E+01  0.51100000000E-03 0. -1.
         12    1    3    3    0    0  0.95051471674E+01  0.16856077266E+02  0.32774091683E+02  0.38060691653E+02  0.00000000000E+00 0. -1.
</event>
<event>
 7    1  0.1215217E-011  0.5930222E+02  0.7816164E-02  0.1266604E+00
        -11   -1    0    0    0    0  0.00000000000E+00  0.00000000000E+00  0.45593999997E+02  0.45594000000E+02  0.51100000000E-03 0.  1.
         11   -1    0    0    0    0 -0.00000000000E+00 -0.00000000000E+00 -0.45593999997E+02  0.45594000000E+02  0.51100000000E-03 0. -1.
    9900012    2    1    2    0    0  0.20887015365E+02 -0.18073233117E+02 -0.15930904835E+02  0.59302221117E+02  0.50000505341E+02 0.  0.
        -12    1    1    2    0    0 -0.20887015365E+02  0.18073233117E+02  0.15930904835E+02  0.31885778883E+02  0.00000000000E+00 0.  1.
         11    1    3    3    0    0 -0.18884378587E+01 -0.13788204001E+02 -0.83604188901E+01  0.16235066104E+02  0.51100000000E-03 0. -1.
        -11    1    3    3    0    0 -0.38503042162E+01  0.10446704205E+02 -0.58793759233E+01  0.12590692308E+02  0.51100000000E-03 0.  1.
         12    1    3    3    0    0  0.26625757440E+02 -0.14731733321E+02 -0.16911100213E+01  0.30476462705E+02  0.00000000000E+00 0. -1.
</event>
<event>
 7    1  0.1215217E-011  0.5930194E+02  0.7816164E-02  0.1266605E+00
        -11   -1    0    0    0    0  0.00000000000E+00  0.00000000000E+00  0.45593999997E+02  0.45594000000E+02  0.51100000000E-03 0. -1.
         11   -1    0    0    0    0 -0.00000000000E+00 -0.00000000000E+00 -0.45593999997E+02  0.45594000000E+02  0.51100000000E-03 0.  1.
    9900012    2    1    2    0    0 -0.48084306722E+01  0.29132541809E+02  0.12037225401E+02  0.59301940458E+02  0.49999993489E+02 0.  0.
        -12    1    1    2    0    0  0.48084306722E+01 -0.29132541809E+02 -0.12037225401E+02  0.31886059542E+02  0.00000000000E+00 0.  1.
         11    1    3    3    0    0  0.14902854343E+02  0.21795492573E+02 -0.10341700967E+01  0.26423627157E+02  0.51100000000E-03 0.  1.
        -11    1    3    3    0    0  0.35047505039E+01 -0.25355571721E+01 -0.28059801963E+00  0.43348658315E+01  0.51100000000E-03 0. -1.
         12    1    3    3    0    0 -0.23216035519E+02  0.98726064078E+01  0.13351993517E+02  0.28543447469E+02  0.00000000000E+00 0. -1.
</event>
<event>
 7    1  0.1215217E-011  0.5930192E+02  0.7816164E-02  0.1266605E+00
        -11   -1    0    0    0    0  0.00000000000E+00  0.00000000000E+00  0.45593999997E+02  0.45594000000E+02  0.51100000000E-03 0. -1.
         11   -1    0    0    0    0 -0.00000000000E+00 -0.00000000000E+00 -0.45593999997E+02  0.45594000000E+02  0.51100000000E-03 0.  1.
    9900012    2    1    2    0    0 -0.20899973212E+02  0.83833974334E+00  0.24066785109E+02  0.59301924054E+02  0.49999963572E+02 0.  0.
        -12    1    1    2    0    0  0.20899973212E+02 -0.83833974334E+00 -0.24066785109E+02  0.31886075946E+02  0.00000000000E+00 0.  1.
         11    1    3    3    0    0 -0.33726917766E+01  0.15834536149E+02  0.13436812735E+02  0.21039380257E+02  0.51100000000E-03 0. -1.
        -11    1    3    3    0    0 -0.23145450625E+00 -0.89670602872E+01  0.16708212379E+02  0.18963810338E+02  0.51100000000E-03 0.  1.
        -12    1    3    3    0    0 -0.17295826930E+02 -0.60291361181E+01 -0.60782400060E+01  0.19298733458E+02  0.00000000000E+00 0.  1.
</event>
<event>
 7    1  0.1215217E-011  0.5930194E+02  0.7816164E-02  0.1266605E+00
        -11   -1    0    0    0    0  0.00000000000E+00  0.00000000000E+00  0.45593999997E+02  0.45594000000E+02  0.51100000000E-03 0.  1.
         11   -1    0    0    0    0 -0.00000000000E+00 -0.00000000000E+00 -0.45593999997E+02  0.45594000000E+02  0.51100000000E-03 0. -1.
    9900012    2    1    2    0    0 -0.25630537989E+02 -0.17166273034E+02 -0.80694310076E+01  0.59301935265E+02  0.49999984019E+02 0.  0.
        -12    1    1    2    0    0  0.25630537989E+02  0.17166273034E+02  0.80694310076E+01  0.31886064735E+02  0.00000000000E+00 0.  1.
         11    1    3    3    0    0  0.21013108371E+01 -0.28581783170E+01 -0.10445394646E+01  0.36980742934E+01  0.51100000000E-03 0.  1.
        -11    1    3    3    0    0 -0.35678428579E+02  0.12956431964E+01 -0.11539547585E+02  0.37520529260E+02  0.51100000000E-03 0. -1.
         12    1    3    3    0    0  0.79465797530E+01 -0.15603737913E+02  0.45146560418E+01  0.18083331712E+02  0.00000000000E+00 0. -1.
</event>
<event>
 7    1  0.1215217E-011  0.5930193E+02  0.7816164E-02  0.1266605E+00
        -11   -1    0    0    0    0  0.00000000000E+00  0.00000000000E+00  0.45593999997E+02  0.45594000000E+02  0.51100000000E-03 0.  1.
         11   -1    0    0    0    0 -0.00000000000E+00 -0.00000000000E+00 -0.45593999997E+02  0.45594000000E+02  0.51100000000E-03 0. -1.
    9900012    2    1    2    0    0 -0.19149500029E+02 -0.96927178304E+01 -0.23581127685E+02  0.59301926030E+02  0.49999967177E+02 0.  0.
        -12    1    1    2    0    0  0.19149500029E+02  0.96927178304E+01  0.23581127685E+02  0.31886073970E+02  0.00000000000E+00 0.  1.
         11    1    3    3    0    0 -0.44861365284E+01  0.41161184816E+01 -0.13318862518E+02  0.14644451213E+02  0.51100000000E-03 0. -1.
        -11    1    3    3    0    0 -0.27754319354E+02 -0.11971410237E+02 -0.77124676866E+01  0.31194535802E+02  0.51100000000E-03 0.  1.
         12    1    3    3    0    0  0.13090955853E+02 -0.18374260751E+01 -0.25497974808E+01  0.13462939015E+02  0.00000000000E+00 0. -1.
</event>
<event>
 7    1  0.1215217E-011  0.5930196E+02  0.7816164E-02  0.1266605E+00
        -11   -1    0    0    0    0  0.00000000000E+00  0.00000000000E+00  0.45593999997E+02  0.45594000000E+02  0.51100000000E-03 0.  1.
         11   -1    0    0    0    0 -0.00000000000E+00 -0.00000000000E+00 -0.45593999997E+02  0.45594000000E+02  0.51100000000E-03 0. -1.
    9900012    2    1    2    0    0 -0.26889983577E+02  0.13346884156E+01 -0.17084117935E+02  0.59301957669E+02  0.50000024878E+02 0.  0.
        -12    1    1    2    0    0  0.26889983577E+02 -0.13346884156E+01  0.17084117935E+02  0.31886042331E+02  0.00000000000E+00 0.  1.
         11    1    3    3    0    0 -0.85521091795E+00 -0.81953259827E+01 -0.94603435060E+01  0.12545630841E+02  0.51100000000E-03 0. -1.
        -11    1    3    3    0    0  0.53572025781E+00  0.51575607054E+00  0.12313689159E+02  0.12336123438E+02  0.51100000000E-03 0.  1.
        -12    1    3    3    0    0 -0.26570492917E+02  0.90142583278E+01 -0.19937463589E+02  0.34420203390E+02  0.00000000000E+00 0.  1.
</event>
<event>
 7    1  0.1215217E-011  0.5930196E+02  0.7816164E-02  0.1266605E+00
        -11   -1    0    0    0    0  0.00000000000E+00  0.00000000000E+00  0.45593999997E+02  0.45594000000E+02  0.51100000000E-03 0.  1.
         11   -1    0    0    0    0 -0.00000000000E+00 -0.00000000000E+00 -0.45593999997E+02  0.45594000000E+02  0.51100000000E-03 0. -1.
    9900012    2    1    2    0    0  0.68255123750E+01  0.24025812778E+02 -0.19821511119E+02  0.59301959137E+02  0.50000027556E+02 0.  0.
        -12    1    1    2    0    0 -0.68255123750E+01 -0.24025812778E+02  0.19821511119E+02  0.31886040863E+02  0.00000000000E+00 0.  1.
         11    1    3    3    0    0 -0.11156819915E+02  0.20607724832E-01 -0.22914314010E+01  0.11389719637E+02  0.51100000000E-03 0. -1.
        -11    1    3    3    0    0  0.97126237885E+01 -0.59578960695E+01 -0.11615459091E+02  0.16271154741E+02  0.51100000000E-03 0.  1.
        -12    1    3    3    0    0  0.82697085011E+01  0.29963101123E+02 -0.59146206270E+01  0.31641084760E+02  0.00000000000E+00 0.  1.
</event>
<event>
 7    1  0.1215217E-011  0.5930195E+02  0.7816164E-02  0.1266605E+00
        -11   -1    0    0    0    0  0.00000000000E+00  0.00000000000E+00  0.45593999997E+02  0.45594000000E+02  0.51100000000E-03 0. -1.
         11   -1    0    0    0    0 -0.00000000000E+00 -0.00000000000E+00 -0.45593999997E+02  0.45594000000E+02  0.51100000000E-03 0.  1.
    9900012    2    1    2    0    0 -0.21258251677E+02  0.23663258818E+02  0.22039236812E+01  0.59301947220E+02  0.50000005822E+02 0.  0.
        -12    1    1    2    0    0  0.21258251677E+02 -0.23663258818E+02 -0.22039236812E+01  0.31886052780E+02  0.00000000000E+00 0.  1.
         11    1    3    3    0    0 -0.20291618717E+02  0.23598756909E+02 -0.11822634953E+02  0.33293029530E+02  0.51100000000E-03 0. -1.
        -11    1    3    3    0    0 -0.58097339166E+01  0.67574386245E+01 -0.89152815097E+00  0.89560486628E+01  0.51100000000E-03 0.  1.
        -12    1    3    3    0    0  0.48431009563E+01 -0.66929367146E+01  0.14918086785E+02  0.17052869027E+02  0.00000000000E+00 0.  1.
</event>
<event>
 7    1  0.1215217E-011  0.5930192E+02  0.7816164E-02  0.1266605E+00
        -11   -1    0    0    0    0  0.00000000000E+00  0.00000000000E+00  0.45593999997E+02  0.45594000000E+02  0.51100000000E-03 0. -1.
         11   -1    0    0    0    0 -0.00000000000E+00 -0.00000000000E+00 -0.45593999997E+02  0.45594000000E+02  0.51100000000E-03 0.  1.
    9900012    2    1    2    0    0  0.37537747203E+01 -0.28421033539E+02  0.13959797349E+02  0.59301922880E+02  0.49999961432E+02 0.  0.
        -12    1    1    2    0    0 -0.37537747203E+01  0.28421033539E+02 -0.13959797349E+02  0.31886077120E+02  0.00000000000E+00 0.  1.
         11    1    3    3    0    0 -0.90665676639E+01  0.75120678707E+01 -0.18349641271E+00  0.11775715863E+02  0.51100000000E-03 0. -1.
        -11    1    3    3    0    0 -0.41930100537E+01  0.12096699312E+01  0.23721519107E+00  0.43704583239E+01  0.51100000000E-03 0.  1.
        -12    1    3    3    0    0  0.17013352438E+02 -0.37142771341E+02  0.13906078571E+02  0.43155748693E+02  0.00000000000E+00 0.  1.
</event>
<event>
 7    1  0.1215217E-011  0.5930186E+02  0.7816164E-02  0.1266605E+00
        -11   -1    0    0    0    0  0.00000000000E+00  0.00000000000E+00  0.45593999997E+02  0.45594000000E+02  0.51100000000E-03 0. -1.
         11   -1    0    0    0    0 -0.00000000000E+00 -0.00000000000E+00 -0.45593999997E+02  0.45594000000E+02  0.51100000000E-03 0.  1.
    9900012    2    1    2    0    0  0.13428005903E+02  0.12230549430E+01  0.28894959254E+02  0.59301860751E+02  0.49999848123E+02 0.  0.
        -12    1    1    2    0    0 -0.13428005903E+02 -0.12230549430E+01 -0.28894959254E+02  0.31886139249E+02  0.00000000000E+00 0.  1.
         11    1    3    3    0    0 -0.60941058682E+01 -0.87633660196E+01  0.13381617798E+02  0.17117313033E+02  0.51100000000E-03 0. -1.
        -11    1    3    3    0    0 -0.43519888139E+01 -0.72966694541E+01  0.82214290755E+01  0.11822566898E+02  0.51100000000E-03 0.  1.
         12    1    3    3    0    0  0.23874100585E+02  0.17283090417E+02  0.72919123807E+01  0.30361980819E+02  0.00000000000E+00 0. -1.
</event>
<event>
 7    1  0.1215217E-011  0.5930176E+02  0.7816164E-02  0.1266605E+00
        -11   -1    0    0    0    0  0.00000000000E+00  0.00000000000E+00  0.45593999997E+02  0.45594000000E+02  0.51100000000E-03 0.  1.
         11   -1    0    0    0    0 -0.00000000000E+00 -0.00000000000E+00 -0.45593999997E+02  0.45594000000E+02  0.51100000000E-03 0. -1.
    9900012    2    1    2    0    0  0.24902806165E+02 -0.16276092761E+02 -0.11474803127E+02  0.59301763828E+02  0.49999671357E+02 0.  0.
        -12    1    1    2    0    0 -0.24902806165E+02  0.16276092761E+02  0.11474803127E+02  0.31886236172E+02  0.00000000000E+00 0.  1.
         11    1    3    3    0    0  0.27838402695E+02 -0.18169803627E+00 -0.93819407531E+00  0.27854800074E+02  0.51100000000E-03 0. -1.
        -11    1    3    3    0    0  0.60556952262E+01 -0.13277759390E+02  0.30540524796E+01  0.14909647075E+02  0.51100000000E-03 0.  1.
        -12    1    3    3    0    0 -0.89912917567E+01 -0.28166353342E+01 -0.13590661531E+02  0.16537316678E+02  0.00000000000E+00 0.  1.
</event>
<event>
 7    1  0.1215217E-011  0.5930195E+02  0.7816164E-02  0.1266605E+00
        -11   -1    0    0    0    0  0.00000000000E+00  0.00000000000E+00  0.45593999997E+02  0.45594000000E+02  0.51100000000E-03 0. -1.
         11   -1    0    0    0    0 -0.00000000000E+00 -0.00000000000E+00 -0.45593999997E+02  0.45594000000E+02  0.51100000000E-03 0.  1.
    9900012    2    1    2    0    0 -0.11015023649E+02 -0.20962444101E+02  0.21353341418E+02  0.59301952920E+02  0.50000016217E+02 0.  0.
        -12    1    1    2    0    0  0.11015023649E+02  0.20962444101E+02 -0.21353341418E+02  0.31886047080E+02  0.00000000000E+00 0.  1.
         11    1    3    3    0    0 -0.15322418726E+01 -0.16134054373E+02 -0.57003969299E+01  0.17179930183E+02  0.51100000000E-03 0. -1.
        -11    1    3    3    0    0 -0.11362147813E+02 -0.75093076997E+01 -0.12065231999E+01  0.13672739431E+02  0.51100000000E-03 0.  1.
         12    1    3    3    0    0  0.18793660362E+01  0.26809179714E+01  0.28260261548E+02  0.28449283306E+02  0.00000000000E+00 0. -1.
</event>
<event>
 7    1  0.1215217E-011  0.5930198E+02  0.7816164E-02  0.1266605E+00
        -11   -1    0    0    0    0  0.00000000000E+00  0.00000000000E+00  0.45593999997E+02  0.45594000000E+02  0.51100000000E-03 0. -1.
         11   -1    0    0    0    0 -0.00000000000E+00 -0.00000000000E+00 -0.45593999997E+02  0.45594000000E+02  0.51100000000E-03 0.  1.
    9900012    2    1    2    0    0 -0.16349815923E+02  0.96547467840E+01  0.25616158754E+02  0.59301981034E+02  0.50000067490E+02 0.  0.
        -12    1    1    2    0    0  0.16349815923E+02 -0.96547467840E+01 -0.25616158754E+02  0.31886018966E+02  0.00000000000E+00 0.  1.
         11    1    3    3    0    0 -0.29181371276E+02 -0.15318118380E-01  0.20539484775E+02  0.35685054285E+02  0.51100000000E-03 0. -1.
        -11    1    3    3    0    0 -0.39103287587E+01  0.22046687802E+01  0.24039728997E+01  0.50921823803E+01  0.51100000000E-03 0.  1.
        -12    1    3    3    0    0  0.16741884112E+02  0.74653961222E+01  0.26727010795E+01  0.18524744369E+02  0.00000000000E+00 0.  1.
</event>
<event>
 7    1  0.1215217E-011  0.5930194E+02  0.7816164E-02  0.1266605E+00
        -11   -1    0    0    0    0  0.00000000000E+00  0.00000000000E+00  0.45593999997E+02  0.45594000000E+02  0.51100000000E-03 0.  1.
         11   -1    0    0    0    0 -0.00000000000E+00 -0.00000000000E+00 -0.45593999997E+02  0.45594000000E+02  0.51100000000E-03 0. -1.
    9900012    2    1    2    0    0 -0.51167981633E+01  0.25214308346E+02 -0.18835554135E+02  0.59301936142E+02  0.49999985618E+02 0.  0.
        -12    1    1    2    0    0  0.51167981633E+01 -0.25214308346E+02  0.18835554135E+02  0.31886063858E+02  0.00000000000E+00 0.  1.
         11    1    3    3    0    0 -0.19451795833E+01  0.23366827169E+01  0.13201207002E+02  0.13546795795E+02  0.51100000000E-03 0. -1.
        -11    1    3    3    0    0  0.46961406753E+01  0.10520535757E+02 -0.11597822817E+01  0.11579313670E+02  0.51100000000E-03 0.  1.
         12    1    3    3    0    0 -0.78677592554E+01  0.12357089872E+02 -0.30876978855E+02  0.34175826677E+02  0.00000000000E+00 0. -1.
</event>
<event>
 7    1  0.1215217E-011  0.5930195E+02  0.7816164E-02  0.1266605E+00
        -11   -1    0    0    0    0  0.00000000000E+00  0.00000000000E+00  0.45593999997E+02  0.45594000000E+02  0.51100000000E-03 0.  1.
         11   -1    0    0    0    0 -0.00000000000E+00 -0.00000000000E+00 -0.45593999997E+02  0.45594000000E+02  0.51100000000E-03 0. -1.
    9900012    2    1    2    0    0  0.89242995701E+01 -0.30594007860E+02  0.10409971461E+01  0.59301951095E+02  0.50000012889E+02 0.  0.
        -12    1    1    2    0    0 -0.89242995701E+01  0.30594007860E+02 -0.10409971461E+01  0.31886048905E+02  0.00000000000E+00 0.  1.
         11    1    3    3    0    0  0.24693942176E+02 -0.33698189180E+01  0.22743921189E+01  0.25026372479E+02  0.51100000000E-03 0. -1.
        -11    1    3    3    0    0 -0.97638514479E+01 -0.66321017727E+01 -0.43926176600E+01  0.12594151785E+02  0.51100000000E-03 0.  1.
        -12    1    3    3    0    0 -0.60057911575E+01 -0.20592087169E+02  0.31592226872E+01  0.21681426830E+02  0.00000000000E+00 0.  1.
</event>
<event>
 7    1  0.1215217E-011  0.5930195E+02  0.7816164E-02  0.1266605E+00
        -11   -1    0    0    0    0  0.00000000000E+00  0.00000000000E+00  0.45593999997E+02  0.45594000000E+02  0.51100000000E-03 0.  1.
         11   -1    0    0    0    0 -0.00000000000E+00 -0.00000000000E+00 -0.45593999997E+02  0.45594000000E+02  0.51100000000E-03 0. -1.
    9900012    2    1    2    0    0  0.31152653026E+02  0.23576748694E+01 -0.63775849422E+01  0.59301952721E+02  0.50000015855E+02 0.  0.
        -12    1    1    2    0    0 -0.31152653026E+02 -0.23576748694E+01  0.63775849422E+01  0.31886047279E+02  0.00000000000E+00 0.  1.
         11    1    3    3    0    0  0.66356980749E+01  0.58610424235E+01 -0.16093735572E+02  0.18368250656E+02  0.51100000000E-03 0. -1.
        -11    1    3    3    0    0  0.34623481449E+01 -0.10042232717E+02 -0.74648764756E+01  0.12983014814E+02  0.51100000000E-03 0.  1.
        -12    1    3    3    0    0  0.21054606807E+02  0.65388651625E+01  0.17181027106E+02  0.27950687251E+02  0.00000000000E+00 0.  1.
</event>
<event>
 7    1  0.1215217E-011  0.5930196E+02  0.7816164E-02  0.1266605E+00
        -11   -1    0    0    0    0  0.00000000000E+00  0.00000000000E+00  0.45593999997E+02  0.45594000000E+02  0.51100000000E-03 0.  1.
         11   -1    0    0    0    0 -0.00000000000E+00 -0.00000000000E+00 -0.45593999997E+02  0.45594000000E+02  0.51100000000E-03 0. -1.
    9900012    2    1    2    0    0  0.19242241450E+02 -0.19294792199E+02 -0.16557984122E+02  0.59301957596E+02  0.50000024745E+02 0.  0.
        -12    1    1    2    0    0 -0.19242241450E+02  0.19294792199E+02  0.16557984122E+02  0.31886042404E+02  0.00000000000E+00 0.  1.
         11    1    3    3    0    0  0.16948409422E+02  0.85429968268E+01 -0.12050144314E+02  0.22481933969E+02  0.51100000000E-03 0. -1.
        -11    1    3    3    0    0  0.61183395865E+00  0.35515637004E+01 -0.39965466457E+01  0.53814803598E+01  0.51100000000E-03 0.  1.
        -12    1    3    3    0    0  0.16819980693E+01 -0.31389352726E+02 -0.51129316218E+00  0.31438543267E+02  0.00000000000E+00 0.  1.
</event>
<event>
 7    1  0.1215217E-011  0.5930192E+02  0.7816164E-02  0.1266605E+00
        -11   -1    0    0    0    0  0.00000000000E+00  0.00000000000E+00  0.45593999997E+02  0.45594000000E+02  0.51100000000E-03 0. -1.
         11   -1    0    0    0    0 -0.00000000000E+00 -0.00000000000E+00 -0.45593999997E+02  0.45594000000E+02  0.51100000000E-03 0.  1.
    9900012    2    1    2    0    0  0.17550292957E+01 -0.19382669360E+02 -0.25257749075E+02  0.59301923294E+02  0.49999962187E+02 0.  0.
        -12    1    1    2    0    0 -0.17550292957E+01  0.19382669360E+02  0.25257749075E+02  0.31886076706E+02  0.00000000000E+00 0.  1.
         11    1    3    3    0    0  0.52249636161E+01 -0.77735449353E+01 -0.53389119827E+01  0.10781105095E+02  0.51100000000E-03 0. -1.
        -11    1    3    3    0    0  0.38998111790E+01 -0.26578396008E+02 -0.80441193076E+01  0.28041532007E+02  0.51100000000E-03 0.  1.
        -12    1    3    3    0    0 -0.73697454995E+01  0.14969271584E+02 -0.11874717785E+02  0.20479286192E+02  0.00000000000E+00 0.  1.
</event>
<event>
 7    1  0.1215217E-011  0.5930233E+02  0.7816164E-02  0.1266603E+00
        -11   -1    0    0    0    0  0.00000000000E+00  0.00000000000E+00  0.45593999997E+02  0.45594000000E+02  0.51100000000E-03 0. -1.
         11   -1    0    0    0    0 -0.00000000000E+00 -0.00000000000E+00 -0.45593999997E+02  0.45594000000E+02  0.51100000000E-03 0.  1.
    9900012    2    1    2    0    0 -0.10304943176E+02  0.23986878823E+02  0.18306651930E+02  0.59302333715E+02  0.50000710691E+02 0.  0.
        -12    1    1    2    0    0  0.10304943176E+02 -0.23986878823E+02 -0.18306651930E+02  0.31885666285E+02  0.00000000000E+00 0.  1.
         11    1    3    3    0    0  0.80095683737E+01  0.77483176671E+01  0.41860272013E+01  0.11904303264E+02  0.51100000000E-03 0. -1.
        -11    1    3    3    0    0  0.10330484307E+02  0.12628687800E+02  0.62611006150E+01  0.17475813078E+02  0.51100000000E-03 0.  1.
        -12    1    3    3    0    0 -0.28644995857E+02  0.36098733567E+01  0.78595241135E+01  0.29922217374E+02  0.00000000000E+00 0.  1.
</event>
<event>
 7    1  0.1215217E-011  0.5930194E+02  0.7816164E-02  0.1266605E+00
        -11   -1    0    0    0    0  0.00000000000E+00  0.00000000000E+00  0.45593999997E+02  0.45594000000E+02  0.51100000000E-03 0. -1.
         11   -1    0    0    0    0 -0.00000000000E+00 -0.00000000000E+00 -0.45593999997E+02  0.45594000000E+02  0.51100000000E-03 0.  1.
    9900012    2    1    2    0    0 -0.13181659567E+02  0.27364008159E+02  0.97044121929E+01  0.59301941801E+02  0.49999995939E+02 0.  0.
        -12    1    1    2    0    0  0.13181659567E+02 -0.27364008159E+02 -0.97044121929E+01  0.31886058199E+02  0.00000000000E+00 0.  1.
         11    1    3    3    0    0  0.13239996650E+02  0.24741510184E+02  0.78407698126E+01  0.29136188992E+02  0.51100000000E-03 0. -1.
        -11    1    3    3    0    0 -0.39400675201E+01  0.56621964625E+01  0.28369109762E+01  0.74587307895E+01  0.51100000000E-03 0.  1.
         12    1    3    3    0    0 -0.22481588697E+02 -0.30396984872E+01 -0.97326859591E+00  0.22707022019E+02  0.00000000000E+00 0. -1.
</event>
<event>
 7    1  0.1215217E-011  0.5930194E+02  0.7816164E-02  0.1266605E+00
        -11   -1    0    0    0    0  0.00000000000E+00  0.00000000000E+00  0.45593999997E+02  0.45594000000E+02  0.51100000000E-03 0. -1.
         11   -1    0    0    0    0 -0.00000000000E+00 -0.00000000000E+00 -0.45593999997E+02  0.45594000000E+02  0.51100000000E-03 0.  1.
    9900012    2    1    2    0    0  0.91614875950E+01 -0.12949603443E+02  0.27660362867E+02  0.59301941006E+02  0.49999994488E+02 0.  0.
        -12    1    1    2    0    0 -0.91614875950E+01  0.12949603443E+02 -0.27660362867E+02  0.31886058994E+02  0.00000000000E+00 0.  1.
         11    1    3    3    0    0  0.22845774408E+01  0.81269023319E+01  0.25695770390E+02  0.27046967515E+02  0.51100000000E-03 0. -1.
        -11    1    3    3    0    0  0.12417818882E+02 -0.36174673452E+01  0.46448098581E+01  0.13742727337E+02  0.51100000000E-03 0.  1.
        -12    1    3    3    0    0 -0.55409087278E+01 -0.17459038430E+02 -0.26802173813E+01  0.18512246153E+02  0.00000000000E+00 0.  1.
</event>
<event>
 7    1  0.1215217E-011  0.5930212E+02  0.7816164E-02  0.1266604E+00
        -11   -1    0    0    0    0  0.00000000000E+00  0.00000000000E+00  0.45593999997E+02  0.45594000000E+02  0.51100000000E-03 0.  1.
         11   -1    0    0    0    0 -0.00000000000E+00 -0.00000000000E+00 -0.45593999997E+02  0.45594000000E+02  0.51100000000E-03 0. -1.
    9900012    2    1    2    0    0  0.50887297418E+01  0.10928901566E+02 -0.29519030606E+02  0.59302121814E+02  0.50000324238E+02 0.  0.
        -12    1    1    2    0    0 -0.50887297418E+01 -0.10928901566E+02  0.29519030606E+02  0.31885878186E+02  0.00000000000E+00 0.  1.
         11    1    3    3    0    0  0.16236709497E+02 -0.12773592546E+02 -0.14311105507E+02  0.25131715877E+02  0.51100000000E-03 0. -1.
        -11    1    3    3    0    0  0.24411478071E-01 -0.84973654200E+00 -0.54022733684E+01  0.54687481126E+01  0.51100000000E-03 0.  1.
        -12    1    3    3    0    0 -0.11172391234E+02  0.24552230655E+02 -0.98056517304E+01  0.28701657824E+02  0.00000000000E+00 0.  1.
</event>
<event>
 7    1  0.1215217E-011  0.5930192E+02  0.7816164E-02  0.1266605E+00
        -11   -1    0    0    0    0  0.00000000000E+00  0.00000000000E+00  0.45593999997E+02  0.45594000000E+02  0.51100000000E-03 0.  1.
         11   -1    0    0    0    0 -0.00000000000E+00 -0.00000000000E+00 -0.45593999997E+02  0.45594000000E+02  0.51100000000E-03 0. -1.
    9900012    2    1    2    0    0  0.23510399181E+02  0.11677971512E+02 -0.18099951754E+02  0.59301919309E+02  0.49999954920E+02 0.  0.
        -12    1    1    2    0    0 -0.23510399181E+02 -0.11677971512E+02  0.18099951754E+02  0.31886080691E+02  0.00000000000E+00 0.  1.
         11    1    3    3    0    0  0.20012116589E+02 -0.29080134786E+01 -0.12167513581E+02  0.23600630072E+02  0.51100000000E-03 0. -1.
        -11    1    3    3    0    0  0.15663199979E+02  0.34395247789E+01 -0.97477000046E+01  0.18766561217E+02  0.51100000000E-03 0.  1.
        -12    1    3    3    0    0 -0.12164917387E+02  0.11146460212E+02  0.38152618317E+01  0.16934728020E+02  0.00000000000E+00 0.  1.
</event>
<event>
 7    1  0.1215217E-011  0.5930197E+02  0.7816164E-02  0.1266605E+00
        -11   -1    0    0    0    0  0.00000000000E+00  0.00000000000E+00  0.45593999997E+02  0.45594000000E+02  0.51100000000E-03 0.  1.
         11   -1    0    0    0    0 -0.00000000000E+00 -0.00000000000E+00 -0.45593999997E+02  0.45594000000E+02  0.51100000000E-03 0. -1.
    9900012    2    1    2    0    0  0.73826552565E+01  0.29602771302E+02 -0.92677624384E+01  0.59301967196E+02  0.50000042253E+02 0.  0.
        -12    1    1    2    0    0 -0.73826552565E+01 -0.29602771302E+02  0.92677624384E+01  0.31886032804E+02  0.00000000000E+00 0.  1.
         11    1    3    3    0    0 -0.33422799801E+01  0.20837702925E+02  0.13893884005E+01  0.21149730473E+02  0.51100000000E-03 0. -1.
        -11    1    3    3    0    0 -0.93750462487E+01  0.48689352697E+01  0.56477909046E+01  0.11978963444E+02  0.51100000000E-03 0.  1.
         12    1    3    3    0    0  0.20099981485E+02  0.38961331065E+01 -0.16304941744E+02  0.26173273279E+02  0.00000000000E+00 0. -1.
</event>
<event>
 7    1  0.1215217E-011  0.5930195E+02  0.7816164E-02  0.1266605E+00
        -11   -1    0    0    0    0  0.00000000000E+00  0.00000000000E+00  0.45593999997E+02  0.45594000000E+02  0.51100000000E-03 0. -1.
         11   -1    0    0    0    0 -0.00000000000E+00 -0.00000000000E+00 -0.45593999997E+02  0.45594000000E+02  0.51100000000E-03 0.  1.
    9900012    2    1    2    0    0 -0.27587405811E+02  0.76218446262E+01  0.14055710989E+02  0.59301945269E+02  0.50000002265E+02 0.  0.
        -12    1    1    2    0    0  0.27587405811E+02 -0.76218446262E+01 -0.14055710989E+02  0.31886054731E+02  0.00000000000E+00 0.  1.
         11    1    3    3    0    0 -0.24709072138E+02 -0.63299797471E+01  0.46398766232E+01  0.25925573183E+02  0.51100000000E-03 0. -1.
        -11    1    3    3    0    0  0.80064090364E+01  0.75038951416E+01 -0.67237290982E+01  0.12869326369E+02  0.51100000000E-03 0.  1.
         12    1    3    3    0    0 -0.10884742709E+02  0.64479292316E+01  0.16139563465E+02  0.20507045717E+02  0.00000000000E+00 0. -1.
</event>
<event>
 7    1  0.1215217E-011  0.5930198E+02  0.7816164E-02  0.1266605E+00
        -11   -1    0    0    0    0  0.00000000000E+00  0.00000000000E+00  0.45593999997E+02  0.45594000000E+02  0.51100000000E-03 0. -1.
         11   -1    0    0    0    0 -0.00000000000E+00 -0.00000000000E+00 -0.45593999997E+02  0.45594000000E+02  0.51100000000E-03 0.  1.
    9900012    2    1    2    0    0 -0.10214128341E+02 -0.42338021817E+01  0.29907605988E+02  0.59301978068E+02  0.50000062082E+02 0.  0.
        -12    1    1    2    0    0  0.10214128341E+02  0.42338021817E+01 -0.29907605988E+02  0.31886021932E+02  0.00000000000E+00 0.  1.
         11    1    3    3    0    0 -0.14710514010E+01 -0.11631526376E+02 -0.73510406785E+00  0.11747202914E+02  0.51100000000E-03 0. -1.
        -11    1    3    3    0    0 -0.11449685452E+02  0.69906553491E+01 -0.30447780676E+01  0.13756279762E+02  0.51100000000E-03 0.  1.
        -12    1    3    3    0    0  0.27066085116E+01  0.40706884507E+00  0.33687488123E+02  0.33798495392E+02  0.00000000000E+00 0.  1.
</event>
<event>
 7    1  0.1215217E-011  0.5930200E+02  0.7816164E-02  0.1266605E+00
        -11   -1    0    0    0    0  0.00000000000E+00  0.00000000000E+00  0.45593999997E+02  0.45594000000E+02  0.51100000000E-03 0.  1.
         11   -1    0    0    0    0 -0.00000000000E+00 -0.00000000000E+00 -0.45593999997E+02  0.45594000000E+02  0.51100000000E-03 0. -1.
    9900012    2    1    2    0    0 -0.15128127588E+02 -0.16582752036E+02  0.22646618156E+02  0.59301996436E+02  0.50000095580E+02 0.  0.
        -12    1    1    2    0    0  0.15128127588E+02  0.16582752036E+02 -0.22646618156E+02  0.31886003564E+02  0.00000000000E+00 0.  1.
         11    1    3    3    0    0  0.30582132146E+01  0.47633670850E+01  0.24142399849E+01  0.61539328090E+01  0.51100000000E-03 0.  1.
        -11    1    3    3    0    0  0.16607676874E+01  0.77134097692E+01 -0.54441033576E+01  0.95860889423E+01  0.51100000000E-03 0. -1.
         12    1    3    3    0    0 -0.19847108490E+02 -0.29059528890E+02  0.25676481528E+02  0.43561974685E+02  0.00000000000E+00 0. -1.
</event>
<event>
 7    1  0.1215217E-011  0.5930190E+02  0.7816164E-02  0.1266605E+00
        -11   -1    0    0    0    0  0.00000000000E+00  0.00000000000E+00  0.45593999997E+02  0.45594000000E+02  0.51100000000E-03 0.  1.
         11   -1    0    0    0    0 -0.00000000000E+00 -0.00000000000E+00 -0.45593999997E+02  0.45594000000E+02  0.51100000000E-03 0. -1.
    9900012    2    1    2    0    0 -0.64602178243E+01 -0.25507878044E+01 -0.31120450125E+02  0.59301900384E+02  0.49999920404E+02 0.  0.
        -12    1    1    2    0    0  0.64602178243E+01  0.25507878044E+01  0.31120450125E+02  0.31886099616E+02  0.00000000000E+00 0.  1.
         11    1    3    3    0    0 -0.82361720524E+01 -0.13865238052E+02  0.33831266271E+01  0.16478012695E+02  0.51100000000E-03 0.  1.
        -11    1    3    3    0    0  0.15545143768E+00 -0.58384849822E+01 -0.18159648920E+02  0.19075767905E+02  0.51100000000E-03 0. -1.
         12    1    3    3    0    0  0.16205027905E+01  0.17152935230E+02 -0.16343927832E+02  0.23748119784E+02  0.00000000000E+00 0. -1.
</event>
<event>
 7    1  0.1215217E-011  0.5930194E+02  0.7816164E-02  0.1266605E+00
        -11   -1    0    0    0    0  0.00000000000E+00  0.00000000000E+00  0.45593999997E+02  0.45594000000E+02  0.51100000000E-03 0.  1.
         11   -1    0    0    0    0 -0.00000000000E+00 -0.00000000000E+00 -0.45593999997E+02  0.45594000000E+02  0.51100000000E-03 0. -1.
    9900012    2    1    2    0    0  0.29424031718E+02 -0.71868919412E+01 -0.99647179362E+01  0.59301942516E+02  0.49999997244E+02 0.  0.
        -12    1    1    2    0    0 -0.29424031718E+02  0.71868919412E+01  0.99647179362E+01  0.31886057484E+02  0.00000000000E+00 0.  1.
         11    1    3    3    0    0  0.18341881008E+01 -0.17443690658E+02  0.13962664473E+01  0.17595344556E+02  0.51100000000E-03 0. -1.
        -11    1    3    3    0    0  0.72454925330E+01 -0.93655257103E+01 -0.40014979063E+01  0.12498888736E+02  0.51100000000E-03 0.  1.
        -12    1    3    3    0    0  0.20344351084E+02  0.19622324428E+02 -0.73594864772E+01  0.29207709225E+02  0.00000000000E+00 0.  1.
</event>
<event>
 7    1  0.1215217E-011  0.5930194E+02  0.7816164E-02  0.1266605E+00
        -11   -1    0    0    0    0  0.00000000000E+00  0.00000000000E+00  0.45593999997E+02  0.45594000000E+02  0.51100000000E-03 0.  1.
         11   -1    0    0    0    0 -0.00000000000E+00 -0.00000000000E+00 -0.45593999997E+02  0.45594000000E+02  0.51100000000E-03 0. -1.
    9900012    2    1    2    0    0 -0.10651707811E+02 -0.11208323784E+02 -0.27886114036E+02  0.59301941019E+02  0.49999994513E+02 0.  0.
        -12    1    1    2    0    0  0.10651707811E+02  0.11208323784E+02  0.27886114036E+02  0.31886058981E+02  0.00000000000E+00 0.  1.
         11    1    3    3    0    0 -0.61088841163E+01 -0.25327963799E+01  0.39819787785E+01  0.77194350766E+01  0.51100000000E-03 0. -1.
        -11    1    3    3    0    0  0.14352971655E+02 -0.84187184259E+01 -0.27438191160E+01  0.16864494029E+02  0.51100000000E-03 0.  1.
         12    1    3    3    0    0 -0.18895795349E+02 -0.25680897791E+00 -0.29124273698E+02  0.34718011913E+02  0.00000000000E+00 0. -1.
</event>
<event>
 7    1  0.1215217E-011  0.5930194E+02  0.7816164E-02  0.1266605E+00
        -11   -1    0    0    0    0  0.00000000000E+00  0.00000000000E+00  0.45593999997E+02  0.45594000000E+02  0.51100000000E-03 0.  1.
         11   -1    0    0    0    0 -0.00000000000E+00 -0.00000000000E+00 -0.45593999997E+02  0.45594000000E+02  0.51100000000E-03 0. -1.
    9900012    2    1    2    0    0 -0.22257754620E+02 -0.11100615226E+02 -0.19952177545E+02  0.59301942107E+02  0.49999996497E+02 0.  0.
        -12    1    1    2    0    0  0.22257754620E+02  0.11100615226E+02  0.19952177545E+02  0.31886057893E+02  0.00000000000E+00 0.  1.
         11    1    3    3    0    0  0.82293286877E+00 -0.12209460252E+02 -0.17006185088E+02  0.20951335749E+02  0.51100000000E-03 0. -1.
        -11    1    3    3    0    0 -0.92167391612E+00 -0.11447256133E+02  0.36333966901E+01  0.12045361247E+02  0.51100000000E-03 0.  1.
        -12    1    3    3    0    0 -0.22159013573E+02  0.12556101159E+02 -0.65793891474E+01  0.26305245112E+02  0.00000000000E+00 0.  1.
</event>
<event>
 7    1  0.1215217E-011  0.5930192E+02  0.7816164E-02  0.1266605E+00
        -11   -1    0    0    0    0  0.00000000000E+00  0.00000000000E+00  0.45593999997E+02  0.45594000000E+02  0.51100000000E-03 0.  1.
         11   -1    0    0    0    0 -0.00000000000E+00 -0.00000000000E+00 -0.45593999997E+02  0.45594000000E+02  0.51100000000E-03 0. -1.
    9900012    2    1    2    0    0  0.12565545179E+02 -0.14940083119E+01 -0.29267678681E+02  0.59301921504E+02  0.49999958922E+02 0.  0.
        -12    1    1    2    0    0 -0.12565545179E+02  0.14940083119E+01  0.29267678681E+02  0.31886078496E+02  0.00000000000E+00 0.  1.
         11    1    3    3    0    0  0.64322499909E+01 -0.81849839047E+01 -0.24791789932E+02  0.26888671402E+02  0.51100000000E-03 0. -1.
        -11    1    3    3    0    0 -0.63254812861E+00  0.74489127112E+01 -0.16769498919E+02  0.18360351630E+02  0.51100000000E-03 0.  1.
        -12    1    3    3    0    0  0.67658433169E+01 -0.75793711835E+00  0.12293610170E+02  0.14052898472E+02  0.00000000000E+00 0.  1.
</event>
<event>
 7    1  0.1215217E-011  0.5930195E+02  0.7816164E-02  0.1266605E+00
        -11   -1    0    0    0    0  0.00000000000E+00  0.00000000000E+00  0.45593999997E+02  0.45594000000E+02  0.51100000000E-03 0. -1.
         11   -1    0    0    0    0 -0.00000000000E+00 -0.00000000000E+00 -0.45593999997E+02  0.45594000000E+02  0.51100000000E-03 0.  1.
    9900012    2    1    2    0    0  0.31734015479E+02 -0.19025996084E+01 -0.24602288834E+01  0.59301947408E+02  0.50000006165E+02 0.  0.
        -12    1    1    2    0    0 -0.31734015479E+02  0.19025996084E+01  0.24602288834E+01  0.31886052592E+02  0.00000000000E+00 0.  1.
         11    1    3    3    0    0 -0.37483947514E+01 -0.71168504082E+00  0.69490618366E+00  0.38781250206E+01  0.51100000000E-03 0. -1.
        -11    1    3    3    0    0  0.85204615284E+01  0.19527464060E+02 -0.39485686399E+00  0.21309059798E+02  0.51100000000E-03 0.  1.
         12    1    3    3    0    0  0.26961948703E+02 -0.20718378628E+02 -0.27602782030E+01  0.34114762590E+02  0.00000000000E+00 0. -1.
</event>
<event>
 7    1  0.1215217E-011  0.5930193E+02  0.7816164E-02  0.1266605E+00
        -11   -1    0    0    0    0  0.00000000000E+00  0.00000000000E+00  0.45593999997E+02  0.45594000000E+02  0.51100000000E-03 0.  1.
         11   -1    0    0    0    0 -0.00000000000E+00 -0.00000000000E+00 -0.45593999997E+02  0.45594000000E+02  0.51100000000E-03 0. -1.
    9900012    2    1    2    0    0  0.15941860265E+02 -0.14384006989E+02 -0.23572848519E+02  0.59301925405E+02  0.49999966037E+02 0.  0.
        -12    1    1    2    0    0 -0.15941860265E+02  0.14384006989E+02  0.23572848519E+02  0.31886074595E+02  0.00000000000E+00 0.  1.
         11    1    3    3    0    0 -0.52769348178E+01  0.17796306587E+01 -0.14535538701E+02  0.15565828341E+02  0.51100000000E-03 0. -1.
        -11    1    3    3    0    0  0.96103238376E+01 -0.77729069650E+01 -0.21467209712E+02  0.24771303963E+02  0.51100000000E-03 0.  1.
        -12    1    3    3    0    0  0.11608471245E+02 -0.83907306823E+01  0.12429899893E+02  0.18964793102E+02  0.00000000000E+00 0.  1.
</event>
<event>
 7    1  0.1215217E-011  0.5930194E+02  0.7816164E-02  0.1266605E+00
        -11   -1    0    0    0    0  0.00000000000E+00  0.00000000000E+00  0.45593999997E+02  0.45594000000E+02  0.51100000000E-03 0.  1.
         11   -1    0    0    0    0 -0.00000000000E+00 -0.00000000000E+00 -0.45593999997E+02  0.45594000000E+02  0.51100000000E-03 0. -1.
    9900012    2    1    2    0    0 -0.35259564881E+01 -0.27947447043E+02 -0.14940840186E+02  0.59301939239E+02  0.49999991267E+02 0.  0.
        -12    1    1    2    0    0  0.35259564881E+01  0.27947447043E+02  0.14940840186E+02  0.31886060761E+02  0.00000000000E+00 0.  1.
         11    1    3    3    0    0 -0.11964700763E+02 -0.16617147994E+02 -0.21097037522E+02  0.29400147351E+02  0.51100000000E-03 0. -1.
        -11    1    3    3    0    0  0.97419686943E+01 -0.17179142557E+02 -0.19234162287E+01  0.19842591143E+02  0.51100000000E-03 0.  1.
        -12    1    3    3    0    0 -0.13032244195E+01  0.58488435085E+01  0.80796135644E+01  0.10059200745E+02  0.00000000000E+00 0.  1.
</event>
<event>
 7    1  0.1215217E-011  0.5930198E+02  0.7816164E-02  0.1266605E+00
        -11   -1    0    0    0    0  0.00000000000E+00  0.00000000000E+00  0.45593999997E+02  0.45594000000E+02  0.51100000000E-03 0.  1.
         11   -1    0    0    0    0 -0.00000000000E+00 -0.00000000000E+00 -0.45593999997E+02  0.45594000000E+02  0.51100000000E-03 0. -1.
    9900012    2    1    2    0    0  0.21231285085E+01  0.16633317212E+02 -0.27120899709E+02  0.59301982419E+02  0.50000070016E+02 0.  0.
        -12    1    1    2    0    0 -0.21231285085E+01 -0.16633317212E+02  0.27120899709E+02  0.31886017581E+02  0.00000000000E+00 0.  1.
         11    1    3    3    0    0 -0.49123777090E+01  0.99463643112E+01  0.32465838896E+00  0.11098063845E+02  0.51100000000E-03 0. -1.
        -11    1    3    3    0    0 -0.34407745037E+01 -0.49692077988E+01  0.76608675311E+01  0.97581169763E+01  0.51100000000E-03 0.  1.
         12    1    3    3    0    0  0.10476280721E+02  0.11656160700E+02 -0.35106425630E+02  0.38445801598E+02  0.00000000000E+00 0. -1.
</event>
<event>
 7    1  0.1215217E-011  0.5930195E+02  0.7816164E-02  0.1266605E+00
        -11   -1    0    0    0    0  0.00000000000E+00  0.00000000000E+00  0.45593999997E+02  0.45594000000E+02  0.51100000000E-03 0.  1.
         11   -1    0    0    0    0 -0.00000000000E+00 -0.00000000000E+00 -0.45593999997E+02  0.45594000000E+02  0.51100000000E-03 0. -1.
    9900012    2    1    2    0    0  0.23902914478E+02  0.21008546243E+02 -0.20029232895E+01  0.59301952307E+02  0.50000015100E+02 0.  0.
        -12    1    1    2    0    0 -0.23902914478E+02 -0.21008546243E+02  0.20029232895E+01  0.31886047693E+02  0.00000000000E+00 0.  1.
         11    1    3    3    0    0  0.93535270449E+01  0.96939273599E-01 -0.15517926688E+02  0.18119158765E+02  0.51100000000E-03 0. -1.
        -11    1    3    3    0    0  0.62079300520E+01  0.15301247045E+01 -0.85345483150E+01  0.10663873234E+02  0.51100000000E-03 0.  1.
        -12    1    3    3    0    0  0.83414573811E+01  0.19381482265E+02  0.22049551713E+02  0.30518920308E+02  0.00000000000E+00 0.  1.
</event>
<event>
 7    1  0.1215217E-011  0.5930195E+02  0.7816164E-02  0.1266605E+00
        -11   -1    0    0    0    0  0.00000000000E+00  0.00000000000E+00  0.45593999997E+02  0.45594000000E+02  0.51100000000E-03 0. -1.
         11   -1    0    0    0    0 -0.00000000000E+00 -0.00000000000E+00 -0.45593999997E+02  0.45594000000E+02  0.51100000000E-03 0.  1.
    9900012    2    1    2    0    0 -0.95016822028E+01  0.30436649414E+02 -0.22101123583E+00  0.59301946024E+02  0.50000003640E+02 0.  0.
        -12    1    1    2    0    0  0.95016822028E+01 -0.30436649414E+02  0.22101123583E+00  0.31886053976E+02  0.00000000000E+00 0.  1.
         11    1    3    3    0    0  0.33658473411E+01  0.68246745635E+01 -0.32399339872E+01  0.82705673157E+01  0.51100000000E-03 0. -1.
        -11    1    3    3    0    0  0.37179845810E+01  0.21011615473E+02 -0.15244572107E+02  0.26224194423E+02  0.51100000000E-03 0.  1.
         12    1    3    3    0    0 -0.16585514125E+02  0.26003593771E+01  0.18263494859E+02  0.24807184285E+02  0.00000000000E+00 0. -1.
</event>
<event>
 7    1  0.1215217E-011  0.5930196E+02  0.7816164E-02  0.1266605E+00
        -11   -1    0    0    0    0  0.00000000000E+00  0.00000000000E+00  0.45593999997E+02  0.45594000000E+02  0.51100000000E-03 0.  1.
         11   -1    0    0    0    0 -0.00000000000E+00 -0.00000000000E+00 -0.45593999997E+02  0.45594000000E+02  0.51100000000E-03 0. -1.
    9900012    2    1    2    0    0  0.28126542810E+02 -0.13509454504E+02 -0.65659800181E+01  0.59301955011E+02  0.50000020032E+02 0.  0.
        -12    1    1    2    0    0 -0.28126542810E+02  0.13509454504E+02  0.65659800181E+01  0.31886044989E+02  0.00000000000E+00 0.  1.
         11    1    3    3    0    0  0.11743225333E+02  0.96369375200E+01  0.73996392580E+01  0.16897590580E+02  0.51100000000E-03 0. -1.
        -11    1    3    3    0    0  0.92149998678E+00 -0.16869575900E+02  0.45319347898E+01  0.17492003501E+02  0.51100000000E-03 0.  1.
         12    1    3    3    0    0  0.15461817490E+02 -0.62768161242E+01 -0.18497554066E+02  0.24912360931E+02  0.00000000000E+00 0. -1.
</event>
<event>
 7    1  0.1215217E-011  0.5930192E+02  0.7816164E-02  0.1266605E+00
        -11   -1    0    0    0    0  0.00000000000E+00  0.00000000000E+00  0.45593999997E+02  0.45594000000E+02  0.51100000000E-03 0.  1.
         11   -1    0    0    0    0 -0.00000000000E+00 -0.00000000000E+00 -0.45593999997E+02  0.45594000000E+02  0.51100000000E-03 0. -1.
    9900012    2    1    2    0    0 -0.55827112807E+01 -0.95577303201E+01 -0.29903263814E+02  0.59301920579E+02  0.49999957234E+02 0.  0.
        -12    1    1    2    0    0  0.55827112807E+01  0.95577303201E+01  0.29903263814E+02  0.31886079421E+02  0.00000000000E+00 0.  1.
         11    1    3    3    0    0  0.14205442660E+02  0.44975088882E+01 -0.24360371271E+02  0.28556082997E+02  0.51100000000E-03 0. -1.
        -11    1    3    3    0    0  0.29583843745E+01  0.64174004440E+00 -0.14510063433E+01  0.33569760293E+01  0.51100000000E-03 0.  1.
        -12    1    3    3    0    0 -0.22746538315E+02 -0.14696979253E+02 -0.40918861999E+01  0.27388861553E+02  0.00000000000E+00 0.  1.
</event>
<event>
 7    1  0.1215217E-011  0.5930196E+02  0.7816164E-02  0.1266605E+00
        -11   -1    0    0    0    0  0.00000000000E+00  0.00000000000E+00  0.45593999997E+02  0.45594000000E+02  0.51100000000E-03 0.  1.
         11   -1    0    0    0    0 -0.00000000000E+00 -0.00000000000E+00 -0.45593999997E+02  0.45594000000E+02  0.51100000000E-03 0. -1.
    9900012    2    1    2    0    0 -0.11893702271E+02  0.15622968814E+02 -0.25123346774E+02  0.59301955068E+02  0.50000020134E+02 0.  0.
        -12    1    1    2    0    0  0.11893702271E+02 -0.15622968814E+02  0.25123346774E+02  0.31886044932E+02  0.00000000000E+00 0.  1.
         11    1    3    3    0    0  0.97769011174E+01  0.95761602887E+01 -0.88991105461E+01  0.16324362472E+02  0.51100000000E-03 0. -1.
        -11    1    3    3    0    0  0.63264283065E+01  0.11684284188E+01 -0.12835307405E+02  0.14357368719E+02  0.51100000000E-03 0.  1.
         12    1    3    3    0    0 -0.27997031695E+02  0.48783801069E+01 -0.33889288227E+01  0.28620223877E+02  0.00000000000E+00 0. -1.
</event>
<event>
 7    1  0.1215217E-011  0.5930195E+02  0.7816164E-02  0.1266605E+00
        -11   -1    0    0    0    0  0.00000000000E+00  0.00000000000E+00  0.45593999997E+02  0.45594000000E+02  0.51100000000E-03 0. -1.
         11   -1    0    0    0    0 -0.00000000000E+00 -0.00000000000E+00 -0.45593999997E+02  0.45594000000E+02  0.51100000000E-03 0.  1.
    9900012    2    1    2    0    0  0.57335295843E+01 -0.31313610131E+02  0.18177957348E+01  0.59301954114E+02  0.50000018395E+02 0.  0.
        -12    1    1    2    0    0 -0.57335295843E+01  0.31313610131E+02 -0.18177957348E+01  0.31886045886E+02  0.00000000000E+00 0.  1.
         11    1    3    3    0    0  0.29162454831E+01 -0.20523787750E+02  0.92077975655E+01  0.22682898571E+02  0.51100000000E-03 0. -1.
        -11    1    3    3    0    0  0.20961936930E+01 -0.87474210189E+01  0.13168132965E+02  0.15947135434E+02  0.51100000000E-03 0.  1.
        -12    1    3    3    0    0  0.72109040830E+00 -0.20424013617E+01 -0.20558134796E+02  0.20671920109E+02  0.00000000000E+00 0.  1.
</event>
<event>
 7    1  0.1215217E-011  0.5930194E+02  0.7816164E-02  0.1266605E+00
        -11   -1    0    0    0    0  0.00000000000E+00  0.00000000000E+00  0.45593999997E+02  0.45594000000E+02  0.51100000000E-03 0.  1.
         11   -1    0    0    0    0 -0.00000000000E+00 -0.00000000000E+00 -0.45593999997E+02  0.45594000000E+02  0.51100000000E-03 0. -1.
    9900012    2    1    2    0    0 -0.10895834902E+01 -0.34757627798E+01 -0.31677318864E+02  0.59301942710E+02  0.49999997597E+02 0.  0.
        -12    1    1    2    0    0  0.10895834902E+01  0.34757627798E+01  0.31677318864E+02  0.31886057290E+02  0.00000000000E+00 0.  1.
         11    1    3    3    0    0  0.30133686958E+01  0.55355677705E+01 -0.90699217512E+01  0.11044744554E+02  0.51100000000E-03 0. -1.
        -11    1    3    3    0    0 -0.26490414378E+01  0.62841165016E+01 -0.30311701503E+02  0.31069386686E+02  0.51100000000E-03 0.  1.
        -12    1    3    3    0    0 -0.14539107483E+01 -0.15295447052E+02  0.77043043909E+01  0.17187811470E+02  0.00000000000E+00 0.  1.
</event>
<event>
 7    1  0.1215217E-011  0.5930194E+02  0.7816164E-02  0.1266605E+00
        -11   -1    0    0    0    0  0.00000000000E+00  0.00000000000E+00  0.45593999997E+02  0.45594000000E+02  0.51100000000E-03 0.  1.
         11   -1    0    0    0    0 -0.00000000000E+00 -0.00000000000E+00 -0.45593999997E+02  0.45594000000E+02  0.51100000000E-03 0. -1.
    9900012    2    1    2    0    0  0.88968298899E+01  0.28511914432E+02 -0.11164130440E+02  0.59301942621E+02  0.49999997435E+02 0.  0.
        -12    1    1    2    0    0 -0.88968298899E+01 -0.28511914432E+02  0.11164130440E+02  0.31886057379E+02  0.00000000000E+00 0.  1.
         11    1    3    3    0    0  0.12368504478E+02  0.25655230132E+02 -0.57650775737E+01  0.29058679526E+02  0.51100000000E-03 0.  1.
        -11    1    3    3    0    0 -0.35517639348E+01  0.14134691123E+02 -0.10401655767E+02  0.17905277523E+02  0.51100000000E-03 0. -1.
        -12    1    3    3    0    0  0.80089346717E-01 -0.11278006823E+02  0.50026029007E+01  0.12337985572E+02  0.00000000000E+00 0.  1.
</event>
<event>
 7    1  0.1215217E-011  0.5930195E+02  0.7816164E-02  0.1266605E+00
        -11   -1    0    0    0    0  0.00000000000E+00  0.00000000000E+00  0.45593999997E+02  0.45594000000E+02  0.51100000000E-03 0.  1.
         11   -1    0    0    0    0 -0.00000000000E+00 -0.00000000000E+00 -0.45593999997E+02  0.45594000000E+02  0.51100000000E-03 0. -1.
    9900012    2    1    2    0    0 -0.55943249857E+01 -0.48868406002E+01 -0.31008749260E+02  0.59301949542E+02  0.50000010057E+02 0.  0.
        -12    1    1    2    0    0  0.55943249857E+01  0.48868406002E+01  0.31008749260E+02  0.31886050458E+02  0.00000000000E+00 0.  1.
         11    1    3    3    0    0  0.12710624525E+02  0.10513938051E+02 -0.24610325795E+02  0.29627200428E+02  0.51100000000E-03 0. -1.
        -11    1    3    3    0    0 -0.13459186753E+01  0.83857046580E+00 -0.59842357049E+01  0.61907814321E+01  0.51100000000E-03 0.  1.
        -12    1    3    3    0    0 -0.16959030835E+02 -0.16239349117E+02 -0.41418776010E+00  0.23483967683E+02  0.00000000000E+00 0.  1.
</event>
<event>
 7    1  0.1215217E-011  0.5930198E+02  0.7816164E-02  0.1266605E+00
        -11   -1    0    0    0    0  0.00000000000E+00  0.00000000000E+00  0.45593999997E+02  0.45594000000E+02  0.51100000000E-03 0.  1.
         11   -1    0    0    0    0 -0.00000000000E+00 -0.00000000000E+00 -0.45593999997E+02  0.45594000000E+02  0.51100000000E-03 0. -1.
    9900012    2    1    2    0    0 -0.31058763681E+02  0.56055850958E-01 -0.72158331187E+01  0.59301981257E+02  0.50000067898E+02 0.  0.
        -12    1    1    2    0    0  0.31058763681E+02 -0.56055850958E-01  0.72158331187E+01  0.31886018743E+02  0.00000000000E+00 0.  1.
         11    1    3    3    0    0 -0.92265411757E+00 -0.27792581329E+01  0.15552481389E+02  0.15825777832E+02  0.51100000000E-03 0. -1.
        -11    1    3    3    0    0 -0.62412196384E+01  0.10919594461E+01  0.40460416247E+01  0.75176892125E+01  0.51100000000E-03 0.  1.
         12    1    3    3    0    0 -0.23894889925E+02  0.17433545377E+01 -0.26814356132E+02  0.35958514212E+02  0.00000000000E+00 0. -1.
</event>
<event>
 7    1  0.1215217E-011  0.5930193E+02  0.7816164E-02  0.1266605E+00
        -11   -1    0    0    0    0  0.00000000000E+00  0.00000000000E+00  0.45593999997E+02  0.45594000000E+02  0.51100000000E-03 0. -1.
         11   -1    0    0    0    0 -0.00000000000E+00 -0.00000000000E+00 -0.45593999997E+02  0.45594000000E+02  0.51100000000E-03 0.  1.
    9900012    2    1    2    0    0 -0.57226665293E+01 -0.30471376675E+02 -0.74476538287E+01  0.59301933196E+02  0.49999980246E+02 0.  0.
        -12    1    1    2    0    0  0.57226665293E+01  0.30471376675E+02  0.74476538287E+01  0.31886066804E+02  0.00000000000E+00 0.  1.
         11    1    3    3    0    0 -0.59330018198E+01 -0.75304854913E+01 -0.15040583005E+02  0.17836139148E+02  0.51100000000E-03 0. -1.
        -11    1    3    3    0    0 -0.37238789593E+01 -0.16215182970E+02 -0.11912033564E+02  0.20462061899E+02  0.51100000000E-03 0.  1.
         12    1    3    3    0    0  0.39342142498E+01 -0.67257082134E+01  0.19504962740E+02  0.21003732150E+02  0.00000000000E+00 0. -1.
</event>
<event>
 7    1  0.1215217E-011  0.5930190E+02  0.7816164E-02  0.1266605E+00
        -11   -1    0    0    0    0  0.00000000000E+00  0.00000000000E+00  0.45593999997E+02  0.45594000000E+02  0.51100000000E-03 0.  1.
         11   -1    0    0    0    0 -0.00000000000E+00 -0.00000000000E+00 -0.45593999997E+02  0.45594000000E+02  0.51100000000E-03 0. -1.
    9900012    2    1    2    0    0 -0.11680391878E+02  0.27842453022E+01 -0.29538784029E+02  0.59301900548E+02  0.49999920704E+02 0.  0.
        -12    1    1    2    0    0  0.11680391878E+02 -0.27842453022E+01  0.29538784029E+02  0.31886099452E+02  0.00000000000E+00 0.  1.
         11    1    3    3    0    0 -0.13549519438E+02 -0.99556230801E+01 -0.80577427542E+01  0.18644868637E+02  0.51100000000E-03 0. -1.
        -11    1    3    3    0    0 -0.14847081684E+02  0.76482901940E+01 -0.76433092333E+01  0.18367154209E+02  0.51100000000E-03 0.  1.
        -12    1    3    3    0    0  0.16716209245E+02  0.50915781884E+01 -0.13837732042E+02  0.22289877703E+02  0.00000000000E+00 0.  1.
</event>
<event>
 7    1  0.1215217E-011  0.5930186E+02  0.7816164E-02  0.1266605E+00
        -11   -1    0    0    0    0  0.00000000000E+00  0.00000000000E+00  0.45593999997E+02  0.45594000000E+02  0.51100000000E-03 0.  1.
         11   -1    0    0    0    0 -0.00000000000E+00 -0.00000000000E+00 -0.45593999997E+02  0.45594000000E+02  0.51100000000E-03 0. -1.
    9900012    2    1    2    0    0 -0.26557332812E+02 -0.14018325122E+02  0.10720093192E+02  0.59301862521E+02  0.49999851350E+02 0.  0.
        -12    1    1    2    0    0  0.26557332812E+02  0.14018325122E+02 -0.10720093192E+02  0.31886137479E+02  0.00000000000E+00 0.  1.
         11    1    3    3    0    0 -0.76109701193E+01 -0.50460002931E+00  0.26810779291E+01  0.80851509862E+01  0.51100000000E-03 0. -1.
        -11    1    3    3    0    0  0.13602550408E+02  0.15209282560E+01  0.69404102533E+01  0.15346396812E+02  0.51100000000E-03 0.  1.
         12    1    3    3    0    0 -0.32548913100E+02 -0.15034653349E+02  0.10986050099E+01  0.35870314723E+02  0.00000000000E+00 0. -1.
</event>
<event>
 7    1  0.1215217E-011  0.5930218E+02  0.7816164E-02  0.1266604E+00
        -11   -1    0    0    0    0  0.00000000000E+00  0.00000000000E+00  0.45593999997E+02  0.45594000000E+02  0.51100000000E-03 0.  1.
         11   -1    0    0    0    0 -0.00000000000E+00 -0.00000000000E+00 -0.45593999997E+02  0.45594000000E+02  0.51100000000E-03 0. -1.
    9900012    2    1    2    0    0 -0.11367424449E+02 -0.22767140463E+02 -0.19213135297E+02  0.59302178834E+02  0.50000428228E+02 0.  0.
        -12    1    1    2    0    0  0.11367424449E+02  0.22767140463E+02  0.19213135297E+02  0.31885821166E+02  0.00000000000E+00 0.  1.
         11    1    3    3    0    0 -0.92251230811E+01  0.15096456534E+01 -0.17810905613E+02  0.20114926917E+02  0.51100000000E-03 0. -1.
        -11    1    3    3    0    0 -0.21061098386E+01  0.72805424673E+01  0.28964101489E+00  0.75845823517E+01  0.51100000000E-03 0.  1.
        -12    1    3    3    0    0 -0.36191529276E-01 -0.31557328584E+02 -0.16918706993E+01  0.31602669565E+02  0.00000000000E+00 0.  1.
</event>
<event>
 7    1  0.1215217E-011  0.5930194E+02  0.7816164E-02  0.1266605E+00
        -11   -1    0    0    0    0  0.00000000000E+00  0.00000000000E+00  0.45593999997E+02  0.45594000000E+02  0.51100000000E-03 0.  1.
         11   -1    0    0    0    0 -0.00000000000E+00 -0.00000000000E+00 -0.45593999997E+02  0.45594000000E+02  0.51100000000E-03 0. -1.
    9900012    2    1    2    0    0  0.86325229629E+01  0.27783487709E+02 -0.13049069892E+02  0.59301939299E+02  0.49999991377E+02 0.  0.
        -12    1    1    2    0    0 -0.86325229629E+01 -0.27783487709E+02  0.13049069892E+02  0.31886060701E+02  0.00000000000E+00 0.  1.
         11    1    3    3    0    0  0.25003784122E+01  0.16196502277E+02 -0.23689553047E+02  0.28805789384E+02  0.51100000000E-03 0. -1.
        -11    1    3    3    0    0  0.62521554234E+01 -0.58029388725E+01 -0.22820616513E+01  0.88301388799E+01  0.51100000000E-03 0.  1.
        -12    1    3    3    0    0 -0.12001087274E+00  0.17389924304E+02  0.12922544806E+02  0.21666011036E+02  0.00000000000E+00 0.  1.
</event>
<event>
 7    1  0.1215217E-011  0.5930195E+02  0.7816164E-02  0.1266605E+00
        -11   -1    0    0    0    0  0.00000000000E+00  0.00000000000E+00  0.45593999997E+02  0.45594000000E+02  0.51100000000E-03 0.  1.
         11   -1    0    0    0    0 -0.00000000000E+00 -0.00000000000E+00 -0.45593999997E+02  0.45594000000E+02  0.51100000000E-03 0. -1.
    9900012    2    1    2    0    0  0.67827189756E+01 -0.48827606595E+00 -0.31152470154E+02  0.59301951531E+02  0.50000013685E+02 0.  0.
        -12    1    1    2    0    0 -0.67827189756E+01  0.48827606595E+00  0.31152470154E+02  0.31886048469E+02  0.00000000000E+00 0.  1.
         11    1    3    3    0    0  0.12659254905E+02 -0.41247987063E+01 -0.72508387021E+01  0.15160651743E+02  0.51100000000E-03 0.  1.
        -11    1    3    3    0    0  0.14266152726E+02  0.59208918720E+00 -0.23236055479E+01  0.14466265109E+02  0.51100000000E-03 0. -1.
        -12    1    3    3    0    0 -0.20142688655E+02  0.30444334532E+01 -0.21578025904E+02  0.29675034680E+02  0.00000000000E+00 0.  1.
</event>
<event>
 7    1  0.1215217E-011  0.5930199E+02  0.7816164E-02  0.1266605E+00
        -11   -1    0    0    0    0  0.00000000000E+00  0.00000000000E+00  0.45593999997E+02  0.45594000000E+02  0.51100000000E-03 0. -1.
         11   -1    0    0    0    0 -0.00000000000E+00 -0.00000000000E+00 -0.45593999997E+02  0.45594000000E+02  0.51100000000E-03 0.  1.
    9900012    2    1    2    0    0 -0.31783195797E+02  0.24186129441E+01  0.83448358347E+00  0.59301990740E+02  0.50000085192E+02 0.  0.
        -12    1    1    2    0    0  0.31783195797E+02 -0.24186129441E+01 -0.83448358347E+00  0.31886009260E+02  0.00000000000E+00 0.  1.
         11    1    3    3    0    0 -0.27557422988E+02  0.15058685645E+02  0.81395001415E+01  0.32441131884E+02  0.51100000000E-03 0. -1.
        -11    1    3    3    0    0 -0.12495329804E+02 -0.55982068719E+01  0.13973878680E+00  0.13692797898E+02  0.51100000000E-03 0.  1.
         12    1    3    3    0    0  0.82695569946E+01 -0.70418658294E+01 -0.74447553448E+01  0.13168060958E+02  0.00000000000E+00 0. -1.
</event>
<event>
 7    1  0.1215217E-011  0.5930194E+02  0.7816164E-02  0.1266605E+00
        -11   -1    0    0    0    0  0.00000000000E+00  0.00000000000E+00  0.45593999997E+02  0.45594000000E+02  0.51100000000E-03 0.  1.
         11   -1    0    0    0    0 -0.00000000000E+00 -0.00000000000E+00 -0.45593999997E+02  0.45594000000E+02  0.51100000000E-03 0. -1.
    9900012    2    1    2    0    0  0.23386477739E+02 -0.15085242554E+01 -0.21622153776E+02  0.59301944735E+02  0.50000001290E+02 0.  0.
        -12    1    1    2    0    0 -0.23386477739E+02  0.15085242554E+01  0.21622153776E+02  0.31886055265E+02  0.00000000000E+00 0.  1.
         11    1    3    3    0    0 -0.89965515380E+01 -0.40197515833E+01 -0.48726235794E+01  0.10992670430E+02  0.51100000000E-03 0. -1.
        -11    1    3    3    0    0  0.11300219640E+02  0.75102255447E+01 -0.22153321835E+02  0.25978223962E+02  0.51100000000E-03 0.  1.
        -12    1    3    3    0    0  0.21082809637E+02 -0.49989982169E+01  0.54037916382E+01  0.22331050343E+02  0.00000000000E+00 0.  1.
</event>
<event>
 7    1  0.1215217E-011  0.5930203E+02  0.7816164E-02  0.1266604E+00
        -11   -1    0    0    0    0  0.00000000000E+00  0.00000000000E+00  0.45593999997E+02  0.45594000000E+02  0.51100000000E-03 0.  1.
         11   -1    0    0    0    0 -0.00000000000E+00 -0.00000000000E+00 -0.45593999997E+02  0.45594000000E+02  0.51100000000E-03 0. -1.
    9900012    2    1    2    0    0 -0.13368421198E+02 -0.10751728023E+02 -0.26877512058E+02  0.59302031374E+02  0.50000159298E+02 0.  0.
        -12    1    1    2    0    0  0.13368421198E+02  0.10751728023E+02  0.26877512058E+02  0.31885968626E+02  0.00000000000E+00 0.  1.
         11    1    3    3    0    0 -0.96144281605E+01 -0.24584952012E+01 -0.89073960708E+01  0.13335034028E+02  0.51100000000E-03 0. -1.
        -11    1    3    3    0    0 -0.21875392956E+02  0.10131479079E+01 -0.10290320782E+02  0.24196073808E+02  0.51100000000E-03 0.  1.
         12    1    3    3    0    0  0.18121399918E+02 -0.93063807301E+01 -0.76797952048E+01  0.21770923538E+02  0.00000000000E+00 0. -1.
</event>
<event>
 7    1  0.1215217E-011  0.5930192E+02  0.7816164E-02  0.1266605E+00
        -11   -1    0    0    0    0  0.00000000000E+00  0.00000000000E+00  0.45593999997E+02  0.45594000000E+02  0.51100000000E-03 0. -1.
         11   -1    0    0    0    0 -0.00000000000E+00 -0.00000000000E+00 -0.45593999997E+02  0.45594000000E+02  0.51100000000E-03 0.  1.
    9900012    2    1    2    0    0  0.11915945327E+02 -0.17360441715E+02  0.23944679944E+02  0.59301915461E+02  0.49999947902E+02 0.  0.
        -12    1    1    2    0    0 -0.11915945327E+02  0.17360441715E+02 -0.23944679944E+02  0.31886084539E+02  0.00000000000E+00 0.  1.
         11    1    3    3    0    0  0.57766451590E+01 -0.23794396556E+01 -0.99611821959E-01  0.62483025810E+01  0.51100000000E-03 0. -1.
        -11    1    3    3    0    0  0.22688183649E+02 -0.55314973465E+01  0.13110736896E+01  0.23389528740E+02  0.51100000000E-03 0.  1.
        -12    1    3    3    0    0 -0.16548883481E+02 -0.94495047130E+01  0.22733218076E+02  0.29664084140E+02  0.00000000000E+00 0.  1.
</event>
<event>
 7    1  0.1215217E-011  0.5930193E+02  0.7816164E-02  0.1266605E+00
        -11   -1    0    0    0    0  0.00000000000E+00  0.00000000000E+00  0.45593999997E+02  0.45594000000E+02  0.51100000000E-03 0.  1.
         11   -1    0    0    0    0 -0.00000000000E+00 -0.00000000000E+00 -0.45593999997E+02  0.45594000000E+02  0.51100000000E-03 0. -1.
    9900012    2    1    2    0    0 -0.31692356247E+02  0.34190147674E+00 -0.34927064847E+01  0.59301931887E+02  0.49999977858E+02 0.  0.
        -12    1    1    2    0    0  0.31692356247E+02 -0.34190147674E+00  0.34927064847E+01  0.31886068113E+02  0.00000000000E+00 0.  1.
         11    1    3    3    0    0 -0.26253761548E+02  0.13016129977E+02  0.76252910620E+01  0.30279113247E+02  0.51100000000E-03 0. -1.
        -11    1    3    3    0    0 -0.77937007333E+01 -0.30954365638E+00  0.44680386730E+01  0.89889353229E+01  0.51100000000E-03 0.  1.
        -12    1    3    3    0    0  0.23551060336E+01 -0.12364684844E+02 -0.15586036220E+02  0.20033883317E+02  0.00000000000E+00 0.  1.
</event>
<event>
 7    1  0.1215217E-011  0.5930195E+02  0.7816164E-02  0.1266605E+00
        -11   -1    0    0    0    0  0.00000000000E+00  0.00000000000E+00  0.45593999997E+02  0.45594000000E+02  0.51100000000E-03 0. -1.
         11   -1    0    0    0    0 -0.00000000000E+00 -0.00000000000E+00 -0.45593999997E+02  0.45594000000E+02  0.51100000000E-03 0.  1.
    9900012    2    1    2    0    0 -0.16888642070E+02 -0.17926248600E+02  0.20252004020E+02  0.59301948399E+02  0.50000007973E+02 0.  0.
        -12    1    1    2    0    0  0.16888642070E+02  0.17926248600E+02 -0.20252004020E+02  0.31886051601E+02  0.00000000000E+00 0.  1.
         11    1    3    3    0    0 -0.14377548163E+02 -0.11425074399E+02  0.11141138253E+02  0.21479552557E+02  0.51100000000E-03 0. -1.
        -11    1    3    3    0    0 -0.18509658374E+02 -0.70288701023E+01  0.91588392023E+01  0.21815059106E+02  0.51100000000E-03 0.  1.
        -12    1    3    3    0    0  0.15998564466E+02  0.52769590210E+00 -0.47973434707E-01  0.16007336736E+02  0.00000000000E+00 0.  1.
</event>
<event>
 7    1  0.1215217E-011  0.5930187E+02  0.7816164E-02  0.1266605E+00
        -11   -1    0    0    0    0  0.00000000000E+00  0.00000000000E+00  0.45593999997E+02  0.45594000000E+02  0.51100000000E-03 0. -1.
         11   -1    0    0    0    0 -0.00000000000E+00 -0.00000000000E+00 -0.45593999997E+02  0.45594000000E+02  0.51100000000E-03 0.  1.
    9900012    2    1    2    0    0  0.27160503052E+02 -0.64985435394E+01  0.15388341418E+02  0.59301873773E+02  0.49999871872E+02 0.  0.
        -12    1    1    2    0    0 -0.27160503052E+02  0.64985435394E+01 -0.15388341418E+02  0.31886126227E+02  0.00000000000E+00 0.  1.
         11    1    3    3    0    0  0.17131229020E+02 -0.69836623573E+01  0.19764907637E+02  0.27072165074E+02  0.51100000000E-03 0. -1.
        -11    1    3    3    0    0  0.42023165997E+01  0.24411816454E+00  0.13124237637E+02  0.13782767222E+02  0.51100000000E-03 0.  1.
        -12    1    3    3    0    0  0.58269574326E+01  0.24100065331E+00 -0.17500803856E+02  0.18446941477E+02  0.00000000000E+00 0.  1.
</event>
<event>
 7    1  0.1215217E-011  0.5930201E+02  0.7816164E-02  0.1266605E+00
        -11   -1    0    0    0    0  0.00000000000E+00  0.00000000000E+00  0.45593999997E+02  0.45594000000E+02  0.51100000000E-03 0. -1.
         11   -1    0    0    0    0 -0.00000000000E+00 -0.00000000000E+00 -0.45593999997E+02  0.45594000000E+02  0.51100000000E-03 0.  1.
    9900012    2    1    2    0    0  0.15163260519E+02 -0.26263640913E+02  0.98495178831E+01  0.59302010818E+02  0.50000121810E+02 0.  0.
        -12    1    1    2    0    0 -0.15163260519E+02  0.26263640913E+02 -0.98495178831E+01  0.31885989182E+02  0.00000000000E+00 0.  1.
         11    1    3    3    0    0  0.22842670950E+02 -0.37086041911E+01  0.20498046675E+02  0.30914580362E+02  0.51100000000E-03 0. -1.
        -11    1    3    3    0    0  0.22574624179E+01 -0.62891329644E+01 -0.54702902813E+01  0.86355895013E+01  0.51100000000E-03 0.  1.
        -12    1    3    3    0    0 -0.99368728491E+01 -0.16265903757E+02 -0.51782385107E+01  0.19751840956E+02  0.00000000000E+00 0.  1.
</event>
<event>
 7    1  0.1215217E-011  0.5930193E+02  0.7816164E-02  0.1266605E+00
        -11   -1    0    0    0    0  0.00000000000E+00  0.00000000000E+00  0.45593999997E+02  0.45594000000E+02  0.51100000000E-03 0. -1.
         11   -1    0    0    0    0 -0.00000000000E+00 -0.00000000000E+00 -0.45593999997E+02  0.45594000000E+02  0.51100000000E-03 0.  1.
    9900012    2    1    2    0    0  0.30653058422E+02  0.18770576923E+00  0.87792918278E+01  0.59301934249E+02  0.49999982165E+02 0.  0.
        -12    1    1    2    0    0 -0.30653058422E+02 -0.18770576923E+00 -0.87792918278E+01  0.31886065751E+02  0.00000000000E+00 0.  1.
         11    1    3    3    0    0  0.10014368517E+02  0.62876831854E+00 -0.29864813384E+01  0.10469097260E+02  0.51100000000E-03 0. -1.
        -11    1    3    3    0    0  0.15436956144E+02 -0.26242307554E+01 -0.14877299047E+02  0.21599079362E+02  0.51100000000E-03 0.  1.
         12    1    3    3    0    0  0.52017337612E+01  0.21831682061E+01  0.26643072214E+02  0.27233757627E+02  0.00000000000E+00 0. -1.
</event>
<event>
 7    1  0.1215217E-011  0.5930194E+02  0.7816164E-02  0.1266605E+00
        -11   -1    0    0    0    0  0.00000000000E+00  0.00000000000E+00  0.45593999997E+02  0.45594000000E+02  0.51100000000E-03 0.  1.
         11   -1    0    0    0    0 -0.00000000000E+00 -0.00000000000E+00 -0.45593999997E+02  0.45594000000E+02  0.51100000000E-03 0. -1.
    9900012    2    1    2    0    0  0.24984009728E+02 -0.61600705573E+01 -0.18830128256E+02  0.59301938131E+02  0.49999989246E+02 0.  0.
        -12    1    1    2    0    0 -0.24984009728E+02  0.61600705573E+01  0.18830128256E+02  0.31886061869E+02  0.00000000000E+00 0.  1.
         11    1    3    3    0    0 -0.40330567771E+01  0.36616700574E+01 -0.30849728946E+01  0.62602262417E+01  0.51100000000E-03 0. -1.
        -11    1    3    3    0    0  0.11170944669E+02  0.93859948796E+01  0.88730032536E+01  0.17076799808E+02  0.51100000000E-03 0.  1.
         12    1    3    3    0    0  0.17846121836E+02 -0.19207735494E+02 -0.24618158615E+02  0.35964912081E+02  0.00000000000E+00 0. -1.
</event>
<event>
 7    1  0.1215217E-011  0.5930193E+02  0.7816164E-02  0.1266605E+00
        -11   -1    0    0    0    0  0.00000000000E+00  0.00000000000E+00  0.45593999997E+02  0.45594000000E+02  0.51100000000E-03 0. -1.
         11   -1    0    0    0    0 -0.00000000000E+00 -0.00000000000E+00 -0.45593999997E+02  0.45594000000E+02  0.51100000000E-03 0.  1.
    9900012    2    1    2    0    0 -0.18595771317E+02  0.23749191014E+02  0.10338992150E+02  0.59301928693E+02  0.49999972033E+02 0.  0.
        -12    1    1    2    0    0  0.18595771317E+02 -0.23749191014E+02 -0.10338992150E+02  0.31886071307E+02  0.00000000000E+00 0.  1.
         11    1    3    3    0    0  0.42170916488E+01  0.48076268177E+01  0.62773870271E+01  0.89611788143E+01  0.51100000000E-03 0. -1.
        -11    1    3    3    0    0 -0.26342501011E+02  0.25505823859E+02 -0.66761462421E+01  0.37269898566E+02  0.51100000000E-03 0.  1.
         12    1    3    3    0    0  0.35296380458E+01 -0.65642596618E+01  0.10737751365E+02  0.13070851312E+02  0.00000000000E+00 0. -1.
</event>
<event>
 7    1  0.1215217E-011  0.5930196E+02  0.7816164E-02  0.1266605E+00
        -11   -1    0    0    0    0  0.00000000000E+00  0.00000000000E+00  0.45593999997E+02  0.45594000000E+02  0.51100000000E-03 0.  1.
         11   -1    0    0    0    0 -0.00000000000E+00 -0.00000000000E+00 -0.45593999997E+02  0.45594000000E+02  0.51100000000E-03 0. -1.
    9900012    2    1    2    0    0 -0.48130355772E+01 -0.25841890606E+02 -0.18048568017E+02  0.59301961848E+02  0.50000032500E+02 0.  0.
        -12    1    1    2    0    0  0.48130355772E+01  0.25841890606E+02  0.18048568017E+02  0.31886038152E+02  0.00000000000E+00 0.  1.
         11    1    3    3    0    0  0.82202015102E+01 -0.11859585699E+01 -0.27694935847E+01  0.87549018026E+01  0.51100000000E-03 0. -1.
        -11    1    3    3    0    0 -0.84424898644E+01 -0.14012387974E+02  0.12407381348E+02  0.20532066726E+02  0.51100000000E-03 0.  1.
         12    1    3    3    0    0 -0.45907472230E+01 -0.10643544063E+02 -0.27686455781E+02  0.30014993320E+02  0.00000000000E+00 0. -1.
</event>
<event>
 7    1  0.1215217E-011  0.5930189E+02  0.7816164E-02  0.1266605E+00
        -11   -1    0    0    0    0  0.00000000000E+00  0.00000000000E+00  0.45593999997E+02  0.45594000000E+02  0.51100000000E-03 0.  1.
         11   -1    0    0    0    0 -0.00000000000E+00 -0.00000000000E+00 -0.45593999997E+02  0.45594000000E+02  0.51100000000E-03 0. -1.
    9900012    2    1    2    0    0 -0.13971045684E+02 -0.27773351300E+02 -0.70834042822E+01  0.59301893681E+02  0.49999908180E+02 0.  0.
        -12    1    1    2    0    0  0.13971045684E+02  0.27773351300E+02  0.70834042822E+01  0.31886106319E+02  0.00000000000E+00 0.  1.
         11    1    3    3    0    0  0.12969167524E+02 -0.13840927233E+02 -0.10954616499E+02  0.21903748443E+02  0.51100000000E-03 0. -1.
        -11    1    3    3    0    0 -0.14073259118E+02 -0.53698831636E+01 -0.87711163253E+01  0.17430569390E+02  0.51100000000E-03 0.  1.
        -12    1    3    3    0    0 -0.12866954090E+02 -0.85625409033E+01  0.12642328542E+02  0.19967575848E+02  0.00000000000E+00 0.  1.
</event>
<event>
 7    1  0.1215217E-011  0.5930194E+02  0.7816164E-02  0.1266605E+00
        -11   -1    0    0    0    0  0.00000000000E+00  0.00000000000E+00  0.45593999997E+02  0.45594000000E+02  0.51100000000E-03 0. -1.
         11   -1    0    0    0    0 -0.00000000000E+00 -0.00000000000E+00 -0.45593999997E+02  0.45594000000E+02  0.51100000000E-03 0.  1.
    9900012    2    1    2    0    0 -0.13826527271E+01 -0.31592074952E+02  0.40926669465E+01  0.59301939550E+02  0.49999991833E+02 0.  0.
        -12    1    1    2    0    0  0.13826527271E+01  0.31592074952E+02 -0.40926669465E+01  0.31886060450E+02  0.00000000000E+00 0.  1.
         11    1    3    3    0    0  0.27435820562E+01  0.98175244936E+00  0.68551349424E+01  0.74487553128E+01  0.51100000000E-03 0. -1.
        -11    1    3    3    0    0 -0.18839162145E+02 -0.16997644944E+02  0.95847539715E+01  0.27123817448E+02  0.51100000000E-03 0.  1.
        -12    1    3    3    0    0  0.14712927362E+02 -0.15576182457E+02 -0.12347221967E+02  0.24729366789E+02  0.00000000000E+00 0.  1.
</event>
<event>
 7    1  0.1215217E-011  0.5930209E+02  0.7816164E-02  0.1266604E+00
        -11   -1    0    0    0    0  0.00000000000E+00  0.00000000000E+00  0.45593999997E+02  0.45594000000E+02  0.51100000000E-03 0. -1.
         11   -1    0    0    0    0 -0.00000000000E+00 -0.00000000000E+00 -0.45593999997E+02  0.45594000000E+02  0.51100000000E-03 0.  1.
    9900012    2    1    2    0    0 -0.14254578147E+02  0.24987925616E+02  0.13752157441E+02  0.59302089961E+02  0.50000266146E+02 0.  0.
        -12    1    1    2    0    0  0.14254578147E+02 -0.24987925616E+02 -0.13752157441E+02  0.31885910039E+02  0.00000000000E+00 0.  1.
         11    1    3    3    0    0 -0.86706282344E+01 -0.41711727458E+01  0.11205351942E+01  0.96867990294E+01  0.51100000000E-03 0. -1.
        -11    1    3    3    0    0 -0.14854671765E+02  0.20019638794E+02 -0.71503301280E+01  0.25934040022E+02  0.51100000000E-03 0.  1.
         12    1    3    3    0    0  0.92707218525E+01  0.91394595685E+01  0.19781952375E+02  0.23681250909E+02  0.00000000000E+00 0. -1.
</event>
<event>
 7    1  0.1215217E-011  0.5930181E+02  0.7816164E-02  0.1266605E+00
        -11   -1    0    0    0    0  0.00000000000E+00  0.00000000000E+00  0.45593999997E+02  0.45594000000E+02  0.51100000000E-03 0.  1.
         11   -1    0    0    0    0 -0.00000000000E+00 -0.00000000000E+00 -0.45593999997E+02  0.45594000000E+02  0.51100000000E-03 0. -1.
    9900012    2    1    2    0    0  0.40709454535E+01 -0.28353039867E+02 -0.14009346705E+02  0.59301807664E+02  0.49999751304E+02 0.  0.
        -12    1    1    2    0    0 -0.40709454535E+01  0.28353039867E+02  0.14009346705E+02  0.31886192336E+02  0.00000000000E+00 0.  1.
         11    1    3    3    0    0  0.57119572831E+01 -0.24562289109E+01 -0.77531668312E+01  0.99383656927E+01  0.51100000000E-03 0. -1.
        -11    1    3    3    0    0  0.11416795923E+02  0.69471453460E+01 -0.39860759867E+01  0.13946141389E+02  0.51100000000E-03 0.  1.
         12    1    3    3    0    0 -0.13057807752E+02 -0.32843956302E+02 -0.22701038875E+01  0.35417300582E+02  0.00000000000E+00 0. -1.
</event>
<event>
 7    1  0.1215217E-011  0.5930194E+02  0.7816164E-02  0.1266605E+00
        -11   -1    0    0    0    0  0.00000000000E+00  0.00000000000E+00  0.45593999997E+02  0.45594000000E+02  0.51100000000E-03 0. -1.
         11   -1    0    0    0    0 -0.00000000000E+00 -0.00000000000E+00 -0.45593999997E+02  0.45594000000E+02  0.51100000000E-03 0.  1.
    9900012    2    1    2    0    0  0.12605206052E+02  0.29257990876E+02 -0.13414770451E+01  0.59301940187E+02  0.49999992995E+02 0.  0.
        -12    1    1    2    0    0 -0.12605206052E+02 -0.29257990876E+02  0.13414770451E+01  0.31886059813E+02  0.00000000000E+00 0.  1.
         11    1    3    3    0    0 -0.15257956376E+01  0.54843134325E+01 -0.13193716381E+02  0.14369408421E+02  0.51100000000E-03 0. -1.
        -11    1    3    3    0    0 -0.21814556064E+01 -0.76187726784E+01  0.14428558758E+01  0.80552019855E+01  0.51100000000E-03 0.  1.
         12    1    3    3    0    0  0.16312457296E+02  0.31392450122E+02  0.10409383460E+02  0.36877329781E+02  0.00000000000E+00 0. -1.
</event>
<event>
 7    1  0.1215217E-011  0.5930169E+02  0.7816164E-02  0.1266606E+00
        -11   -1    0    0    0    0  0.00000000000E+00  0.00000000000E+00  0.45593999997E+02  0.45594000000E+02  0.51100000000E-03 0.  1.
         11   -1    0    0    0    0 -0.00000000000E+00 -0.00000000000E+00 -0.45593999997E+02  0.45594000000E+02  0.51100000000E-03 0. -1.
    9900012    2    1    2    0    0 -0.74209905513E+01 -0.14910437179E+02 -0.27190895702E+02  0.59301685589E+02  0.49999528667E+02 0.  0.
        -12    1    1    2    0    0  0.74209905513E+01  0.14910437179E+02  0.27190895702E+02  0.31886314411E+02  0.00000000000E+00 0.  1.
         11    1    3    3    0    0  0.35205696372E+01 -0.10449586635E+02 -0.19399826633E+02  0.22314603851E+02  0.51100000000E-03 0. -1.
        -11    1    3    3    0    0  0.10956103176E+02  0.37332630693E+01  0.18036450254E+01  0.11714375169E+02  0.51100000000E-03 0.  1.
         12    1    3    3    0    0 -0.21897663365E+02 -0.81941136139E+01 -0.95947140950E+01  0.25272706569E+02  0.00000000000E+00 0. -1.
</event>
<event>
 7    1  0.1215217E-011  0.5930195E+02  0.7816164E-02  0.1266605E+00
        -11   -1    0    0    0    0  0.00000000000E+00  0.00000000000E+00  0.45593999997E+02  0.45594000000E+02  0.51100000000E-03 0.  1.
         11   -1    0    0    0    0 -0.00000000000E+00 -0.00000000000E+00 -0.45593999997E+02  0.45594000000E+02  0.51100000000E-03 0. -1.
    9900012    2    1    2    0    0  0.11267179381E+02 -0.27960913028E+02 -0.10390298273E+02  0.59301948398E+02  0.50000007970E+02 0.  0.
        -12    1    1    2    0    0 -0.11267179381E+02  0.27960913028E+02  0.10390298273E+02  0.31886051602E+02  0.00000000000E+00 0.  1.
         11    1    3    3    0    0  0.46897718959E+00 -0.25072459498E+02 -0.11636259948E+02  0.27645084748E+02  0.51100000000E-03 0. -1.
        -11    1    3    3    0    0  0.36016990523E+01 -0.16002105828E+02 -0.14155852490E+01  0.16463399067E+02  0.51100000000E-03 0.  1.
        -12    1    3    3    0    0  0.71965031392E+01  0.13113652298E+02  0.26615469237E+01  0.15193464583E+02  0.00000000000E+00 0.  1.
</event>
<event>
 7    1  0.1215217E-011  0.5930196E+02  0.7816164E-02  0.1266605E+00
        -11   -1    0    0    0    0  0.00000000000E+00  0.00000000000E+00  0.45593999997E+02  0.45594000000E+02  0.51100000000E-03 0. -1.
         11   -1    0    0    0    0 -0.00000000000E+00 -0.00000000000E+00 -0.45593999997E+02  0.45594000000E+02  0.51100000000E-03 0.  1.
    9900012    2    1    2    0    0 -0.11526652354E+02  0.14560683076E+02  0.25919919426E+02  0.59301961845E+02  0.50000032495E+02 0.  0.
        -12    1    1    2    0    0  0.11526652354E+02 -0.14560683076E+02 -0.25919919426E+02  0.31886038155E+02  0.00000000000E+00 0.  1.
         11    1    3    3    0    0 -0.23422216698E+00 -0.60236409081E+01  0.12136034057E+02  0.13550735504E+02  0.51100000000E-03 0. -1.
        -11    1    3    3    0    0 -0.28991661222E+01  0.17974295962E+02  0.25358448249E+02  0.31217485123E+02  0.51100000000E-03 0.  1.
        -12    1    3    3    0    0 -0.83932640653E+01  0.26100280217E+01 -0.11574562880E+02  0.14533741218E+02  0.00000000000E+00 0.  1.
</event>
<event>
 7    1  0.1215217E-011  0.5930195E+02  0.7816164E-02  0.1266605E+00
        -11   -1    0    0    0    0  0.00000000000E+00  0.00000000000E+00  0.45593999997E+02  0.45594000000E+02  0.51100000000E-03 0. -1.
         11   -1    0    0    0    0 -0.00000000000E+00 -0.00000000000E+00 -0.45593999997E+02  0.45594000000E+02  0.51100000000E-03 0.  1.
    9900012    2    1    2    0    0  0.20789625317E+01  0.29897060400E+02  0.10888717844E+02  0.59301945335E+02  0.50000002385E+02 0.  0.
        -12    1    1    2    0    0 -0.20789625317E+01 -0.29897060400E+02 -0.10888717844E+02  0.31886054665E+02  0.00000000000E+00 0.  1.
         11    1    3    3    0    0  0.36068709387E+01 -0.12055452122E+01 -0.10412052235E+02  0.11084840515E+02  0.51100000000E-03 0.  1.
        -11    1    3    3    0    0 -0.13045199440E+02  0.11698486518E+02  0.50271199028E+00  0.17529533218E+02  0.51100000000E-03 0. -1.
        -12    1    3    3    0    0  0.11517291033E+02  0.19404119095E+02  0.20798058089E+02  0.30687571603E+02  0.00000000000E+00 0.  1.
</event>
<event>
 7    1  0.1215217E-011  0.5930193E+02  0.7816164E-02  0.1266605E+00
        -11   -1    0    0    0    0  0.00000000000E+00  0.00000000000E+00  0.45593999997E+02  0.45594000000E+02  0.51100000000E-03 0.  1.
         11   -1    0    0    0    0 -0.00000000000E+00 -0.00000000000E+00 -0.45593999997E+02  0.45594000000E+02  0.51100000000E-03 0. -1.
    9900012    2    1    2    0    0 -0.22698009200E+02  0.10287551275E+02 -0.19891909335E+02  0.59301931100E+02  0.49999976423E+02 0.  0.
        -12    1    1    2    0    0  0.22698009200E+02 -0.10287551275E+02  0.19891909335E+02  0.31886068900E+02  0.00000000000E+00 0.  1.
         11    1    3    3    0    0  0.11495981592E+01 -0.11882141154E+02 -0.16022755160E+02  0.19980879298E+02  0.51100000000E-03 0. -1.
        -11    1    3    3    0    0 -0.10161232542E+02 -0.23262502901E+01 -0.42530317514E+01  0.11258346527E+02  0.51100000000E-03 0.  1.
         12    1    3    3    0    0 -0.13686374818E+02  0.24495942719E+02  0.38387757636E+00  0.28062705275E+02  0.00000000000E+00 0. -1.
</event>
<event>
 7    1  0.1215217E-011  0.5930194E+02  0.7816164E-02  0.1266605E+00
        -11   -1    0    0    0    0  0.00000000000E+00  0.00000000000E+00  0.45593999997E+02  0.45594000000E+02  0.51100000000E-03 0.  1.
         11   -1    0    0    0    0 -0.00000000000E+00 -0.00000000000E+00 -0.45593999997E+02  0.45594000000E+02  0.51100000000E-03 0. -1.
    9900012    2    1    2    0    0  0.27370058589E+02  0.14201443427E+02 -0.81190871940E+01  0.59301942240E+02  0.49999996740E+02 0.  0.
        -12    1    1    2    0    0 -0.27370058589E+02 -0.14201443427E+02  0.81190871940E+01  0.31886057760E+02  0.00000000000E+00 0.  1.
         11    1    3    3    0    0 -0.66990855139E+01 -0.38434540897E+00 -0.12016256126E+02  0.13762844170E+02  0.51100000000E-03 0. -1.
        -11    1    3    3    0    0 -0.27732440046E+00  0.93752445588E+01 -0.35174000044E+01  0.10017196335E+02  0.51100000000E-03 0.  1.
        -12    1    3    3    0    0  0.34346468504E+02  0.52105442770E+01  0.74145689363E+01  0.35521901735E+02  0.00000000000E+00 0.  1.
</event>
<event>
 7    1  0.1215217E-011  0.5930197E+02  0.7816164E-02  0.1266605E+00
        -11   -1    0    0    0    0  0.00000000000E+00  0.00000000000E+00  0.45593999997E+02  0.45594000000E+02  0.51100000000E-03 0.  1.
         11   -1    0    0    0    0 -0.00000000000E+00 -0.00000000000E+00 -0.45593999997E+02  0.45594000000E+02  0.51100000000E-03 0. -1.
    9900012    2    1    2    0    0 -0.61897893657E+01 -0.30078165834E+02  0.85854273015E+01  0.59301966784E+02  0.50000041501E+02 0.  0.
        -12    1    1    2    0    0  0.61897893657E+01  0.30078165834E+02 -0.85854273015E+01  0.31886033216E+02  0.00000000000E+00 0.  1.
         11    1    3    3    0    0 -0.50464130868E+01 -0.85360343410E+00 -0.80845070425E+01  0.95683947581E+01  0.51100000000E-03 0. -1.
        -11    1    3    3    0    0 -0.30110522439E+01  0.84708199463E+01  0.18013914815E+01  0.91687642411E+01  0.51100000000E-03 0.  1.
         12    1    3    3    0    0  0.18676759650E+01 -0.37695382346E+02  0.14868542863E+02  0.40564807784E+02  0.00000000000E+00 0. -1.
</event>
<event>
 7    1  0.1215217E-011  0.5930195E+02  0.7816164E-02  0.1266605E+00
        -11   -1    0    0    0    0  0.00000000000E+00  0.00000000000E+00  0.45593999997E+02  0.45594000000E+02  0.51100000000E-03 0.  1.
         11   -1    0    0    0    0 -0.00000000000E+00 -0.00000000000E+00 -0.45593999997E+02  0.45594000000E+02  0.51100000000E-03 0. -1.
    9900012    2    1    2    0    0 -0.11111864711E+02 -0.23476792436E+02  0.18495585381E+02  0.59301952910E+02  0.50000016199E+02 0.  0.
        -12    1    1    2    0    0  0.11111864711E+02  0.23476792436E+02 -0.18495585381E+02  0.31886047090E+02  0.00000000000E+00 0.  1.
         11    1    3    3    0    0 -0.47036069735E+01 -0.86023896440E+01  0.72499894582E+01  0.12193743213E+02  0.51100000000E-03 0. -1.
        -11    1    3    3    0    0 -0.15075811578E+02 -0.16239782697E+02  0.23328803974E+02  0.32175203681E+02  0.51100000000E-03 0.  1.
         12    1    3    3    0    0  0.86675538399E+01  0.13653799045E+01 -0.12083208051E+02  0.14933006016E+02  0.00000000000E+00 0. -1.
</event>
<event>
 7    1  0.1215217E-011  0.5930195E+02  0.7816164E-02  0.1266605E+00
        -11   -1    0    0    0    0  0.00000000000E+00  0.00000000000E+00  0.45593999997E+02  0.45594000000E+02  0.51100000000E-03 0.  1.
         11   -1    0    0    0    0 -0.00000000000E+00 -0.00000000000E+00 -0.45593999997E+02  0.45594000000E+02  0.51100000000E-03 0. -1.
    9900012    2    1    2    0    0 -0.25267889737E+02  0.18560935261E+02 -0.58090734954E+01  0.59301954394E+02  0.50000018905E+02 0.  0.
        -12    1    1    2    0    0  0.25267889737E+02 -0.18560935261E+02  0.58090734954E+01  0.31886045606E+02  0.00000000000E+00 0.  1.
         11    1    3    3    0    0 -0.19786321361E+01  0.11343579911E+02 -0.92397768491E+01  0.14763646799E+02  0.51100000000E-03 0. -1.
        -11    1    3    3    0    0 -0.11887661748E+02  0.20504454897E+02  0.10152232281E+02  0.25784045319E+02  0.51100000000E-03 0.  1.
         12    1    3    3    0    0 -0.11401595853E+02 -0.13287099547E+02 -0.67215289276E+01  0.18754262275E+02  0.00000000000E+00 0. -1.
</event>
<event>
 7    1  0.1215217E-011  0.5930191E+02  0.7816164E-02  0.1266605E+00
        -11   -1    0    0    0    0  0.00000000000E+00  0.00000000000E+00  0.45593999997E+02  0.45594000000E+02  0.51100000000E-03 0.  1.
         11   -1    0    0    0    0 -0.00000000000E+00 -0.00000000000E+00 -0.45593999997E+02  0.45594000000E+02  0.51100000000E-03 0. -1.
    9900012    2    1    2    0    0  0.57269352945E+01 -0.75045386748E+01 -0.30456634788E+02  0.59301913830E+02  0.49999944927E+02 0.  0.
        -12    1    1    2    0    0 -0.57269352945E+01  0.75045386748E+01  0.30456634788E+02  0.31886086170E+02  0.00000000000E+00 0.  1.
         11    1    3    3    0    0 -0.17256293357E+01 -0.21063063921E+02 -0.34162917985E+02  0.40171325891E+02  0.51100000000E-03 0. -1.
        -11    1    3    3    0    0  0.35549233446E+00  0.89179076942E+00 -0.29907542384E+01  0.31410629972E+01  0.51100000000E-03 0.  1.
        -12    1    3    3    0    0  0.70970722958E+01  0.12666734476E+02  0.66970374353E+01  0.15989524942E+02  0.00000000000E+00 0.  1.
</event>
<event>
 7    1  0.1215217E-011  0.5930200E+02  0.7816164E-02  0.1266605E+00
        -11   -1    0    0    0    0  0.00000000000E+00  0.00000000000E+00  0.45593999997E+02  0.45594000000E+02  0.51100000000E-03 0. -1.
         11   -1    0    0    0    0 -0.00000000000E+00 -0.00000000000E+00 -0.45593999997E+02  0.45594000000E+02  0.51100000000E-03 0.  1.
    9900012    2    1    2    0    0  0.82957673554E+01 -0.30596823864E+02  0.34251146095E+01  0.59302003126E+02  0.50000107781E+02 0.  0.
        -12    1    1    2    0    0 -0.82957673554E+01  0.30596823864E+02 -0.34251146095E+01  0.31885996874E+02  0.00000000000E+00 0.  1.
         11    1    3    3    0    0  0.14479886679E+02 -0.82873668498E+01 -0.40630798820E+01  0.17171376938E+02  0.51100000000E-03 0. -1.
        -11    1    3    3    0    0  0.84090154603E+01 -0.39072890672E+01 -0.93993986681E+01  0.13203300513E+02  0.51100000000E-03 0.  1.
         12    1    3    3    0    0 -0.14593134784E+02 -0.18402167947E+02  0.16887593160E+02  0.28927325675E+02  0.00000000000E+00 0. -1.
</event>
<event>
 7    1  0.1215217E-011  0.5930194E+02  0.7816164E-02  0.1266605E+00
        -11   -1    0    0    0    0  0.00000000000E+00  0.00000000000E+00  0.45593999997E+02  0.45594000000E+02  0.51100000000E-03 0.  1.
         11   -1    0    0    0    0 -0.00000000000E+00 -0.00000000000E+00 -0.45593999997E+02  0.45594000000E+02  0.51100000000E-03 0. -1.
    9900012    2    1    2    0    0 -0.15994755572E+02  0.45543639639E+00 -0.27580447206E+02  0.59301941978E+02  0.49999996262E+02 0.  0.
        -12    1    1    2    0    0  0.15994755572E+02 -0.45543639639E+00  0.27580447206E+02  0.31886058022E+02  0.00000000000E+00 0.  1.
         11    1    3    3    0    0 -0.52692734247E+01  0.77972613313E+00  0.42645597662E+01  0.68234658003E+01  0.51100000000E-03 0. -1.
        -11    1    3    3    0    0 -0.20042513044E+02  0.25368580569E+01 -0.11075221987E+01  0.20232760158E+02  0.51100000000E-03 0.  1.
         12    1    3    3    0    0  0.93170308972E+01 -0.28611477937E+01 -0.30737484773E+02  0.32245716020E+02  0.00000000000E+00 0. -1.
</event>
<event>
 7    1  0.1215217E-011  0.5930197E+02  0.7816164E-02  0.1266605E+00
        -11   -1    0    0    0    0  0.00000000000E+00  0.00000000000E+00  0.45593999997E+02  0.45594000000E+02  0.51100000000E-03 0.  1.
         11   -1    0    0    0    0 -0.00000000000E+00 -0.00000000000E+00 -0.45593999997E+02  0.45594000000E+02  0.51100000000E-03 0. -1.
    9900012    2    1    2    0    0 -0.17130327337E+02  0.18228365455E+02 -0.19773662338E+02  0.59301966316E+02  0.50000040649E+02 0.  0.
        -12    1    1    2    0    0  0.17130327337E+02 -0.18228365455E+02  0.19773662338E+02  0.31886033684E+02  0.00000000000E+00 0.  1.
         11    1    3    3    0    0 -0.81217246709E+01  0.78584572219E+01 -0.25081605137E+02  0.27510083207E+02  0.51100000000E-03 0. -1.
        -11    1    3    3    0    0 -0.16192584050E+02  0.90501042866E+01 -0.49500193020E+01  0.19199136886E+02  0.51100000000E-03 0.  1.
         12    1    3    3    0    0  0.71839813832E+01  0.13198039461E+01  0.10257962101E+02  0.12592746223E+02  0.00000000000E+00 0. -1.
</event>
<event>
 7    1  0.1215217E-011  0.5930194E+02  0.7816164E-02  0.1266605E+00
        -11   -1    0    0    0    0  0.00000000000E+00  0.00000000000E+00  0.45593999997E+02  0.45594000000E+02  0.51100000000E-03 0.  1.
         11   -1    0    0    0    0 -0.00000000000E+00 -0.00000000000E+00 -0.45593999997E+02  0.45594000000E+02  0.51100000000E-03 0. -1.
    9900012    2    1    2    0    0 -0.27971950936E+02  0.13854564320E+02  0.65070408038E+01  0.59301943930E+02  0.49999999823E+02 0.  0.
        -12    1    1    2    0    0  0.27971950936E+02 -0.13854564320E+02 -0.65070408038E+01  0.31886056070E+02  0.00000000000E+00 0.  1.
         11    1    3    3    0    0 -0.12992930843E+02  0.17718558905E+02  0.17593944407E+02  0.28148009905E+02  0.51100000000E-03 0. -1.
        -11    1    3    3    0    0 -0.12926331699E+02 -0.15929312242E+01  0.56083778884E+01  0.14180316777E+02  0.51100000000E-03 0.  1.
        -12    1    3    3    0    0 -0.20526883940E+01 -0.22710633609E+01 -0.16695281492E+02  0.16973617249E+02  0.00000000000E+00 0.  1.
</event>
<event>
 7    1  0.1215217E-011  0.5930193E+02  0.7816164E-02  0.1266605E+00
        -11   -1    0    0    0    0  0.00000000000E+00  0.00000000000E+00  0.45593999997E+02  0.45594000000E+02  0.51100000000E-03 0. -1.
         11   -1    0    0    0    0 -0.00000000000E+00 -0.00000000000E+00 -0.45593999997E+02  0.45594000000E+02  0.51100000000E-03 0.  1.
    9900012    2    1    2    0    0  0.35689080325E+00  0.28719887707E+02  0.13847814921E+02  0.59301932525E+02  0.49999979022E+02 0.  0.
        -12    1    1    2    0    0 -0.35689080325E+00 -0.28719887707E+02 -0.13847814921E+02  0.31886067475E+02  0.00000000000E+00 0.  1.
         11    1    3    3    0    0  0.34874995163E+01 -0.31927081840E+01  0.82632223541E+01  0.95203404539E+01  0.51100000000E-03 0. -1.
        -11    1    3    3    0    0  0.16542721106E+02  0.11533676415E+02 -0.25099771841E+01  0.20322088942E+02  0.51100000000E-03 0.  1.
        -12    1    3    3    0    0 -0.19673329819E+02  0.20378919476E+02  0.80945697505E+01  0.29459503129E+02  0.00000000000E+00 0.  1.
</event>
<event>
 7    1  0.1215217E-011  0.5930192E+02  0.7816164E-02  0.1266605E+00
        -11   -1    0    0    0    0  0.00000000000E+00  0.00000000000E+00  0.45593999997E+02  0.45594000000E+02  0.51100000000E-03 0.  1.
         11   -1    0    0    0    0 -0.00000000000E+00 -0.00000000000E+00 -0.45593999997E+02  0.45594000000E+02  0.51100000000E-03 0. -1.
    9900012    2    1    2    0    0  0.20233206080E+02  0.17666917042E+02 -0.17181950467E+02  0.59301921409E+02  0.49999958750E+02 0.  0.
        -12    1    1    2    0    0 -0.20233206080E+02 -0.17666917042E+02  0.17181950467E+02  0.31886078591E+02  0.00000000000E+00 0.  1.
         11    1    3    3    0    0  0.86326152763E+01  0.24437769668E+02 -0.75691554609E+01  0.27000347173E+02  0.51100000000E-03 0. -1.
        -11    1    3    3    0    0 -0.50569035769E+00  0.99686012525E+01 -0.14379007994E+01  0.10084457975E+02  0.51100000000E-03 0.  1.
        -12    1    3    3    0    0  0.12106281161E+02 -0.16739453878E+02 -0.81748942064E+01  0.22217116262E+02  0.00000000000E+00 0.  1.
</event>
<event>
 7    1  0.1215217E-011  0.5930194E+02  0.7816164E-02  0.1266605E+00
        -11   -1    0    0    0    0  0.00000000000E+00  0.00000000000E+00  0.45593999997E+02  0.45594000000E+02  0.51100000000E-03 0.  1.
         11   -1    0    0    0    0 -0.00000000000E+00 -0.00000000000E+00 -0.45593999997E+02  0.45594000000E+02  0.51100000000E-03 0. -1.
    9900012    2    1    2    0    0 -0.79871368553E+01  0.59764585335E+01 -0.30285447032E+02  0.59301941703E+02  0.49999995761E+02 0.  0.
        -12    1    1    2    0    0  0.79871368553E+01 -0.59764585335E+01  0.30285447032E+02  0.31886058297E+02  0.00000000000E+00 0.  1.
         11    1    3    3    0    0  0.41317794422E+01  0.14410213437E+02 -0.15285460818E+02  0.21409604512E+02  0.51100000000E-03 0.  1.
        -11    1    3    3    0    0 -0.18361157078E+02 -0.89265240006E+01  0.12735192439E+01  0.20455727107E+02  0.51100000000E-03 0. -1.
         12    1    3    3    0    0  0.62422407800E+01  0.49276909657E+00 -0.16273505459E+02  0.17436610085E+02  0.00000000000E+00 0. -1.
</event>
<event>
 7    1  0.1215217E-011  0.5930192E+02  0.7816164E-02  0.1266605E+00
        -11   -1    0    0    0    0  0.00000000000E+00  0.00000000000E+00  0.45593999997E+02  0.45594000000E+02  0.51100000000E-03 0.  1.
         11   -1    0    0    0    0 -0.00000000000E+00 -0.00000000000E+00 -0.45593999997E+02  0.45594000000E+02  0.51100000000E-03 0. -1.
    9900012    2    1    2    0    0  0.26442904723E+02  0.43886010031E+01 -0.17269492665E+02  0.59301915169E+02  0.49999947369E+02 0.  0.
        -12    1    1    2    0    0 -0.26442904723E+02 -0.43886010031E+01  0.17269492665E+02  0.31886084831E+02  0.00000000000E+00 0.  1.
         11    1    3    3    0    0  0.29097649296E+02 -0.40306822628E+01 -0.15992049377E+00  0.29375928391E+02  0.51100000000E-03 0. -1.
        -11    1    3    3    0    0  0.69398490494E+00  0.15744376838E+02 -0.14617320375E+02  0.21494954577E+02  0.51100000000E-03 0.  1.
        -12    1    3    3    0    0 -0.33487294779E+01 -0.73250935723E+01 -0.24922517960E+01  0.84310322009E+01  0.00000000000E+00 0.  1.
</event>
<event>
 7    1  0.1215217E-011  0.5930200E+02  0.7816164E-02  0.1266605E+00
        -11   -1    0    0    0    0  0.00000000000E+00  0.00000000000E+00  0.45593999997E+02  0.45594000000E+02  0.51100000000E-03 0.  1.
         11   -1    0    0    0    0 -0.00000000000E+00 -0.00000000000E+00 -0.45593999997E+02  0.45594000000E+02  0.51100000000E-03 0. -1.
    9900012    2    1    2    0    0 -0.11908097424E+02  0.10766575472E+02 -0.27549863470E+02  0.59302001366E+02  0.50000104572E+02 0.  0.
        -12    1    1    2    0    0  0.11908097424E+02 -0.10766575472E+02  0.27549863470E+02  0.31885998634E+02  0.00000000000E+00 0.  1.
         11    1    3    3    0    0  0.57614931459E+01 -0.28544837943E+01 -0.15750971584E+02  0.17012818318E+02  0.51100000000E-03 0. -1.
        -11    1    3    3    0    0 -0.35627358935E+01 -0.29766309994E+01  0.10276259211E+02  0.11276299162E+02  0.51100000000E-03 0.  1.
         12    1    3    3    0    0 -0.14106854676E+02  0.16597690265E+02 -0.22075151097E+02  0.31012883887E+02  0.00000000000E+00 0. -1.
</event>
<event>
 7    1  0.1215217E-011  0.5930195E+02  0.7816164E-02  0.1266605E+00
        -11   -1    0    0    0    0  0.00000000000E+00  0.00000000000E+00  0.45593999997E+02  0.45594000000E+02  0.51100000000E-03 0.  1.
         11   -1    0    0    0    0 -0.00000000000E+00 -0.00000000000E+00 -0.45593999997E+02  0.45594000000E+02  0.51100000000E-03 0. -1.
    9900012    2    1    2    0    0 -0.29168619362E+02 -0.11712329006E+02 -0.53603199474E+01  0.59301952328E+02  0.50000015137E+02 0.  0.
        -12    1    1    2    0    0  0.29168619362E+02  0.11712329006E+02  0.53603199474E+01  0.31886047672E+02  0.00000000000E+00 0.  1.
         11    1    3    3    0    0  0.23084635877E+01 -0.58314642838E+01  0.54413506406E+01  0.83032088306E+01  0.51100000000E-03 0. -1.
        -11    1    3    3    0    0  0.55948220206E+01 -0.11487843281E+01  0.74661572570E+01  0.94002788960E+01  0.51100000000E-03 0.  1.
         12    1    3    3    0    0 -0.37071904970E+02 -0.47320803938E+01 -0.18267827845E+02  0.41598464601E+02  0.00000000000E+00 0. -1.
</event>
<event>
 7    1  0.1215217E-011  0.5930192E+02  0.7816164E-02  0.1266605E+00
        -11   -1    0    0    0    0  0.00000000000E+00  0.00000000000E+00  0.45593999997E+02  0.45594000000E+02  0.51100000000E-03 0. -1.
         11   -1    0    0    0    0 -0.00000000000E+00 -0.00000000000E+00 -0.45593999997E+02  0.45594000000E+02  0.51100000000E-03 0.  1.
    9900012    2    1    2    0    0  0.23173738973E+02 -0.12964314677E+02  0.17652952974E+02  0.59301915547E+02  0.49999948058E+02 0.  0.
        -12    1    1    2    0    0 -0.23173738973E+02  0.12964314677E+02 -0.17652952974E+02  0.31886084453E+02  0.00000000000E+00 0.  1.
         11    1    3    3    0    0  0.88178042879E+01  0.31807439425E+01  0.18852339584E+02  0.21054251650E+02  0.51100000000E-03 0. -1.
        -11    1    3    3    0    0 -0.18577539917E+01 -0.15542651784E+00  0.11854164675E+02  0.11999859486E+02  0.51100000000E-03 0.  1.
         12    1    3    3    0    0  0.16213688676E+02 -0.15989632102E+02 -0.13053551285E+02  0.26247804411E+02  0.00000000000E+00 0. -1.
</event>
<event>
 7    1  0.1215217E-011  0.5930189E+02  0.7816164E-02  0.1266605E+00
        -11   -1    0    0    0    0  0.00000000000E+00  0.00000000000E+00  0.45593999997E+02  0.45594000000E+02  0.51100000000E-03 0. -1.
         11   -1    0    0    0    0 -0.00000000000E+00 -0.00000000000E+00 -0.45593999997E+02  0.45594000000E+02  0.51100000000E-03 0.  1.
    9900012    2    1    2    0    0 -0.95658723926E+00 -0.20558778169E+02 -0.24354579174E+02  0.59301891023E+02  0.49999903332E+02 0.  0.
        -12    1    1    2    0    0  0.95658723926E+00  0.20558778169E+02  0.24354579174E+02  0.31886108977E+02  0.00000000000E+00 0.  1.
         11    1    3    3    0    0 -0.72979383878E+01 -0.32131040311E+01 -0.15814400581E+02  0.17710991170E+02  0.51100000000E-03 0.  1.
        -11    1    3    3    0    0 -0.96283687872E+00 -0.25257519760E+02 -0.14645729891E+02  0.29212441931E+02  0.51100000000E-03 0. -1.
         12    1    3    3    0    0  0.73041880273E+01  0.79118456218E+01  0.61055512976E+01  0.12378457922E+02  0.00000000000E+00 0. -1.
</event>
<event>
 7    1  0.1215217E-011  0.5930198E+02  0.7816164E-02  0.1266605E+00
        -11   -1    0    0    0    0  0.00000000000E+00  0.00000000000E+00  0.45593999997E+02  0.45594000000E+02  0.51100000000E-03 0.  1.
         11   -1    0    0    0    0 -0.00000000000E+00 -0.00000000000E+00 -0.45593999997E+02  0.45594000000E+02  0.51100000000E-03 0. -1.
    9900012    2    1    2    0    0  0.42438203939E+01 -0.22114154093E+02 -0.22575924063E+02  0.59301981590E+02  0.50000068504E+02 0.  0.
        -12    1    1    2    0    0 -0.42438203939E+01  0.22114154093E+02  0.22575924063E+02  0.31886018410E+02  0.00000000000E+00 0.  1.
         11    1    3    3    0    0  0.28602001073E+01 -0.10211743801E+02 -0.15946930754E+02  0.19151111113E+02  0.51100000000E-03 0. -1.
        -11    1    3    3    0    0  0.23276906856E+01 -0.14649396170E+02 -0.20876885635E+02  0.25609906407E+02  0.51100000000E-03 0.  1.
        -12    1    3    3    0    0 -0.94407039894E+00  0.27469858786E+01  0.14247892327E+02  0.14540964070E+02  0.00000000000E+00 0.  1.
</event>
<event>
 7    1  0.1215217E-011  0.5930190E+02  0.7816164E-02  0.1266605E+00
        -11   -1    0    0    0    0  0.00000000000E+00  0.00000000000E+00  0.45593999997E+02  0.45594000000E+02  0.51100000000E-03 0. -1.
         11   -1    0    0    0    0 -0.00000000000E+00 -0.00000000000E+00 -0.45593999997E+02  0.45594000000E+02  0.51100000000E-03 0.  1.
    9900012    2    1    2    0    0  0.38540364972E+01 -0.21552266675E+02  0.23181239647E+02  0.59301895382E+02  0.49999911281E+02 0.  0.
        -12    1    1    2    0    0 -0.38540364972E+01  0.21552266675E+02 -0.23181239647E+02  0.31886104618E+02  0.00000000000E+00 0.  1.
         11    1    3    3    0    0 -0.39037028538E+00 -0.13720100965E+02  0.60731555227E+01  0.15009223088E+02  0.51100000000E-03 0. -1.
        -11    1    3    3    0    0 -0.13704576801E+02 -0.97442644987E+00  0.20602129966E+02  0.24763131700E+02  0.51100000000E-03 0.  1.
        -12    1    3    3    0    0  0.17948983584E+02 -0.68577392604E+01 -0.34940458415E+01  0.19529540594E+02  0.00000000000E+00 0.  1.
</event>
<event>
 7    1  0.1215217E-011  0.5930194E+02  0.7816164E-02  0.1266605E+00
        -11   -1    0    0    0    0  0.00000000000E+00  0.00000000000E+00  0.45593999997E+02  0.45594000000E+02  0.51100000000E-03 0.  1.
         11   -1    0    0    0    0 -0.00000000000E+00 -0.00000000000E+00 -0.45593999997E+02  0.45594000000E+02  0.51100000000E-03 0. -1.
    9900012    2    1    2    0    0 -0.84223579682E+01  0.63745998482E+01 -0.30085698574E+02  0.59301938850E+02  0.49999990557E+02 0.  0.
        -12    1    1    2    0    0  0.84223579682E+01 -0.63745998482E+01  0.30085698574E+02  0.31886061150E+02  0.00000000000E+00 0.  1.
         11    1    3    3    0    0  0.99405272733E+00 -0.36206845263E+01 -0.33052508891E+01  0.50022176047E+01  0.51100000000E-03 0. -1.
        -11    1    3    3    0    0 -0.65002481262E+01 -0.15994366268E+02 -0.21577544068E+02  0.27634460123E+02  0.51100000000E-03 0.  1.
         12    1    3    3    0    0 -0.29161625694E+01  0.25989650643E+02 -0.52029036168E+01  0.26665261122E+02  0.00000000000E+00 0. -1.
</event>
<event>
 7    1  0.1215217E-011  0.5930171E+02  0.7816164E-02  0.1266606E+00
        -11   -1    0    0    0    0  0.00000000000E+00  0.00000000000E+00  0.45593999997E+02  0.45594000000E+02  0.51100000000E-03 0.  1.
         11   -1    0    0    0    0 -0.00000000000E+00 -0.00000000000E+00 -0.45593999997E+02  0.45594000000E+02  0.51100000000E-03 0. -1.
    9900012    2    1    2    0    0  0.89574151598E+01 -0.77041829802E+01 -0.29616650304E+02  0.59301706754E+02  0.49999567268E+02 0.  0.
        -12    1    1    2    0    0 -0.89574151598E+01  0.77041829802E+01  0.29616650304E+02  0.31886293246E+02  0.00000000000E+00 0.  1.
         11    1    3    3    0    0  0.15058043596E+02  0.62416211751E+01 -0.17123213996E+02  0.23641213371E+02  0.51100000000E-03 0. -1.
        -11    1    3    3    0    0 -0.78168050383E+01 -0.98959127517E+01 -0.21902819438E+02  0.25273801253E+02  0.51100000000E-03 0.  1.
        -12    1    3    3    0    0  0.17161766025E+01 -0.40498914036E+01  0.94093831304E+01  0.10386692130E+02  0.00000000000E+00 0.  1.
</event>
<event>
 7    1  0.1215217E-011  0.5930224E+02  0.7816164E-02  0.1266604E+00
        -11   -1    0    0    0    0  0.00000000000E+00  0.00000000000E+00  0.45593999997E+02  0.45594000000E+02  0.51100000000E-03 0.  1.
         11   -1    0    0    0    0 -0.00000000000E+00 -0.00000000000E+00 -0.45593999997E+02  0.45594000000E+02  0.51100000000E-03 0. -1.
    9900012    2    1    2    0    0  0.17527183427E+02 -0.15515142904E+02 -0.21651320798E+02  0.59302242826E+02  0.50000544934E+02 0.  0.
        -12    1    1    2    0    0 -0.17527183427E+02  0.15515142904E+02  0.21651320798E+02  0.31885757174E+02  0.00000000000E+00 0.  1.
         11    1    3    3    0    0  0.67339206569E+01 -0.18199723827E+01 -0.86127597611E+01  0.11083213336E+02  0.51100000000E-03 0. -1.
        -11    1    3    3    0    0  0.24595492231E+02  0.28133761868E+01 -0.88956388020E+01  0.26305621331E+02  0.51100000000E-03 0.  1.
         12    1    3    3    0    0 -0.13802229461E+02 -0.16508546708E+02 -0.41429222354E+01  0.21913408159E+02  0.00000000000E+00 0. -1.
</event>
<event>
 7    1  0.1215217E-011  0.5930199E+02  0.7816164E-02  0.1266605E+00
        -11   -1    0    0    0    0  0.00000000000E+00  0.00000000000E+00  0.45593999997E+02  0.45594000000E+02  0.51100000000E-03 0.  1.
         11   -1    0    0    0    0 -0.00000000000E+00 -0.00000000000E+00 -0.45593999997E+02  0.45594000000E+02  0.51100000000E-03 0. -1.
    9900012    2    1    2    0    0 -0.19115818857E+02 -0.16368849937E+02 -0.19579682944E+02  0.59301987973E+02  0.50000080145E+02 0.  0.
        -12    1    1    2    0    0  0.19115818857E+02  0.16368849937E+02  0.19579682944E+02  0.31886012027E+02  0.00000000000E+00 0.  1.
         11    1    3    3    0    0 -0.89956000245E+01 -0.79154228833E+01 -0.15863653342E+02  0.19880398307E+02  0.51100000000E-03 0. -1.
        -11    1    3    3    0    0 -0.17548826167E+02 -0.30095503617E+01 -0.16088903379E+02  0.23997322880E+02  0.51100000000E-03 0.  1.
         12    1    3    3    0    0  0.74286073347E+01 -0.54438766916E+01  0.12372873777E+02  0.15424266786E+02  0.00000000000E+00 0. -1.
</event>
<event>
 7    1  0.1215217E-011  0.5930196E+02  0.7816164E-02  0.1266605E+00
        -11   -1    0    0    0    0  0.00000000000E+00  0.00000000000E+00  0.45593999997E+02  0.45594000000E+02  0.51100000000E-03 0. -1.
         11   -1    0    0    0    0 -0.00000000000E+00 -0.00000000000E+00 -0.45593999997E+02  0.45594000000E+02  0.51100000000E-03 0.  1.
    9900012    2    1    2    0    0  0.11336830114E+02  0.29773569437E+02 -0.13154144804E+01  0.59301961217E+02  0.50000031348E+02 0.  0.
        -12    1    1    2    0    0 -0.11336830114E+02 -0.29773569437E+02  0.13154144804E+01  0.31886038783E+02  0.00000000000E+00 0.  1.
         11    1    3    3    0    0  0.10852973323E+02  0.13472867025E+02  0.13820828133E+02  0.22143181035E+02  0.51100000000E-03 0. -1.
        -11    1    3    3    0    0  0.86571950281E+01  0.12385155491E+02 -0.21360028417E+02  0.26164669242E+02  0.51100000000E-03 0.  1.
        -12    1    3    3    0    0 -0.81733382366E+01  0.39155469209E+01  0.62237858034E+01  0.10994110939E+02  0.00000000000E+00 0.  1.
</event>
<event>
 7    1  0.1215217E-011  0.5930194E+02  0.7816164E-02  0.1266605E+00
        -11   -1    0    0    0    0  0.00000000000E+00  0.00000000000E+00  0.45593999997E+02  0.45594000000E+02  0.51100000000E-03 0.  1.
         11   -1    0    0    0    0 -0.00000000000E+00 -0.00000000000E+00 -0.45593999997E+02  0.45594000000E+02  0.51100000000E-03 0. -1.
    9900012    2    1    2    0    0 -0.51245615155E+01 -0.57835650518E+01 -0.30935579416E+02  0.59301939892E+02  0.49999992457E+02 0.  0.
        -12    1    1    2    0    0  0.51245615155E+01  0.57835650518E+01  0.30935579416E+02  0.31886060108E+02  0.00000000000E+00 0.  1.
         11    1    3    3    0    0 -0.11277727114E+02  0.37188363661E+01 -0.35430084289E+02  0.37367201471E+02  0.51100000000E-03 0. -1.
        -11    1    3    3    0    0  0.21991382182E-01 -0.89996699345E+01 -0.52439256748E+01  0.10416011679E+02  0.51100000000E-03 0.  1.
        -12    1    3    3    0    0  0.61311742165E+01 -0.50273148339E+00  0.97384305479E+01  0.11518726742E+02  0.00000000000E+00 0.  1.
</event>
<event>
 7    1  0.1215217E-011  0.5930201E+02  0.7816164E-02  0.1266605E+00
        -11   -1    0    0    0    0  0.00000000000E+00  0.00000000000E+00  0.45593999997E+02  0.45594000000E+02  0.51100000000E-03 0.  1.
         11   -1    0    0    0    0 -0.00000000000E+00 -0.00000000000E+00 -0.45593999997E+02  0.45594000000E+02  0.51100000000E-03 0. -1.
    9900012    2    1    2    0    0 -0.10466606239E+02 -0.14238833573E+02 -0.26540950267E+02  0.59302011403E+02  0.50000122877E+02 0.  0.
        -12    1    1    2    0    0  0.10466606239E+02  0.14238833573E+02  0.26540950267E+02  0.31885988597E+02  0.00000000000E+00 0.  1.
         11    1    3    3    0    0 -0.16861774471E+01  0.49245033208E+01  0.41642732196E+01  0.66659657251E+01  0.51100000000E-03 0. -1.
        -11    1    3    3    0    0  0.60286945390E+01  0.80682977204E+01 -0.17590281762E+01  0.10224322292E+02  0.51100000000E-03 0.  1.
         12    1    3    3    0    0 -0.14809123331E+02 -0.27231634614E+02 -0.28946195311E+02  0.42411723386E+02  0.00000000000E+00 0. -1.
</event>
<event>
 7    1  0.1215217E-011  0.5930193E+02  0.7816164E-02  0.1266605E+00
        -11   -1    0    0    0    0  0.00000000000E+00  0.00000000000E+00  0.45593999997E+02  0.45594000000E+02  0.51100000000E-03 0. -1.
         11   -1    0    0    0    0 -0.00000000000E+00 -0.00000000000E+00 -0.45593999997E+02  0.45594000000E+02  0.51100000000E-03 0.  1.
    9900012    2    1    2    0    0  0.24852485679E+02 -0.58231329606E+01  0.19109328384E+02  0.59301931676E+02  0.49999977473E+02 0.  0.
        -12    1    1    2    0    0 -0.24852485679E+02  0.58231329606E+01 -0.19109328384E+02  0.31886068324E+02  0.00000000000E+00 0.  1.
         11    1    3    3    0    0  0.16041084152E+02 -0.33948579269E+01  0.30028226177E+01  0.16669084710E+02  0.51100000000E-03 0. -1.
        -11    1    3    3    0    0  0.19719040961E+02  0.10647692947E+02  0.82610481325E+01  0.23884280563E+02  0.51100000000E-03 0.  1.
        -12    1    3    3    0    0 -0.10907639435E+02 -0.13075967981E+02  0.78454576340E+01  0.18748566403E+02  0.00000000000E+00 0.  1.
</event>
<event>
 7    1  0.1215217E-011  0.5930193E+02  0.7816164E-02  0.1266605E+00
        -11   -1    0    0    0    0  0.00000000000E+00  0.00000000000E+00  0.45593999997E+02  0.45594000000E+02  0.51100000000E-03 0. -1.
         11   -1    0    0    0    0 -0.00000000000E+00 -0.00000000000E+00 -0.45593999997E+02  0.45594000000E+02  0.51100000000E-03 0.  1.
    9900012    2    1    2    0    0  0.31582253568E+02 -0.98055340151E-01 -0.43901415201E+01  0.59301926271E+02  0.49999967616E+02 0.  0.
        -12    1    1    2    0    0 -0.31582253568E+02  0.98055340151E-01  0.43901415201E+01  0.31886073729E+02  0.00000000000E+00 0.  1.
         11    1    3    3    0    0  0.22577724785E+02  0.15752243317E+00  0.66436394831E+01  0.23535428945E+02  0.51100000000E-03 0. -1.
        -11    1    3    3    0    0  0.13033972253E+02 -0.66749907633E+01  0.69807057511E+01  0.16222520994E+02  0.51100000000E-03 0.  1.
        -12    1    3    3    0    0 -0.40294434701E+01  0.64194129900E+01 -0.18014486754E+02  0.19543976331E+02  0.00000000000E+00 0.  1.
</event>
<event>
 7    1  0.1215217E-011  0.5930196E+02  0.7816164E-02  0.1266605E+00
        -11   -1    0    0    0    0  0.00000000000E+00  0.00000000000E+00  0.45593999997E+02  0.45594000000E+02  0.51100000000E-03 0.  1.
         11   -1    0    0    0    0 -0.00000000000E+00 -0.00000000000E+00 -0.45593999997E+02  0.45594000000E+02  0.51100000000E-03 0. -1.
    9900012    2    1    2    0    0 -0.28826995804E+02  0.15725692450E+01 -0.13537023002E+02  0.59301958338E+02  0.50000026098E+02 0.  0.
        -12    1    1    2    0    0  0.28826995804E+02 -0.15725692450E+01  0.13537023002E+02  0.31886041662E+02  0.00000000000E+00 0.  1.
         11    1    3    3    0    0  0.71788019035E+01  0.22628447087E+01  0.25074750933E+01  0.79336684169E+01  0.51100000000E-03 0. -1.
        -11    1    3    3    0    0  0.56588174242E+01  0.32185889997E+01  0.10957919378E+00  0.65110319958E+01  0.51100000000E-03 0.  1.
         12    1    3    3    0    0 -0.41664615132E+02 -0.39088644634E+01 -0.16154077289E+02  0.44857257925E+02  0.00000000000E+00 0. -1.
</event>
<event>
 7    1  0.1215217E-011  0.5930182E+02  0.7816164E-02  0.1266605E+00
        -11   -1    0    0    0    0  0.00000000000E+00  0.00000000000E+00  0.45593999997E+02  0.45594000000E+02  0.51100000000E-03 0.  1.
         11   -1    0    0    0    0 -0.00000000000E+00 -0.00000000000E+00 -0.45593999997E+02  0.45594000000E+02  0.51100000000E-03 0. -1.
    9900012    2    1    2    0    0 -0.21431905785E+02  0.91928351100E+01 -0.21746117644E+02  0.59301820619E+02  0.49999774932E+02 0.  0.
        -12    1    1    2    0    0  0.21431905785E+02 -0.91928351100E+01  0.21746117644E+02  0.31886179381E+02  0.00000000000E+00 0.  1.
         11    1    3    3    0    0 -0.24090471640E+01  0.19728303345E+01  0.65491343989E+01  0.72516708008E+01  0.51100000000E-03 0. -1.
        -11    1    3    3    0    0  0.94584373475E+01  0.16889906519E+01  0.23063944631E+01  0.98810010707E+01  0.51100000000E-03 0.  1.
         12    1    3    3    0    0 -0.28481295968E+02  0.55310141236E+01 -0.30601646506E+02  0.42169148748E+02  0.00000000000E+00 0. -1.
</event>
<event>
 7    1  0.1215217E-011  0.5930166E+02  0.7816164E-02  0.1266606E+00
        -11   -1    0    0    0    0  0.00000000000E+00  0.00000000000E+00  0.45593999997E+02  0.45594000000E+02  0.51100000000E-03 0.  1.
         11   -1    0    0    0    0 -0.00000000000E+00 -0.00000000000E+00 -0.45593999997E+02  0.45594000000E+02  0.51100000000E-03 0. -1.
    9900012    2    1    2    0    0  0.72094877336E+01  0.85796607169E+01 -0.29852161060E+02  0.59301657918E+02  0.49999478202E+02 0.  0.
        -12    1    1    2    0    0 -0.72094877336E+01 -0.85796607169E+01  0.29852161060E+02  0.31886342082E+02  0.00000000000E+00 0.  1.
         11    1    3    3    0    0  0.44629601629E+01  0.15445036693E+01 -0.32061684081E+02  0.32407639398E+02  0.51100000000E-03 0. -1.
        -11    1    3    3    0    0  0.13452737956E+02 -0.89095120300E+00  0.11065881669E+01  0.13527545608E+02  0.51100000000E-03 0.  1.
        -12    1    3    3    0    0 -0.10706210385E+02  0.79261082506E+01  0.11029348538E+01  0.13366472912E+02  0.00000000000E+00 0.  1.
</event>
<event>
 7    1  0.1215217E-011  0.5930196E+02  0.7816164E-02  0.1266605E+00
        -11   -1    0    0    0    0  0.00000000000E+00  0.00000000000E+00  0.45593999997E+02  0.45594000000E+02  0.51100000000E-03 0. -1.
         11   -1    0    0    0    0 -0.00000000000E+00 -0.00000000000E+00 -0.45593999997E+02  0.45594000000E+02  0.51100000000E-03 0.  1.
    9900012    2    1    2    0    0  0.23475607695E+02  0.14247676695E+02  0.16205535403E+02  0.59301955631E+02  0.50000021161E+02 0.  0.
        -12    1    1    2    0    0 -0.23475607695E+02 -0.14247676695E+02 -0.16205535403E+02  0.31886044369E+02  0.00000000000E+00 0.  1.
         11    1    3    3    0    0  0.72544675477E+00  0.18491969907E+02  0.10116872660E+02  0.21091001321E+02  0.51100000000E-03 0. -1.
        -11    1    3    3    0    0  0.52347674506E+01  0.12435511274E+02  0.30615888688E+01  0.13835391486E+02  0.51100000000E-03 0.  1.
        -12    1    3    3    0    0  0.17515393489E+02 -0.16679804486E+02  0.30270738738E+01  0.24375562824E+02  0.00000000000E+00 0.  1.
</event>
<event>
 7    1  0.1215217E-011  0.5930195E+02  0.7816164E-02  0.1266605E+00
        -11   -1    0    0    0    0  0.00000000000E+00  0.00000000000E+00  0.45593999997E+02  0.45594000000E+02  0.51100000000E-03 0.  1.
         11   -1    0    0    0    0 -0.00000000000E+00 -0.00000000000E+00 -0.45593999997E+02  0.45594000000E+02  0.51100000000E-03 0. -1.
    9900012    2    1    2    0    0 -0.28900580600E+02  0.12959055616E+02 -0.36796045247E+01  0.59301950215E+02  0.50000011284E+02 0.  0.
        -12    1    1    2    0    0  0.28900580600E+02 -0.12959055616E+02  0.36796045247E+01  0.31886049785E+02  0.00000000000E+00 0.  1.
         11    1    3    3    0    0 -0.33839587090E+01 -0.80431402199E+01 -0.12278266334E+02  0.15063170502E+02  0.51100000000E-03 0. -1.
        -11    1    3    3    0    0  0.53565358620E+01  0.39501261886E+01 -0.27315103777E+01  0.71942423195E+01  0.51100000000E-03 0.  1.
        -12    1    3    3    0    0 -0.30873157753E+02  0.17052069647E+02  0.11330172187E+02  0.37044537393E+02  0.00000000000E+00 0.  1.
</event>
<event>
 7    1  0.1215217E-011  0.5930193E+02  0.7816164E-02  0.1266605E+00
        -11   -1    0    0    0    0  0.00000000000E+00  0.00000000000E+00  0.45593999997E+02  0.45594000000E+02  0.51100000000E-03 0.  1.
         11   -1    0    0    0    0 -0.00000000000E+00 -0.00000000000E+00 -0.45593999997E+02  0.45594000000E+02  0.51100000000E-03 0. -1.
    9900012    2    1    2    0    0  0.31491724685E+02  0.32737524321E+01  0.37782755633E+01  0.59301928670E+02  0.49999971991E+02 0.  0.
        -12    1    1    2    0    0 -0.31491724685E+02 -0.32737524321E+01 -0.37782755633E+01  0.31886071330E+02  0.00000000000E+00 0.  1.
         11    1    3    3    0    0  0.24226378589E+02  0.94659458808E+01 -0.13211766258E+02  0.29173143795E+02  0.51100000000E-03 0. -1.
        -11    1    3    3    0    0 -0.18603664031E+00  0.26854095057E+00 -0.55322257007E+01  0.55418629845E+01  0.51100000000E-03 0.  1.
        -12    1    3    3    0    0  0.74513827363E+01 -0.64607343993E+01  0.22522267523E+02  0.24586921890E+02  0.00000000000E+00 0.  1.
</event>
<event>
 7    1  0.1215217E-011  0.5930191E+02  0.7816164E-02  0.1266605E+00
        -11   -1    0    0    0    0  0.00000000000E+00  0.00000000000E+00  0.45593999997E+02  0.45594000000E+02  0.51100000000E-03 0.  1.
         11   -1    0    0    0    0 -0.00000000000E+00 -0.00000000000E+00 -0.45593999997E+02  0.45594000000E+02  0.51100000000E-03 0. -1.
    9900012    2    1    2    0    0  0.94826482991E+01  0.22697436275E+02 -0.20288627180E+02  0.59301911732E+02  0.49999941100E+02 0.  0.
        -12    1    1    2    0    0 -0.94826482991E+01 -0.22697436275E+02  0.20288627180E+02  0.31886088268E+02  0.00000000000E+00 0.  1.
         11    1    3    3    0    0 -0.95465667423E+01  0.59725876374E+01  0.48141632857E+01  0.12246832572E+02  0.51100000000E-03 0. -1.
        -11    1    3    3    0    0 -0.81605637278E+01  0.27201232192E+01 -0.22957630893E+01  0.89030556050E+01  0.51100000000E-03 0.  1.
         12    1    3    3    0    0  0.27189778769E+02  0.14004725418E+02 -0.22807027376E+02  0.38152023554E+02  0.00000000000E+00 0. -1.
</event>
<event>
 7    1  0.1215217E-011  0.5930192E+02  0.7816164E-02  0.1266605E+00
        -11   -1    0    0    0    0  0.00000000000E+00  0.00000000000E+00  0.45593999997E+02  0.45594000000E+02  0.51100000000E-03 0. -1.
         11   -1    0    0    0    0 -0.00000000000E+00 -0.00000000000E+00 -0.45593999997E+02  0.45594000000E+02  0.51100000000E-03 0.  1.
    9900012    2    1    2    0    0  0.10910065728E+02  0.69867655213E+01  0.29135501417E+02  0.59301923580E+02  0.49999962707E+02 0.  0.
        -12    1    1    2    0    0 -0.10910065728E+02 -0.69867655213E+01 -0.29135501417E+02  0.31886076420E+02  0.00000000000E+00 0.  1.
         11    1    3    3    0    0  0.60407483354E+01  0.92072735195E+01  0.22088021896E+02  0.24680867846E+02  0.51100000000E-03 0. -1.
        -11    1    3    3    0    0  0.11363944241E+02  0.45129699486E+01  0.17013863490E+02  0.20951794138E+02  0.51100000000E-03 0.  1.
        -12    1    3    3    0    0 -0.64946268482E+01 -0.67334779467E+01 -0.99663839685E+01  0.13669261595E+02  0.00000000000E+00 0.  1.
</event>
<event>
 7    1  0.1215217E-011  0.5930198E+02  0.7816164E-02  0.1266605E+00
        -11   -1    0    0    0    0  0.00000000000E+00  0.00000000000E+00  0.45593999997E+02  0.45594000000E+02  0.51100000000E-03 0. -1.
         11   -1    0    0    0    0 -0.00000000000E+00 -0.00000000000E+00 -0.45593999997E+02  0.45594000000E+02  0.51100000000E-03 0.  1.
    9900012    2    1    2    0    0  0.15170461592E+02  0.11985777977E+01  0.28020332929E+02  0.59301975614E+02  0.50000057606E+02 0.  0.
        -12    1    1    2    0    0 -0.15170461592E+02 -0.11985777977E+01 -0.28020332929E+02  0.31886024386E+02  0.00000000000E+00 0.  1.
         11    1    3    3    0    0  0.10772500638E+02  0.85015293304E+00  0.29108779444E+02  0.31049807906E+02  0.51100000000E-03 0. -1.
        -11    1    3    3    0    0 -0.31981844531E+01 -0.42453256709E+01  0.11604004299E+02  0.12763388652E+02  0.51100000000E-03 0.  1.
        -12    1    3    3    0    0  0.75961454066E+01  0.45937505356E+01 -0.12692450813E+02  0.15488779057E+02  0.00000000000E+00 0.  1.
</event>
<event>
 7    1  0.1215217E-011  0.5930193E+02  0.7816164E-02  0.1266605E+00
        -11   -1    0    0    0    0  0.00000000000E+00  0.00000000000E+00  0.45593999997E+02  0.45594000000E+02  0.51100000000E-03 0. -1.
         11   -1    0    0    0    0 -0.00000000000E+00 -0.00000000000E+00 -0.45593999997E+02  0.45594000000E+02  0.51100000000E-03 0.  1.
    9900012    2    1    2    0    0 -0.94806851041E+01  0.22361481715E+02  0.20659185060E+02  0.59301934362E+02  0.49999982372E+02 0.  0.
        -12    1    1    2    0    0  0.94806851041E+01 -0.22361481715E+02 -0.20659185060E+02  0.31886065638E+02  0.00000000000E+00 0.  1.
         11    1    3    3    0    0 -0.13091050139E+02 -0.63695817515E+01  0.81672030131E+00  0.14581296162E+02  0.51100000000E-03 0. -1.
        -11    1    3    3    0    0  0.25007948640E+01 -0.77810175953E+00  0.14470961379E+02  0.14706057962E+02  0.51100000000E-03 0.  1.
         12    1    3    3    0    0  0.11095701714E+01  0.29509165226E+02  0.53715033799E+01  0.30014580238E+02  0.00000000000E+00 0. -1.
</event>
<event>
 7    1  0.1215217E-011  0.5930194E+02  0.7816164E-02  0.1266605E+00
        -11   -1    0    0    0    0  0.00000000000E+00  0.00000000000E+00  0.45593999997E+02  0.45594000000E+02  0.51100000000E-03 0.  1.
         11   -1    0    0    0    0 -0.00000000000E+00 -0.00000000000E+00 -0.45593999997E+02  0.45594000000E+02  0.51100000000E-03 0. -1.
    9900012    2    1    2    0    0  0.27127965086E+02 -0.10428309942E+02 -0.13116579137E+02  0.59301940566E+02  0.49999993686E+02 0.  0.
        -12    1    1    2    0    0 -0.27127965086E+02  0.10428309942E+02  0.13116579137E+02  0.31886059434E+02  0.00000000000E+00 0.  1.
         11    1    3    3    0    0  0.22770495634E+02 -0.10910710367E+02 -0.15765578125E+02  0.29767306327E+02  0.51100000000E-03 0. -1.
        -11    1    3    3    0    0  0.14006800112E+02  0.79175292307E+01 -0.25491004507E+01  0.16290353952E+02  0.51100000000E-03 0.  1.
         12    1    3    3    0    0 -0.96493306598E+01 -0.74351288057E+01  0.51980994383E+01  0.13244280287E+02  0.00000000000E+00 0. -1.
</event>
<event>
 7    1  0.1215217E-011  0.5930223E+02  0.7816164E-02  0.1266604E+00
        -11   -1    0    0    0    0  0.00000000000E+00  0.00000000000E+00  0.45593999997E+02  0.45594000000E+02  0.51100000000E-03 0.  1.
         11   -1    0    0    0    0 -0.00000000000E+00 -0.00000000000E+00 -0.45593999997E+02  0.45594000000E+02  0.51100000000E-03 0. -1.
    9900012    2    1    2    0    0 -0.11855883966E+01  0.24196521262E+02 -0.20732222724E+02  0.59302230132E+02  0.50000521782E+02 0.  0.
        -12    1    1    2    0    0  0.11855883966E+01 -0.24196521262E+02  0.20732222724E+02  0.31885769868E+02  0.00000000000E+00 0.  1.
         11    1    3    3    0    0 -0.32450947846E+01 -0.66457680354E+01 -0.47395920350E+01  0.87841109886E+01  0.51100000000E-03 0. -1.
        -11    1    3    3    0    0  0.18027322123E+02  0.13453102468E+02 -0.14706519822E+02  0.26874747152E+02  0.51100000000E-03 0.  1.
         12    1    3    3    0    0 -0.15967815735E+02  0.17389186829E+02 -0.12861108673E+01  0.23643371991E+02  0.00000000000E+00 0. -1.
</event>
<event>
 7    1  0.1215217E-011  0.5930195E+02  0.7816164E-02  0.1266605E+00
        -11   -1    0    0    0    0  0.00000000000E+00  0.00000000000E+00  0.45593999997E+02  0.45594000000E+02  0.51100000000E-03 0. -1.
         11   -1    0    0    0    0 -0.00000000000E+00 -0.00000000000E+00 -0.45593999997E+02  0.45594000000E+02  0.51100000000E-03 0.  1.
    9900012    2    1    2    0    0  0.55939195903E+01  0.31260635984E+02 -0.28637400343E+01  0.59301948104E+02  0.50000007435E+02 0.  0.
        -12    1    1    2    0    0 -0.55939195903E+01 -0.31260635984E+02  0.28637400343E+01  0.31886051896E+02  0.00000000000E+00 0.  1.
         11    1    3    3    0    0  0.11729460657E+02  0.10433916635E+01  0.40743359947E+01  0.12460703332E+02  0.51100000000E-03 0. -1.
        -11    1    3    3    0    0 -0.96499252464E+01  0.15462174149E+02  0.12562474098E+02  0.22136296944E+02  0.51100000000E-03 0.  1.
         12    1    3    3    0    0  0.35143841799E+01  0.14755070172E+02 -0.19500550127E+02  0.24704947829E+02  0.00000000000E+00 0. -1.
</event>
<event>
 7    1  0.1215217E-011  0.5930194E+02  0.7816164E-02  0.1266605E+00
        -11   -1    0    0    0    0  0.00000000000E+00  0.00000000000E+00  0.45593999997E+02  0.45594000000E+02  0.51100000000E-03 0.  1.
         11   -1    0    0    0    0 -0.00000000000E+00 -0.00000000000E+00 -0.45593999997E+02  0.45594000000E+02  0.51100000000E-03 0. -1.
    9900012    2    1    2    0    0  0.13324261564E+02  0.74551389812E+01 -0.27992958461E+02  0.59301940869E+02  0.49999994240E+02 0.  0.
        -12    1    1    2    0    0 -0.13324261564E+02 -0.74551389812E+01  0.27992958461E+02  0.31886059131E+02  0.00000000000E+00 0.  1.
         11    1    3    3    0    0  0.54765016509E+01  0.50265780783E+01 -0.10825509444E+02  0.13132030022E+02  0.51100000000E-03 0. -1.
        -11    1    3    3    0    0  0.19033730773E+02 -0.54654443897E+00 -0.25559656855E+02  0.31872836033E+02  0.51100000000E-03 0.  1.
        -12    1    3    3    0    0 -0.11185970860E+02  0.29751053418E+01  0.83922078375E+01  0.14297074815E+02  0.00000000000E+00 0.  1.
</event>
<event>
 7    1  0.1215217E-011  0.5930192E+02  0.7816164E-02  0.1266605E+00
        -11   -1    0    0    0    0  0.00000000000E+00  0.00000000000E+00  0.45593999997E+02  0.45594000000E+02  0.51100000000E-03 0.  1.
         11   -1    0    0    0    0 -0.00000000000E+00 -0.00000000000E+00 -0.45593999997E+02  0.45594000000E+02  0.51100000000E-03 0. -1.
    9900012    2    1    2    0    0  0.14560293478E+02 -0.13480540165E+02 -0.24959871646E+02  0.59301916799E+02  0.49999950342E+02 0.  0.
        -12    1    1    2    0    0 -0.14560293478E+02  0.13480540165E+02  0.24959871646E+02  0.31886083201E+02  0.00000000000E+00 0.  1.
         11    1    3    3    0    0  0.70457438813E+01 -0.84201271777E-01 -0.14732835449E+02  0.16331137049E+02  0.51100000000E-03 0. -1.
        -11    1    3    3    0    0  0.54039843333E+01 -0.86575449009E+01 -0.25166057079E+02  0.27156703768E+02  0.51100000000E-03 0.  1.
        -12    1    3    3    0    0  0.21105652630E+01 -0.47387939927E+01  0.14939020882E+02  0.15814075982E+02  0.00000000000E+00 0.  1.
</event>
<event>
 7    1  0.1215217E-011  0.5930196E+02  0.7816164E-02  0.1266605E+00
        -11   -1    0    0    0    0  0.00000000000E+00  0.00000000000E+00  0.45593999997E+02  0.45594000000E+02  0.51100000000E-03 0. -1.
         11   -1    0    0    0    0 -0.00000000000E+00 -0.00000000000E+00 -0.45593999997E+02  0.45594000000E+02  0.51100000000E-03 0.  1.
    9900012    2    1    2    0    0  0.15989779635E+02 -0.25445013685E+02 -0.10658235096E+02  0.59301956822E+02  0.50000023333E+02 0.  0.
        -12    1    1    2    0    0 -0.15989779635E+02  0.25445013685E+02  0.10658235096E+02  0.31886043178E+02  0.00000000000E+00 0.  1.
         11    1    3    3    0    0  0.23648453273E+02 -0.10027853562E+01 -0.10998795164E+02  0.26100352795E+02  0.51100000000E-03 0. -1.
        -11    1    3    3    0    0 -0.96791471113E+00  0.11915251829E+00 -0.67150719499E+01  0.67855175015E+01  0.51100000000E-03 0.  1.
        -12    1    3    3    0    0 -0.66907589267E+01 -0.24561380847E+02  0.70556320184E+01  0.26416086525E+02  0.00000000000E+00 0.  1.
</event>
<event>
 7    1  0.1215217E-011  0.5930195E+02  0.7816164E-02  0.1266605E+00
        -11   -1    0    0    0    0  0.00000000000E+00  0.00000000000E+00  0.45593999997E+02  0.45594000000E+02  0.51100000000E-03 0.  1.
         11   -1    0    0    0    0 -0.00000000000E+00 -0.00000000000E+00 -0.45593999997E+02  0.45594000000E+02  0.51100000000E-03 0. -1.
    9900012    2    1    2    0    0  0.38476272808E+01 -0.25692499519E+02 -0.18488144144E+02  0.59301949114E+02  0.50000009275E+02 0.  0.
        -12    1    1    2    0    0 -0.38476272808E+01  0.25692499519E+02  0.18488144144E+02  0.31886050886E+02  0.00000000000E+00 0.  1.
         11    1    3    3    0    0 -0.33341806746E+01  0.20531392049E+01 -0.37664861677E+01  0.54330985338E+01  0.51100000000E-03 0. -1.
        -11    1    3    3    0    0  0.12831766284E+02  0.59603665856E+01 -0.13674289846E+02  0.19676544383E+02  0.51100000000E-03 0.  1.
         12    1    3    3    0    0 -0.56499583286E+01 -0.33706005310E+02 -0.10473681307E+01  0.34192306197E+02  0.00000000000E+00 0. -1.
</event>
<event>
 7    1  0.1215217E-011  0.5930194E+02  0.7816164E-02  0.1266605E+00
        -11   -1    0    0    0    0  0.00000000000E+00  0.00000000000E+00  0.45593999997E+02  0.45594000000E+02  0.51100000000E-03 0.  1.
         11   -1    0    0    0    0 -0.00000000000E+00 -0.00000000000E+00 -0.45593999997E+02  0.45594000000E+02  0.51100000000E-03 0. -1.
    9900012    2    1    2    0    0  0.23763804884E+02 -0.15194532100E+02 -0.14870385133E+02  0.59301943764E+02  0.49999999519E+02 0.  0.
        -12    1    1    2    0    0 -0.23763804884E+02  0.15194532100E+02  0.14870385133E+02  0.31886056236E+02  0.00000000000E+00 0.  1.
         11    1    3    3    0    0  0.34816418811E+02 -0.56555547417E+01 -0.18146591325E+02  0.39666952180E+02  0.51100000000E-03 0. -1.
        -11    1    3    3    0    0 -0.29062938771E+01 -0.49848628236E+01  0.74400491727E+01  0.94153987395E+01  0.51100000000E-03 0.  1.
        -12    1    3    3    0    0 -0.81463200499E+01 -0.45541145343E+01 -0.41638429810E+01  0.10219592845E+02  0.00000000000E+00 0.  1.
</event>
<event>
 7    1  0.1215217E-011  0.5930193E+02  0.7816164E-02  0.1266605E+00
        -11   -1    0    0    0    0  0.00000000000E+00  0.00000000000E+00  0.45593999997E+02  0.45594000000E+02  0.51100000000E-03 0.  1.
         11   -1    0    0    0    0 -0.00000000000E+00 -0.00000000000E+00 -0.45593999997E+02  0.45594000000E+02  0.51100000000E-03 0. -1.
    9900012    2    1    2    0    0 -0.17161830805E+02  0.19280415620E+02 -0.18720539109E+02  0.59301930195E+02  0.49999974773E+02 0.  0.
        -12    1    1    2    0    0  0.17161830805E+02 -0.19280415620E+02  0.18720539109E+02  0.31886069805E+02  0.00000000000E+00 0.  1.
         11    1    3    3    0    0 -0.10355310416E+02 -0.82012003996E+00 -0.11891616564E+02  0.15789730696E+02  0.51100000000E-03 0. -1.
        -11    1    3    3    0    0  0.21844432347E+01 -0.10462048531E+02 -0.44135942995E+01  0.11563133944E+02  0.51100000000E-03 0.  1.
        -12    1    3    3    0    0 -0.89909636241E+01  0.30562584191E+02 -0.24153282450E+01  0.31949065555E+02  0.00000000000E+00 0.  1.
</event>
<event>
 7    1  0.1215217E-011  0.5930197E+02  0.7816164E-02  0.1266605E+00
        -11   -1    0    0    0    0  0.00000000000E+00  0.00000000000E+00  0.45593999997E+02  0.45594000000E+02  0.51100000000E-03 0.  1.
         11   -1    0    0    0    0 -0.00000000000E+00 -0.00000000000E+00 -0.45593999997E+02  0.45594000000E+02  0.51100000000E-03 0. -1.
    9900012    2    1    2    0    0 -0.72399161363E+01  0.22856497673E+02 -0.21021015465E+02  0.59301969160E+02  0.50000045836E+02 0.  0.
        -12    1    1    2    0    0  0.72399161363E+01 -0.22856497673E+02  0.21021015465E+02  0.31886030840E+02  0.00000000000E+00 0.  1.
         11    1    3    3    0    0  0.72871224400E+01  0.28944323931E+01  0.98942426018E+01  0.12624417977E+02  0.51100000000E-03 0.  1.
        -11    1    3    3    0    0 -0.12775854312E+02  0.18536565584E+02 -0.83683037637E+01  0.24017810583E+02  0.51100000000E-03 0. -1.
        -12    1    3    3    0    0 -0.17511842645E+01  0.14254996951E+01 -0.22546954303E+02  0.22659740600E+02  0.00000000000E+00 0.  1.
</event>
<event>
 7    1  0.1215217E-011  0.5930195E+02  0.7816164E-02  0.1266605E+00
        -11   -1    0    0    0    0  0.00000000000E+00  0.00000000000E+00  0.45593999997E+02  0.45594000000E+02  0.51100000000E-03 0.  1.
         11   -1    0    0    0    0 -0.00000000000E+00 -0.00000000000E+00 -0.45593999997E+02  0.45594000000E+02  0.51100000000E-03 0. -1.
    9900012    2    1    2    0    0 -0.26896153271E+02 -0.56952599021E+00 -0.17117039376E+02  0.59301945718E+02  0.50000003083E+02 0.  0.
        -12    1    1    2    0    0  0.26896153271E+02  0.56952599021E+00  0.17117039376E+02  0.31886054282E+02  0.00000000000E+00 0.  1.
         11    1    3    3    0    0 -0.11137242987E+02  0.37568256077E+01 -0.13076880137E+02  0.17582852851E+02  0.51100000000E-03 0. -1.
        -11    1    3    3    0    0 -0.94951332070E+01  0.68398270111E+01 -0.18822171482E+02  0.22163369052E+02  0.51100000000E-03 0.  1.
        -12    1    3    3    0    0 -0.62637770767E+01 -0.11166178609E+02  0.14782012243E+02  0.19555723815E+02  0.00000000000E+00 0.  1.
</event>
<event>
 7    1  0.1215217E-011  0.5930194E+02  0.7816164E-02  0.1266605E+00
        -11   -1    0    0    0    0  0.00000000000E+00  0.00000000000E+00  0.45593999997E+02  0.45594000000E+02  0.51100000000E-03 0.  1.
         11   -1    0    0    0    0 -0.00000000000E+00 -0.00000000000E+00 -0.45593999997E+02  0.45594000000E+02  0.51100000000E-03 0. -1.
    9900012    2    1    2    0    0  0.21572659761E+02 -0.11011007956E+02 -0.20738818891E+02  0.59301944202E+02  0.50000000318E+02 0.  0.
        -12    1    1    2    0    0 -0.21572659761E+02  0.11011007956E+02  0.20738818891E+02  0.31886055798E+02  0.00000000000E+00 0.  1.
         11    1    3    3    0    0  0.34331802444E+02 -0.91820268722E+01 -0.11736644304E+02  0.37426342278E+02  0.51100000000E-03 0. -1.
        -11    1    3    3    0    0 -0.36257443356E+01  0.34467423956E+01  0.30505531436E+01  0.58593455157E+01  0.51100000000E-03 0.  1.
        -12    1    3    3    0    0 -0.91333983473E+01 -0.52757234793E+01 -0.12052727730E+02  0.16016256408E+02  0.00000000000E+00 0.  1.
</event>
<event>
 7    1  0.1215217E-011  0.5930196E+02  0.7816164E-02  0.1266605E+00
        -11   -1    0    0    0    0  0.00000000000E+00  0.00000000000E+00  0.45593999997E+02  0.45594000000E+02  0.51100000000E-03 0. -1.
         11   -1    0    0    0    0 -0.00000000000E+00 -0.00000000000E+00 -0.45593999997E+02  0.45594000000E+02  0.51100000000E-03 0.  1.
    9900012    2    1    2    0    0 -0.14148160898E+02  0.20114067109E+02  0.20297128654E+02  0.59301959417E+02  0.50000028067E+02 0.  0.
        -12    1    1    2    0    0  0.14148160898E+02 -0.20114067109E+02 -0.20297128654E+02  0.31886040583E+02  0.00000000000E+00 0.  1.
         11    1    3    3    0    0  0.61173757242E+01 -0.43976919518E+00  0.25194731165E+01  0.66304922700E+01  0.51100000000E-03 0. -1.
        -11    1    3    3    0    0 -0.56823659493E+01  0.62685752330E+01 -0.13136430004E+02  0.15625303573E+02  0.51100000000E-03 0.  1.
        -12    1    3    3    0    0 -0.14583170673E+02  0.14285261071E+02  0.30914085541E+02  0.37046163575E+02  0.00000000000E+00 0.  1.
</event>
<event>
 7    1  0.1215217E-011  0.5930195E+02  0.7816164E-02  0.1266605E+00
        -11   -1    0    0    0    0  0.00000000000E+00  0.00000000000E+00  0.45593999997E+02  0.45594000000E+02  0.51100000000E-03 0.  1.
         11   -1    0    0    0    0 -0.00000000000E+00 -0.00000000000E+00 -0.45593999997E+02  0.45594000000E+02  0.51100000000E-03 0. -1.
    9900012    2    1    2    0    0 -0.30072239256E+02 -0.38176131012E+00 -0.10594094982E+02  0.59301950322E+02  0.50000011480E+02 0.  0.
        -12    1    1    2    0    0  0.30072239256E+02  0.38176131012E+00  0.10594094982E+02  0.31886049678E+02  0.00000000000E+00 0.  1.
         11    1    3    3    0    0  0.42777214313E+01 -0.87533325655E+01  0.63911906541E+01  0.11651911855E+02  0.51100000000E-03 0. -1.
        -11    1    3    3    0    0 -0.12133053947E+02  0.84843419509E-01  0.69293249541E+01  0.13972606810E+02  0.51100000000E-03 0.  1.
         12    1    3    3    0    0 -0.22216906740E+02  0.82867278358E+01 -0.23914610591E+02  0.33677431657E+02  0.00000000000E+00 0. -1.
</event>
<event>
 7    1  0.1215217E-011  0.5930193E+02  0.7816164E-02  0.1266605E+00
        -11   -1    0    0    0    0  0.00000000000E+00  0.00000000000E+00  0.45593999997E+02  0.45594000000E+02  0.51100000000E-03 0.  1.
         11   -1    0    0    0    0 -0.00000000000E+00 -0.00000000000E+00 -0.45593999997E+02  0.45594000000E+02  0.51100000000E-03 0. -1.
    9900012    2    1    2    0    0 -0.12399371665E+01  0.19265755849E+02  0.25377446401E+02  0.59301928143E+02  0.49999971030E+02 0.  0.
        -12    1    1    2    0    0  0.12399371665E+01 -0.19265755849E+02 -0.25377446401E+02  0.31886071857E+02  0.00000000000E+00 0.  1.
         11    1    3    3    0    0 -0.17128466327E+02  0.82980595652E+01  0.20841474323E+02  0.28224266216E+02  0.51100000000E-03 0. -1.
        -11    1    3    3    0    0  0.30257805053E+01 -0.66956188943E+01  0.55431756442E+01  0.92039913368E+01  0.51100000000E-03 0.  1.
        -12    1    3    3    0    0  0.12862748655E+02  0.17663315178E+02 -0.10072035659E+01  0.21873670590E+02  0.00000000000E+00 0.  1.
</event>
<event>
 7    1  0.1215217E-011  0.5930193E+02  0.7816164E-02  0.1266605E+00
        -11   -1    0    0    0    0  0.00000000000E+00  0.00000000000E+00  0.45593999997E+02  0.45594000000E+02  0.51100000000E-03 0. -1.
         11   -1    0    0    0    0 -0.00000000000E+00 -0.00000000000E+00 -0.45593999997E+02  0.45594000000E+02  0.51100000000E-03 0.  1.
    9900012    2    1    2    0    0  0.24875957897E+02 -0.13472793760E+02  0.14710266617E+02  0.59301930989E+02  0.49999976221E+02 0.  0.
        -12    1    1    2    0    0 -0.24875957897E+02  0.13472793760E+02 -0.14710266617E+02  0.31886069011E+02  0.00000000000E+00 0.  1.
         11    1    3    3    0    0 -0.70666390012E+01  0.11481572203E+02  0.50186267577E+01  0.14385774286E+02  0.51100000000E-03 0. -1.
        -11    1    3    3    0    0  0.78618822413E+01 -0.16582646112E+02  0.45693631950E+01  0.18912229501E+02  0.51100000000E-03 0.  1.
        -12    1    3    3    0    0  0.24080714657E+02 -0.83717198511E+01  0.51222766642E+01  0.26003927201E+02  0.00000000000E+00 0.  1.
</event>
<event>
 7    1  0.1215217E-011  0.5930194E+02  0.7816164E-02  0.1266605E+00
        -11   -1    0    0    0    0  0.00000000000E+00  0.00000000000E+00  0.45593999997E+02  0.45594000000E+02  0.51100000000E-03 0. -1.
         11   -1    0    0    0    0 -0.00000000000E+00 -0.00000000000E+00 -0.45593999997E+02  0.45594000000E+02  0.51100000000E-03 0.  1.
    9900012    2    1    2    0    0 -0.96723984170E+01  0.89947745162E+01  0.29021703057E+02  0.59301944928E+02  0.50000001642E+02 0.  0.
        -12    1    1    2    0    0  0.96723984170E+01 -0.89947745162E+01 -0.29021703057E+02  0.31886055072E+02  0.00000000000E+00 0.  1.
         11    1    3    3    0    0 -0.12117669237E+02  0.11437561288E+02  0.71307474805E+01  0.18124659330E+02  0.51100000000E-03 0. -1.
        -11    1    3    3    0    0  0.17867630518E+01  0.30025149457E+00 -0.94942380072E+01  0.96655692415E+01  0.51100000000E-03 0.  1.
         12    1    3    3    0    0  0.65850776794E+00 -0.27430382665E+01  0.31385193584E+02  0.31511716356E+02  0.00000000000E+00 0. -1.
</event>
<event>
 7    1  0.1215217E-011  0.5930193E+02  0.7816164E-02  0.1266605E+00
        -11   -1    0    0    0    0  0.00000000000E+00  0.00000000000E+00  0.45593999997E+02  0.45594000000E+02  0.51100000000E-03 0.  1.
         11   -1    0    0    0    0 -0.00000000000E+00 -0.00000000000E+00 -0.45593999997E+02  0.45594000000E+02  0.51100000000E-03 0. -1.
    9900012    2    1    2    0    0 -0.22647292272E+02 -0.14154719051E+02 -0.17420271010E+02  0.59301925285E+02  0.49999965818E+02 0.  0.
        -12    1    1    2    0    0  0.22647292272E+02  0.14154719051E+02  0.17420271010E+02  0.31886074715E+02  0.00000000000E+00 0.  1.
         11    1    3    3    0    0 -0.53215700460E+01 -0.87402713877E+01 -0.18960909018E+02  0.21545939820E+02  0.51100000000E-03 0. -1.
        -11    1    3    3    0    0 -0.12501407038E+02  0.13384740087E+02  0.59254528886E+00  0.18324506960E+02  0.51100000000E-03 0.  1.
         12    1    3    3    0    0 -0.48243151873E+01 -0.18799187750E+02  0.94809271879E+00  0.19431478505E+02  0.00000000000E+00 0. -1.
</event>
<event>
 7    1  0.1215217E-011  0.5930193E+02  0.7816164E-02  0.1266605E+00
        -11   -1    0    0    0    0  0.00000000000E+00  0.00000000000E+00  0.45593999997E+02  0.45594000000E+02  0.51100000000E-03 0.  1.
         11   -1    0    0    0    0 -0.00000000000E+00 -0.00000000000E+00 -0.45593999997E+02  0.45594000000E+02  0.51100000000E-03 0. -1.
    9900012    2    1    2    0    0  0.27227995927E+02  0.13292987903E+02 -0.99324922264E+01  0.59301926372E+02  0.49999967801E+02 0.  0.
        -12    1    1    2    0    0 -0.27227995927E+02 -0.13292987903E+02  0.99324922264E+01  0.31886073628E+02  0.00000000000E+00 0.  1.
         11    1    3    3    0    0  0.21670516934E+02  0.69798800241E+00  0.58036814739E+01  0.22445070958E+02  0.51100000000E-03 0. -1.
        -11    1    3    3    0    0 -0.66303221444E+01 -0.72115354741E+01 -0.25502886414E+01  0.10122815223E+02  0.51100000000E-03 0.  1.
         12    1    3    3    0    0  0.12187801137E+02  0.19806535375E+02 -0.13185885059E+02  0.26734040190E+02  0.00000000000E+00 0. -1.
</event>
<event>
 7    1  0.1215217E-011  0.5930193E+02  0.7816164E-02  0.1266605E+00
        -11   -1    0    0    0    0  0.00000000000E+00  0.00000000000E+00  0.45593999997E+02  0.45594000000E+02  0.51100000000E-03 0. -1.
         11   -1    0    0    0    0 -0.00000000000E+00 -0.00000000000E+00 -0.45593999997E+02  0.45594000000E+02  0.51100000000E-03 0.  1.
    9900012    2    1    2    0    0  0.15031149309E+02  0.65607363378E+01  0.27344880357E+02  0.59301934194E+02  0.49999982066E+02 0.  0.
        -12    1    1    2    0    0 -0.15031149309E+02 -0.65607363378E+01 -0.27344880357E+02  0.31886065806E+02  0.00000000000E+00 0.  1.
         11    1    3    3    0    0 -0.42765364838E+01  0.16219024893E+02  0.22083469529E+01  0.16918106552E+02  0.51100000000E-03 0. -1.
        -11    1    3    3    0    0  0.53342622782E+01 -0.21854380040E+00 -0.53412784778E+01  0.75519117767E+01  0.51100000000E-03 0.  1.
        -12    1    3    3    0    0  0.13973423515E+02 -0.94397447547E+01  0.30477811882E+02  0.34831915865E+02  0.00000000000E+00 0.  1.
</event>
<event>
 7    1  0.1215217E-011  0.5930195E+02  0.7816164E-02  0.1266605E+00
        -11   -1    0    0    0    0  0.00000000000E+00  0.00000000000E+00  0.45593999997E+02  0.45594000000E+02  0.51100000000E-03 0. -1.
         11   -1    0    0    0    0 -0.00000000000E+00 -0.00000000000E+00 -0.45593999997E+02  0.45594000000E+02  0.51100000000E-03 0.  1.
    9900012    2    1    2    0    0 -0.26812604168E+02  0.17256135704E+02  0.17396810889E+00  0.59301949341E+02  0.50000009691E+02 0.  0.
        -12    1    1    2    0    0  0.26812604168E+02 -0.17256135704E+02 -0.17396810889E+00  0.31886050659E+02  0.00000000000E+00 0.  1.
         11    1    3    3    0    0  0.12097759217E+01  0.79585680167E+00 -0.12949097761E+02  0.13029815000E+02  0.51100000000E-03 0. -1.
        -11    1    3    3    0    0 -0.11647152890E+02 -0.59139076035E+01 -0.40283802889E+01  0.13669613075E+02  0.51100000000E-03 0.  1.
         12    1    3    3    0    0 -0.16375227199E+02  0.22374186506E+02  0.17151446159E+02  0.32602521267E+02  0.00000000000E+00 0. -1.
</event>
<event>
 7    1  0.1215217E-011  0.5930194E+02  0.7816164E-02  0.1266605E+00
        -11   -1    0    0    0    0  0.00000000000E+00  0.00000000000E+00  0.45593999997E+02  0.45594000000E+02  0.51100000000E-03 0.  1.
         11   -1    0    0    0    0 -0.00000000000E+00 -0.00000000000E+00 -0.45593999997E+02  0.45594000000E+02  0.51100000000E-03 0. -1.
    9900012    2    1    2    0    0 -0.23232841713E+00  0.40952327198E+01 -0.31621129275E+02  0.59301941540E+02  0.49999995463E+02 0.  0.
        -12    1    1    2    0    0  0.23232841713E+00 -0.40952327198E+01  0.31621129275E+02  0.31886058460E+02  0.00000000000E+00 0.  1.
         11    1    3    3    0    0  0.56158958871E+01  0.44935469923E+01 -0.16252603641E+01  0.73737183768E+01  0.51100000000E-03 0. -1.
        -11    1    3    3    0    0  0.33934529303E+01  0.88184014181E+01  0.76032907914E+01  0.12128056624E+02  0.51100000000E-03 0.  1.
         12    1    3    3    0    0 -0.92416772346E+01 -0.92167156907E+01 -0.37599159702E+02  0.39800166539E+02  0.00000000000E+00 0. -1.
</event>
<event>
 7    1  0.1215217E-011  0.5930195E+02  0.7816164E-02  0.1266605E+00
        -11   -1    0    0    0    0  0.00000000000E+00  0.00000000000E+00  0.45593999997E+02  0.45594000000E+02  0.51100000000E-03 0.  1.
         11   -1    0    0    0    0 -0.00000000000E+00 -0.00000000000E+00 -0.45593999997E+02  0.45594000000E+02  0.51100000000E-03 0. -1.
    9900012    2    1    2    0    0  0.69246271114E+01 -0.12974171823E+02 -0.28292053475E+02  0.59301954699E+02  0.50000019461E+02 0.  0.
        -12    1    1    2    0    0 -0.69246271114E+01  0.12974171823E+02  0.28292053475E+02  0.31886045301E+02  0.00000000000E+00 0.  1.
         11    1    3    3    0    0 -0.61386644836E+01 -0.15486729602E+02 -0.13808169732E+02  0.21637641901E+02  0.51100000000E-03 0. -1.
        -11    1    3    3    0    0 -0.61577278427E+01  0.84195627618E+01  0.31742587218E+01  0.10903328298E+02  0.51100000000E-03 0.  1.
         12    1    3    3    0    0  0.19221019438E+02 -0.59070049819E+01 -0.17658142464E+02  0.26760984499E+02  0.00000000000E+00 0. -1.
</event>
<event>
 7    1  0.1215217E-011  0.5930198E+02  0.7816164E-02  0.1266605E+00
        -11   -1    0    0    0    0  0.00000000000E+00  0.00000000000E+00  0.45593999997E+02  0.45594000000E+02  0.51100000000E-03 0. -1.
         11   -1    0    0    0    0 -0.00000000000E+00 -0.00000000000E+00 -0.45593999997E+02  0.45594000000E+02  0.51100000000E-03 0.  1.
    9900012    2    1    2    0    0  0.21819351034E+02  0.10246005278E+02  0.20872317544E+02  0.59301978872E+02  0.50000063547E+02 0.  0.
        -12    1    1    2    0    0 -0.21819351034E+02 -0.10246005278E+02 -0.20872317544E+02  0.31886021128E+02  0.00000000000E+00 0.  1.
         11    1    3    3    0    0 -0.65688121370E+01  0.34888559644E+01  0.48942605136E+01  0.89036618909E+01  0.51100000000E-03 0. -1.
        -11    1    3    3    0    0 -0.63191960481E+01  0.79447232276E+01 -0.33054201902E+01  0.10675985610E+02  0.51100000000E-03 0.  1.
        -12    1    3    3    0    0  0.34707359220E+02 -0.11875739141E+01  0.19283477221E+02  0.39722331371E+02  0.00000000000E+00 0.  1.
</event>
<event>
 7    1  0.1215217E-011  0.5930192E+02  0.7816164E-02  0.1266605E+00
        -11   -1    0    0    0    0  0.00000000000E+00  0.00000000000E+00  0.45593999997E+02  0.45594000000E+02  0.51100000000E-03 0.  1.
         11   -1    0    0    0    0 -0.00000000000E+00 -0.00000000000E+00 -0.45593999997E+02  0.45594000000E+02  0.51100000000E-03 0. -1.
    9900012    2    1    2    0    0  0.19436334665E+02 -0.24909733941E+02 -0.42960604446E+01  0.59301920192E+02  0.49999956528E+02 0.  0.
        -12    1    1    2    0    0 -0.19436334665E+02  0.24909733941E+02  0.42960604446E+01  0.31886079808E+02  0.00000000000E+00 0.  1.
         11    1    3    3    0    0  0.15859184336E+02  0.43080325168E+01  0.10267385542E+01  0.16465936484E+02  0.51100000000E-03 0. -1.
        -11    1    3    3    0    0 -0.19004153235E+00  0.49145467568E+01 -0.68846259870E+01  0.84609078030E+01  0.51100000000E-03 0.  1.
        -12    1    3    3    0    0  0.37671918608E+01 -0.34132313214E+02  0.15618269883E+01  0.34375075904E+02  0.00000000000E+00 0.  1.
</event>
<event>
 7    1  0.1215217E-011  0.5930192E+02  0.7816164E-02  0.1266605E+00
        -11   -1    0    0    0    0  0.00000000000E+00  0.00000000000E+00  0.45593999997E+02  0.45594000000E+02  0.51100000000E-03 0. -1.
         11   -1    0    0    0    0 -0.00000000000E+00 -0.00000000000E+00 -0.45593999997E+02  0.45594000000E+02  0.51100000000E-03 0.  1.
    9900012    2    1    2    0    0  0.70422613876E+01  0.26103923068E+02  0.16903064208E+02  0.59301924284E+02  0.49999963992E+02 0.  0.
        -12    1    1    2    0    0 -0.70422613876E+01 -0.26103923068E+02 -0.16903064208E+02  0.31886075716E+02  0.00000000000E+00 0.  1.
         11    1    3    3    0    0 -0.96439311413E+01  0.10155545511E+02  0.49127634248E+01  0.14841689837E+02  0.51100000000E-03 0. -1.
        -11    1    3    3    0    0  0.15095589507E+02  0.24809824158E+02 -0.52130464930E+00  0.29046100532E+02  0.51100000000E-03 0.  1.
        -12    1    3    3    0    0  0.15906030218E+01 -0.88614466016E+01  0.12511605432E+02  0.15414133915E+02  0.00000000000E+00 0.  1.
</event>
<event>
 7    1  0.1215217E-011  0.5930192E+02  0.7816164E-02  0.1266605E+00
        -11   -1    0    0    0    0  0.00000000000E+00  0.00000000000E+00  0.45593999997E+02  0.45594000000E+02  0.51100000000E-03 0. -1.
         11   -1    0    0    0    0 -0.00000000000E+00 -0.00000000000E+00 -0.45593999997E+02  0.45594000000E+02  0.51100000000E-03 0.  1.
    9900012    2    1    2    0    0 -0.22165465182E+02  0.17593567815E+02 -0.14692883432E+02  0.59301916848E+02  0.49999950432E+02 0.  0.
        -12    1    1    2    0    0  0.22165465182E+02 -0.17593567815E+02  0.14692883432E+02  0.31886083152E+02  0.00000000000E+00 0.  1.
         11    1    3    3    0    0 -0.84327369751E+01  0.66765339329E+01  0.81955383626E-02  0.10755799630E+02  0.51100000000E-03 0. -1.
        -11    1    3    3    0    0 -0.12680826998E+02  0.44745712659E+01 -0.29473233340E+02  0.32395935627E+02  0.51100000000E-03 0.  1.
         12    1    3    3    0    0 -0.10519012092E+01  0.64424626160E+01  0.14772154370E+02  0.16150181592E+02  0.00000000000E+00 0. -1.
</event>
<event>
 7    1  0.1215217E-011  0.5930194E+02  0.7816164E-02  0.1266605E+00
        -11   -1    0    0    0    0  0.00000000000E+00  0.00000000000E+00  0.45593999997E+02  0.45594000000E+02  0.51100000000E-03 0. -1.
         11   -1    0    0    0    0 -0.00000000000E+00 -0.00000000000E+00 -0.45593999997E+02  0.45594000000E+02  0.51100000000E-03 0.  1.
    9900012    2    1    2    0    0 -0.28952492732E+02  0.61192008021E+01  0.11875575007E+02  0.59301941360E+02  0.49999995135E+02 0.  0.
        -12    1    1    2    0    0  0.28952492732E+02 -0.61192008021E+01 -0.11875575007E+02  0.31886058640E+02  0.00000000000E+00 0.  1.
         11    1    3    3    0    0 -0.12028588157E+02  0.81852221122E+01  0.34643016892E+01  0.14956141900E+02  0.51100000000E-03 0. -1.
        -11    1    3    3    0    0 -0.96077636585E+01 -0.40652212015E+01  0.24461825251E+02  0.26593533816E+02  0.51100000000E-03 0.  1.
        -12    1    3    3    0    0 -0.73161409164E+01  0.19991998913E+01 -0.16050551934E+02  0.17752265644E+02  0.00000000000E+00 0.  1.
</event>
<event>
 7    1  0.1215217E-011  0.5930194E+02  0.7816164E-02  0.1266605E+00
        -11   -1    0    0    0    0  0.00000000000E+00  0.00000000000E+00  0.45593999997E+02  0.45594000000E+02  0.51100000000E-03 0.  1.
         11   -1    0    0    0    0 -0.00000000000E+00 -0.00000000000E+00 -0.45593999997E+02  0.45594000000E+02  0.51100000000E-03 0. -1.
    9900012    2    1    2    0    0 -0.17968102558E+02 -0.14337520168E+02 -0.22097593201E+02  0.59301940046E+02  0.49999992738E+02 0.  0.
        -12    1    1    2    0    0  0.17968102558E+02  0.14337520168E+02  0.22097593201E+02  0.31886059954E+02  0.00000000000E+00 0.  1.
         11    1    3    3    0    0 -0.15146537319E+02 -0.88717853256E+01 -0.10920850694E+02  0.20673440637E+02  0.51100000000E-03 0. -1.
        -11    1    3    3    0    0 -0.20303486861E+01 -0.20020245956E+02  0.22283589623E+00  0.20124170046E+02  0.51100000000E-03 0.  1.
        -12    1    3    3    0    0 -0.79121655265E+00  0.14554511114E+02 -0.11399578404E+02  0.18504329363E+02  0.00000000000E+00 0.  1.
</event>
<event>
 7    1  0.1215217E-011  0.5930167E+02  0.7816164E-02  0.1266606E+00
        -11   -1    0    0    0    0  0.00000000000E+00  0.00000000000E+00  0.45593999997E+02  0.45594000000E+02  0.51100000000E-03 0.  1.
         11   -1    0    0    0    0 -0.00000000000E+00 -0.00000000000E+00 -0.45593999997E+02  0.45594000000E+02  0.51100000000E-03 0. -1.
    9900012    2    1    2    0    0 -0.17078881125E+02 -0.23299484373E+02 -0.13497549973E+02  0.59301670519E+02  0.49999501183E+02 0.  0.
        -12    1    1    2    0    0  0.17078881125E+02  0.23299484373E+02  0.13497549973E+02  0.31886329481E+02  0.00000000000E+00 0.  1.
         11    1    3    3    0    0 -0.29826469886E+02 -0.10410020347E+02 -0.61539068324E+01  0.32184738605E+02  0.51100000000E-03 0. -1.
        -11    1    3    3    0    0 -0.47002861314E+01 -0.52145452127E+01 -0.24740041709E+01  0.74434446589E+01  0.51100000000E-03 0.  1.
        -12    1    3    3    0    0  0.17447874893E+02 -0.76749188136E+01 -0.48696389695E+01  0.19673487255E+02  0.00000000000E+00 0.  1.
</event>
<event>
 7    1  0.1215217E-011  0.5930194E+02  0.7816164E-02  0.1266605E+00
        -11   -1    0    0    0    0  0.00000000000E+00  0.00000000000E+00  0.45593999997E+02  0.45594000000E+02  0.51100000000E-03 0.  1.
         11   -1    0    0    0    0 -0.00000000000E+00 -0.00000000000E+00 -0.45593999997E+02  0.45594000000E+02  0.51100000000E-03 0. -1.
    9900012    2    1    2    0    0  0.17183169361E+02 -0.14365745800E+02 -0.22695483160E+02  0.59301938507E+02  0.49999989931E+02 0.  0.
        -12    1    1    2    0    0 -0.17183169361E+02  0.14365745800E+02  0.22695483160E+02  0.31886061493E+02  0.00000000000E+00 0.  1.
         11    1    3    3    0    0 -0.43624045967E+01  0.61963237794E+01  0.39904054992E+01  0.85643644571E+01  0.51100000000E-03 0.  1.
        -11    1    3    3    0    0  0.77847147225E+01 -0.87934985039E+01 -0.30101410886E+02  0.32311334495E+02  0.51100000000E-03 0. -1.
         12    1    3    3    0    0  0.13760859235E+02 -0.11768571076E+02  0.34155222266E+01  0.18426239555E+02  0.00000000000E+00 0. -1.
</event>
<event>
 7    1  0.1215217E-011  0.5930192E+02  0.7816164E-02  0.1266605E+00
        -11   -1    0    0    0    0  0.00000000000E+00  0.00000000000E+00  0.45593999997E+02  0.45594000000E+02  0.51100000000E-03 0.  1.
         11   -1    0    0    0    0 -0.00000000000E+00 -0.00000000000E+00 -0.45593999997E+02  0.45594000000E+02  0.51100000000E-03 0. -1.
    9900012    2    1    2    0    0 -0.18531428087E+02  0.19647446742E+02 -0.16949511674E+02  0.59301922530E+02  0.49999960794E+02 0.  0.
        -12    1    1    2    0    0  0.18531428087E+02 -0.19647446742E+02  0.16949511674E+02  0.31886077470E+02  0.00000000000E+00 0.  1.
         11    1    3    3    0    0  0.83471569335E+01 -0.15130233144E+01 -0.10432191885E+02  0.13445999264E+02  0.51100000000E-03 0. -1.
        -11    1    3    3    0    0  0.37436372662E+00  0.36634038942E+01  0.91616078942E+01  0.98739928985E+01  0.51100000000E-03 0.  1.
         12    1    3    3    0    0 -0.27252948747E+02  0.17497066162E+02 -0.15678927683E+02  0.35981930368E+02  0.00000000000E+00 0. -1.
</event>
<event>
 7    1  0.1215217E-011  0.5930213E+02  0.7816164E-02  0.1266604E+00
        -11   -1    0    0    0    0  0.00000000000E+00  0.00000000000E+00  0.45593999997E+02  0.45594000000E+02  0.51100000000E-03 0.  1.
         11   -1    0    0    0    0 -0.00000000000E+00 -0.00000000000E+00 -0.45593999997E+02  0.45594000000E+02  0.51100000000E-03 0. -1.
    9900012    2    1    2    0    0 -0.65949973579E+01  0.15566499511E+02 -0.27035137869E+02  0.59302132021E+02  0.50000342854E+02 0.  0.
        -12    1    1    2    0    0  0.65949973579E+01 -0.15566499511E+02  0.27035137869E+02  0.31885867979E+02  0.00000000000E+00 0.  1.
         11    1    3    3    0    0 -0.14073020104E+02 -0.11905876075E+02 -0.15612904065E+02  0.24157039421E+02  0.51100000000E-03 0. -1.
        -11    1    3    3    0    0 -0.24422167061E+01 -0.12628811336E+01 -0.26224448985E+00  0.27618949348E+01  0.51100000000E-03 0.  1.
         12    1    3    3    0    0  0.99202394525E+01  0.28735256720E+02 -0.11159989313E+02  0.32383197665E+02  0.00000000000E+00 0. -1.
</event>
<event>
 7    1  0.1215217E-011  0.5930195E+02  0.7816164E-02  0.1266605E+00
        -11   -1    0    0    0    0  0.00000000000E+00  0.00000000000E+00  0.45593999997E+02  0.45594000000E+02  0.51100000000E-03 0.  1.
         11   -1    0    0    0    0 -0.00000000000E+00 -0.00000000000E+00 -0.45593999997E+02  0.45594000000E+02  0.51100000000E-03 0. -1.
    9900012    2    1    2    0    0 -0.72088789962E+01  0.17419662383E+02 -0.25715906639E+02  0.59301946181E+02  0.50000003926E+02 0.  0.
        -12    1    1    2    0    0  0.72088789962E+01 -0.17419662383E+02  0.25715906639E+02  0.31886053819E+02  0.00000000000E+00 0.  1.
         11    1    3    3    0    0  0.36771100472E-01 -0.35491994116E+01 -0.10314006506E+02  0.10907653232E+02  0.51100000000E-03 0. -1.
        -11    1    3    3    0    0  0.18957929124E+01 -0.71178753391E+01 -0.17293447396E+02  0.18796848225E+02  0.51100000000E-03 0.  1.
        -12    1    3    3    0    0 -0.91414430091E+01  0.28086737134E+02  0.18915472625E+01  0.29597444723E+02  0.00000000000E+00 0.  1.
</event>
<event>
 7    1  0.1215217E-011  0.5930195E+02  0.7816164E-02  0.1266605E+00
        -11   -1    0    0    0    0  0.00000000000E+00  0.00000000000E+00  0.45593999997E+02  0.45594000000E+02  0.51100000000E-03 0.  1.
         11   -1    0    0    0    0 -0.00000000000E+00 -0.00000000000E+00 -0.45593999997E+02  0.45594000000E+02  0.51100000000E-03 0. -1.
    9900012    2    1    2    0    0  0.40328734987E+01 -0.31621672027E+02  0.72533237062E+00  0.59301947916E+02  0.50000007091E+02 0.  0.
        -12    1    1    2    0    0 -0.40328734987E+01  0.31621672027E+02 -0.72533237062E+00  0.31886052084E+02  0.00000000000E+00 0.  1.
         11    1    3    3    0    0 -0.73238054713E+01 -0.31975739600E+01  0.72015360706E+01  0.10757542835E+02  0.51100000000E-03 0. -1.
        -11    1    3    3    0    0 -0.12854722125E+02 -0.84097505037E+01  0.31678668412E+01  0.15684488039E+02  0.51100000000E-03 0.  1.
        -12    1    3    3    0    0  0.24211401095E+02 -0.20014347564E+02 -0.96440705411E+01  0.32859917042E+02  0.00000000000E+00 0.  1.
</event>
<event>
 7    1  0.1215217E-011  0.5930198E+02  0.7816164E-02  0.1266605E+00
        -11   -1    0    0    0    0  0.00000000000E+00  0.00000000000E+00  0.45593999997E+02  0.45594000000E+02  0.51100000000E-03 0. -1.
         11   -1    0    0    0    0 -0.00000000000E+00 -0.00000000000E+00 -0.45593999997E+02  0.45594000000E+02  0.51100000000E-03 0.  1.
    9900012    2    1    2    0    0 -0.52666995089E+01 -0.31253467351E+02 -0.34929390368E+01  0.59301984754E+02  0.50000074275E+02 0.  0.
        -12    1    1    2    0    0  0.52666995089E+01  0.31253467351E+02  0.34929390368E+01  0.31886015246E+02  0.00000000000E+00 0.  1.
         11    1    3    3    0    0  0.75965572898E+01 -0.79394608593E+01 -0.14269379043E+02  0.18009938920E+02  0.51100000000E-03 0. -1.
        -11    1    3    3    0    0  0.40998118566E+01 -0.21455240414E+01 -0.73366823574E+01  0.86740209215E+01  0.51100000000E-03 0.  1.
         12    1    3    3    0    0 -0.16963068655E+02 -0.21168482450E+02  0.18113122363E+02  0.32618024912E+02  0.00000000000E+00 0. -1.
</event>
<event>
 7    1  0.1215217E-011  0.5930194E+02  0.7816164E-02  0.1266605E+00
        -11   -1    0    0    0    0  0.00000000000E+00  0.00000000000E+00  0.45593999997E+02  0.45594000000E+02  0.51100000000E-03 0. -1.
         11   -1    0    0    0    0 -0.00000000000E+00 -0.00000000000E+00 -0.45593999997E+02  0.45594000000E+02  0.51100000000E-03 0.  1.
    9900012    2    1    2    0    0 -0.29781292529E+01  0.15966005287E+02  0.27439721393E+02  0.59301938958E+02  0.49999990754E+02 0.  0.
        -12    1    1    2    0    0  0.29781292529E+01 -0.15966005287E+02 -0.27439721393E+02  0.31886061042E+02  0.00000000000E+00 0.  1.
         11    1    3    3    0    0 -0.13964087735E+02 -0.39050111129E+00  0.92342438749E+01  0.16745730727E+02  0.51100000000E-03 0.  1.
        -11    1    3    3    0    0  0.15989330722E+02  0.28427325869E+01  0.22289599425E+02  0.27578362320E+02  0.51100000000E-03 0. -1.
         12    1    3    3    0    0 -0.50033722393E+01  0.13513773811E+02 -0.40841219066E+01  0.14977845911E+02  0.00000000000E+00 0. -1.
</event>
<event>
 7    1  0.1215217E-011  0.5930195E+02  0.7816164E-02  0.1266605E+00
        -11   -1    0    0    0    0  0.00000000000E+00  0.00000000000E+00  0.45593999997E+02  0.45594000000E+02  0.51100000000E-03 0.  1.
         11   -1    0    0    0    0 -0.00000000000E+00 -0.00000000000E+00 -0.45593999997E+02  0.45594000000E+02  0.51100000000E-03 0. -1.
    9900012    2    1    2    0    0  0.15304084028E+02 -0.24739349337E+02 -0.13056412897E+02  0.59301948013E+02  0.50000007269E+02 0.  0.
        -12    1    1    2    0    0 -0.15304084028E+02  0.24739349337E+02  0.13056412897E+02  0.31886051987E+02  0.00000000000E+00 0.  1.
         11    1    3    3    0    0  0.24977927660E+02 -0.10201322718E+02  0.96600907752E+01  0.28658004282E+02  0.51100000000E-03 0.  1.
        -11    1    3    3    0    0  0.78257563162E+00 -0.75800759883E+01 -0.58098944654E+01  0.95825284016E+01  0.51100000000E-03 0. -1.
        -12    1    3    3    0    0 -0.10456419264E+02 -0.69579506311E+01 -0.16906609207E+02  0.21061415329E+02  0.00000000000E+00 0.  1.
</event>
<event>
 7    1  0.1215217E-011  0.5930199E+02  0.7816164E-02  0.1266605E+00
        -11   -1    0    0    0    0  0.00000000000E+00  0.00000000000E+00  0.45593999997E+02  0.45594000000E+02  0.51100000000E-03 0.  1.
         11   -1    0    0    0    0 -0.00000000000E+00 -0.00000000000E+00 -0.45593999997E+02  0.45594000000E+02  0.51100000000E-03 0. -1.
    9900012    2    1    2    0    0  0.19133551603E+02  0.16780388877E+02 -0.19210503666E+02  0.59301988978E+02  0.50000081979E+02 0.  0.
        -12    1    1    2    0    0 -0.19133551603E+02 -0.16780388877E+02  0.19210503666E+02  0.31886011022E+02  0.00000000000E+00 0.  1.
         11    1    3    3    0    0  0.14542889991E+02  0.24867064677E+01 -0.29918863121E+02  0.33358922780E+02  0.51100000000E-03 0. -1.
        -11    1    3    3    0    0  0.41580712028E+01 -0.35020921680E+01  0.59264951532E+00  0.54685865989E+01  0.51100000000E-03 0.  1.
        -12    1    3    3    0    0  0.43259040962E+00  0.17795774577E+02  0.10115709940E+02  0.20474479599E+02  0.00000000000E+00 0.  1.
</event>
<event>
 7    1  0.1215217E-011  0.5930190E+02  0.7816164E-02  0.1266605E+00
        -11   -1    0    0    0    0  0.00000000000E+00  0.00000000000E+00  0.45593999997E+02  0.45594000000E+02  0.51100000000E-03 0.  1.
         11   -1    0    0    0    0 -0.00000000000E+00 -0.00000000000E+00 -0.45593999997E+02  0.45594000000E+02  0.51100000000E-03 0. -1.
    9900012    2    1    2    0    0 -0.33468069439E+00 -0.25386550947E+02 -0.19290777530E+02  0.59301904631E+02  0.49999928150E+02 0.  0.
        -12    1    1    2    0    0  0.33468069439E+00  0.25386550947E+02  0.19290777530E+02  0.31886095369E+02  0.00000000000E+00 0.  1.
         11    1    3    3    0    0 -0.46690585360E+01 -0.45593696074E+01 -0.13738149437E+02  0.15209362546E+02  0.51100000000E-03 0. -1.
        -11    1    3    3    0    0 -0.14745869272E+02 -0.32693201121E+00 -0.63904468353E+01  0.16074369541E+02  0.51100000000E-03 0.  1.
         12    1    3    3    0    0  0.19080247114E+02 -0.20500249329E+02  0.83781874241E+00  0.28018172544E+02  0.00000000000E+00 0. -1.
</event>
<event>
 7    1  0.1215217E-011  0.5930195E+02  0.7816164E-02  0.1266605E+00
        -11   -1    0    0    0    0  0.00000000000E+00  0.00000000000E+00  0.45593999997E+02  0.45594000000E+02  0.51100000000E-03 0.  1.
         11   -1    0    0    0    0 -0.00000000000E+00 -0.00000000000E+00 -0.45593999997E+02  0.45594000000E+02  0.51100000000E-03 0. -1.
    9900012    2    1    2    0    0  0.14852062022E+02  0.12259719989E+02 -0.25413302649E+02  0.59301946120E+02  0.50000003816E+02 0.  0.
        -12    1    1    2    0    0 -0.14852062022E+02 -0.12259719989E+02  0.25413302649E+02  0.31886053880E+02  0.00000000000E+00 0.  1.
         11    1    3    3    0    0  0.14270829293E+01  0.17317518292E+02 -0.24691369525E+02  0.30192660280E+02  0.51100000000E-03 0. -1.
        -11    1    3    3    0    0  0.60265754808E+00 -0.91695467816E+01 -0.93555458649E+01  0.13113734136E+02  0.51100000000E-03 0.  1.
         12    1    3    3    0    0  0.12822321545E+02  0.41117484782E+01  0.86336127414E+01  0.15995551704E+02  0.00000000000E+00 0. -1.
</event>
<event>
 7    1  0.1215217E-011  0.5930197E+02  0.7816164E-02  0.1266605E+00
        -11   -1    0    0    0    0  0.00000000000E+00  0.00000000000E+00  0.45593999997E+02  0.45594000000E+02  0.51100000000E-03 0.  1.
         11   -1    0    0    0    0 -0.00000000000E+00 -0.00000000000E+00 -0.45593999997E+02  0.45594000000E+02  0.51100000000E-03 0. -1.
    9900012    2    1    2    0    0  0.43632117349E+00  0.20884601369E+02 -0.24090697786E+02  0.59301973745E+02  0.50000054197E+02 0.  0.
        -12    1    1    2    0    0 -0.43632117349E+00 -0.20884601369E+02  0.24090697786E+02  0.31886026255E+02  0.00000000000E+00 0.  1.
         11    1    3    3    0    0 -0.22199515556E+01 -0.76421608655E+01 -0.12507139877E+02  0.14824282639E+02  0.51100000000E-03 0. -1.
        -11    1    3    3    0    0 -0.39730416910E+01  0.24876545245E+01  0.93213365852E+01  0.10433637971E+02  0.51100000000E-03 0.  1.
         12    1    3    3    0    0  0.66293144200E+01  0.26039107711E+02 -0.20904894494E+02  0.34044053135E+02  0.00000000000E+00 0. -1.
</event>
<event>
 7    1  0.1215217E-011  0.5930194E+02  0.7816164E-02  0.1266605E+00
        -11   -1    0    0    0    0  0.00000000000E+00  0.00000000000E+00  0.45593999997E+02  0.45594000000E+02  0.51100000000E-03 0. -1.
         11   -1    0    0    0    0 -0.00000000000E+00 -0.00000000000E+00 -0.45593999997E+02  0.45594000000E+02  0.51100000000E-03 0.  1.
    9900012    2    1    2    0    0  0.14235278421E+02 -0.12975134504E+02  0.25411088038E+02  0.59301942508E+02  0.49999997228E+02 0.  0.
        -12    1    1    2    0    0 -0.14235278421E+02  0.12975134504E+02 -0.25411088038E+02  0.31886057492E+02  0.00000000000E+00 0.  1.
         11    1    3    3    0    0  0.21586002847E+02 -0.20749424036E+01  0.99595330660E+01  0.23863218644E+02  0.51100000000E-03 0. -1.
        -11    1    3    3    0    0  0.10775200029E+02 -0.68963591503E+01  0.95356086444E+01  0.15955956182E+02  0.51100000000E-03 0.  1.
         12    1    3    3    0    0 -0.18125924454E+02 -0.40038329504E+01  0.59159463276E+01  0.19482767683E+02  0.00000000000E+00 0. -1.
</event>
<event>
 7    1  0.1215217E-011  0.5930196E+02  0.7816164E-02  0.1266605E+00
        -11   -1    0    0    0    0  0.00000000000E+00  0.00000000000E+00  0.45593999997E+02  0.45594000000E+02  0.51100000000E-03 0. -1.
         11   -1    0    0    0    0 -0.00000000000E+00 -0.00000000000E+00 -0.45593999997E+02  0.45594000000E+02  0.51100000000E-03 0.  1.
    9900012    2    1    2    0    0 -0.25686316898E+02 -0.79632863215E+01  0.17132393434E+02  0.59301957448E+02  0.50000024476E+02 0.  0.
        -12    1    1    2    0    0  0.25686316898E+02  0.79632863215E+01 -0.17132393434E+02  0.31886042552E+02  0.00000000000E+00 0.  1.
         11    1    3    3    0    0 -0.80339740755E+00  0.14314732899E+01  0.10348934111E+02  0.10478310965E+02  0.51100000000E-03 0. -1.
        -11    1    3    3    0    0  0.33074290792E+01  0.10578989960E+02  0.88923745679E+01  0.14210152758E+02  0.51100000000E-03 0.  1.
        -12    1    3    3    0    0 -0.28190348570E+02 -0.19973749571E+02 -0.21089152448E+01  0.34613493726E+02  0.00000000000E+00 0.  1.
</event>
<event>
 7    1  0.1215217E-011  0.5930192E+02  0.7816164E-02  0.1266605E+00
        -11   -1    0    0    0    0  0.00000000000E+00  0.00000000000E+00  0.45593999997E+02  0.45594000000E+02  0.51100000000E-03 0.  1.
         11   -1    0    0    0    0 -0.00000000000E+00 -0.00000000000E+00 -0.45593999997E+02  0.45594000000E+02  0.51100000000E-03 0. -1.
    9900012    2    1    2    0    0  0.59462864524E+01  0.15277582718E+02 -0.27348844190E+02  0.59301919419E+02  0.49999955119E+02 0.  0.
        -12    1    1    2    0    0 -0.59462864524E+01 -0.15277582718E+02  0.27348844190E+02  0.31886080581E+02  0.00000000000E+00 0.  1.
         11    1    3    3    0    0  0.99211311857E+01  0.59610102518E+01 -0.21472075215E+02  0.24392878091E+02  0.51100000000E-03 0. -1.
        -11    1    3    3    0    0 -0.61876212245E+01  0.14620037768E+02 -0.16458678345E+02  0.22867449659E+02  0.51100000000E-03 0.  1.
        -12    1    3    3    0    0  0.22127764912E+01 -0.53034653018E+01  0.10581909371E+02  0.12041591670E+02  0.00000000000E+00 0.  1.
</event>
<event>
 7    1  0.1215217E-011  0.5930196E+02  0.7816164E-02  0.1266605E+00
        -11   -1    0    0    0    0  0.00000000000E+00  0.00000000000E+00  0.45593999997E+02  0.45594000000E+02  0.51100000000E-03 0.  1.
         11   -1    0    0    0    0 -0.00000000000E+00 -0.00000000000E+00 -0.45593999997E+02  0.45594000000E+02  0.51100000000E-03 0. -1.
    9900012    2    1    2    0    0 -0.30439304560E+02  0.72526767578E+01 -0.61291755731E+01  0.59301962689E+02  0.50000034033E+02 0.  0.
        -12    1    1    2    0    0  0.30439304560E+02 -0.72526767578E+01  0.61291755731E+01  0.31886037311E+02  0.00000000000E+00 0.  1.
         11    1    3    3    0    0  0.29920619653E+01  0.53164036754E+01 -0.95453853322E-01  0.61012863024E+01  0.51100000000E-03 0. -1.
        -11    1    3    3    0    0 -0.17923296266E+01  0.12589123514E+02  0.99891194940E+01  0.16170373677E+02  0.51100000000E-03 0.  1.
         12    1    3    3    0    0 -0.31639036898E+02 -0.10652850431E+02 -0.16022841214E+02  0.37030302709E+02  0.00000000000E+00 0. -1.
</event>
<event>
 7    1  0.1358743E-011  0.5930194E+02  0.7816164E-02  0.1266605E+00
        -11   -1    0    0    0    0  0.00000000000E+00  0.00000000000E+00  0.45593999997E+02  0.45594000000E+02  0.51100000000E-03 0.  1.
         11   -1    0    0    0    0 -0.00000000000E+00 -0.00000000000E+00 -0.45593999997E+02  0.45594000000E+02  0.51100000000E-03 0. -1.
    9900012    2    1    2    0    0 -0.79161247119E+01  0.30696945007E+02 -0.34283627928E+01  0.59301935102E+02  0.49999983722E+02 0.  0.
        -12    1    1    2    0    0  0.79161247119E+01 -0.30696945007E+02  0.34283627928E+01  0.31886064898E+02  0.00000000000E+00 0.  1.
         11    1    3    3    0    0 -0.13446566132E+02  0.26461190291E+01 -0.70158972081E+01  0.15395937794E+02  0.51100000000E-03 0. -1.
        -11    1    3    3    0    0  0.11985220764E+02 -0.12928592392E+01 -0.43740880203E+01  0.12823792265E+02  0.51100000000E-03 0.  1.
         12    1    3    3    0    0 -0.64547793440E+01  0.29343685217E+02  0.79616224356E+01  0.31082205043E+02  0.00000000000E+00 0. -1.
</event>
<event>
 7    1  0.1215217E-011  0.5930196E+02  0.7816164E-02  0.1266605E+00
        -11   -1    0    0    0    0  0.00000000000E+00  0.00000000000E+00  0.45593999997E+02  0.45594000000E+02  0.51100000000E-03 0.  1.
         11   -1    0    0    0    0 -0.00000000000E+00 -0.00000000000E+00 -0.45593999997E+02  0.45594000000E+02  0.51100000000E-03 0. -1.
    9900012    2    1    2    0    0  0.28286771799E+02 -0.24229308001E+01 -0.14515774960E+02  0.59301956420E+02  0.50000022601E+02 0.  0.
        -12    1    1    2    0    0 -0.28286771799E+02  0.24229308001E+01  0.14515774960E+02  0.31886043580E+02  0.00000000000E+00 0.  1.
         11    1    3    3    0    0 -0.12315102359E+02 -0.11258041466E+00 -0.89184081336E+01  0.15205670796E+02  0.51100000000E-03 0. -1.
        -11    1    3    3    0    0  0.24911517018E+01 -0.40694319196E+01  0.20380596335E+01  0.51884294618E+01  0.51100000000E-03 0.  1.
        -12    1    3    3    0    0  0.38110722456E+02  0.17590815342E+01 -0.76354264604E+01  0.38907856163E+02  0.00000000000E+00 0.  1.
</event>
<event>
 7    1  0.1215217E-011  0.5930195E+02  0.7816164E-02  0.1266605E+00
        -11   -1    0    0    0    0  0.00000000000E+00  0.00000000000E+00  0.45593999997E+02  0.45594000000E+02  0.51100000000E-03 0. -1.
         11   -1    0    0    0    0 -0.00000000000E+00 -0.00000000000E+00 -0.45593999997E+02  0.45594000000E+02  0.51100000000E-03 0.  1.
    9900012    2    1    2    0    0 -0.87807127210E+01  0.27747141519E+02 -0.13027477478E+02  0.59301953713E+02  0.50000017664E+02 0.  0.
        -12    1    1    2    0    0  0.87807127210E+01 -0.27747141519E+02  0.13027477478E+02  0.31886046287E+02  0.00000000000E+00 0.  1.
         11    1    3    3    0    0  0.86532257023E+01 -0.51596915438E+01 -0.58875259362E+01  0.11668919993E+02  0.51100000000E-03 0. -1.
        -11    1    3    3    0    0  0.47343463160E+00 -0.40853835314E+01  0.32494982879E+01  0.52415396911E+01  0.51100000000E-03 0.  1.
        -12    1    3    3    0    0 -0.17907373055E+02  0.36992216594E+02 -0.10389449830E+02  0.42391494030E+02  0.00000000000E+00 0.  1.
</event>
<event>
 7    1  0.1215217E-011  0.5930194E+02  0.7816164E-02  0.1266605E+00
        -11   -1    0    0    0    0  0.00000000000E+00  0.00000000000E+00  0.45593999997E+02  0.45594000000E+02  0.51100000000E-03 0.  1.
         11   -1    0    0    0    0 -0.00000000000E+00 -0.00000000000E+00 -0.45593999997E+02  0.45594000000E+02  0.51100000000E-03 0. -1.
    9900012    2    1    2    0    0 -0.10693041857E+02  0.23124631414E+02 -0.19173703007E+02  0.59301943342E+02  0.49999998749E+02 0.  0.
        -12    1    1    2    0    0  0.10693041857E+02 -0.23124631414E+02  0.19173703007E+02  0.31886056658E+02  0.00000000000E+00 0.  1.
         11    1    3    3    0    0  0.28208355775E+01  0.40205807677E+01 -0.99922937787E+01  0.11134097102E+02  0.51100000000E-03 0. -1.
        -11    1    3    3    0    0  0.45417948384E+01  0.26699097048E+02 -0.91285548900E+01  0.28579716552E+02  0.51100000000E-03 0.  1.
        -12    1    3    3    0    0 -0.18055672273E+02 -0.75950464013E+01 -0.52854338717E-01  0.19588129688E+02  0.00000000000E+00 0.  1.
</event>
<event>
 7    1  0.1215217E-011  0.5930173E+02  0.7816164E-02  0.1266606E+00
        -11   -1    0    0    0    0  0.00000000000E+00  0.00000000000E+00  0.45593999997E+02  0.45594000000E+02  0.51100000000E-03 0. -1.
         11   -1    0    0    0    0 -0.00000000000E+00 -0.00000000000E+00 -0.45593999997E+02  0.45594000000E+02  0.51100000000E-03 0.  1.
    9900012    2    1    2    0    0 -0.26535190982E+02  0.12515230583E+01  0.17636653503E+02  0.59301729958E+02  0.49999609587E+02 0.  0.
        -12    1    1    2    0    0  0.26535190982E+02 -0.12515230583E+01 -0.17636653503E+02  0.31886270042E+02  0.00000000000E+00 0.  1.
         11    1    3    3    0    0 -0.31502372886E+02  0.23559840705E+01  0.18171890568E+02  0.36444036076E+02  0.51100000000E-03 0. -1.
        -11    1    3    3    0    0 -0.80990854151E+01  0.31971797457E-01 -0.43568794573E+01  0.91966627438E+01  0.51100000000E-03 0.  1.
         12    1    3    3    0    0  0.13066267320E+02 -0.11364328097E+01  0.38216423921E+01  0.13661031139E+02  0.00000000000E+00 0. -1.
</event>
<event>
 7    1  0.1215217E-011  0.5930193E+02  0.7816164E-02  0.1266605E+00
        -11   -1    0    0    0    0  0.00000000000E+00  0.00000000000E+00  0.45593999997E+02  0.45594000000E+02  0.51100000000E-03 0.  1.
         11   -1    0    0    0    0 -0.00000000000E+00 -0.00000000000E+00 -0.45593999997E+02  0.45594000000E+02  0.51100000000E-03 0. -1.
    9900012    2    1    2    0    0  0.24420907823E+02  0.11311160009E+01  0.20470980298E+02  0.59301934130E+02  0.49999981949E+02 0.  0.
        -12    1    1    2    0    0 -0.24420907823E+02 -0.11311160009E+01 -0.20470980298E+02  0.31886065870E+02  0.00000000000E+00 0.  1.
         11    1    3    3    0    0  0.89119418833E+01  0.13152247854E+02  0.37781057242E+01  0.16330291329E+02  0.51100000000E-03 0. -1.
        -11    1    3    3    0    0 -0.80377418132E+01  0.48482366573E+01 -0.29567066460E+00  0.93913850705E+01  0.51100000000E-03 0.  1.
        -12    1    3    3    0    0  0.23546707753E+02 -0.16869368511E+02  0.16988545239E+02  0.33580257731E+02  0.00000000000E+00 0.  1.
</event>
<event>
 7    1  0.1215217E-011  0.5930194E+02  0.7816164E-02  0.1266605E+00
        -11   -1    0    0    0    0  0.00000000000E+00  0.00000000000E+00  0.45593999997E+02  0.45594000000E+02  0.51100000000E-03 0.  1.
         11   -1    0    0    0    0 -0.00000000000E+00 -0.00000000000E+00 -0.45593999997E+02  0.45594000000E+02  0.51100000000E-03 0. -1.
    9900012    2    1    2    0    0  0.25796299790E+02  0.15984055090E+02 -0.97868259351E+01  0.59301936244E+02  0.49999985804E+02 0.  0.
        -12    1    1    2    0    0 -0.25796299790E+02 -0.15984055090E+02  0.97868259351E+01  0.31886063756E+02  0.00000000000E+00 0.  1.
         11    1    3    3    0    0  0.57466804949E+01 -0.42847601367E+01 -0.90895951279E+01  0.11576020300E+02  0.51100000000E-03 0. -1.
        -11    1    3    3    0    0  0.94282659516E+01 -0.65601546426E+01 -0.12114799044E+02  0.16694196115E+02  0.51100000000E-03 0.  1.
        -12    1    3    3    0    0  0.10621353343E+02  0.26828969869E+02  0.11417568237E+02  0.31031719829E+02  0.00000000000E+00 0.  1.
</event>
<event>
 7    1  0.1215217E-011  0.5930189E+02  0.7816164E-02  0.1266605E+00
        -11   -1    0    0    0    0  0.00000000000E+00  0.00000000000E+00  0.45593999997E+02  0.45594000000E+02  0.51100000000E-03 0. -1.
         11   -1    0    0    0    0 -0.00000000000E+00 -0.00000000000E+00 -0.45593999997E+02  0.45594000000E+02  0.51100000000E-03 0.  1.
    9900012    2    1    2    0    0 -0.66217293954E+01  0.31190061544E+02 -0.23800168834E+00  0.59301891989E+02  0.49999905094E+02 0.  0.
        -12    1    1    2    0    0  0.66217293954E+01 -0.31190061544E+02  0.23800168834E+00  0.31886108011E+02  0.00000000000E+00 0.  1.
         11    1    3    3    0    0 -0.16476383813E+02  0.15381441021E+02  0.17705758666E+02  0.28662760538E+02  0.51100000000E-03 0. -1.
        -11    1    3    3    0    0  0.79813623899E+01  0.57786958331E+01  0.16339552839E+00  0.98550580662E+01  0.51100000000E-03 0.  1.
        -12    1    3    3    0    0  0.18732920276E+01  0.10029924690E+02 -0.18107155883E+02  0.20784073385E+02  0.00000000000E+00 0.  1.
</event>
<event>
 7    1  0.1215217E-011  0.5930195E+02  0.7816164E-02  0.1266605E+00
        -11   -1    0    0    0    0  0.00000000000E+00  0.00000000000E+00  0.45593999997E+02  0.45594000000E+02  0.51100000000E-03 0.  1.
         11   -1    0    0    0    0 -0.00000000000E+00 -0.00000000000E+00 -0.45593999997E+02  0.45594000000E+02  0.51100000000E-03 0. -1.
    9900012    2    1    2    0    0 -0.27641742496E+02  0.12737096455E+02 -0.95089843485E+01  0.59301947600E+02  0.50000006515E+02 0.  0.
        -12    1    1    2    0    0  0.27641742496E+02 -0.12737096455E+02  0.95089843485E+01  0.31886052400E+02  0.00000000000E+00 0.  1.
         11    1    3    3    0    0 -0.26151189835E+02  0.19706557068E+02 -0.11933252302E+02  0.34851623090E+02  0.51100000000E-03 0. -1.
        -11    1    3    3    0    0 -0.10579020019E+02 -0.13310629543E+01  0.70658589251E+01  0.12791159281E+02  0.51100000000E-03 0.  1.
        -12    1    3    3    0    0  0.90884673581E+01 -0.56383976586E+01 -0.46415909720E+01  0.11659165229E+02  0.00000000000E+00 0.  1.
</event>
<event>
 7    1  0.1215217E-011  0.5930193E+02  0.7816164E-02  0.1266605E+00
        -11   -1    0    0    0    0  0.00000000000E+00  0.00000000000E+00  0.45593999997E+02  0.45594000000E+02  0.51100000000E-03 0. -1.
         11   -1    0    0    0    0 -0.00000000000E+00 -0.00000000000E+00 -0.45593999997E+02  0.45594000000E+02  0.51100000000E-03 0.  1.
    9900012    2    1    2    0    0 -0.24818091737E+02  0.23093432088E+00  0.20018255771E+02  0.59301928240E+02  0.49999971207E+02 0.  0.
        -12    1    1    2    0    0  0.24818091737E+02 -0.23093432088E+00 -0.20018255771E+02  0.31886071760E+02  0.00000000000E+00 0.  1.
         11    1    3    3    0    0  0.10404548441E+02  0.10991015271E+01  0.12771043552E+02  0.16509458080E+02  0.51100000000E-03 0. -1.
        -11    1    3    3    0    0 -0.35998469960E+01 -0.85900409312E+01  0.37974577584E+01  0.10058249713E+02  0.51100000000E-03 0.  1.
        -12    1    3    3    0    0 -0.31622793182E+02  0.77218737250E+01  0.34497544614E+01  0.32734220448E+02  0.00000000000E+00 0.  1.
</event>
<event>
 7    1  0.1215217E-011  0.5930220E+02  0.7816164E-02  0.1266604E+00
        -11   -1    0    0    0    0  0.00000000000E+00  0.00000000000E+00  0.45593999997E+02  0.45594000000E+02  0.51100000000E-03 0. -1.
         11   -1    0    0    0    0 -0.00000000000E+00 -0.00000000000E+00 -0.45593999997E+02  0.45594000000E+02  0.51100000000E-03 0.  1.
    9900012    2    1    2    0    0 -0.12372359365E+02  0.28855512100E+02 -0.55667100576E+01  0.59302201976E+02  0.50000470433E+02 0.  0.
        -12    1    1    2    0    0  0.12372359365E+02 -0.28855512100E+02  0.55667100576E+01  0.31885798024E+02  0.00000000000E+00 0.  1.
         11    1    3    3    0    0 -0.17486984862E+01  0.12985360962E+02 -0.30340511211E+01  0.13449275526E+02  0.51100000000E-03 0. -1.
        -11    1    3    3    0    0 -0.20347413799E+02  0.32814967207E+01 -0.15125441205E+02  0.25564906434E+02  0.51100000000E-03 0.  1.
         12    1    3    3    0    0  0.97237529209E+01  0.12588654417E+02  0.12592782269E+02  0.20288020016E+02  0.00000000000E+00 0. -1.
</event>
<event>
 7    1  0.1215217E-011  0.5930187E+02  0.7816164E-02  0.1266605E+00
        -11   -1    0    0    0    0  0.00000000000E+00  0.00000000000E+00  0.45593999997E+02  0.45594000000E+02  0.51100000000E-03 0.  1.
         11   -1    0    0    0    0 -0.00000000000E+00 -0.00000000000E+00 -0.45593999997E+02  0.45594000000E+02  0.51100000000E-03 0. -1.
    9900012    2    1    2    0    0  0.20550994929E+02 -0.22781724537E+02 -0.86818845401E+01  0.59301866891E+02  0.49999859322E+02 0.  0.
        -12    1    1    2    0    0 -0.20550994929E+02  0.22781724537E+02  0.86818845401E+01  0.31886133109E+02  0.00000000000E+00 0.  1.
         11    1    3    3    0    0 -0.47748810623E+01 -0.25261513086E+01  0.49833214200E+01  0.73494504712E+01  0.51100000000E-03 0. -1.
        -11    1    3    3    0    0  0.24232347275E+02  0.47288187069E+01 -0.10165993202E+02  0.26700483120E+02  0.51100000000E-03 0.  1.
         12    1    3    3    0    0  0.10935287162E+01 -0.24984391936E+02 -0.34992127579E+01  0.25251933300E+02  0.00000000000E+00 0. -1.
</event>
<event>
 7    1  0.1215217E-011  0.5930195E+02  0.7816164E-02  0.1266605E+00
        -11   -1    0    0    0    0  0.00000000000E+00  0.00000000000E+00  0.45593999997E+02  0.45594000000E+02  0.51100000000E-03 0. -1.
         11   -1    0    0    0    0 -0.00000000000E+00 -0.00000000000E+00 -0.45593999997E+02  0.45594000000E+02  0.51100000000E-03 0.  1.
    9900012    2    1    2    0    0  0.20977055905E+01  0.25659436044E+01  0.31713341060E+02  0.59301946050E+02  0.50000003688E+02 0.  0.
        -12    1    1    2    0    0 -0.20977055905E+01 -0.25659436044E+01 -0.31713341060E+02  0.31886053950E+02  0.00000000000E+00 0.  1.
         11    1    3    3    0    0 -0.12994605091E+02  0.49075230137E-01  0.18742037406E+02  0.22806274054E+02  0.51100000000E-03 0. -1.
        -11    1    3    3    0    0 -0.85724265438E+01 -0.14942149271E+01  0.83353873574E+01  0.12049807374E+02  0.51100000000E-03 0.  1.
        -12    1    3    3    0    0  0.23664737225E+02  0.40110833013E+01  0.46359162964E+01  0.24445864621E+02  0.00000000000E+00 0.  1.
</event>
<event>
 7    1  0.1215217E-011  0.5930195E+02  0.7816164E-02  0.1266605E+00
        -11   -1    0    0    0    0  0.00000000000E+00  0.00000000000E+00  0.45593999997E+02  0.45594000000E+02  0.51100000000E-03 0. -1.
         11   -1    0    0    0    0 -0.00000000000E+00 -0.00000000000E+00 -0.45593999997E+02  0.45594000000E+02  0.51100000000E-03 0.  1.
    9900012    2    1    2    0    0  0.26262571409E+02  0.16118258631E+02  0.81975226691E+01  0.59301948249E+02  0.50000007699E+02 0.  0.
        -12    1    1    2    0    0 -0.26262571409E+02 -0.16118258631E+02 -0.81975226691E+01  0.31886051751E+02  0.00000000000E+00 0.  1.
         11    1    3    3    0    0  0.71998781406E+01  0.16088912947E+02  0.16440093184E+02  0.24103278391E+02  0.51100000000E-03 0. -1.
        -11    1    3    3    0    0  0.12928494320E+01  0.37585843423E+01  0.91994089764E+01  0.10021354284E+02  0.51100000000E-03 0.  1.
        -12    1    3    3    0    0  0.17769843837E+02 -0.37292386577E+01 -0.17441979491E+02  0.25177315574E+02  0.00000000000E+00 0.  1.
</event>
<event>
 7    1  0.1215217E-011  0.5930193E+02  0.7816164E-02  0.1266605E+00
        -11   -1    0    0    0    0  0.00000000000E+00  0.00000000000E+00  0.45593999997E+02  0.45594000000E+02  0.51100000000E-03 0. -1.
         11   -1    0    0    0    0 -0.00000000000E+00 -0.00000000000E+00 -0.45593999997E+02  0.45594000000E+02  0.51100000000E-03 0.  1.
    9900012    2    1    2    0    0  0.12866096793E+02  0.10491743585E+02  0.27223300844E+02  0.59301933467E+02  0.49999980739E+02 0.  0.
        -12    1    1    2    0    0 -0.12866096793E+02 -0.10491743585E+02 -0.27223300844E+02  0.31886066533E+02  0.00000000000E+00 0.  1.
         11    1    3    3    0    0 -0.14345714520E+02 -0.32032368700E+01  0.11711150984E+02  0.18793916812E+02  0.51100000000E-03 0. -1.
        -11    1    3    3    0    0  0.85383151893E+01  0.86296388206E+01  0.17237108963E+02  0.21082965117E+02  0.51100000000E-03 0.  1.
        -12    1    3    3    0    0  0.18673496123E+02  0.50653416341E+01 -0.17249591028E+01  0.19425051538E+02  0.00000000000E+00 0.  1.
</event>
<event>
 7    1  0.1215217E-011  0.5930168E+02  0.7816164E-02  0.1266606E+00
        -11   -1    0    0    0    0  0.00000000000E+00  0.00000000000E+00  0.45593999997E+02  0.45594000000E+02  0.51100000000E-03 0.  1.
         11   -1    0    0    0    0 -0.00000000000E+00 -0.00000000000E+00 -0.45593999997E+02  0.45594000000E+02  0.51100000000E-03 0. -1.
    9900012    2    1    2    0    0 -0.26462867092E+02  0.16265700237E+02 -0.72028447441E+01  0.59301681440E+02  0.49999521100E+02 0.  0.
        -12    1    1    2    0    0  0.26462867092E+02 -0.16265700237E+02  0.72028447441E+01  0.31886318560E+02  0.00000000000E+00 0.  1.
         11    1    3    3    0    0 -0.20669148361E+02  0.13725478470E+02  0.35866529872E+01  0.25069234793E+02  0.51100000000E-03 0. -1.
        -11    1    3    3    0    0 -0.33663285565E+01 -0.12864762279E+02  0.27508362413E+01  0.13579446849E+02  0.51100000000E-03 0.  1.
         12    1    3    3    0    0 -0.24273901743E+01  0.15404984047E+02 -0.13540333973E+02  0.20652999797E+02  0.00000000000E+00 0. -1.
</event>
<event>
 7    1  0.1215217E-011  0.5930193E+02  0.7816164E-02  0.1266605E+00
        -11   -1    0    0    0    0  0.00000000000E+00  0.00000000000E+00  0.45593999997E+02  0.45594000000E+02  0.51100000000E-03 0.  1.
         11   -1    0    0    0    0 -0.00000000000E+00 -0.00000000000E+00 -0.45593999997E+02  0.45594000000E+02  0.51100000000E-03 0. -1.
    9900012    2    1    2    0    0  0.93306542046E+01 -0.55344816225E+01 -0.29983826319E+02  0.59301930386E+02  0.49999975120E+02 0.  0.
        -12    1    1    2    0    0 -0.93306542046E+01  0.55344816225E+01  0.29983826319E+02  0.31886069614E+02  0.00000000000E+00 0.  1.
         11    1    3    3    0    0  0.79095664344E+01  0.16772618880E+02 -0.56318108974E+01  0.19380383884E+02  0.51100000000E-03 0. -1.
        -11    1    3    3    0    0  0.28277046495E+01  0.31704917192E+01  0.53054638111E+00  0.42812861444E+01  0.51100000000E-03 0.  1.
        -12    1    3    3    0    0 -0.14066168792E+01 -0.25477592221E+02 -0.24882561803E+02  0.35640260357E+02  0.00000000000E+00 0.  1.
</event>
<event>
 7    1  0.1215217E-011  0.5930195E+02  0.7816164E-02  0.1266605E+00
        -11   -1    0    0    0    0  0.00000000000E+00  0.00000000000E+00  0.45593999997E+02  0.45594000000E+02  0.51100000000E-03 0.  1.
         11   -1    0    0    0    0 -0.00000000000E+00 -0.00000000000E+00 -0.45593999997E+02  0.45594000000E+02  0.51100000000E-03 0. -1.
    9900012    2    1    2    0    0 -0.18261744571E+02  0.19708113145E+02 -0.17170300017E+02  0.59301949113E+02  0.50000009274E+02 0.  0.
        -12    1    1    2    0    0  0.18261744571E+02 -0.19708113145E+02  0.17170300017E+02  0.31886050887E+02  0.00000000000E+00 0.  1.
         11    1    3    3    0    0  0.83763579380E+01  0.96329914034E+01 -0.11852292163E+02  0.17419377872E+02  0.51100000000E-03 0. -1.
        -11    1    3    3    0    0 -0.17058970348E+02  0.19948303858E+02 -0.88153761983E+01  0.27688520255E+02  0.51100000000E-03 0.  1.
        -12    1    3    3    0    0 -0.95791321607E+01 -0.98731821162E+01  0.34973683438E+01  0.14194050986E+02  0.00000000000E+00 0.  1.
</event>
<event>
 7    1  0.1215217E-011  0.5930196E+02  0.7816164E-02  0.1266605E+00
        -11   -1    0    0    0    0  0.00000000000E+00  0.00000000000E+00  0.45593999997E+02  0.45594000000E+02  0.51100000000E-03 0.  1.
         11   -1    0    0    0    0 -0.00000000000E+00 -0.00000000000E+00 -0.45593999997E+02  0.45594000000E+02  0.51100000000E-03 0. -1.
    9900012    2    1    2    0    0  0.14741194986E+02  0.28245140319E+02 -0.12763220467E+01  0.59301956356E+02  0.50000022484E+02 0.  0.
        -12    1    1    2    0    0 -0.14741194986E+02 -0.28245140319E+02  0.12763220467E+01  0.31886043644E+02  0.00000000000E+00 0.  1.
         11    1    3    3    0    0  0.15050475905E+01  0.58859291565E+01 -0.49309906709E+01  0.78245766367E+01  0.51100000000E-03 0. -1.
        -11    1    3    3    0    0 -0.14216151098E+02  0.85773399263E+01 -0.82420928601E+01  0.18536499325E+02  0.51100000000E-03 0.  1.
         12    1    3    3    0    0  0.27452298494E+02  0.13781871237E+02  0.11896761484E+02  0.32940880395E+02  0.00000000000E+00 0. -1.
</event>
<event>
 7    1  0.1215217E-011  0.5930195E+02  0.7816164E-02  0.1266605E+00
        -11   -1    0    0    0    0  0.00000000000E+00  0.00000000000E+00  0.45593999997E+02  0.45594000000E+02  0.51100000000E-03 0. -1.
         11   -1    0    0    0    0 -0.00000000000E+00 -0.00000000000E+00 -0.45593999997E+02  0.45594000000E+02  0.51100000000E-03 0.  1.
    9900012    2    1    2    0    0 -0.30508864027E+02  0.79682828119E+01  0.47366610990E+01  0.59301948605E+02  0.50000008348E+02 0.  0.
        -12    1    1    2    0    0  0.30508864027E+02 -0.79682828119E+01 -0.47366610990E+01  0.31886051395E+02  0.00000000000E+00 0.  1.
         11    1    3    3    0    0 -0.72757071656E+01 -0.27246522265E+01 -0.50154242401E+01  0.92473847700E+01  0.51100000000E-03 0.  1.
        -11    1    3    3    0    0 -0.57757414896E+01 -0.81312806269E+01  0.20049456703E+02  0.22393249624E+02  0.51100000000E-03 0. -1.
         12    1    3    3    0    0 -0.17457415372E+02  0.18824215665E+02 -0.10297371364E+02  0.27661314211E+02  0.00000000000E+00 0. -1.
</event>
<event>
 7    1  0.1215217E-011  0.5930180E+02  0.7816164E-02  0.1266605E+00
        -11   -1    0    0    0    0  0.00000000000E+00  0.00000000000E+00  0.45593999997E+02  0.45594000000E+02  0.51100000000E-03 0. -1.
         11   -1    0    0    0    0 -0.00000000000E+00 -0.00000000000E+00 -0.45593999997E+02  0.45594000000E+02  0.51100000000E-03 0.  1.
    9900012    2    1    2    0    0  0.13427409238E+02  0.11458073172E+01  0.28898474587E+02  0.59301795668E+02  0.49999729426E+02 0.  0.
        -12    1    1    2    0    0 -0.13427409238E+02 -0.11458073172E+01 -0.28898474587E+02  0.31886204332E+02  0.00000000000E+00 0.  1.
         11    1    3    3    0    0  0.12712856906E+02  0.14272607329E+02  0.12087258778E+02  0.22614726965E+02  0.51100000000E-03 0. -1.
        -11    1    3    3    0    0 -0.21817095763E-01  0.70543257152E+01  0.14796722974E+02  0.16392284719E+02  0.51100000000E-03 0.  1.
        -12    1    3    3    0    0  0.73636942730E+00 -0.20181125727E+02  0.20144928346E+01  0.20294783983E+02  0.00000000000E+00 0.  1.
</event>
<event>
 7    1  0.1215217E-011  0.5930198E+02  0.7816164E-02  0.1266605E+00
        -11   -1    0    0    0    0  0.00000000000E+00  0.00000000000E+00  0.45593999997E+02  0.45594000000E+02  0.51100000000E-03 0. -1.
         11   -1    0    0    0    0 -0.00000000000E+00 -0.00000000000E+00 -0.45593999997E+02  0.45594000000E+02  0.51100000000E-03 0.  1.
    9900012    2    1    2    0    0 -0.97542630448E+01  0.30327983529E+02  0.13363419196E+01  0.59301983594E+02  0.50000072160E+02 0.  0.
        -12    1    1    2    0    0  0.97542630448E+01 -0.30327983529E+02 -0.13363419196E+01  0.31886016406E+02  0.00000000000E+00 0.  1.
         11    1    3    3    0    0 -0.16784936298E+01  0.84924554850E+00 -0.52895028159E+01  0.56140359072E+01  0.51100000000E-03 0.  1.
        -11    1    3    3    0    0 -0.20034285344E+02 -0.14630547196E+01  0.31682627085E+01  0.20335953560E+02  0.51100000000E-03 0. -1.
         12    1    3    3    0    0  0.11958515929E+02  0.30941792700E+02  0.34575820270E+01  0.33351994127E+02  0.00000000000E+00 0. -1.
</event>
<event>
 7    1  0.1215217E-011  0.5930194E+02  0.7816164E-02  0.1266605E+00
        -11   -1    0    0    0    0  0.00000000000E+00  0.00000000000E+00  0.45593999997E+02  0.45594000000E+02  0.51100000000E-03 0.  1.
         11   -1    0    0    0    0 -0.00000000000E+00 -0.00000000000E+00 -0.45593999997E+02  0.45594000000E+02  0.51100000000E-03 0. -1.
    9900012    2    1    2    0    0  0.21417103785E+02 -0.76208473817E+01  0.22359583939E+02  0.59301942807E+02  0.49999997775E+02 0.  0.
        -12    1    1    2    0    0 -0.21417103785E+02  0.76208473817E+01 -0.22359583939E+02  0.31886057193E+02  0.00000000000E+00 0.  1.
         11    1    3    3    0    0  0.55545382491E+01 -0.64013067898E+00 -0.12509964830E+02  0.13702623207E+02  0.51100000000E-03 0. -1.
        -11    1    3    3    0    0 -0.16782510407E+01  0.47218282124E+01  0.17734029731E+02  0.18428456229E+02  0.51100000000E-03 0.  1.
         12    1    3    3    0    0  0.17540816576E+02 -0.11702544915E+02  0.17135519038E+02  0.27170863372E+02  0.00000000000E+00 0. -1.
</event>
<event>
 7    1  0.1215217E-011  0.5930195E+02  0.7816164E-02  0.1266605E+00
        -11   -1    0    0    0    0  0.00000000000E+00  0.00000000000E+00  0.45593999997E+02  0.45594000000E+02  0.51100000000E-03 0. -1.
         11   -1    0    0    0    0 -0.00000000000E+00 -0.00000000000E+00 -0.45593999997E+02  0.45594000000E+02  0.51100000000E-03 0.  1.
    9900012    2    1    2    0    0 -0.15266295345E+02 -0.21388051875E+02  0.18061322051E+02  0.59301954607E+02  0.50000019295E+02 0.  0.
        -12    1    1    2    0    0  0.15266295345E+02  0.21388051875E+02 -0.18061322051E+02  0.31886045393E+02  0.00000000000E+00 0.  1.
         11    1    3    3    0    0  0.50039859628E+01 -0.15687681609E+01  0.36202379030E+01  0.63723646940E+01  0.51100000000E-03 0. -1.
        -11    1    3    3    0    0  0.75825579803E+00 -0.21548335960E+02 -0.71738019068E+01  0.22723757800E+02  0.51100000000E-03 0.  1.
         12    1    3    3    0    0 -0.21028537105E+02  0.17290522464E+01  0.21614886055E+02  0.30205832113E+02  0.00000000000E+00 0. -1.
</event>
<event>
 7    1  0.1215217E-011  0.5930194E+02  0.7816164E-02  0.1266605E+00
        -11   -1    0    0    0    0  0.00000000000E+00  0.00000000000E+00  0.45593999997E+02  0.45594000000E+02  0.51100000000E-03 0. -1.
         11   -1    0    0    0    0 -0.00000000000E+00 -0.00000000000E+00 -0.45593999997E+02  0.45594000000E+02  0.51100000000E-03 0.  1.
    9900012    2    1    2    0    0 -0.21264815566E+02 -0.22003927556E+02  0.89641450428E+01  0.59301935563E+02  0.49999984562E+02 0.  0.
        -12    1    1    2    0    0  0.21264815566E+02  0.22003927556E+02 -0.89641450428E+01  0.31886064437E+02  0.00000000000E+00 0.  1.
         11    1    3    3    0    0 -0.11920443762E+02 -0.36392585810E+02  0.20449686593E+01  0.38349695937E+02  0.51100000000E-03 0. -1.
        -11    1    3    3    0    0 -0.10097423787E+02  0.10035510460E+02  0.20591079726E+01  0.14384344380E+02  0.51100000000E-03 0.  1.
        -12    1    3    3    0    0  0.75305198246E+00  0.43531477936E+01  0.48600684109E+01  0.65678952458E+01  0.00000000000E+00 0.  1.
</event>
<event>
 7    1  0.1215217E-011  0.5930193E+02  0.7816164E-02  0.1266605E+00
        -11   -1    0    0    0    0  0.00000000000E+00  0.00000000000E+00  0.45593999997E+02  0.45594000000E+02  0.51100000000E-03 0.  1.
         11   -1    0    0    0    0 -0.00000000000E+00 -0.00000000000E+00 -0.45593999997E+02  0.45594000000E+02  0.51100000000E-03 0. -1.
    9900012    2    1    2    0    0  0.22966997529E+02 -0.53931859362E+01 -0.21451151543E+02  0.59301931999E+02  0.49999978062E+02 0.  0.
        -12    1    1    2    0    0 -0.22966997529E+02  0.53931859362E+01  0.21451151543E+02  0.31886068001E+02  0.00000000000E+00 0.  1.
         11    1    3    3    0    0  0.17270305293E+01  0.14294088992E+01 -0.36494823353E+01  0.42830556647E+01  0.51100000000E-03 0. -1.
        -11    1    3    3    0    0  0.14506822096E+02  0.19530246204E+02 -0.45003808536E+01  0.24741298111E+02  0.51100000000E-03 0.  1.
         12    1    3    3    0    0  0.67331449041E+01 -0.26352841040E+02 -0.13301288354E+02  0.30277578223E+02  0.00000000000E+00 0. -1.
</event>
<event>
 7    1  0.1215217E-011  0.5930189E+02  0.7816164E-02  0.1266605E+00
        -11   -1    0    0    0    0  0.00000000000E+00  0.00000000000E+00  0.45593999997E+02  0.45594000000E+02  0.51100000000E-03 0.  1.
         11   -1    0    0    0    0 -0.00000000000E+00 -0.00000000000E+00 -0.45593999997E+02  0.45594000000E+02  0.51100000000E-03 0. -1.
    9900012    2    1    2    0    0  0.49293580057E+01 -0.31436905520E+02  0.20362611431E+01  0.59301890823E+02  0.49999902967E+02 0.  0.
        -12    1    1    2    0    0 -0.49293580057E+01  0.31436905520E+02 -0.20362611431E+01  0.31886109177E+02  0.00000000000E+00 0.  1.
         11    1    3    3    0    0 -0.82570544303E+01 -0.21351191477E+02 -0.93514324114E+01  0.24728558667E+02  0.51100000000E-03 0. -1.
        -11    1    3    3    0    0  0.56958250267E+00  0.83485067917E+01 -0.19010079812E+01  0.85811317135E+01  0.51100000000E-03 0.  1.
        -12    1    3    3    0    0  0.12616829933E+02 -0.18434220834E+02  0.13288701536E+02  0.25992200442E+02  0.00000000000E+00 0.  1.
</event>
<event>
 7    1  0.1215217E-011  0.5930200E+02  0.7816164E-02  0.1266605E+00
        -11   -1    0    0    0    0  0.00000000000E+00  0.00000000000E+00  0.45593999997E+02  0.45594000000E+02  0.51100000000E-03 0.  1.
         11   -1    0    0    0    0 -0.00000000000E+00 -0.00000000000E+00 -0.45593999997E+02  0.45594000000E+02  0.51100000000E-03 0. -1.
    9900012    2    1    2    0    0  0.29944612486E+01  0.27313000468E+02 -0.16178698573E+02  0.59301998679E+02  0.50000099671E+02 0.  0.
        -12    1    1    2    0    0 -0.29944612486E+01 -0.27313000468E+02  0.16178698573E+02  0.31886001321E+02  0.00000000000E+00 0.  1.
         11    1    3    3    0    0  0.76591760478E+01  0.14936146490E+01 -0.88779760222E+01  0.11819996657E+02  0.51100000000E-03 0. -1.
        -11    1    3    3    0    0  0.18672665857E+00  0.13138053194E+00  0.13852024832E+02  0.13853906304E+02  0.51100000000E-03 0.  1.
         12    1    3    3    0    0 -0.48514414578E+01  0.25688005287E+02 -0.21152747382E+02  0.33628095718E+02  0.00000000000E+00 0. -1.
</event>
<event>
 7    1  0.1215217E-011  0.5930195E+02  0.7816164E-02  0.1266605E+00
        -11   -1    0    0    0    0  0.00000000000E+00  0.00000000000E+00  0.45593999997E+02  0.45594000000E+02  0.51100000000E-03 0.  1.
         11   -1    0    0    0    0 -0.00000000000E+00 -0.00000000000E+00 -0.45593999997E+02  0.45594000000E+02  0.51100000000E-03 0. -1.
    9900012    2    1    2    0    0 -0.30997257441E+02  0.34389394556E+01 -0.66380467485E+01  0.59301953866E+02  0.50000017943E+02 0.  0.
        -12    1    1    2    0    0  0.30997257441E+02 -0.34389394556E+01  0.66380467485E+01  0.31886046134E+02  0.00000000000E+00 0.  1.
         11    1    3    3    0    0 -0.33479989812E+02  0.67139864948E+01  0.10983918351E+01  0.34164218085E+02  0.51100000000E-03 0. -1.
        -11    1    3    3    0    0 -0.52416318712E+01 -0.10718824909E+02 -0.34508806380E-01  0.11931852463E+02  0.51100000000E-03 0.  1.
        -12    1    3    3    0    0  0.77243642424E+01  0.74437778692E+01 -0.77019297772E+01  0.13205883318E+02  0.00000000000E+00 0.  1.
</event>
<event>
 7    1  0.1215217E-011  0.5930194E+02  0.7816164E-02  0.1266605E+00
        -11   -1    0    0    0    0  0.00000000000E+00  0.00000000000E+00  0.45593999997E+02  0.45594000000E+02  0.51100000000E-03 0.  1.
         11   -1    0    0    0    0 -0.00000000000E+00 -0.00000000000E+00 -0.45593999997E+02  0.45594000000E+02  0.51100000000E-03 0. -1.
    9900012    2    1    2    0    0  0.20551142021E+02  0.22669947191E+02 -0.89690922938E+01  0.59301944104E+02  0.50000000139E+02 0.  0.
        -12    1    1    2    0    0 -0.20551142021E+02 -0.22669947191E+02  0.89690922938E+01  0.31886055896E+02  0.00000000000E+00 0.  1.
         11    1    3    3    0    0 -0.41097918343E+01  0.21233348974E+02 -0.12575960593E+02  0.25017999174E+02  0.51100000000E-03 0. -1.
        -11    1    3    3    0    0  0.21205492995E+02  0.10990963734E+02  0.16868262428E+01  0.23944093217E+02  0.51100000000E-03 0.  1.
        -12    1    3    3    0    0  0.34554408603E+01 -0.95543655161E+01  0.19200420565E+01  0.10339851713E+02  0.00000000000E+00 0.  1.
</event>
<event>
 7    1  0.1215217E-011  0.5930208E+02  0.7816164E-02  0.1266604E+00
        -11   -1    0    0    0    0  0.00000000000E+00  0.00000000000E+00  0.45593999997E+02  0.45594000000E+02  0.51100000000E-03 0.  1.
         11   -1    0    0    0    0 -0.00000000000E+00 -0.00000000000E+00 -0.45593999997E+02  0.45594000000E+02  0.51100000000E-03 0. -1.
    9900012    2    1    2    0    0 -0.97435048796E+01 -0.22019909538E+02 -0.20902148662E+02  0.59302076427E+02  0.50000241464E+02 0.  0.
        -12    1    1    2    0    0  0.97435048796E+01  0.22019909538E+02  0.20902148662E+02  0.31885923573E+02  0.00000000000E+00 0.  1.
         11    1    3    3    0    0 -0.33810768387E+01 -0.11097338926E+02 -0.15060893989E+02  0.19010868992E+02  0.51100000000E-03 0. -1.
        -11    1    3    3    0    0 -0.14055565785E+01  0.61182909184E+01 -0.17810877674E+02  0.18884820276E+02  0.51100000000E-03 0.  1.
        -12    1    3    3    0    0 -0.49568714624E+01 -0.17040861531E+02  0.11969623002E+02  0.21406387159E+02  0.00000000000E+00 0.  1.
</event>
<event>
 7    1  0.1215217E-011  0.5930192E+02  0.7816164E-02  0.1266605E+00
        -11   -1    0    0    0    0  0.00000000000E+00  0.00000000000E+00  0.45593999997E+02  0.45594000000E+02  0.51100000000E-03 0.  1.
         11   -1    0    0    0    0 -0.00000000000E+00 -0.00000000000E+00 -0.45593999997E+02  0.45594000000E+02  0.51100000000E-03 0. -1.
    9900012    2    1    2    0    0 -0.93783808277E+01  0.79775470889E+01 -0.29413039182E+02  0.59301919049E+02  0.49999954444E+02 0.  0.
        -12    1    1    2    0    0  0.93783808277E+01 -0.79775470889E+01  0.29413039182E+02  0.31886080951E+02  0.00000000000E+00 0.  1.
         11    1    3    3    0    0 -0.26651677139E+02 -0.20599935718E+01 -0.27643440127E+02  0.38454066757E+02  0.51100000000E-03 0. -1.
        -11    1    3    3    0    0  0.86547834395E+00  0.17335185746E+01  0.11119676204E+01  0.22339676949E+01  0.51100000000E-03 0.  1.
        -12    1    3    3    0    0  0.16407817968E+02  0.83040220862E+01 -0.28815666755E+01  0.18613884596E+02  0.00000000000E+00 0.  1.
</event>
<event>
 7    1  0.1215217E-011  0.5930198E+02  0.7816164E-02  0.1266605E+00
        -11   -1    0    0    0    0  0.00000000000E+00  0.00000000000E+00  0.45593999997E+02  0.45594000000E+02  0.51100000000E-03 0. -1.
         11   -1    0    0    0    0 -0.00000000000E+00 -0.00000000000E+00 -0.45593999997E+02  0.45594000000E+02  0.51100000000E-03 0.  1.
    9900012    2    1    2    0    0  0.12966872044E+02  0.29059818080E+02 -0.20262679285E+01  0.59301975488E+02  0.50000057376E+02 0.  0.
        -12    1    1    2    0    0 -0.12966872044E+02 -0.29059818080E+02  0.20262679285E+01  0.31886024512E+02  0.00000000000E+00 0.  1.
         11    1    3    3    0    0  0.25563527569E+01  0.14654210413E+02 -0.27266096398E+01  0.15123333714E+02  0.51100000000E-03 0. -1.
        -11    1    3    3    0    0  0.83989206528E+01  0.23874024212E+02  0.13060218533E+02  0.28479469949E+02  0.51100000000E-03 0.  1.
        -12    1    3    3    0    0  0.20115986342E+01 -0.94684165445E+01 -0.12359876822E+02  0.15699171824E+02  0.00000000000E+00 0.  1.
</event>
<event>
 7    1  0.1215217E-011  0.5930192E+02  0.7816164E-02  0.1266605E+00
        -11   -1    0    0    0    0  0.00000000000E+00  0.00000000000E+00  0.45593999997E+02  0.45594000000E+02  0.51100000000E-03 0.  1.
         11   -1    0    0    0    0 -0.00000000000E+00 -0.00000000000E+00 -0.45593999997E+02  0.45594000000E+02  0.51100000000E-03 0. -1.
    9900012    2    1    2    0    0  0.22875284564E+02 -0.18340726972E+02  0.12532397613E+02  0.59301923107E+02  0.49999961845E+02 0.  0.
        -12    1    1    2    0    0 -0.22875284564E+02  0.18340726972E+02 -0.12532397613E+02  0.31886076893E+02  0.00000000000E+00 0.  1.
         11    1    3    3    0    0 -0.31267035788E+01 -0.81708789287E-01  0.25222500614E+01  0.40180464444E+01  0.51100000000E-03 0. -1.
        -11    1    3    3    0    0  0.20470345251E+01 -0.12331762084E+02  0.23895883028E+02  0.26968053923E+02  0.51100000000E-03 0.  1.
         12    1    3    3    0    0  0.23954953618E+02 -0.59272560980E+01 -0.13885735476E+02  0.28315822739E+02  0.00000000000E+00 0. -1.
</event>
<event>
 7    1  0.1215217E-011  0.5930194E+02  0.7816164E-02  0.1266605E+00
        -11   -1    0    0    0    0  0.00000000000E+00  0.00000000000E+00  0.45593999997E+02  0.45594000000E+02  0.51100000000E-03 0.  1.
         11   -1    0    0    0    0 -0.00000000000E+00 -0.00000000000E+00 -0.45593999997E+02  0.45594000000E+02  0.51100000000E-03 0. -1.
    9900012    2    1    2    0    0 -0.29092861485E+02 -0.10779767937E+01 -0.13006306450E+02  0.59301943002E+02  0.49999998130E+02 0.  0.
        -12    1    1    2    0    0  0.29092861485E+02  0.10779767937E+01  0.13006306450E+02  0.31886056998E+02  0.00000000000E+00 0.  1.
         11    1    3    3    0    0  0.22101597267E+01  0.93242228933E+01  0.49805788692E+01  0.10799634471E+02  0.51100000000E-03 0. -1.
        -11    1    3    3    0    0  0.18765614836E+01  0.26334933770E+01  0.50943473498E+01  0.60339991341E+01  0.51100000000E-03 0.  1.
         12    1    3    3    0    0 -0.33179582696E+02 -0.13035693064E+02 -0.23081232669E+02  0.42468309397E+02  0.00000000000E+00 0. -1.
</event>
<event>
 7    1  0.1215217E-011  0.5930194E+02  0.7816164E-02  0.1266605E+00
        -11   -1    0    0    0    0  0.00000000000E+00  0.00000000000E+00  0.45593999997E+02  0.45594000000E+02  0.51100000000E-03 0.  1.
         11   -1    0    0    0    0 -0.00000000000E+00 -0.00000000000E+00 -0.45593999997E+02  0.45594000000E+02  0.51100000000E-03 0. -1.
    9900012    2    1    2    0    0 -0.31474167674E+02  0.17468434605E+00 -0.51055643240E+01  0.59301944545E+02  0.50000000944E+02 0.  0.
        -12    1    1    2    0    0  0.31474167674E+02 -0.17468434605E+00  0.51055643240E+01  0.31886055455E+02  0.00000000000E+00 0.  1.
         11    1    3    3    0    0 -0.24329502865E+01 -0.44202206123E+01  0.72320909094E+01  0.88182048367E+01  0.51100000000E-03 0. -1.
        -11    1    3    3    0    0 -0.60868808714E+01 -0.12807072946E+02  0.69760552554E+01  0.15803056141E+02  0.51100000000E-03 0.  1.
         12    1    3    3    0    0 -0.22954336516E+02  0.17401977905E+02 -0.19313710489E+02  0.34680683568E+02  0.00000000000E+00 0. -1.
</event>
<event>
 7    1  0.1215217E-011  0.5930193E+02  0.7816164E-02  0.1266605E+00
        -11   -1    0    0    0    0  0.00000000000E+00  0.00000000000E+00  0.45593999997E+02  0.45594000000E+02  0.51100000000E-03 0. -1.
         11   -1    0    0    0    0 -0.00000000000E+00 -0.00000000000E+00 -0.45593999997E+02  0.45594000000E+02  0.51100000000E-03 0.  1.
    9900012    2    1    2    0    0 -0.20295561333E+02 -0.14375272218E+01  0.24550864206E+02  0.59301933645E+02  0.49999981064E+02 0.  0.
        -12    1    1    2    0    0  0.20295561333E+02  0.14375272218E+01 -0.24550864206E+02  0.31886066355E+02  0.00000000000E+00 0.  1.
         11    1    3    3    0    0 -0.14412419561E+01 -0.98063040503E+01 -0.89244248855E+01  0.13337396196E+02  0.51100000000E-03 0. -1.
        -11    1    3    3    0    0 -0.89585154822E+01 -0.81585851892E+01  0.14890175300E+02  0.19197261072E+02  0.51100000000E-03 0.  1.
         12    1    3    3    0    0 -0.98958038949E+01  0.16527362018E+02  0.18585113791E+02  0.26767276376E+02  0.00000000000E+00 0. -1.
</event>
<event>
 7    1  0.1215217E-011  0.5930192E+02  0.7816164E-02  0.1266605E+00
        -11   -1    0    0    0    0  0.00000000000E+00  0.00000000000E+00  0.45593999997E+02  0.45594000000E+02  0.51100000000E-03 0. -1.
         11   -1    0    0    0    0 -0.00000000000E+00 -0.00000000000E+00 -0.45593999997E+02  0.45594000000E+02  0.51100000000E-03 0.  1.
    9900012    2    1    2    0    0  0.33066773038E+01  0.16571822193E+02  0.27040021185E+02  0.59301919161E+02  0.49999954648E+02 0.  0.
        -12    1    1    2    0    0 -0.33066773038E+01 -0.16571822193E+02 -0.27040021185E+02  0.31886080839E+02  0.00000000000E+00 0.  1.
         11    1    3    3    0    0 -0.18658612692E+01 -0.91767073622E+00  0.11337382772E+01  0.23683159836E+01  0.51100000000E-03 0. -1.
        -11    1    3    3    0    0 -0.18421815030E+02  0.16918273643E+02  0.21375416829E+02  0.32901363147E+02  0.51100000000E-03 0.  1.
         12    1    3    3    0    0  0.23594353603E+02  0.57121928592E+00  0.45308660793E+01  0.24032240030E+02  0.00000000000E+00 0. -1.
</event>
<event>
 7    1  0.1215217E-011  0.5930196E+02  0.7816164E-02  0.1266605E+00
        -11   -1    0    0    0    0  0.00000000000E+00  0.00000000000E+00  0.45593999997E+02  0.45594000000E+02  0.51100000000E-03 0.  1.
         11   -1    0    0    0    0 -0.00000000000E+00 -0.00000000000E+00 -0.45593999997E+02  0.45594000000E+02  0.51100000000E-03 0. -1.
    9900012    2    1    2    0    0  0.80654512010E+01 -0.16620176944E+02 -0.25989190881E+02  0.59301955602E+02  0.50000021108E+02 0.  0.
        -12    1    1    2    0    0 -0.80654512010E+01  0.16620176944E+02  0.25989190881E+02  0.31886044398E+02  0.00000000000E+00 0.  1.
         11    1    3    3    0    0 -0.96097376467E+01 -0.88507856291E+01 -0.21537779400E+02  0.25190462593E+02  0.51100000000E-03 0. -1.
        -11    1    3    3    0    0 -0.35793116595E+01 -0.96509519203E+01 -0.72512167649E+01  0.12590968579E+02  0.51100000000E-03 0.  1.
        -12    1    3    3    0    0  0.21254500507E+02  0.18815606055E+01  0.27998052839E+01  0.21520524430E+02  0.00000000000E+00 0.  1.
</event>
<event>
 7    1  0.1215217E-011  0.5930196E+02  0.7816164E-02  0.1266605E+00
        -11   -1    0    0    0    0  0.00000000000E+00  0.00000000000E+00  0.45593999997E+02  0.45594000000E+02  0.51100000000E-03 0.  1.
         11   -1    0    0    0    0 -0.00000000000E+00 -0.00000000000E+00 -0.45593999997E+02  0.45594000000E+02  0.51100000000E-03 0. -1.
    9900012    2    1    2    0    0  0.11105594063E+02 -0.13948135853E+02 -0.26435485926E+02  0.59301958706E+02  0.50000026769E+02 0.  0.
        -12    1    1    2    0    0 -0.11105594063E+02  0.13948135853E+02  0.26435485926E+02  0.31886041294E+02  0.00000000000E+00 0.  1.
         11    1    3    3    0    0 -0.15368648965E+01 -0.81581859682E+01  0.72926696112E+01  0.11049931327E+02  0.51100000000E-03 0. -1.
        -11    1    3    3    0    0 -0.57422530874E+01 -0.61593174997E+01  0.14622678979E+01  0.85468643518E+01  0.51100000000E-03 0.  1.
         12    1    3    3    0    0  0.18384712047E+02  0.36936761457E+00 -0.35190423435E+02  0.39705163027E+02  0.00000000000E+00 0. -1.
</event>
<event>
 7    1  0.1215217E-011  0.5930194E+02  0.7816164E-02  0.1266605E+00
        -11   -1    0    0    0    0  0.00000000000E+00  0.00000000000E+00  0.45593999997E+02  0.45594000000E+02  0.51100000000E-03 0.  1.
         11   -1    0    0    0    0 -0.00000000000E+00 -0.00000000000E+00 -0.45593999997E+02  0.45594000000E+02  0.51100000000E-03 0. -1.
    9900012    2    1    2    0    0 -0.27198792557E+01 -0.92057718565E+01 -0.30406858189E+02  0.59301937158E+02  0.49999987472E+02 0.  0.
        -12    1    1    2    0    0  0.27198792557E+01  0.92057718565E+01  0.30406858189E+02  0.31886062842E+02  0.00000000000E+00 0.  1.
         11    1    3    3    0    0 -0.50520091859E+01 -0.82605557861E+01  0.60703836872E+01  0.11428435461E+02  0.51100000000E-03 0. -1.
        -11    1    3    3    0    0 -0.87855815203E+01 -0.66359948336E+01 -0.19823228057E+01  0.11187156656E+02  0.51100000000E-03 0.  1.
         12    1    3    3    0    0  0.11117711451E+02  0.56907787633E+01 -0.34494919070E+02  0.36686345041E+02  0.00000000000E+00 0. -1.
</event>
<event>
 7    1  0.1215217E-011  0.5930197E+02  0.7816164E-02  0.1266605E+00
        -11   -1    0    0    0    0  0.00000000000E+00  0.00000000000E+00  0.45593999997E+02  0.45594000000E+02  0.51100000000E-03 0.  1.
         11   -1    0    0    0    0 -0.00000000000E+00 -0.00000000000E+00 -0.45593999997E+02  0.45594000000E+02  0.51100000000E-03 0. -1.
    9900012    2    1    2    0    0  0.30530511020E+02  0.77417431255E+00 -0.91655649538E+01  0.59301968106E+02  0.50000043914E+02 0.  0.
        -12    1    1    2    0    0 -0.30530511020E+02 -0.77417431255E+00  0.91655649538E+01  0.31886031894E+02  0.00000000000E+00 0.  1.
         11    1    3    3    0    0  0.12620961971E+02  0.87128903875E+01 -0.38617202842E+01  0.15815056870E+02  0.51100000000E-03 0. -1.
        -11    1    3    3    0    0  0.23685005608E+02  0.62316666549E+01 -0.11401061641E+02  0.27014762015E+02  0.51100000000E-03 0.  1.
         12    1    3    3    0    0 -0.57754565587E+01 -0.14170382730E+02  0.60972169715E+01  0.16472149221E+02  0.00000000000E+00 0. -1.
</event>
<event>
 7    1  0.1215217E-011  0.5930194E+02  0.7816164E-02  0.1266605E+00
        -11   -1    0    0    0    0  0.00000000000E+00  0.00000000000E+00  0.45593999997E+02  0.45594000000E+02  0.51100000000E-03 0.  1.
         11   -1    0    0    0    0 -0.00000000000E+00 -0.00000000000E+00 -0.45593999997E+02  0.45594000000E+02  0.51100000000E-03 0. -1.
    9900012    2    1    2    0    0  0.32269495316E+01  0.12308687951E+02 -0.29237026485E+02  0.59301941604E+02  0.49999995580E+02 0.  0.
        -12    1    1    2    0    0 -0.32269495316E+01 -0.12308687951E+02  0.29237026485E+02  0.31886058396E+02  0.00000000000E+00 0.  1.
         11    1    3    3    0    0 -0.50153992176E+01  0.12851659604E+02 -0.36969659124E+02  0.39459790673E+02  0.51100000000E-03 0. -1.
        -11    1    3    3    0    0  0.63851171298E+01 -0.41545952143E+01 -0.31371669592E+01  0.82384585298E+01  0.51100000000E-03 0.  1.
        -12    1    3    3    0    0  0.18572316195E+01  0.36116235613E+01  0.10869799599E+02  0.11603692402E+02  0.00000000000E+00 0.  1.
</event>
<event>
 7    1  0.1215217E-011  0.5930194E+02  0.7816164E-02  0.1266605E+00
        -11   -1    0    0    0    0  0.00000000000E+00  0.00000000000E+00  0.45593999997E+02  0.45594000000E+02  0.51100000000E-03 0.  1.
         11   -1    0    0    0    0 -0.00000000000E+00 -0.00000000000E+00 -0.45593999997E+02  0.45594000000E+02  0.51100000000E-03 0. -1.
    9900012    2    1    2    0    0  0.21067228568E+02  0.81451333988E+01 -0.22506658972E+02  0.59301936968E+02  0.49999987125E+02 0.  0.
        -12    1    1    2    0    0 -0.21067228568E+02 -0.81451333988E+01  0.22506658972E+02  0.31886063032E+02  0.00000000000E+00 0.  1.
         11    1    3    3    0    0  0.12000670323E+01  0.44915987887E+01 -0.17819100411E+01  0.49789380611E+01  0.51100000000E-03 0. -1.
        -11    1    3    3    0    0 -0.40889224323E+01  0.19552158694E+02 -0.21439135186E+01  0.20089862162E+02  0.51100000000E-03 0.  1.
         12    1    3    3    0    0  0.23956083967E+02 -0.15898624084E+02 -0.18580835412E+02  0.34233136745E+02  0.00000000000E+00 0. -1.
</event>
<event>
 7    1  0.1215217E-011  0.5930194E+02  0.7816164E-02  0.1266605E+00
        -11   -1    0    0    0    0  0.00000000000E+00  0.00000000000E+00  0.45593999997E+02  0.45594000000E+02  0.51100000000E-03 0.  1.
         11   -1    0    0    0    0 -0.00000000000E+00 -0.00000000000E+00 -0.45593999997E+02  0.45594000000E+02  0.51100000000E-03 0. -1.
    9900012    2    1    2    0    0  0.81271717969E+01  0.21623411394E+02 -0.21979485442E+02  0.59301943141E+02  0.49999998383E+02 0.  0.
        -12    1    1    2    0    0 -0.81271717969E+01 -0.21623411394E+02  0.21979485442E+02  0.31886056859E+02  0.00000000000E+00 0.  1.
         11    1    3    3    0    0  0.36123194897E+01  0.18053274153E+02 -0.28397486501E+02  0.33843563636E+02  0.51100000000E-03 0. -1.
        -11    1    3    3    0    0 -0.24229003098E+01  0.11781347098E+02  0.82066187847E+01  0.14560878321E+02  0.51100000000E-03 0.  1.
         12    1    3    3    0    0  0.69377526169E+01 -0.82112098572E+01 -0.17886177258E+01  0.10897501184E+02  0.00000000000E+00 0. -1.
</event>
<event>
 7    1  0.1215217E-011  0.5930196E+02  0.7816164E-02  0.1266605E+00
        -11   -1    0    0    0    0  0.00000000000E+00  0.00000000000E+00  0.45593999997E+02  0.45594000000E+02  0.51100000000E-03 0.  1.
         11   -1    0    0    0    0 -0.00000000000E+00 -0.00000000000E+00 -0.45593999997E+02  0.45594000000E+02  0.51100000000E-03 0. -1.
    9900012    2    1    2    0    0 -0.18427352953E+02 -0.27374189817E+01 -0.25877770640E+02  0.59301955830E+02  0.50000021524E+02 0.  0.
        -12    1    1    2    0    0  0.18427352953E+02  0.27374189817E+01  0.25877770640E+02  0.31886044170E+02  0.00000000000E+00 0.  1.
         11    1    3    3    0    0  0.10108914530E+01 -0.33436165975E+00 -0.16683714846E+02  0.16717656552E+02  0.51100000000E-03 0. -1.
        -11    1    3    3    0    0 -0.20057077850E+02 -0.16398407088E+02 -0.14685551068E+00  0.25907830741E+02  0.51100000000E-03 0.  1.
         12    1    3    3    0    0  0.61883344428E+00  0.13995349766E+02 -0.90472002827E+01  0.16676468537E+02  0.00000000000E+00 0. -1.
</event>
<event>
 7    1  0.1215217E-011  0.5930193E+02  0.7816164E-02  0.1266605E+00
        -11   -1    0    0    0    0  0.00000000000E+00  0.00000000000E+00  0.45593999997E+02  0.45594000000E+02  0.51100000000E-03 0.  1.
         11   -1    0    0    0    0 -0.00000000000E+00 -0.00000000000E+00 -0.45593999997E+02  0.45594000000E+02  0.51100000000E-03 0. -1.
    9900012    2    1    2    0    0  0.11021733631E+02  0.24981872553E+02  0.16466602030E+02  0.59301928575E+02  0.49999971818E+02 0.  0.
        -12    1    1    2    0    0 -0.11021733631E+02 -0.24981872553E+02 -0.16466602030E+02  0.31886071425E+02  0.00000000000E+00 0.  1.
         11    1    3    3    0    0  0.11917028736E+02  0.14159291567E+02  0.11575602266E+02  0.21828780993E+02  0.51100000000E-03 0. -1.
        -11    1    3    3    0    0  0.54895648615E+01 -0.63662865775E+01  0.14508292255E+02  0.16767691301E+02  0.51100000000E-03 0.  1.
         12    1    3    3    0    0 -0.63848599665E+01  0.17188867564E+02 -0.96172924916E+01  0.20705456280E+02  0.00000000000E+00 0. -1.
</event>
<event>
 7    1  0.1215217E-011  0.5930201E+02  0.7816164E-02  0.1266605E+00
        -11   -1    0    0    0    0  0.00000000000E+00  0.00000000000E+00  0.45593999997E+02  0.45594000000E+02  0.51100000000E-03 0. -1.
         11   -1    0    0    0    0 -0.00000000000E+00 -0.00000000000E+00 -0.45593999997E+02  0.45594000000E+02  0.51100000000E-03 0.  1.
    9900012    2    1    2    0    0 -0.31441975968E+02 -0.31977325543E+01 -0.42300403429E+01  0.59302006404E+02  0.50000113760E+02 0.  0.
        -12    1    1    2    0    0  0.31441975968E+02  0.31977325543E+01  0.42300403429E+01  0.31885993596E+02  0.00000000000E+00 0.  1.
         11    1    3    3    0    0 -0.19226167189E+02 -0.22117692189E+01 -0.20767120087E+02  0.28386805118E+02  0.51100000000E-03 0. -1.
        -11    1    3    3    0    0 -0.57204816693E+01  0.42663527056E+01 -0.43928732551E+01  0.83799171615E+01  0.51100000000E-03 0.  1.
         12    1    3    3    0    0 -0.64953271100E+01 -0.52523160410E+01  0.20929952999E+02  0.22535284125E+02  0.00000000000E+00 0. -1.
</event>
<event>
 7    1  0.1215217E-011  0.5930194E+02  0.7816164E-02  0.1266605E+00
        -11   -1    0    0    0    0  0.00000000000E+00  0.00000000000E+00  0.45593999997E+02  0.45594000000E+02  0.51100000000E-03 0.  1.
         11   -1    0    0    0    0 -0.00000000000E+00 -0.00000000000E+00 -0.45593999997E+02  0.45594000000E+02  0.51100000000E-03 0. -1.
    9900012    2    1    2    0    0 -0.24329229411E+02  0.13391684817E+02 -0.15667558913E+02  0.59301936771E+02  0.49999986765E+02 0.  0.
        -12    1    1    2    0    0  0.24329229411E+02 -0.13391684817E+02  0.15667558913E+02  0.31886063229E+02  0.00000000000E+00 0.  1.
         11    1    3    3    0    0 -0.13708107445E+02  0.82583946196E+01  0.83060915830E+00  0.16025080445E+02  0.51100000000E-03 0. -1.
        -11    1    3    3    0    0 -0.12696279523E+02 -0.54759640108E+01  0.83684518880E+01  0.16162075450E+02  0.51100000000E-03 0.  1.
         12    1    3    3    0    0  0.20751575577E+01  0.10609254208E+02 -0.24866619959E+02  0.27114780876E+02  0.00000000000E+00 0. -1.
</event>
<event>
 7    1  0.1215217E-011  0.5930194E+02  0.7816164E-02  0.1266605E+00
        -11   -1    0    0    0    0  0.00000000000E+00  0.00000000000E+00  0.45593999997E+02  0.45594000000E+02  0.51100000000E-03 0. -1.
         11   -1    0    0    0    0 -0.00000000000E+00 -0.00000000000E+00 -0.45593999997E+02  0.45594000000E+02  0.51100000000E-03 0.  1.
    9900012    2    1    2    0    0 -0.20372121654E+02  0.23948134614E+02  0.53088790338E+01  0.59301942094E+02  0.49999996473E+02 0.  0.
        -12    1    1    2    0    0  0.20372121654E+02 -0.23948134614E+02 -0.53088790338E+01  0.31886057906E+02  0.00000000000E+00 0.  1.
         11    1    3    3    0    0  0.29649754609E+01  0.93217954018E+01 -0.98498117392E+00  0.98314361703E+01  0.51100000000E-03 0. -1.
        -11    1    3    3    0    0 -0.16765711350E+02  0.16543312406E+02 -0.14445629370E+02  0.27630535112E+02  0.51100000000E-03 0.  1.
        -12    1    3    3    0    0 -0.65713857650E+01 -0.19169731934E+01  0.20739489578E+02  0.21839970812E+02  0.00000000000E+00 0.  1.
</event>
<event>
 7    1  0.1215217E-011  0.5930195E+02  0.7816164E-02  0.1266605E+00
        -11   -1    0    0    0    0  0.00000000000E+00  0.00000000000E+00  0.45593999997E+02  0.45594000000E+02  0.51100000000E-03 0.  1.
         11   -1    0    0    0    0 -0.00000000000E+00 -0.00000000000E+00 -0.45593999997E+02  0.45594000000E+02  0.51100000000E-03 0. -1.
    9900012    2    1    2    0    0 -0.61914598794E+01  0.70116969335E+00 -0.31271298303E+02  0.59301954276E+02  0.50000018690E+02 0.  0.
        -12    1    1    2    0    0  0.61914598794E+01 -0.70116969335E+00  0.31271298303E+02  0.31886045724E+02  0.00000000000E+00 0.  1.
         11    1    3    3    0    0 -0.68606076829E+01  0.13758979007E+01 -0.94567724587E+01  0.11763995002E+02  0.51100000000E-03 0. -1.
        -11    1    3    3    0    0 -0.14165210873E+02 -0.74513643865E+01  0.44582674458E+01  0.16614818060E+02  0.51100000000E-03 0.  1.
         12    1    3    3    0    0  0.14834358676E+02  0.67766361792E+01 -0.26272793290E+02  0.30923141213E+02  0.00000000000E+00 0. -1.
</event>
<event>
 7    1  0.1215217E-011  0.5930205E+02  0.7816164E-02  0.1266604E+00
        -11   -1    0    0    0    0  0.00000000000E+00  0.00000000000E+00  0.45593999997E+02  0.45594000000E+02  0.51100000000E-03 0.  1.
         11   -1    0    0    0    0 -0.00000000000E+00 -0.00000000000E+00 -0.45593999997E+02  0.45594000000E+02  0.51100000000E-03 0. -1.
    9900012    2    1    2    0    0 -0.11738965982E+02  0.16698336435E+02 -0.24496454418E+02  0.59302046335E+02  0.50000186584E+02 0.  0.
        -12    1    1    2    0    0  0.11738965982E+02 -0.16698336435E+02  0.24496454418E+02  0.31885953665E+02  0.00000000000E+00 0.  1.
         11    1    3    3    0    0 -0.93381234335E+01  0.89787496253E+01 -0.53153054765E+01  0.14002534294E+02  0.51100000000E-03 0. -1.
        -11    1    3    3    0    0 -0.74701457214E+01 -0.14951957985E+02 -0.29823463096E+01  0.16978177595E+02  0.51100000000E-03 0.  1.
         12    1    3    3    0    0  0.50693031727E+01  0.22671544795E+02 -0.16198802632E+02  0.28321334446E+02  0.00000000000E+00 0. -1.
</event>
<event>
 7    1  0.1215217E-011  0.5930194E+02  0.7816164E-02  0.1266605E+00
        -11   -1    0    0    0    0  0.00000000000E+00  0.00000000000E+00  0.45593999997E+02  0.45594000000E+02  0.51100000000E-03 0.  1.
         11   -1    0    0    0    0 -0.00000000000E+00 -0.00000000000E+00 -0.45593999997E+02  0.45594000000E+02  0.51100000000E-03 0. -1.
    9900012    2    1    2    0    0 -0.10149820101E+02 -0.21966872397E+01 -0.30147580655E+02  0.59301938746E+02  0.49999990368E+02 0.  0.
        -12    1    1    2    0    0  0.10149820101E+02  0.21966872397E+01  0.30147580655E+02  0.31886061254E+02  0.00000000000E+00 0.  1.
         11    1    3    3    0    0 -0.34009821944E+01 -0.13664886076E+02 -0.58827532758E+01  0.15261146016E+02  0.51100000000E-03 0. -1.
        -11    1    3    3    0    0  0.32732830388E+01 -0.11215217670E+02 -0.53394412103E+01  0.12845431948E+02  0.51100000000E-03 0.  1.
         12    1    3    3    0    0 -0.10022120945E+02  0.22683416506E+02 -0.18925386169E+02  0.31195360782E+02  0.00000000000E+00 0. -1.
</event>
<event>
 7    1  0.1215217E-011  0.5930195E+02  0.7816164E-02  0.1266605E+00
        -11   -1    0    0    0    0  0.00000000000E+00  0.00000000000E+00  0.45593999997E+02  0.45594000000E+02  0.51100000000E-03 0.  1.
         11   -1    0    0    0    0 -0.00000000000E+00 -0.00000000000E+00 -0.45593999997E+02  0.45594000000E+02  0.51100000000E-03 0. -1.
    9900012    2    1    2    0    0 -0.22026468656E+02 -0.67362219690E+01 -0.22049448844E+02  0.59301949724E+02  0.50000010389E+02 0.  0.
        -12    1    1    2    0    0  0.22026468656E+02  0.67362219690E+01  0.22049448844E+02  0.31886050276E+02  0.00000000000E+00 0.  1.
         11    1    3    3    0    0 -0.37202362740E+01  0.79058376537E+01 -0.42830461325E+01  0.97307199824E+01  0.51100000000E-03 0. -1.
        -11    1    3    3    0    0  0.71114092620E+01  0.89837759174E+01 -0.29018604511E+01  0.11819524769E+02  0.51100000000E-03 0.  1.
         12    1    3    3    0    0 -0.25417641644E+02 -0.23625835540E+02 -0.14864542261E+02  0.37751704973E+02  0.00000000000E+00 0. -1.
</event>
<event>
 7    1  0.1215217E-011  0.5930195E+02  0.7816164E-02  0.1266605E+00
        -11   -1    0    0    0    0  0.00000000000E+00  0.00000000000E+00  0.45593999997E+02  0.45594000000E+02  0.51100000000E-03 0.  1.
         11   -1    0    0    0    0 -0.00000000000E+00 -0.00000000000E+00 -0.45593999997E+02  0.45594000000E+02  0.51100000000E-03 0. -1.
    9900012    2    1    2    0    0  0.13782431129E+02  0.33100273453E+01 -0.28562356842E+02  0.59301954193E+02  0.50000018538E+02 0.  0.
        -12    1    1    2    0    0 -0.13782431129E+02 -0.33100273453E+01  0.28562356842E+02  0.31886045807E+02  0.00000000000E+00 0.  1.
         11    1    3    3    0    0 -0.46066939485E+01  0.81071661208E+00 -0.10033707303E+01  0.47838941924E+01  0.51100000000E-03 0. -1.
        -11    1    3    3    0    0 -0.12569141580E+02  0.73100002263E+01 -0.33408683655E+01  0.14919142906E+02  0.51100000000E-03 0.  1.
         12    1    3    3    0    0  0.30958266657E+02 -0.48106894931E+01 -0.24218117747E+02  0.39598917094E+02  0.00000000000E+00 0. -1.
</event>
<event>
 7    1  0.1215217E-011  0.5930193E+02  0.7816164E-02  0.1266605E+00
        -11   -1    0    0    0    0  0.00000000000E+00  0.00000000000E+00  0.45593999997E+02  0.45594000000E+02  0.51100000000E-03 0.  1.
         11   -1    0    0    0    0 -0.00000000000E+00 -0.00000000000E+00 -0.45593999997E+02  0.45594000000E+02  0.51100000000E-03 0. -1.
    9900012    2    1    2    0    0 -0.51819224665E+01 -0.16344704384E+02 -0.26883448957E+02  0.59301929222E+02  0.49999972998E+02 0.  0.
        -12    1    1    2    0    0  0.51819224665E+01  0.16344704384E+02  0.26883448957E+02  0.31886070778E+02  0.00000000000E+00 0.  1.
         11    1    3    3    0    0 -0.19983283262E+02 -0.10484582363E+02 -0.79231907647E+01  0.23917253801E+02  0.51100000000E-03 0. -1.
        -11    1    3    3    0    0  0.88031987057E+01 -0.33063750490E+01 -0.24868198988E+02  0.26586758821E+02  0.51100000000E-03 0.  1.
        -12    1    3    3    0    0  0.59981620897E+01 -0.25537469719E+01  0.59079407956E+01  0.87979165997E+01  0.00000000000E+00 0.  1.
</event>
<event>
 7    1  0.1215217E-011  0.5930195E+02  0.7816164E-02  0.1266605E+00
        -11   -1    0    0    0    0  0.00000000000E+00  0.00000000000E+00  0.45593999997E+02  0.45594000000E+02  0.51100000000E-03 0.  1.
         11   -1    0    0    0    0 -0.00000000000E+00 -0.00000000000E+00 -0.45593999997E+02  0.45594000000E+02  0.51100000000E-03 0. -1.
    9900012    2    1    2    0    0 -0.78904903090E+01  0.20705651181E+02 -0.22928943901E+02  0.59301948244E+02  0.50000007690E+02 0.  0.
        -12    1    1    2    0    0  0.78904903090E+01 -0.20705651181E+02  0.22928943901E+02  0.31886051756E+02  0.00000000000E+00 0.  1.
         11    1    3    3    0    0 -0.55424881280E+01  0.50869088305E+01 -0.35592865308E+01  0.83225198689E+01  0.51100000000E-03 0. -1.
        -11    1    3    3    0    0 -0.21385245267E+02  0.64292710783E+01 -0.33682044360E-01  0.22330816745E+02  0.51100000000E-03 0.  1.
         12    1    3    3    0    0  0.19037243086E+02  0.91894712726E+01 -0.19335975325E+02  0.28648611631E+02  0.00000000000E+00 0. -1.
</event>
<event>
 7    1  0.1215217E-011  0.5930194E+02  0.7816164E-02  0.1266605E+00
        -11   -1    0    0    0    0  0.00000000000E+00  0.00000000000E+00  0.45593999997E+02  0.45594000000E+02  0.51100000000E-03 0. -1.
         11   -1    0    0    0    0 -0.00000000000E+00 -0.00000000000E+00 -0.45593999997E+02  0.45594000000E+02  0.51100000000E-03 0.  1.
    9900012    2    1    2    0    0  0.16327788784E+02 -0.17988290028E+01  0.27329260485E+02  0.59301937982E+02  0.49999988974E+02 0.  0.
        -12    1    1    2    0    0 -0.16327788784E+02  0.17988290028E+01 -0.27329260485E+02  0.31886062018E+02  0.00000000000E+00 0.  1.
         11    1    3    3    0    0  0.71660356092E+00  0.12985547272E+01  0.19213255417E+01  0.24271912041E+01  0.51100000000E-03 0. -1.
        -11    1    3    3    0    0  0.14465329268E+02  0.16601268425E+02  0.29411465113E+02  0.36740742297E+02  0.51100000000E-03 0.  1.
         12    1    3    3    0    0  0.11458559548E+01 -0.19698652155E+02 -0.40035301700E+01  0.20134004481E+02  0.00000000000E+00 0. -1.
</event>
<event>
 7    1  0.1215217E-011  0.5930193E+02  0.7816164E-02  0.1266605E+00
        -11   -1    0    0    0    0  0.00000000000E+00  0.00000000000E+00  0.45593999997E+02  0.45594000000E+02  0.51100000000E-03 0.  1.
         11   -1    0    0    0    0 -0.00000000000E+00 -0.00000000000E+00 -0.45593999997E+02  0.45594000000E+02  0.51100000000E-03 0. -1.
    9900012    2    1    2    0    0 -0.19435126965E+02  0.15853397300E+02  0.19689257289E+02  0.59301933785E+02  0.49999981319E+02 0.  0.
        -12    1    1    2    0    0  0.19435126965E+02 -0.15853397300E+02 -0.19689257289E+02  0.31886066215E+02  0.00000000000E+00 0.  1.
         11    1    3    3    0    0 -0.10494508468E+02 -0.12900541811E+02 -0.14848165278E+01  0.16696208174E+02  0.51100000000E-03 0. -1.
        -11    1    3    3    0    0 -0.43738705487E+01  0.13690153813E+02 -0.20835226735E+01  0.14522125257E+02  0.51100000000E-03 0.  1.
        -12    1    3    3    0    0 -0.45667479483E+01  0.15063785298E+02  0.23257596490E+02  0.28083600354E+02  0.00000000000E+00 0.  1.
</event>
<event>
 7    1  0.1215217E-011  0.5930197E+02  0.7816164E-02  0.1266605E+00
        -11   -1    0    0    0    0  0.00000000000E+00  0.00000000000E+00  0.45593999997E+02  0.45594000000E+02  0.51100000000E-03 0.  1.
         11   -1    0    0    0    0 -0.00000000000E+00 -0.00000000000E+00 -0.45593999997E+02  0.45594000000E+02  0.51100000000E-03 0. -1.
    9900012    2    1    2    0    0 -0.11094452294E+02 -0.13368090992E+02  0.26738105563E+02  0.59301968301E+02  0.50000044268E+02 0.  0.
        -12    1    1    2    0    0  0.11094452294E+02  0.13368090992E+02 -0.26738105563E+02  0.31886031699E+02  0.00000000000E+00 0.  1.
         11    1    3    3    0    0 -0.76422157942E+01 -0.55545534392E+01  0.33079125979E+02  0.34401818295E+02  0.51100000000E-03 0. -1.
        -11    1    3    3    0    0  0.32771971815E+01 -0.16553787049E+01  0.74844944715E+01  0.83365435151E+01  0.51100000000E-03 0.  1.
         12    1    3    3    0    0 -0.67294336809E+01 -0.61581588474E+01 -0.13825514888E+02  0.16563606491E+02  0.00000000000E+00 0. -1.
</event>
<event>
 7    1  0.1215217E-011  0.5930197E+02  0.7816164E-02  0.1266605E+00
        -11   -1    0    0    0    0  0.00000000000E+00  0.00000000000E+00  0.45593999997E+02  0.45594000000E+02  0.51100000000E-03 0.  1.
         11   -1    0    0    0    0 -0.00000000000E+00 -0.00000000000E+00 -0.45593999997E+02  0.45594000000E+02  0.51100000000E-03 0. -1.
    9900012    2    1    2    0    0 -0.14516982476E+01 -0.27054268313E+02 -0.16813026123E+02  0.59301973135E+02  0.50000053085E+02 0.  0.
        -12    1    1    2    0    0  0.14516982476E+01  0.27054268313E+02  0.16813026123E+02  0.31886026865E+02  0.00000000000E+00 0.  1.
         11    1    3    3    0    0  0.26831436897E+01 -0.18493796779E+02 -0.18229850799E+02  0.26106459732E+02  0.51100000000E-03 0. -1.
        -11    1    3    3    0    0  0.49124521226E+01 -0.95583786759E+01 -0.12551192466E+02  0.16523535377E+02  0.51100000000E-03 0.  1.
        -12    1    3    3    0    0 -0.90472940599E+01  0.99790714145E+00  0.13968017141E+02  0.16671978026E+02  0.00000000000E+00 0.  1.
</event>
<event>
 7    1  0.1215217E-011  0.5930173E+02  0.7816164E-02  0.1266606E+00
        -11   -1    0    0    0    0  0.00000000000E+00  0.00000000000E+00  0.45593999997E+02  0.45594000000E+02  0.51100000000E-03 0.  1.
         11   -1    0    0    0    0 -0.00000000000E+00 -0.00000000000E+00 -0.45593999997E+02  0.45594000000E+02  0.51100000000E-03 0. -1.
    9900012    2    1    2    0    0  0.18540156918E+02 -0.36550339981E+01 -0.25683410458E+02  0.59301729211E+02  0.49999608224E+02 0.  0.
        -12    1    1    2    0    0 -0.18540156918E+02  0.36550339981E+01  0.25683410458E+02  0.31886270789E+02  0.00000000000E+00 0.  1.
         11    1    3    3    0    0  0.13336767320E+02 -0.64500114324E+01  0.85312737212E+01  0.17095456753E+02  0.51100000000E-03 0. -1.
        -11    1    3    3    0    0 -0.69720305153E+01  0.44349095279E+01 -0.32247031622E+01  0.88699685891E+01  0.51100000000E-03 0.  1.
         12    1    3    3    0    0  0.12175420114E+02 -0.16399320936E+01 -0.30989981017E+02  0.33336303869E+02  0.00000000000E+00 0. -1.
</event>
<event>
 7    1  0.1215217E-011  0.5930195E+02  0.7816164E-02  0.1266605E+00
        -11   -1    0    0    0    0  0.00000000000E+00  0.00000000000E+00  0.45593999997E+02  0.45594000000E+02  0.51100000000E-03 0. -1.
         11   -1    0    0    0    0 -0.00000000000E+00 -0.00000000000E+00 -0.45593999997E+02  0.45594000000E+02  0.51100000000E-03 0.  1.
    9900012    2    1    2    0    0  0.70672691689E+01 -0.23026631278E+02  0.20893731715E+02  0.59301951851E+02  0.50000014269E+02 0.  0.
        -12    1    1    2    0    0 -0.70672691689E+01  0.23026631278E+02 -0.20893731715E+02  0.31886048149E+02  0.00000000000E+00 0.  1.
         11    1    3    3    0    0 -0.91511365133E+01 -0.83141084987E+01  0.12745417708E+02  0.17757065423E+02  0.51100000000E-03 0. -1.
        -11    1    3    3    0    0  0.20457600659E+02  0.27418321564E-01  0.14363003443E+02  0.24996200605E+02  0.51100000000E-03 0.  1.
        -12    1    3    3    0    0 -0.42391949771E+01 -0.14739941101E+02 -0.62146894357E+01  0.16548685824E+02  0.00000000000E+00 0.  1.
</event>
<event>
 7    1  0.1215217E-011  0.5930195E+02  0.7816164E-02  0.1266605E+00
        -11   -1    0    0    0    0  0.00000000000E+00  0.00000000000E+00  0.45593999997E+02  0.45594000000E+02  0.51100000000E-03 0. -1.
         11   -1    0    0    0    0 -0.00000000000E+00 -0.00000000000E+00 -0.45593999997E+02  0.45594000000E+02  0.51100000000E-03 0.  1.
    9900012    2    1    2    0    0 -0.27225549816E+02 -0.46126291462E+01 -0.15944069992E+02  0.59301948530E+02  0.50000008211E+02 0.  0.
        -12    1    1    2    0    0  0.27225549816E+02  0.46126291462E+01  0.15944069992E+02  0.31886051470E+02  0.00000000000E+00 0.  1.
         11    1    3    3    0    0 -0.23566908972E+01  0.64335207868E+01  0.76597768005E+01  0.10276982173E+02  0.51100000000E-03 0. -1.
        -11    1    3    3    0    0 -0.28017242329E+02 -0.19507639942E+01 -0.56409708033E+01  0.28645975281E+02  0.51100000000E-03 0.  1.
        -12    1    3    3    0    0  0.31483834104E+01 -0.90953859389E+01 -0.17962875989E+02  0.20378991076E+02  0.00000000000E+00 0.  1.
</event>
<event>
 7    1  0.1215217E-011  0.5930200E+02  0.7816164E-02  0.1266605E+00
        -11   -1    0    0    0    0  0.00000000000E+00  0.00000000000E+00  0.45593999997E+02  0.45594000000E+02  0.51100000000E-03 0.  1.
         11   -1    0    0    0    0 -0.00000000000E+00 -0.00000000000E+00 -0.45593999997E+02  0.45594000000E+02  0.51100000000E-03 0. -1.
    9900012    2    1    2    0    0 -0.30821433250E+02  0.46522408811E+01 -0.67166091945E+01  0.59302001005E+02  0.50000103913E+02 0.  0.
        -12    1    1    2    0    0  0.30821433250E+02 -0.46522408811E+01  0.67166091945E+01  0.31885998995E+02  0.00000000000E+00 0.  1.
         11    1    3    3    0    0  0.76454076734E+01  0.84166862166E+01  0.47323682443E+01  0.12316175333E+02  0.51100000000E-03 0. -1.
        -11    1    3    3    0    0 -0.11126982124E+02 -0.11898422016E+02 -0.83151701056E+01  0.18290003603E+02  0.51100000000E-03 0.  1.
         12    1    3    3    0    0 -0.27339858800E+02  0.81339766806E+01 -0.31338073331E+01  0.28695822069E+02  0.00000000000E+00 0. -1.
</event>
<event>
 7    1  0.1215217E-011  0.5930195E+02  0.7816164E-02  0.1266605E+00
        -11   -1    0    0    0    0  0.00000000000E+00  0.00000000000E+00  0.45593999997E+02  0.45594000000E+02  0.51100000000E-03 0.  1.
         11   -1    0    0    0    0 -0.00000000000E+00 -0.00000000000E+00 -0.45593999997E+02  0.45594000000E+02  0.51100000000E-03 0. -1.
    9900012    2    1    2    0    0 -0.30459266951E+02  0.65742153455E+01 -0.67626238721E+01  0.59301947685E+02  0.50000006670E+02 0.  0.
        -12    1    1    2    0    0  0.30459266951E+02 -0.65742153455E+01  0.67626238721E+01  0.31886052315E+02  0.00000000000E+00 0.  1.
         11    1    3    3    0    0 -0.44971107473E+01 -0.38123546796E+01  0.31195198728E+01  0.66700418120E+01  0.51100000000E-03 0. -1.
        -11    1    3    3    0    0  0.11639135024E+02  0.35901057803E+01  0.25605306319E+01  0.12446471026E+02  0.51100000000E-03 0.  1.
         12    1    3    3    0    0 -0.37601291228E+02  0.67964642449E+01 -0.12442674377E+02  0.40185434847E+02  0.00000000000E+00 0. -1.
</event>
<event>
 7    1  0.1215217E-011  0.5930196E+02  0.7816164E-02  0.1266605E+00
        -11   -1    0    0    0    0  0.00000000000E+00  0.00000000000E+00  0.45593999997E+02  0.45594000000E+02  0.51100000000E-03 0. -1.
         11   -1    0    0    0    0 -0.00000000000E+00 -0.00000000000E+00 -0.45593999997E+02  0.45594000000E+02  0.51100000000E-03 0.  1.
    9900012    2    1    2    0    0  0.16590726966E+01  0.47762973816E+01  0.31482601434E+02  0.59301957098E+02  0.50000023838E+02 0.  0.
        -12    1    1    2    0    0 -0.16590726966E+01 -0.47762973816E+01 -0.31482601434E+02  0.31886042902E+02  0.00000000000E+00 0.  1.
         11    1    3    3    0    0  0.52431502281E+01 -0.10129511267E+02  0.46698196023E+01  0.12324968081E+02  0.51100000000E-03 0. -1.
        -11    1    3    3    0    0  0.12318654355E+01 -0.63608197497E+01  0.24156978523E+02  0.25010740333E+02  0.51100000000E-03 0.  1.
        -12    1    3    3    0    0 -0.48159429670E+01  0.21266628398E+02  0.26558033079E+01  0.21966248685E+02  0.00000000000E+00 0.  1.
</event>
<event>
 7    1  0.1215217E-011  0.5930196E+02  0.7816164E-02  0.1266605E+00
        -11   -1    0    0    0    0  0.00000000000E+00  0.00000000000E+00  0.45593999997E+02  0.45594000000E+02  0.51100000000E-03 0.  1.
         11   -1    0    0    0    0 -0.00000000000E+00 -0.00000000000E+00 -0.45593999997E+02  0.45594000000E+02  0.51100000000E-03 0. -1.
    9900012    2    1    2    0    0 -0.71276157362E+01  0.24199761752E+01 -0.30984844642E+02  0.59301956215E+02  0.50000022227E+02 0.  0.
        -12    1    1    2    0    0  0.71276157362E+01 -0.24199761752E+01  0.30984844642E+02  0.31886043785E+02  0.00000000000E+00 0.  1.
         11    1    3    3    0    0  0.26243796089E+01  0.66993430366E+01 -0.21343415321E+02  0.22523541979E+02  0.51100000000E-03 0. -1.
        -11    1    3    3    0    0 -0.49961353415E+01  0.99854555725E+01 -0.16762427764E+02  0.20140746663E+02  0.51100000000E-03 0.  1.
        -12    1    3    3    0    0 -0.47558600037E+01 -0.14264822434E+02  0.71209984433E+01  0.16637667573E+02  0.00000000000E+00 0.  1.
</event>
<event>
 7    1  0.1215217E-011  0.5930195E+02  0.7816164E-02  0.1266605E+00
        -11   -1    0    0    0    0  0.00000000000E+00  0.00000000000E+00  0.45593999997E+02  0.45594000000E+02  0.51100000000E-03 0.  1.
         11   -1    0    0    0    0 -0.00000000000E+00 -0.00000000000E+00 -0.45593999997E+02  0.45594000000E+02  0.51100000000E-03 0. -1.
    9900012    2    1    2    0    0  0.15730792668E+02  0.22739094825E+02 -0.15880668436E+02  0.59301954441E+02  0.50000018991E+02 0.  0.
        -12    1    1    2    0    0 -0.15730792668E+02 -0.22739094825E+02  0.15880668436E+02  0.31886045559E+02  0.00000000000E+00 0.  1.
         11    1    3    3    0    0  0.19399364325E+01  0.18798207850E+02 -0.19109046799E+02  0.26875484024E+02  0.51100000000E-03 0. -1.
        -11    1    3    3    0    0 -0.32818577174E+01 -0.89866133217E+01 -0.31658671416E+01  0.10077327229E+02  0.51100000000E-03 0.  1.
         12    1    3    3    0    0  0.17072713953E+02  0.12927500297E+02  0.63942455041E+01  0.22349143187E+02  0.00000000000E+00 0. -1.
</event>
<event>
 7    1  0.1215217E-011  0.5930210E+02  0.7816164E-02  0.1266604E+00
        -11   -1    0    0    0    0  0.00000000000E+00  0.00000000000E+00  0.45593999997E+02  0.45594000000E+02  0.51100000000E-03 0.  1.
         11   -1    0    0    0    0 -0.00000000000E+00 -0.00000000000E+00 -0.45593999997E+02  0.45594000000E+02  0.51100000000E-03 0. -1.
    9900012    2    1    2    0    0  0.20478782724E+02  0.12542490764E+02 -0.20976563290E+02  0.59302096784E+02  0.50000278590E+02 0.  0.
        -12    1    1    2    0    0 -0.20478782724E+02 -0.12542490764E+02  0.20976563290E+02  0.31885903216E+02  0.00000000000E+00 0.  1.
         11    1    3    3    0    0  0.20724718399E+02  0.10629489826E+02 -0.25649771923E+02  0.34646945127E+02  0.51100000000E-03 0. -1.
        -11    1    3    3    0    0  0.74965543378E+01  0.18967865827E+01 -0.71438020341E+01  0.10527584435E+02  0.51100000000E-03 0.  1.
        -12    1    3    3    0    0 -0.77424900127E+01  0.16214355131E-01  0.11817010667E+02  0.14127567222E+02  0.00000000000E+00 0.  1.
</event>
<event>
 7    1  0.1215217E-011  0.5930194E+02  0.7816164E-02  0.1266605E+00
        -11   -1    0    0    0    0  0.00000000000E+00  0.00000000000E+00  0.45593999997E+02  0.45594000000E+02  0.51100000000E-03 0.  1.
         11   -1    0    0    0    0 -0.00000000000E+00 -0.00000000000E+00 -0.45593999997E+02  0.45594000000E+02  0.51100000000E-03 0. -1.
    9900012    2    1    2    0    0 -0.31564128365E+02  0.34818472988E+01  0.28815635374E+01  0.59301939277E+02  0.49999991335E+02 0.  0.
        -12    1    1    2    0    0  0.31564128365E+02 -0.34818472988E+01 -0.28815635374E+01  0.31886060723E+02  0.00000000000E+00 0.  1.
         11    1    3    3    0    0 -0.47523352539E+01  0.16845226804E+01 -0.93496014587E+01  0.10622492868E+02  0.51100000000E-03 0. -1.
        -11    1    3    3    0    0 -0.13675564251E+02 -0.58951486396E+01 -0.12630827486E+02  0.19527202522E+02  0.51100000000E-03 0.  1.
        -12    1    3    3    0    0 -0.13136228859E+02  0.76924732580E+01  0.24861992482E+02  0.29152243887E+02  0.00000000000E+00 0.  1.
</event>
<event>
 7    1  0.1215217E-011  0.5930195E+02  0.7816164E-02  0.1266605E+00
        -11   -1    0    0    0    0  0.00000000000E+00  0.00000000000E+00  0.45593999997E+02  0.45594000000E+02  0.51100000000E-03 0.  1.
         11   -1    0    0    0    0 -0.00000000000E+00 -0.00000000000E+00 -0.45593999997E+02  0.45594000000E+02  0.51100000000E-03 0. -1.
    9900012    2    1    2    0    0 -0.24628470292E+02  0.33163887459E+00 -0.20249665192E+02  0.59301945467E+02  0.50000002626E+02 0.  0.
        -12    1    1    2    0    0  0.24628470292E+02 -0.33163887459E+00  0.20249665192E+02  0.31886054533E+02  0.00000000000E+00 0.  1.
         11    1    3    3    0    0 -0.53327302578E+01 -0.49937459272E+01 -0.18396305007E+02  0.19793927062E+02  0.51100000000E-03 0. -1.
        -11    1    3    3    0    0 -0.87275049826E+01  0.19517746719E+02  0.17437553337E+01  0.21451164610E+02  0.51100000000E-03 0.  1.
         12    1    3    3    0    0 -0.10568235052E+02 -0.14192361917E+02 -0.35971155185E+01  0.18056853795E+02  0.00000000000E+00 0. -1.
</event>
<event>
 7    1  0.1215217E-011  0.5930228E+02  0.7816164E-02  0.1266604E+00
        -11   -1    0    0    0    0  0.00000000000E+00  0.00000000000E+00  0.45593999997E+02  0.45594000000E+02  0.51100000000E-03 0. -1.
         11   -1    0    0    0    0 -0.00000000000E+00 -0.00000000000E+00 -0.45593999997E+02  0.45594000000E+02  0.51100000000E-03 0.  1.
    9900012    2    1    2    0    0  0.24764515132E+02 -0.14225557880E+02  0.14179251704E+02  0.59302283988E+02  0.50000620002E+02 0.  0.
        -12    1    1    2    0    0 -0.24764515132E+02  0.14225557880E+02 -0.14179251704E+02  0.31885716012E+02  0.00000000000E+00 0.  1.
         11    1    3    3    0    0  0.12102251815E+02 -0.90737565306E+01 -0.34267340972E+01  0.15509354062E+02  0.51100000000E-03 0. -1.
        -11    1    3    3    0    0  0.76796753839E+01 -0.19027060168E+02  0.20234842429E+02  0.28817621016E+02  0.51100000000E-03 0.  1.
        -12    1    3    3    0    0  0.49825879331E+01  0.13875258818E+02 -0.26288566285E+01  0.14975308910E+02  0.00000000000E+00 0.  1.
</event>
<event>
 7    1  0.1215217E-011  0.5930167E+02  0.7816164E-02  0.1266606E+00
        -11   -1    0    0    0    0  0.00000000000E+00  0.00000000000E+00  0.45593999997E+02  0.45594000000E+02  0.51100000000E-03 0.  1.
         11   -1    0    0    0    0 -0.00000000000E+00 -0.00000000000E+00 -0.45593999997E+02  0.45594000000E+02  0.51100000000E-03 0. -1.
    9900012    2    1    2    0    0  0.18239821514E+02 -0.21271847408E+02 -0.15216939697E+02  0.59301673232E+02  0.49999506132E+02 0.  0.
        -12    1    1    2    0    0 -0.18239821514E+02  0.21271847408E+02  0.15216939697E+02  0.31886326768E+02  0.00000000000E+00 0.  1.
         11    1    3    3    0    0  0.13659295241E+02  0.25751263786E+00 -0.73723337634E+01  0.15523980308E+02  0.51100000000E-03 0. -1.
        -11    1    3    3    0    0  0.12931483115E+02 -0.16350941146E+02  0.10217441948E+02  0.23215784547E+02  0.51100000000E-03 0.  1.
        -12    1    3    3    0    0 -0.83509568418E+01 -0.51784189000E+01 -0.18062047881E+02  0.20561908378E+02  0.00000000000E+00 0.  1.
</event>
<event>
 7    1  0.1215217E-011  0.5930186E+02  0.7816164E-02  0.1266605E+00
        -11   -1    0    0    0    0  0.00000000000E+00  0.00000000000E+00  0.45593999997E+02  0.45594000000E+02  0.51100000000E-03 0.  1.
         11   -1    0    0    0    0 -0.00000000000E+00 -0.00000000000E+00 -0.45593999997E+02  0.45594000000E+02  0.51100000000E-03 0. -1.
    9900012    2    1    2    0    0 -0.30948729531E+01  0.30081576068E+02 -0.10111702044E+02  0.59301859193E+02  0.49999845282E+02 0.  0.
        -12    1    1    2    0    0  0.30948729531E+01 -0.30081576068E+02  0.10111702044E+02  0.31886140807E+02  0.00000000000E+00 0.  1.
         11    1    3    3    0    0  0.60782729797E+00 -0.21585149357E+01 -0.17714984599E+02  0.17856352381E+02  0.51100000000E-03 0. -1.
        -11    1    3    3    0    0 -0.21940977531E+01 -0.27339336830E+01  0.53115295878E+01  0.63640242894E+01  0.51100000000E-03 0.  1.
         12    1    3    3    0    0 -0.15086024980E+01  0.34974024687E+02  0.22917529677E+01  0.35081482522E+02  0.00000000000E+00 0. -1.
</event>
<event>
 7    1  0.1215217E-011  0.5930192E+02  0.7816164E-02  0.1266605E+00
        -11   -1    0    0    0    0  0.00000000000E+00  0.00000000000E+00  0.45593999997E+02  0.45594000000E+02  0.51100000000E-03 0.  1.
         11   -1    0    0    0    0 -0.00000000000E+00 -0.00000000000E+00 -0.45593999997E+02  0.45594000000E+02  0.51100000000E-03 0. -1.
    9900012    2    1    2    0    0 -0.27236750363E+02 -0.10108811161E+02 -0.13141276728E+02  0.59301924865E+02  0.49999965053E+02 0.  0.
        -12    1    1    2    0    0  0.27236750363E+02  0.10108811161E+02  0.13141276728E+02  0.31886075135E+02  0.00000000000E+00 0.  1.
         11    1    3    3    0    0 -0.27379373812E+02 -0.12972313989E+02 -0.23071168821E+02  0.38081358584E+02  0.51100000000E-03 0. -1.
        -11    1    3    3    0    0  0.73747998569E-01 -0.74401762293E+01  0.85381281105E+00  0.74893696442E+01  0.51100000000E-03 0.  1.
        -12    1    3    3    0    0  0.68875450330E-01  0.10303679057E+02  0.90760792822E+01  0.13731196637E+02  0.00000000000E+00 0.  1.
</event>
<event>
 7    1  0.1215217E-011  0.5930193E+02  0.7816164E-02  0.1266605E+00
        -11   -1    0    0    0    0  0.00000000000E+00  0.00000000000E+00  0.45593999997E+02  0.45594000000E+02  0.51100000000E-03 0.  1.
         11   -1    0    0    0    0 -0.00000000000E+00 -0.00000000000E+00 -0.45593999997E+02  0.45594000000E+02  0.51100000000E-03 0. -1.
    9900012    2    1    2    0    0  0.30666824523E+02 -0.82020525235E+01 -0.29989607044E+01  0.59301928476E+02  0.49999971637E+02 0.  0.
        -12    1    1    2    0    0 -0.30666824523E+02  0.82020525235E+01  0.29989607044E+01  0.31886071524E+02  0.00000000000E+00 0.  1.
         11    1    3    3    0    0  0.15439443756E+02 -0.23422202887E+02  0.11307096351E+01  0.28075870709E+02  0.51100000000E-03 0.  1.
        -11    1    3    3    0    0 -0.50154911558E+01  0.20897965009E+01  0.28133106846E+01  0.61185879268E+01  0.51100000000E-03 0. -1.
         12    1    3    3    0    0  0.20242871923E+02  0.13130353862E+02 -0.69429810241E+01  0.25107469840E+02  0.00000000000E+00 0. -1.
</event>
<event>
 7    1  0.1215217E-011  0.5930195E+02  0.7816164E-02  0.1266605E+00
        -11   -1    0    0    0    0  0.00000000000E+00  0.00000000000E+00  0.45593999997E+02  0.45594000000E+02  0.51100000000E-03 0. -1.
         11   -1    0    0    0    0 -0.00000000000E+00 -0.00000000000E+00 -0.45593999997E+02  0.45594000000E+02  0.51100000000E-03 0.  1.
    9900012    2    1    2    0    0  0.15191251592E+01 -0.15027013702E+02  0.28082041512E+02  0.59301953874E+02  0.50000017958E+02 0.  0.
        -12    1    1    2    0    0 -0.15191251592E+01  0.15027013702E+02 -0.28082041512E+02  0.31886046126E+02  0.00000000000E+00 0.  1.
         11    1    3    3    0    0 -0.11133903368E+02 -0.30052881998E+01  0.31761309030E+02  0.33790180718E+02  0.51100000000E-03 0. -1.
        -11    1    3    3    0    0  0.44829509902E+01 -0.33515076761E+01  0.73760158497E+01  0.92593230508E+01  0.51100000000E-03 0.  1.
        -12    1    3    3    0    0  0.81700775368E+01 -0.86702178257E+01 -0.11055283368E+02  0.16252450106E+02  0.00000000000E+00 0.  1.
</event>
<event>
 7    1  0.1215217E-011  0.5930192E+02  0.7816164E-02  0.1266605E+00
        -11   -1    0    0    0    0  0.00000000000E+00  0.00000000000E+00  0.45593999997E+02  0.45594000000E+02  0.51100000000E-03 0. -1.
         11   -1    0    0    0    0 -0.00000000000E+00 -0.00000000000E+00 -0.45593999997E+02  0.45594000000E+02  0.51100000000E-03 0.  1.
    9900012    2    1    2    0    0 -0.11089591547E+02  0.18297498609E+02  0.23642007801E+02  0.59301921080E+02  0.49999958148E+02 0.  0.
        -12    1    1    2    0    0  0.11089591547E+02 -0.18297498609E+02 -0.23642007801E+02  0.31886078920E+02  0.00000000000E+00 0.  1.
         11    1    3    3    0    0 -0.79240246677E+01  0.67466876815E+00  0.10423912000E+02  0.13111189364E+02  0.51100000000E-03 0. -1.
        -11    1    3    3    0    0  0.45828181292E+01  0.36633976932E+01 -0.13694676008E+02  0.14898552141E+02  0.51100000000E-03 0.  1.
         12    1    3    3    0    0 -0.77483850080E+01  0.13959432148E+02  0.26912771809E+02  0.31292179576E+02  0.00000000000E+00 0. -1.
</event>
<event>
 7    1  0.1215217E-011  0.5930194E+02  0.7816164E-02  0.1266605E+00
        -11   -1    0    0    0    0  0.00000000000E+00  0.00000000000E+00  0.45593999997E+02  0.45594000000E+02  0.51100000000E-03 0. -1.
         11   -1    0    0    0    0 -0.00000000000E+00 -0.00000000000E+00 -0.45593999997E+02  0.45594000000E+02  0.51100000000E-03 0.  1.
    9900012    2    1    2    0    0  0.28720910716E+02 -0.81814219827E+00  0.13826085169E+02  0.59301941916E+02  0.49999996149E+02 0.  0.
        -12    1    1    2    0    0 -0.28720910716E+02  0.81814219827E+00 -0.13826085169E+02  0.31886058084E+02  0.00000000000E+00 0.  1.
         11    1    3    3    0    0  0.15448404719E+02  0.14368884516E+02 -0.17384925908E+01  0.21169327041E+02  0.51100000000E-03 0.  1.
        -11    1    3    3    0    0  0.16953409231E+02 -0.12973640418E+02  0.21831964352E+02  0.30534703175E+02  0.51100000000E-03 0. -1.
         12    1    3    3    0    0 -0.36809032342E+01 -0.22133862965E+01 -0.62673865923E+01  0.75979117009E+01  0.00000000000E+00 0. -1.
</event>
<event>
 7    1  0.1215217E-011  0.5930194E+02  0.7816164E-02  0.1266605E+00
        -11   -1    0    0    0    0  0.00000000000E+00  0.00000000000E+00  0.45593999997E+02  0.45594000000E+02  0.51100000000E-03 0.  1.
         11   -1    0    0    0    0 -0.00000000000E+00 -0.00000000000E+00 -0.45593999997E+02  0.45594000000E+02  0.51100000000E-03 0. -1.
    9900012    2    1    2    0    0  0.16423631715E+02 -0.18301329402E+02 -0.20298921136E+02  0.59301944492E+02  0.50000000847E+02 0.  0.
        -12    1    1    2    0    0 -0.16423631715E+02  0.18301329402E+02  0.20298921136E+02  0.31886055508E+02  0.00000000000E+00 0.  1.
         11    1    3    3    0    0 -0.62677577161E+01 -0.14242864343E+02 -0.32103670865E+01  0.15888688699E+02  0.51100000000E-03 0. -1.
        -11    1    3    3    0    0 -0.68161893207E+01  0.53854060064E+01 -0.57695092758E+01  0.10428339861E+02  0.51100000000E-03 0.  1.
         12    1    3    3    0    0  0.29507578752E+02 -0.94438710654E+01 -0.11319044774E+02  0.32984915933E+02  0.00000000000E+00 0. -1.
</event>
<event>
 7    1  0.1215217E-011  0.5930194E+02  0.7816164E-02  0.1266605E+00
        -11   -1    0    0    0    0  0.00000000000E+00  0.00000000000E+00  0.45593999997E+02  0.45594000000E+02  0.51100000000E-03 0.  1.
         11   -1    0    0    0    0 -0.00000000000E+00 -0.00000000000E+00 -0.45593999997E+02  0.45594000000E+02  0.51100000000E-03 0. -1.
    9900012    2    1    2    0    0 -0.31862343942E+02 -0.11054167937E-01 -0.12294151408E+01  0.59301944344E+02  0.50000000578E+02 0.  0.
        -12    1    1    2    0    0  0.31862343942E+02  0.11054167937E-01  0.12294151408E+01  0.31886055656E+02  0.00000000000E+00 0.  1.
         11    1    3    3    0    0  0.59256050504E+01 -0.21493571165E+01  0.15509748921E+00  0.63052824457E+01  0.51100000000E-03 0. -1.
        -11    1    3    3    0    0 -0.22022119032E+02 -0.54812677772E+01  0.16429967879E+02  0.28017170947E+02  0.51100000000E-03 0.  1.
         12    1    3    3    0    0 -0.15765829961E+02  0.76195707258E+01 -0.17814480509E+02  0.24979490952E+02  0.00000000000E+00 0. -1.
</event>
<event>
 7    1  0.1215217E-011  0.5930194E+02  0.7816164E-02  0.1266605E+00
        -11   -1    0    0    0    0  0.00000000000E+00  0.00000000000E+00  0.45593999997E+02  0.45594000000E+02  0.51100000000E-03 0.  1.
         11   -1    0    0    0    0 -0.00000000000E+00 -0.00000000000E+00 -0.45593999997E+02  0.45594000000E+02  0.51100000000E-03 0. -1.
    9900012    2    1    2    0    0  0.38296409135E+00 -0.29179147998E+02 -0.12851116011E+02  0.59301944708E+02  0.50000001241E+02 0.  0.
        -12    1    1    2    0    0 -0.38296409135E+00  0.29179147998E+02  0.12851116011E+02  0.31886055292E+02  0.00000000000E+00 0.  1.
         11    1    3    3    0    0 -0.68680173499E+01 -0.71934712437E-02 -0.15336147255E+02  0.16803783114E+02  0.51100000000E-03 0. -1.
        -11    1    3    3    0    0  0.21964389103E+01  0.56643792272E+01  0.39840628886E+01  0.72651423439E+01  0.51100000000E-03 0.  1.
        -12    1    3    3    0    0  0.50545425310E+01 -0.34836333754E+02 -0.14990316447E+01  0.35233019250E+02  0.00000000000E+00 0.  1.
</event>
<event>
 7    1  0.1215217E-011  0.5930213E+02  0.7816164E-02  0.1266604E+00
        -11   -1    0    0    0    0  0.00000000000E+00  0.00000000000E+00  0.45593999997E+02  0.45594000000E+02  0.51100000000E-03 0. -1.
         11   -1    0    0    0    0 -0.00000000000E+00 -0.00000000000E+00 -0.45593999997E+02  0.45594000000E+02  0.51100000000E-03 0.  1.
    9900012    2    1    2    0    0  0.21861246542E+02 -0.12650234102E+02  0.19461916996E+02  0.59302129519E+02  0.50000338290E+02 0.  0.
        -12    1    1    2    0    0 -0.21861246542E+02  0.12650234102E+02 -0.19461916996E+02  0.31885870481E+02  0.00000000000E+00 0.  1.
         11    1    3    3    0    0 -0.98308165726E+01 -0.10187546820E+02  0.60620791479E+01  0.15400645069E+02  0.51100000000E-03 0.  1.
        -11    1    3    3    0    0  0.13128492904E+02  0.45953329694E+01  0.18738123188E+02  0.23336487995E+02  0.51100000000E-03 0. -1.
        -12    1    3    3    0    0  0.18563570210E+02 -0.70580202509E+01 -0.53382853404E+01  0.20564996454E+02  0.00000000000E+00 0.  1.
</event>
<event>
 7    1  0.1215217E-011  0.5930197E+02  0.7816164E-02  0.1266605E+00
        -11   -1    0    0    0    0  0.00000000000E+00  0.00000000000E+00  0.45593999997E+02  0.45594000000E+02  0.51100000000E-03 0. -1.
         11   -1    0    0    0    0 -0.00000000000E+00 -0.00000000000E+00 -0.45593999997E+02  0.45594000000E+02  0.51100000000E-03 0.  1.
    9900012    2    1    2    0    0  0.24973751067E+01  0.20982042567E+02  0.23879612268E+02  0.59301970539E+02  0.50000048350E+02 0.  0.
        -12    1    1    2    0    0 -0.24973751067E+01 -0.20982042567E+02 -0.23879612268E+02  0.31886029461E+02  0.00000000000E+00 0.  1.
         11    1    3    3    0    0 -0.69456805294E+01 -0.10186574690E+02  0.38973472472E+01  0.12930510344E+02  0.51100000000E-03 0. -1.
        -11    1    3    3    0    0  0.11146060626E+02  0.72424869103E+01 -0.24657332259E+01  0.13519176185E+02  0.51100000000E-03 0.  1.
         12    1    3    3    0    0 -0.17030049897E+01  0.23926130347E+02  0.22447998247E+02  0.32852284010E+02  0.00000000000E+00 0. -1.
</event>
<event>
 7    1  0.1215217E-011  0.5930194E+02  0.7816164E-02  0.1266605E+00
        -11   -1    0    0    0    0  0.00000000000E+00  0.00000000000E+00  0.45593999997E+02  0.45594000000E+02  0.51100000000E-03 0.  1.
         11   -1    0    0    0    0 -0.00000000000E+00 -0.00000000000E+00 -0.45593999997E+02  0.45594000000E+02  0.51100000000E-03 0. -1.
    9900012    2    1    2    0    0 -0.32755224665E+01 -0.18551932690E+02 -0.25725821307E+02  0.59301935083E+02  0.49999983687E+02 0.  0.
        -12    1    1    2    0    0  0.32755224665E+01  0.18551932690E+02  0.25725821307E+02  0.31886064917E+02  0.00000000000E+00 0.  1.
         11    1    3    3    0    0 -0.14162005710E+02 -0.10589707738E+02  0.33582126100E+01  0.17999497435E+02  0.51100000000E-03 0. -1.
        -11    1    3    3    0    0  0.92987505126E+01  0.67057998296E+01 -0.38902104878E+01  0.12106537505E+02  0.51100000000E-03 0.  1.
         12    1    3    3    0    0  0.15877327311E+01 -0.14668024782E+02 -0.25193823429E+02  0.29195900144E+02  0.00000000000E+00 0. -1.
</event>
<event>
 7    1  0.1215217E-011  0.5930198E+02  0.7816164E-02  0.1266605E+00
        -11   -1    0    0    0    0  0.00000000000E+00  0.00000000000E+00  0.45593999997E+02  0.45594000000E+02  0.51100000000E-03 0. -1.
         11   -1    0    0    0    0 -0.00000000000E+00 -0.00000000000E+00 -0.45593999997E+02  0.45594000000E+02  0.51100000000E-03 0.  1.
    9900012    2    1    2    0    0  0.25919293701E+02 -0.18250451748E+02  0.34394359141E+01  0.59301976504E+02  0.50000059229E+02 0.  0.
        -12    1    1    2    0    0 -0.25919293701E+02  0.18250451748E+02 -0.34394359141E+01  0.31886023496E+02  0.00000000000E+00 0.  1.
         11    1    3    3    0    0  0.39008223157E+01 -0.11532138962E+01  0.86679395805E+01  0.95749409325E+01  0.51100000000E-03 0. -1.
        -11    1    3    3    0    0  0.56461597073E+01  0.52443816879E+01  0.14019257472E+02  0.15997569786E+02  0.51100000000E-03 0.  1.
         12    1    3    3    0    0  0.16372311678E+02 -0.22341619540E+02 -0.19247761138E+02  0.33729465786E+02  0.00000000000E+00 0. -1.
</event>
<event>
 7    1  0.1215217E-011  0.5930192E+02  0.7816164E-02  0.1266605E+00
        -11   -1    0    0    0    0  0.00000000000E+00  0.00000000000E+00  0.45593999997E+02  0.45594000000E+02  0.51100000000E-03 0. -1.
         11   -1    0    0    0    0 -0.00000000000E+00 -0.00000000000E+00 -0.45593999997E+02  0.45594000000E+02  0.51100000000E-03 0.  1.
    9900012    2    1    2    0    0 -0.22255761746E+02 -0.18326488963E+02  0.13621423923E+02  0.59301916542E+02  0.49999949873E+02 0.  0.
        -12    1    1    2    0    0  0.22255761746E+02  0.18326488963E+02 -0.13621423923E+02  0.31886083458E+02  0.00000000000E+00 0.  1.
         11    1    3    3    0    0 -0.67984090900E+01 -0.92563811075E+01 -0.51790255928E+01  0.12598462752E+02  0.51100000000E-03 0. -1.
        -11    1    3    3    0    0 -0.15468956479E+02 -0.13270069198E+02 -0.62387607558E+01  0.21314443157E+02  0.51100000000E-03 0.  1.
         12    1    3    3    0    0  0.11603823535E-01  0.41999613424E+01  0.25039210271E+02  0.25389010633E+02  0.00000000000E+00 0. -1.
</event>
<event>
 7    1  0.1215217E-011  0.5930196E+02  0.7816164E-02  0.1266605E+00
        -11   -1    0    0    0    0  0.00000000000E+00  0.00000000000E+00  0.45593999997E+02  0.45594000000E+02  0.51100000000E-03 0.  1.
         11   -1    0    0    0    0 -0.00000000000E+00 -0.00000000000E+00 -0.45593999997E+02  0.45594000000E+02  0.51100000000E-03 0. -1.
    9900012    2    1    2    0    0  0.21824745479E+02 -0.21491078859E+02  0.88619252725E+01  0.59301957516E+02  0.50000024599E+02 0.  0.
        -12    1    1    2    0    0 -0.21824745479E+02  0.21491078859E+02 -0.88619252725E+01  0.31886042484E+02  0.00000000000E+00 0.  1.
         11    1    3    3    0    0  0.82231593624E+01 -0.36143616939E+01  0.11414105344E+01  0.90546550803E+01  0.51100000000E-03 0. -1.
        -11    1    3    3    0    0  0.22616975154E+02 -0.13484998444E+02  0.20948091074E+02  0.33648109427E+02  0.51100000000E-03 0.  1.
         12    1    3    3    0    0 -0.90153890372E+01 -0.43917187212E+01 -0.13227576335E+02  0.16599193008E+02  0.00000000000E+00 0. -1.
</event>
<event>
 7    1  0.1215217E-011  0.5930194E+02  0.7816164E-02  0.1266605E+00
        -11   -1    0    0    0    0  0.00000000000E+00  0.00000000000E+00  0.45593999997E+02  0.45594000000E+02  0.51100000000E-03 0. -1.
         11   -1    0    0    0    0 -0.00000000000E+00 -0.00000000000E+00 -0.45593999997E+02  0.45594000000E+02  0.51100000000E-03 0.  1.
    9900012    2    1    2    0    0 -0.22182342532E+01 -0.19890731939E+02  0.24822555062E+02  0.59301936900E+02  0.49999987000E+02 0.  0.
        -12    1    1    2    0    0  0.22182342532E+01  0.19890731939E+02 -0.24822555062E+02  0.31886063100E+02  0.00000000000E+00 0.  1.
         11    1    3    3    0    0  0.62856610341E+01  0.39609075675E+01  0.99924018380E+01  0.12451763656E+02  0.51100000000E-03 0.  1.
        -11    1    3    3    0    0  0.73982340657E+01 -0.19262912083E+02 -0.47879762818E+01  0.21182973501E+02  0.51100000000E-03 0. -1.
         12    1    3    3    0    0 -0.15902129353E+02 -0.45887274231E+01  0.19618129506E+02  0.25667199743E+02  0.00000000000E+00 0. -1.
</event>
<event>
 7    1  0.1215217E-011  0.5930206E+02  0.7816164E-02  0.1266604E+00
        -11   -1    0    0    0    0  0.00000000000E+00  0.00000000000E+00  0.45593999997E+02  0.45594000000E+02  0.51100000000E-03 0. -1.
         11   -1    0    0    0    0 -0.00000000000E+00 -0.00000000000E+00 -0.45593999997E+02  0.45594000000E+02  0.51100000000E-03 0.  1.
    9900012    2    1    2    0    0 -0.58451692068E+01  0.67291069672E+00  0.31338384846E+02  0.59302059891E+02  0.50000211306E+02 0.  0.
        -12    1    1    2    0    0  0.58451692068E+01 -0.67291069672E+00 -0.31338384846E+02  0.31885940109E+02  0.00000000000E+00 0.  1.
         11    1    3    3    0    0 -0.83946921381E+01  0.24403909642E+01  0.12796430497E+01  0.88353749636E+01  0.51100000000E-03 0. -1.
        -11    1    3    3    0    0  0.80370865672E+01 -0.10640447565E+01 -0.83636221103E+01  0.11648052489E+02  0.51100000000E-03 0.  1.
         12    1    3    3    0    0 -0.54875636359E+01 -0.70343551103E+00  0.38422363907E+02  0.38818632438E+02  0.00000000000E+00 0. -1.
</event>
<event>
 7    1  0.1215217E-011  0.5930194E+02  0.7816164E-02  0.1266605E+00
        -11   -1    0    0    0    0  0.00000000000E+00  0.00000000000E+00  0.45593999997E+02  0.45594000000E+02  0.51100000000E-03 0.  1.
         11   -1    0    0    0    0 -0.00000000000E+00 -0.00000000000E+00 -0.45593999997E+02  0.45594000000E+02  0.51100000000E-03 0. -1.
    9900012    2    1    2    0    0 -0.35562936567E+01 -0.19335521100E+02 -0.25104002482E+02  0.59301944405E+02  0.50000000689E+02 0.  0.
        -12    1    1    2    0    0  0.35562936567E+01  0.19335521100E+02  0.25104002482E+02  0.31886055595E+02  0.00000000000E+00 0.  1.
         11    1    3    3    0    0 -0.92349573972E+01 -0.21407835262E+02 -0.14215462317E+01  0.23358095870E+02  0.51100000000E-03 0. -1.
        -11    1    3    3    0    0 -0.76507001412E+01 -0.30674918595E+01 -0.19322778284E+02  0.21007438678E+02  0.51100000000E-03 0.  1.
        -12    1    3    3    0    0  0.13329363882E+02  0.51398060222E+01 -0.43596779665E+01  0.14936409857E+02  0.00000000000E+00 0.  1.
</event>
<event>
 7    1  0.1215217E-011  0.5930193E+02  0.7816164E-02  0.1266605E+00
        -11   -1    0    0    0    0  0.00000000000E+00  0.00000000000E+00  0.45593999997E+02  0.45594000000E+02  0.51100000000E-03 0.  1.
         11   -1    0    0    0    0 -0.00000000000E+00 -0.00000000000E+00 -0.45593999997E+02  0.45594000000E+02  0.51100000000E-03 0. -1.
    9900012    2    1    2    0    0  0.13358701948E+02  0.32635825452E+01 -0.28768304167E+02  0.59301933868E+02  0.49999981471E+02 0.  0.
        -12    1    1    2    0    0 -0.13358701948E+02 -0.32635825452E+01  0.28768304167E+02  0.31886066132E+02  0.00000000000E+00 0.  1.
         11    1    3    3    0    0  0.55072057348E+01  0.16507993045E+02 -0.27854680221E+02  0.32843969916E+02  0.51100000000E-03 0. -1.
        -11    1    3    3    0    0  0.45928357107E+01  0.36830262074E+01  0.55083916750E+01  0.80623322318E+01  0.51100000000E-03 0.  1.
         12    1    3    3    0    0  0.32586605026E+01 -0.16927436707E+02 -0.64220156212E+01  0.18395631720E+02  0.00000000000E+00 0. -1.
</event>
<event>
 7    1  0.1215217E-011  0.5930196E+02  0.7816164E-02  0.1266605E+00
        -11   -1    0    0    0    0  0.00000000000E+00  0.00000000000E+00  0.45593999997E+02  0.45594000000E+02  0.51100000000E-03 0.  1.
         11   -1    0    0    0    0 -0.00000000000E+00 -0.00000000000E+00 -0.45593999997E+02  0.45594000000E+02  0.51100000000E-03 0. -1.
    9900012    2    1    2    0    0  0.90144174814E+01  0.10309769584E+02 -0.28795290660E+02  0.59301955473E+02  0.50000020873E+02 0.  0.
        -12    1    1    2    0    0 -0.90144174814E+01 -0.10309769584E+02  0.28795290660E+02  0.31886044527E+02  0.00000000000E+00 0.  1.
         11    1    3    3    0    0 -0.54989962595E+01  0.17983100030E+02 -0.13336169805E+02  0.23053942654E+02  0.51100000000E-03 0. -1.
        -11    1    3    3    0    0  0.34353231469E+01 -0.74985643206E+01  0.72492384440E+01  0.10980954889E+02  0.51100000000E-03 0.  1.
        -12    1    3    3    0    0  0.11078090594E+02 -0.17476612595E+00 -0.22708359299E+02  0.25267057930E+02  0.00000000000E+00 0.  1.
</event>
<event>
 7    1  0.1215217E-011  0.5930196E+02  0.7816164E-02  0.1266605E+00
        -11   -1    0    0    0    0  0.00000000000E+00  0.00000000000E+00  0.45593999997E+02  0.45594000000E+02  0.51100000000E-03 0.  1.
         11   -1    0    0    0    0 -0.00000000000E+00 -0.00000000000E+00 -0.45593999997E+02  0.45594000000E+02  0.51100000000E-03 0. -1.
    9900012    2    1    2    0    0 -0.86201905863E+01  0.14607799548E+02 -0.27000439742E+02  0.59301964818E+02  0.50000037916E+02 0.  0.
        -12    1    1    2    0    0  0.86201905863E+01 -0.14607799548E+02  0.27000439742E+02  0.31886035182E+02  0.00000000000E+00 0.  1.
         11    1    3    3    0    0 -0.20661234128E+02  0.14060041500E+02 -0.19162811453E+02  0.31492613511E+02  0.51100000000E-03 0. -1.
        -11    1    3    3    0    0  0.66096187413E+00  0.49045533878E+01  0.70229873666E+01  0.85914996564E+01  0.51100000000E-03 0.  1.
         12    1    3    3    0    0  0.11380081667E+02 -0.43567953404E+01 -0.14860615656E+02  0.19217851651E+02  0.00000000000E+00 0. -1.
</event>
<event>
 7    1  0.1215217E-011  0.5930196E+02  0.7816164E-02  0.1266605E+00
        -11   -1    0    0    0    0  0.00000000000E+00  0.00000000000E+00  0.45593999997E+02  0.45594000000E+02  0.51100000000E-03 0.  1.
         11   -1    0    0    0    0 -0.00000000000E+00 -0.00000000000E+00 -0.45593999997E+02  0.45594000000E+02  0.51100000000E-03 0. -1.
    9900012    2    1    2    0    0  0.16123991789E+02  0.20798114171E+02 -0.18004859438E+02  0.59301958734E+02  0.50000026820E+02 0.  0.
        -12    1    1    2    0    0 -0.16123991789E+02 -0.20798114171E+02  0.18004859438E+02  0.31886041266E+02  0.00000000000E+00 0.  1.
         11    1    3    3    0    0 -0.46521971789E+01  0.39938290756E+01 -0.85580668723E+01  0.10527778404E+02  0.51100000000E-03 0. -1.
        -11    1    3    3    0    0 -0.27905480349E+01 -0.10212433723E+02 -0.72986174593E+01  0.12858879343E+02  0.51100000000E-03 0.  1.
         12    1    3    3    0    0  0.23566737003E+02  0.27016718818E+02 -0.21481751061E+01  0.35915300986E+02  0.00000000000E+00 0. -1.
</event>
<event>
 7    1  0.1215217E-011  0.5930211E+02  0.7816164E-02  0.1266604E+00
        -11   -1    0    0    0    0  0.00000000000E+00  0.00000000000E+00  0.45593999997E+02  0.45594000000E+02  0.51100000000E-03 0.  1.
         11   -1    0    0    0    0 -0.00000000000E+00 -0.00000000000E+00 -0.45593999997E+02  0.45594000000E+02  0.51100000000E-03 0. -1.
    9900012    2    1    2    0    0 -0.21826546817E+02  0.13559817935E+02 -0.18879699577E+02  0.59302111828E+02  0.50000306027E+02 0.  0.
        -12    1    1    2    0    0  0.21826546817E+02 -0.13559817935E+02  0.18879699577E+02  0.31885888172E+02  0.00000000000E+00 0.  1.
         11    1    3    3    0    0 -0.16979101532E+01  0.21422173963E+01  0.32395432659E+00  0.27526243711E+01  0.51100000000E-03 0. -1.
        -11    1    3    3    0    0 -0.32014817009E+02  0.45674444533E+01  0.73471184536E+00  0.32347331555E+02  0.51100000000E-03 0.  1.
         12    1    3    3    0    0  0.11886180345E+02  0.68501560851E+01 -0.19938365749E+02  0.24202155903E+02  0.00000000000E+00 0. -1.
</event>
<event>
 7    1  0.1215217E-011  0.5930195E+02  0.7816164E-02  0.1266605E+00
        -11   -1    0    0    0    0  0.00000000000E+00  0.00000000000E+00  0.45593999997E+02  0.45594000000E+02  0.51100000000E-03 0.  1.
         11   -1    0    0    0    0 -0.00000000000E+00 -0.00000000000E+00 -0.45593999997E+02  0.45594000000E+02  0.51100000000E-03 0. -1.
    9900012    2    1    2    0    0  0.26486740820E+02  0.16063043737E+02 -0.75598606538E+01  0.59301948089E+02  0.50000007407E+02 0.  0.
        -12    1    1    2    0    0 -0.26486740820E+02 -0.16063043737E+02  0.75598606538E+01  0.31886051911E+02  0.00000000000E+00 0.  1.
         11    1    3    3    0    0  0.82315625073E+01  0.16284778013E+02  0.86634955725E+01  0.20199227016E+02  0.51100000000E-03 0. -1.
        -11    1    3    3    0    0  0.29121926609E+01  0.46261275406E+01  0.82001766070E+01  0.98551924772E+01  0.51100000000E-03 0.  1.
         12    1    3    3    0    0  0.15342985652E+02 -0.48478618168E+01 -0.24423532833E+02  0.29247528596E+02  0.00000000000E+00 0. -1.
</event>
<event>
 7    1  0.1215217E-011  0.5930194E+02  0.7816164E-02  0.1266605E+00
        -11   -1    0    0    0    0  0.00000000000E+00  0.00000000000E+00  0.45593999997E+02  0.45594000000E+02  0.51100000000E-03 0. -1.
         11   -1    0    0    0    0 -0.00000000000E+00 -0.00000000000E+00 -0.45593999997E+02  0.45594000000E+02  0.51100000000E-03 0.  1.
    9900012    2    1    2    0    0 -0.18720558274E+02  0.12314407003E+02  0.22685174265E+02  0.59301936377E+02  0.49999986047E+02 0.  0.
        -12    1    1    2    0    0  0.18720558274E+02 -0.12314407003E+02 -0.22685174265E+02  0.31886063623E+02  0.00000000000E+00 0.  1.
         11    1    3    3    0    0  0.74343990677E+01  0.24619335417E+01 -0.68644099377E+01  0.10414006449E+02  0.51100000000E-03 0. -1.
        -11    1    3    3    0    0 -0.21396754694E+01  0.32427784756E+01 -0.49773509369E+01  0.63140989830E+01  0.51100000000E-03 0.  1.
         12    1    3    3    0    0 -0.24015281873E+02  0.66096949855E+01  0.34526935140E+02  0.42573830945E+02  0.00000000000E+00 0. -1.
</event>
<event>
 7    1  0.1215217E-011  0.5930195E+02  0.7816164E-02  0.1266605E+00
        -11   -1    0    0    0    0  0.00000000000E+00  0.00000000000E+00  0.45593999997E+02  0.45594000000E+02  0.51100000000E-03 0. -1.
         11   -1    0    0    0    0 -0.00000000000E+00 -0.00000000000E+00 -0.45593999997E+02  0.45594000000E+02  0.51100000000E-03 0.  1.
    9900012    2    1    2    0    0  0.30314954956E+02  0.84525247170E+01  0.51262382709E+01  0.59301953101E+02  0.50000016547E+02 0.  0.
        -12    1    1    2    0    0 -0.30314954956E+02 -0.84525247170E+01 -0.51262382709E+01  0.31886046899E+02  0.00000000000E+00 0.  1.
         11    1    3    3    0    0  0.71820692024E+00 -0.85199446301E+01 -0.13361226626E+02  0.15862775762E+02  0.51100000000E-03 0. -1.
        -11    1    3    3    0    0  0.15437118360E+01 -0.17894531240E+01 -0.27020422610E+01  0.35897383410E+01  0.51100000000E-03 0.  1.
         12    1    3    3    0    0  0.28053036199E+02  0.18761922471E+02  0.21189507158E+02  0.39849438997E+02  0.00000000000E+00 0. -1.
</event>
<event>
 7    1  0.1215217E-011  0.5930195E+02  0.7816164E-02  0.1266605E+00
        -11   -1    0    0    0    0  0.00000000000E+00  0.00000000000E+00  0.45593999997E+02  0.45594000000E+02  0.51100000000E-03 0. -1.
         11   -1    0    0    0    0 -0.00000000000E+00 -0.00000000000E+00 -0.45593999997E+02  0.45594000000E+02  0.51100000000E-03 0.  1.
    9900012    2    1    2    0    0 -0.20451937035E+02 -0.48027610364E+01  0.23986916114E+02  0.59301946831E+02  0.50000005112E+02 0.  0.
        -12    1    1    2    0    0  0.20451937035E+02  0.48027610364E+01 -0.23986916114E+02  0.31886053169E+02  0.00000000000E+00 0.  1.
         11    1    3    3    0    0 -0.29875937369E+02  0.64529380398E+00  0.14610979285E+02  0.33263625083E+02  0.51100000000E-03 0. -1.
        -11    1    3    3    0    0 -0.66787838401E+01 -0.45453724382E+01  0.21142081108E+01  0.83508347117E+01  0.51100000000E-03 0.  1.
         12    1    3    3    0    0  0.16102784174E+02 -0.90268240219E+00  0.72617287181E+01  0.17687487036E+02  0.00000000000E+00 0. -1.
</event>
<event>
 7    1  0.1215217E-011  0.5930203E+02  0.7816164E-02  0.1266604E+00
        -11   -1    0    0    0    0  0.00000000000E+00  0.00000000000E+00  0.45593999997E+02  0.45594000000E+02  0.51100000000E-03 0.  1.
         11   -1    0    0    0    0 -0.00000000000E+00 -0.00000000000E+00 -0.45593999997E+02  0.45594000000E+02  0.51100000000E-03 0. -1.
    9900012    2    1    2    0    0 -0.17143581288E+02 -0.26820650599E+02 -0.18614861855E+01  0.59302034298E+02  0.50000164631E+02 0.  0.
        -12    1    1    2    0    0  0.17143581288E+02  0.26820650599E+02  0.18614861855E+01  0.31885965702E+02  0.00000000000E+00 0.  1.
         11    1    3    3    0    0  0.56338705226E+01 -0.12817510636E+02  0.12031063181E+02  0.18460107191E+02  0.51100000000E-03 0. -1.
        -11    1    3    3    0    0 -0.14590088554E+01  0.67563752452E+01  0.18809862420E+01  0.71634784007E+01  0.51100000000E-03 0.  1.
         12    1    3    3    0    0 -0.21318442955E+02 -0.20759515208E+02 -0.15773535608E+02  0.33678448706E+02  0.00000000000E+00 0. -1.
</event>
<event>
 7    1  0.1215217E-011  0.5930196E+02  0.7816164E-02  0.1266605E+00
        -11   -1    0    0    0    0  0.00000000000E+00  0.00000000000E+00  0.45593999997E+02  0.45594000000E+02  0.51100000000E-03 0.  1.
         11   -1    0    0    0    0 -0.00000000000E+00 -0.00000000000E+00 -0.45593999997E+02  0.45594000000E+02  0.51100000000E-03 0. -1.
    9900012    2    1    2    0    0  0.19330044464E+02  0.24332121723E+02 -0.71425902847E+01  0.59301962891E+02  0.50000034403E+02 0.  0.
        -12    1    1    2    0    0 -0.19330044464E+02 -0.24332121723E+02  0.71425902847E+01  0.31886037109E+02  0.00000000000E+00 0.  1.
         11    1    3    3    0    0  0.22251747889E+02  0.15589806155E+02  0.34731953247E+00  0.27171731103E+02  0.51100000000E-03 0. -1.
        -11    1    3    3    0    0  0.46033123786E+01 -0.85655216894E+01  0.34473857586E+01  0.10317127289E+02  0.51100000000E-03 0.  1.
        -12    1    3    3    0    0 -0.75250158031E+01  0.17307837257E+02 -0.10937295576E+02  0.21813104499E+02  0.00000000000E+00 0.  1.
</event>
<event>
 7    1  0.1215217E-011  0.5930194E+02  0.7816164E-02  0.1266605E+00
        -11   -1    0    0    0    0  0.00000000000E+00  0.00000000000E+00  0.45593999997E+02  0.45594000000E+02  0.51100000000E-03 0. -1.
         11   -1    0    0    0    0 -0.00000000000E+00 -0.00000000000E+00 -0.45593999997E+02  0.45594000000E+02  0.51100000000E-03 0.  1.
    9900012    2    1    2    0    0 -0.10753736287E+02  0.24587928240E+02  0.17219517063E+02  0.59301939924E+02  0.49999992516E+02 0.  0.
        -12    1    1    2    0    0  0.10753736287E+02 -0.24587928240E+02 -0.17219517063E+02  0.31886060076E+02  0.00000000000E+00 0.  1.
         11    1    3    3    0    0  0.84159985265E+01  0.26029796102E+02  0.70785529757E+01  0.28257480935E+02  0.51100000000E-03 0. -1.
        -11    1    3    3    0    0 -0.96858444569E+01  0.35007060778E+01 -0.58215649570E+01  0.11830517516E+02  0.51100000000E-03 0.  1.
         12    1    3    3    0    0 -0.94838903565E+01 -0.49425739394E+01  0.15962529044E+02  0.19213941473E+02  0.00000000000E+00 0. -1.
</event>
<event>
 7    1  0.1215217E-011  0.5930194E+02  0.7816164E-02  0.1266605E+00
        -11   -1    0    0    0    0  0.00000000000E+00  0.00000000000E+00  0.45593999997E+02  0.45594000000E+02  0.51100000000E-03 0.  1.
         11   -1    0    0    0    0 -0.00000000000E+00 -0.00000000000E+00 -0.45593999997E+02  0.45594000000E+02  0.51100000000E-03 0. -1.
    9900012    2    1    2    0    0  0.22533919972E+02  0.16551172338E+01 -0.22498974672E+02  0.59301939979E+02  0.49999992617E+02 0.  0.
        -12    1    1    2    0    0 -0.22533919972E+02 -0.16551172338E+01  0.22498974672E+02  0.31886060021E+02  0.00000000000E+00 0.  1.
         11    1    3    3    0    0 -0.72193246780E+01 -0.16175336900E+00 -0.11229202392E+01  0.73079246769E+01  0.51100000000E-03 0. -1.
        -11    1    3    3    0    0 -0.51752505871E+01 -0.29199730152E+01  0.51630590289E+01  0.78718892171E+01  0.51100000000E-03 0.  1.
         12    1    3    3    0    0  0.34928495237E+02  0.47368436180E+01 -0.26539113461E+02  0.44122126085E+02  0.00000000000E+00 0. -1.
</event>
<event>
 7    1  0.1215217E-011  0.5930194E+02  0.7816164E-02  0.1266605E+00
        -11   -1    0    0    0    0  0.00000000000E+00  0.00000000000E+00  0.45593999997E+02  0.45594000000E+02  0.51100000000E-03 0. -1.
         11   -1    0    0    0    0 -0.00000000000E+00 -0.00000000000E+00 -0.45593999997E+02  0.45594000000E+02  0.51100000000E-03 0.  1.
    9900012    2    1    2    0    0  0.24399791273E+02 -0.11990732990E+02 -0.16661130414E+02  0.59301941001E+02  0.49999994479E+02 0.  0.
        -12    1    1    2    0    0 -0.24399791273E+02  0.11990732990E+02  0.16661130414E+02  0.31886058999E+02  0.00000000000E+00 0.  1.
         11    1    3    3    0    0  0.13336398513E+02 -0.16846600363E+02 -0.40232476131E+00  0.21490214856E+02  0.51100000000E-03 0. -1.
        -11    1    3    3    0    0  0.18142723574E+01 -0.13339694186E+02 -0.87838406544E+01  0.16074665846E+02  0.51100000000E-03 0.  1.
        -12    1    3    3    0    0  0.92491204029E+01  0.18195561559E+02 -0.74749649987E+01  0.21737060298E+02  0.00000000000E+00 0.  1.
</event>
<event>
 7    1  0.1215217E-011  0.5930194E+02  0.7816164E-02  0.1266605E+00
        -11   -1    0    0    0    0  0.00000000000E+00  0.00000000000E+00  0.45593999997E+02  0.45594000000E+02  0.51100000000E-03 0. -1.
         11   -1    0    0    0    0 -0.00000000000E+00 -0.00000000000E+00 -0.45593999997E+02  0.45594000000E+02  0.51100000000E-03 0.  1.
    9900012    2    1    2    0    0 -0.16436499487E+02 -0.67159904281E+00  0.27315032441E+02  0.59301944146E+02  0.50000000216E+02 0.  0.
        -12    1    1    2    0    0  0.16436499487E+02  0.67159904281E+00 -0.27315032441E+02  0.31886055854E+02  0.00000000000E+00 0.  1.
         11    1    3    3    0    0 -0.12964164463E+02 -0.85536447056E+01 -0.49004523722E+01  0.16286461607E+02  0.51100000000E-03 0. -1.
        -11    1    3    3    0    0 -0.58561611460E+00  0.98184598822E+00 -0.49625371177E+01  0.50925183047E+01  0.51100000000E-03 0.  1.
        -12    1    3    3    0    0 -0.28867189087E+01  0.69001996746E+01  0.37178021931E+02  0.37922964234E+02  0.00000000000E+00 0.  1.
</event>
<event>
 7    1  0.1215217E-011  0.5930195E+02  0.7816164E-02  0.1266605E+00
        -11   -1    0    0    0    0  0.00000000000E+00  0.00000000000E+00  0.45593999997E+02  0.45594000000E+02  0.51100000000E-03 0.  1.
         11   -1    0    0    0    0 -0.00000000000E+00 -0.00000000000E+00 -0.45593999997E+02  0.45594000000E+02  0.51100000000E-03 0. -1.
    9900012    2    1    2    0    0 -0.65300438943E+01  0.83110753984E+01 -0.30083297396E+02  0.59301949292E+02  0.50000009600E+02 0.  0.
        -12    1    1    2    0    0  0.65300438943E+01 -0.83110753984E+01  0.30083297396E+02  0.31886050708E+02  0.00000000000E+00 0.  1.
         11    1    3    3    0    0 -0.26035954987E+01  0.25184750787E+02 -0.10482701857E+02  0.27403237404E+02  0.51100000000E-03 0. -1.
        -11    1    3    3    0    0  0.61174968696E+01 -0.14722027054E+01 -0.79198402023E+01  0.10115088623E+02  0.51100000000E-03 0.  1.
         12    1    3    3    0    0 -0.10043945265E+02 -0.15401472683E+02 -0.11680755337E+02  0.21783623265E+02  0.00000000000E+00 0. -1.
</event>
<event>
 7    1  0.1215217E-011  0.5930194E+02  0.7816164E-02  0.1266605E+00
        -11   -1    0    0    0    0  0.00000000000E+00  0.00000000000E+00  0.45593999997E+02  0.45594000000E+02  0.51100000000E-03 0.  1.
         11   -1    0    0    0    0 -0.00000000000E+00 -0.00000000000E+00 -0.45593999997E+02  0.45594000000E+02  0.51100000000E-03 0. -1.
    9900012    2    1    2    0    0  0.16315461327E+02 -0.98242661787E+01 -0.25573626951E+02  0.59301939100E+02  0.49999991014E+02 0.  0.
        -12    1    1    2    0    0 -0.16315461327E+02  0.98242661787E+01  0.25573626951E+02  0.31886060900E+02  0.00000000000E+00 0.  1.
         11    1    3    3    0    0  0.14761605709E+02  0.78753663246E+01 -0.27438705475E+02  0.32137345196E+02  0.51100000000E-03 0. -1.
        -11    1    3    3    0    0  0.62571777783E+01  0.10952905098E+01  0.42513969481E+01  0.76437105728E+01  0.51100000000E-03 0.  1.
        -12    1    3    3    0    0 -0.47033221608E+01 -0.18794923013E+02 -0.23863184244E+01  0.19520883331E+02  0.00000000000E+00 0.  1.
</event>
<event>
 7    1  0.1215217E-011  0.5930196E+02  0.7816164E-02  0.1266605E+00
        -11   -1    0    0    0    0  0.00000000000E+00  0.00000000000E+00  0.45593999997E+02  0.45594000000E+02  0.51100000000E-03 0. -1.
         11   -1    0    0    0    0 -0.00000000000E+00 -0.00000000000E+00 -0.45593999997E+02  0.45594000000E+02  0.51100000000E-03 0.  1.
    9900012    2    1    2    0    0  0.41350485089E+00 -0.29762104642E+02  0.11435285379E+02  0.59301959000E+02  0.50000027305E+02 0.  0.
        -12    1    1    2    0    0 -0.41350485089E+00  0.29762104642E+02 -0.11435285379E+02  0.31886041000E+02  0.00000000000E+00 0.  1.
         11    1    3    3    0    0 -0.95000294624E+01 -0.17872715384E+02  0.10084039683E+02  0.22613543986E+02  0.51100000000E-03 0. -1.
        -11    1    3    3    0    0 -0.84656150991E+01 -0.15064058245E+02 -0.29948396338E+01  0.17537432951E+02  0.51100000000E-03 0.  1.
         12    1    3    3    0    0  0.18379149412E+02  0.31746689871E+01  0.43460853299E+01  0.19150982064E+02  0.00000000000E+00 0. -1.
</event>
<event>
 7    1  0.1215217E-011  0.5930192E+02  0.7816164E-02  0.1266605E+00
        -11   -1    0    0    0    0  0.00000000000E+00  0.00000000000E+00  0.45593999997E+02  0.45594000000E+02  0.51100000000E-03 0.  1.
         11   -1    0    0    0    0 -0.00000000000E+00 -0.00000000000E+00 -0.45593999997E+02  0.45594000000E+02  0.51100000000E-03 0. -1.
    9900012    2    1    2    0    0 -0.14195826789E+02 -0.27249610480E+02  0.85240462476E+01  0.59301919432E+02  0.49999955143E+02 0.  0.
        -12    1    1    2    0    0  0.14195826789E+02  0.27249610480E+02 -0.85240462476E+01  0.31886080568E+02  0.00000000000E+00 0.  1.
         11    1    3    3    0    0 -0.36222309802E+00 -0.75634849277E+01 -0.33403877036E+01  0.82762129079E+01  0.51100000000E-03 0. -1.
        -11    1    3    3    0    0  0.13461409746E+02 -0.37721247689E+00  0.11311280388E+02  0.17586838996E+02  0.51100000000E-03 0.  1.
         12    1    3    3    0    0 -0.27295013437E+02 -0.19308913076E+02  0.55315356273E+00  0.33438867528E+02  0.00000000000E+00 0. -1.
</event>
<event>
 7    1  0.1215217E-011  0.5930190E+02  0.7816164E-02  0.1266605E+00
        -11   -1    0    0    0    0  0.00000000000E+00  0.00000000000E+00  0.45593999997E+02  0.45594000000E+02  0.51100000000E-03 0.  1.
         11   -1    0    0    0    0 -0.00000000000E+00 -0.00000000000E+00 -0.45593999997E+02  0.45594000000E+02  0.51100000000E-03 0. -1.
    9900012    2    1    2    0    0  0.11948659282E+02  0.14729486276E+01 -0.29525981196E+02  0.59301896414E+02  0.49999913164E+02 0.  0.
        -12    1    1    2    0    0 -0.11948659282E+02 -0.14729486276E+01  0.29525981196E+02  0.31886103586E+02  0.00000000000E+00 0.  1.
         11    1    3    3    0    0  0.13236580164E+02 -0.89166397951E+01 -0.16664439092E+02  0.23074164128E+02  0.51100000000E-03 0. -1.
        -11    1    3    3    0    0  0.12968081302E+02 -0.29078413751E+01 -0.97568623677E+01  0.16487056670E+02  0.51100000000E-03 0.  1.
        -12    1    3    3    0    0 -0.14256002184E+02  0.13297429798E+02 -0.31046797359E+01  0.19740675616E+02  0.00000000000E+00 0.  1.
</event>
<event>
 7    1  0.1215217E-011  0.5930194E+02  0.7816164E-02  0.1266605E+00
        -11   -1    0    0    0    0  0.00000000000E+00  0.00000000000E+00  0.45593999997E+02  0.45594000000E+02  0.51100000000E-03 0. -1.
         11   -1    0    0    0    0 -0.00000000000E+00 -0.00000000000E+00 -0.45593999997E+02  0.45594000000E+02  0.51100000000E-03 0.  1.
    9900012    2    1    2    0    0 -0.23689122263E+02  0.11862104543E+02  0.17743635928E+02  0.59301942644E+02  0.49999997476E+02 0.  0.
        -12    1    1    2    0    0  0.23689122263E+02 -0.11862104543E+02 -0.17743635928E+02  0.31886057356E+02  0.00000000000E+00 0.  1.
         11    1    3    3    0    0 -0.12144726119E+02 -0.52151221594E+01  0.11553142629E+02  0.17554685315E+02  0.51100000000E-03 0. -1.
        -11    1    3    3    0    0 -0.18577969558E+02 -0.38622248505E+01  0.50155363392E+01  0.19626852492E+02  0.51100000000E-03 0.  1.
        -12    1    3    3    0    0  0.70335734140E+01  0.20939451553E+02  0.11749569599E+01  0.22120404837E+02  0.00000000000E+00 0.  1.
</event>
<event>
 7    1  0.1215217E-011  0.5930195E+02  0.7816164E-02  0.1266605E+00
        -11   -1    0    0    0    0  0.00000000000E+00  0.00000000000E+00  0.45593999997E+02  0.45594000000E+02  0.51100000000E-03 0.  1.
         11   -1    0    0    0    0 -0.00000000000E+00 -0.00000000000E+00 -0.45593999997E+02  0.45594000000E+02  0.51100000000E-03 0. -1.
    9900012    2    1    2    0    0  0.27556644733E+02 -0.12198333046E+02 -0.10418831645E+02  0.59301952097E+02  0.50000014717E+02 0.  0.
        -12    1    1    2    0    0 -0.27556644733E+02  0.12198333046E+02  0.10418831645E+02  0.31886047903E+02  0.00000000000E+00 0.  1.
         11    1    3    3    0    0  0.63046414739E+01 -0.47397613192E+01 -0.26035529753E+02  0.27204092546E+02  0.51100000000E-03 0. -1.
        -11    1    3    3    0    0  0.15989791051E+02 -0.17926083020E+01  0.17030620657E+01  0.16179841874E+02  0.51100000000E-03 0.  1.
        -12    1    3    3    0    0  0.52622122073E+01 -0.56659634251E+01  0.13913636043E+02  0.15918017677E+02  0.00000000000E+00 0.  1.
</event>
<event>
 7    1  0.1215217E-011  0.5930199E+02  0.7816164E-02  0.1266605E+00
        -11   -1    0    0    0    0  0.00000000000E+00  0.00000000000E+00  0.45593999997E+02  0.45594000000E+02  0.51100000000E-03 0. -1.
         11   -1    0    0    0    0 -0.00000000000E+00 -0.00000000000E+00 -0.45593999997E+02  0.45594000000E+02  0.51100000000E-03 0.  1.
    9900012    2    1    2    0    0  0.29870990705E+02 -0.10797779959E+02  0.28016766903E+01  0.59301991626E+02  0.50000086808E+02 0.  0.
        -12    1    1    2    0    0 -0.29870990705E+02  0.10797779959E+02 -0.28016766903E+01  0.31886008374E+02  0.00000000000E+00 0.  1.
         11    1    3    3    0    0  0.11762779611E+02 -0.17947279043E+02 -0.10055850067E+01  0.21482062534E+02  0.51100000000E-03 0. -1.
        -11    1    3    3    0    0  0.27427064007E+02  0.62812267166E+01  0.14816659216E+01  0.28176106602E+02  0.51100000000E-03 0.  1.
         12    1    3    3    0    0 -0.93188529125E+01  0.86827236815E+00  0.23255957754E+01  0.96438224901E+01  0.00000000000E+00 0. -1.
</event>
<event>
 7    1  0.1215217E-011  0.5930195E+02  0.7816164E-02  0.1266605E+00
        -11   -1    0    0    0    0  0.00000000000E+00  0.00000000000E+00  0.45593999997E+02  0.45594000000E+02  0.51100000000E-03 0.  1.
         11   -1    0    0    0    0 -0.00000000000E+00 -0.00000000000E+00 -0.45593999997E+02  0.45594000000E+02  0.51100000000E-03 0. -1.
    9900012    2    1    2    0    0 -0.14387414300E+02 -0.56265558117E+00 -0.28450055781E+02  0.59301953750E+02  0.50000017731E+02 0.  0.
        -12    1    1    2    0    0  0.14387414300E+02  0.56265558117E+00  0.28450055781E+02  0.31886046250E+02  0.00000000000E+00 0.  1.
         11    1    3    3    0    0 -0.15431326238E+02  0.18106035012E+01  0.85448151295E+01  0.17731835223E+02  0.51100000000E-03 0. -1.
        -11    1    3    3    0    0 -0.25011914548E+01  0.16419925751E+01  0.10341899356E+01  0.31656985634E+01  0.51100000000E-03 0.  1.
         12    1    3    3    0    0  0.35451033932E+01 -0.40152516575E+01 -0.38029060846E+02  0.38404419964E+02  0.00000000000E+00 0. -1.
</event>
<event>
 7    1  0.1215217E-011  0.5930196E+02  0.7816164E-02  0.1266605E+00
        -11   -1    0    0    0    0  0.00000000000E+00  0.00000000000E+00  0.45593999997E+02  0.45594000000E+02  0.51100000000E-03 0.  1.
         11   -1    0    0    0    0 -0.00000000000E+00 -0.00000000000E+00 -0.45593999997E+02  0.45594000000E+02  0.51100000000E-03 0. -1.
    9900012    2    1    2    0    0 -0.23945042820E+02  0.11357010810E+02 -0.17730566216E+02  0.59301956838E+02  0.50000023363E+02 0.  0.
        -12    1    1    2    0    0  0.23945042820E+02 -0.11357010810E+02  0.17730566216E+02  0.31886043162E+02  0.00000000000E+00 0.  1.
         11    1    3    3    0    0 -0.68987467809E+01  0.20055143498E+02 -0.30142738072E+01  0.21421655742E+02  0.51100000000E-03 0. -1.
        -11    1    3    3    0    0 -0.19306354109E+02  0.57893823818E+01 -0.98284519015E+01  0.22424333310E+02  0.51100000000E-03 0.  1.
        -12    1    3    3    0    0  0.22600580695E+01 -0.14487515070E+02 -0.48878405069E+01  0.15455967786E+02  0.00000000000E+00 0.  1.
</event>
<event>
 7    1  0.1320026E-011  0.5930195E+02  0.7816164E-02  0.1266605E+00
        -11   -1    0    0    0    0  0.00000000000E+00  0.00000000000E+00  0.45593999997E+02  0.45594000000E+02  0.51100000000E-03 0. -1.
         11   -1    0    0    0    0 -0.00000000000E+00 -0.00000000000E+00 -0.45593999997E+02  0.45594000000E+02  0.51100000000E-03 0.  1.
    9900012    2    1    2    0    0 -0.10296375703E+02  0.12568280054E+02  0.27436166336E+02  0.59301949142E+02  0.50000009327E+02 0.  0.
        -12    1    1    2    0    0  0.10296375703E+02 -0.12568280054E+02 -0.27436166336E+02  0.31886050858E+02  0.00000000000E+00 0.  1.
         11    1    3    3    0    0 -0.11082397721E+02  0.10326168097E+02  0.25206563387E+02  0.29407824211E+02  0.51100000000E-03 0. -1.
        -11    1    3    3    0    0 -0.87444241673E+01 -0.98941368685E+01  0.51788035666E+01  0.14183754969E+02  0.51100000000E-03 0.  1.
        -12    1    3    3    0    0  0.95304461849E+01  0.12136248825E+02 -0.29492006176E+01  0.15710369961E+02  0.00000000000E+00 0.  1.
</event>
<event>
 7    1  0.1215217E-011  0.5930195E+02  0.7816164E-02  0.1266605E+00
        -11   -1    0    0    0    0  0.00000000000E+00  0.00000000000E+00  0.45593999997E+02  0.45594000000E+02  0.51100000000E-03 0.  1.
         11   -1    0    0    0    0 -0.00000000000E+00 -0.00000000000E+00 -0.45593999997E+02  0.45594000000E+02  0.51100000000E-03 0. -1.
    9900012    2    1    2    0    0 -0.88729466968E+00  0.14592425962E+02 -0.28337147801E+02  0.59301950812E+02  0.50000012373E+02 0.  0.
        -12    1    1    2    0    0  0.88729466968E+00 -0.14592425962E+02  0.28337147801E+02  0.31886049188E+02  0.00000000000E+00 0.  1.
         11    1    3    3    0    0  0.10154926495E+00  0.91720770875E+01 -0.22951550812E+01  0.94554242348E+01  0.51100000000E-03 0. -1.
        -11    1    3    3    0    0 -0.14409063719E+02 -0.73482693613E+01  0.19380020289E+01  0.16290304846E+02  0.51100000000E-03 0.  1.
         12    1    3    3    0    0  0.13420219784E+02  0.12768618236E+02 -0.27979994749E+02  0.33556221731E+02  0.00000000000E+00 0. -1.
</event>
<event>
 7    1  0.1215217E-011  0.5930196E+02  0.7816164E-02  0.1266605E+00
        -11   -1    0    0    0    0  0.00000000000E+00  0.00000000000E+00  0.45593999997E+02  0.45594000000E+02  0.51100000000E-03 0.  1.
         11   -1    0    0    0    0 -0.00000000000E+00 -0.00000000000E+00 -0.45593999997E+02  0.45594000000E+02  0.51100000000E-03 0. -1.
    9900012    2    1    2    0    0 -0.31555366605E+02 -0.25588792313E+01 -0.37987340932E+01  0.59301962221E+02  0.50000033181E+02 0.  0.
        -12    1    1    2    0    0  0.31555366605E+02  0.25588792313E+01  0.37987340932E+01  0.31886037779E+02  0.00000000000E+00 0.  1.
         11    1    3    3    0    0 -0.11918067677E+02 -0.28936514853E+01 -0.12021183280E+02  0.17173304976E+02  0.51100000000E-03 0. -1.
        -11    1    3    3    0    0 -0.25048615303E+02  0.67292469380E+01 -0.50595900788E+01  0.26425656945E+02  0.51100000000E-03 0.  1.
         12    1    3    3    0    0  0.54113163743E+01 -0.63944746840E+01  0.13282039266E+02  0.15703000301E+02  0.00000000000E+00 0. -1.
</event>
<event>
 7    1  0.1215217E-011  0.5930186E+02  0.7816164E-02  0.1266605E+00
        -11   -1    0    0    0    0  0.00000000000E+00  0.00000000000E+00  0.45593999997E+02  0.45594000000E+02  0.51100000000E-03 0. -1.
         11   -1    0    0    0    0 -0.00000000000E+00 -0.00000000000E+00 -0.45593999997E+02  0.45594000000E+02  0.51100000000E-03 0.  1.
    9900012    2    1    2    0    0 -0.28931878151E+02 -0.62679850388E+00  0.13389518501E+02  0.59301864214E+02  0.49999854438E+02 0.  0.
        -12    1    1    2    0    0  0.28931878151E+02  0.62679850388E+00 -0.13389518501E+02  0.31886135786E+02  0.00000000000E+00 0.  1.
         11    1    3    3    0    0 -0.68030732786E+01  0.77593527634E+01 -0.93581115486E+00  0.10361713378E+02  0.51100000000E-03 0. -1.
        -11    1    3    3    0    0 -0.17700395309E+02  0.74771387881E+01 -0.83201337955E+01  0.20938868766E+02  0.51100000000E-03 0.  1.
         12    1    3    3    0    0 -0.44284095632E+01 -0.15863290055E+02  0.22645463452E+02  0.28001282070E+02  0.00000000000E+00 0. -1.
</event>
<event>
 7    1  0.1215217E-011  0.5930195E+02  0.7816164E-02  0.1266605E+00
        -11   -1    0    0    0    0  0.00000000000E+00  0.00000000000E+00  0.45593999997E+02  0.45594000000E+02  0.51100000000E-03 0. -1.
         11   -1    0    0    0    0 -0.00000000000E+00 -0.00000000000E+00 -0.45593999997E+02  0.45594000000E+02  0.51100000000E-03 0.  1.
    9900012    2    1    2    0    0 -0.85254160255E+01  0.28784756915E+02 -0.10745937425E+02  0.59301951010E+02  0.50000012733E+02 0.  0.
        -12    1    1    2    0    0  0.85254160255E+01 -0.28784756915E+02  0.10745937425E+02  0.31886048990E+02  0.00000000000E+00 0.  1.
         11    1    3    3    0    0  0.96424977126E+01  0.14866382818E+02  0.90275753872E+01  0.19886785006E+02  0.51100000000E-03 0. -1.
        -11    1    3    3    0    0  0.48784069744E+01  0.81188269102E+01 -0.18540403312E+01  0.96515113229E+01  0.51100000000E-03 0.  1.
        -12    1    3    3    0    0 -0.23046320712E+02  0.57995471867E+01 -0.17919472481E+02  0.29763654681E+02  0.00000000000E+00 0.  1.
</event>
<event>
 7    1  0.1215217E-011  0.5930193E+02  0.7816164E-02  0.1266605E+00
        -11   -1    0    0    0    0  0.00000000000E+00  0.00000000000E+00  0.45593999997E+02  0.45594000000E+02  0.51100000000E-03 0.  1.
         11   -1    0    0    0    0 -0.00000000000E+00 -0.00000000000E+00 -0.45593999997E+02  0.45594000000E+02  0.51100000000E-03 0. -1.
    9900012    2    1    2    0    0 -0.60305335586E+01 -0.17848599227E+02 -0.25725114178E+02  0.59301932058E+02  0.49999978170E+02 0.  0.
        -12    1    1    2    0    0  0.60305335586E+01  0.17848599227E+02  0.25725114178E+02  0.31886067942E+02  0.00000000000E+00 0.  1.
         11    1    3    3    0    0 -0.43742281257E+01 -0.33300445675E+02 -0.20353552872E+02  0.39272390666E+02  0.51100000000E-03 0. -1.
        -11    1    3    3    0    0 -0.54694885304E+01  0.29307971698E+01 -0.16006148297E+01  0.64083418237E+01  0.51100000000E-03 0.  1.
        -12    1    3    3    0    0  0.38131830976E+01  0.12521049278E+02 -0.37709464756E+01  0.13621199568E+02  0.00000000000E+00 0.  1.
</event>
<event>
 7    1  0.1215217E-011  0.5930195E+02  0.7816164E-02  0.1266605E+00
        -11   -1    0    0    0    0  0.00000000000E+00  0.00000000000E+00  0.45593999997E+02  0.45594000000E+02  0.51100000000E-03 0. -1.
         11   -1    0    0    0    0 -0.00000000000E+00 -0.00000000000E+00 -0.45593999997E+02  0.45594000000E+02  0.51100000000E-03 0.  1.
    9900012    2    1    2    0    0  0.22924998842E+02 -0.10306524237E+02  0.19619896496E+02  0.59301947371E+02  0.50000006097E+02 0.  0.
        -12    1    1    2    0    0 -0.22924998842E+02  0.10306524237E+02 -0.19619896496E+02  0.31886052629E+02  0.00000000000E+00 0.  1.
         11    1    3    3    0    0  0.15847574200E+01 -0.15059112714E+02 -0.46346957257E+01  0.15835679226E+02  0.51100000000E-03 0. -1.
        -11    1    3    3    0    0  0.51435704198E+01  0.13794885421E+02  0.25959071308E+01  0.14949712858E+02  0.51100000000E-03 0.  1.
         12    1    3    3    0    0  0.16196671002E+02 -0.90422969434E+01  0.21658685091E+02  0.28516555287E+02  0.00000000000E+00 0. -1.
</event>
<event>
 7    1  0.1215217E-011  0.5930200E+02  0.7816164E-02  0.1266605E+00
        -11   -1    0    0    0    0  0.00000000000E+00  0.00000000000E+00  0.45593999997E+02  0.45594000000E+02  0.51100000000E-03 0.  1.
         11   -1    0    0    0    0 -0.00000000000E+00 -0.00000000000E+00 -0.45593999997E+02  0.45594000000E+02  0.51100000000E-03 0. -1.
    9900012    2    1    2    0    0 -0.23298663050E+02 -0.15894175154E+02 -0.14874961638E+02  0.59302000134E+02  0.50000102324E+02 0.  0.
        -12    1    1    2    0    0  0.23298663050E+02  0.15894175154E+02  0.14874961638E+02  0.31885999866E+02  0.00000000000E+00 0.  1.
         11    1    3    3    0    0 -0.20667078135E+02  0.54343057450E+01 -0.27359436474E+01  0.21544028999E+02  0.51100000000E-03 0. -1.
        -11    1    3    3    0    0 -0.12776980770E+02 -0.22127630848E+02 -0.80399180670E+01  0.26786630384E+02  0.51100000000E-03 0.  1.
         12    1    3    3    0    0  0.10145395855E+02  0.79914994986E+00 -0.40990999232E+01  0.10971340751E+02  0.00000000000E+00 0. -1.
</event>
<event>
 7    1  0.1215217E-011  0.5930197E+02  0.7816164E-02  0.1266605E+00
        -11   -1    0    0    0    0  0.00000000000E+00  0.00000000000E+00  0.45593999997E+02  0.45594000000E+02  0.51100000000E-03 0.  1.
         11   -1    0    0    0    0 -0.00000000000E+00 -0.00000000000E+00 -0.45593999997E+02  0.45594000000E+02  0.51100000000E-03 0. -1.
    9900012    2    1    2    0    0  0.64816670668E+01 -0.23830591751E+02 -0.20169521215E+02  0.59301973324E+02  0.50000053429E+02 0.  0.
        -12    1    1    2    0    0 -0.64816670668E+01  0.23830591751E+02  0.20169521215E+02  0.31886026676E+02  0.00000000000E+00 0.  1.
         11    1    3    3    0    0  0.99239411449E+01 -0.72570321917E+01 -0.14990345177E+01  0.12385323122E+02  0.51100000000E-03 0.  1.
        -11    1    3    3    0    0 -0.17975714901E+02 -0.18774633218E+02 -0.19028199880E+02  0.32213127287E+02  0.51100000000E-03 0. -1.
         12    1    3    3    0    0  0.14533440823E+02  0.22010736585E+01  0.35771318319E+00  0.14703522916E+02  0.00000000000E+00 0. -1.
</event>
<event>
 7    1  0.1215217E-011  0.5930214E+02  0.7816164E-02  0.1266604E+00
        -11   -1    0    0    0    0  0.00000000000E+00  0.00000000000E+00  0.45593999997E+02  0.45594000000E+02  0.51100000000E-03 0.  1.
         11   -1    0    0    0    0 -0.00000000000E+00 -0.00000000000E+00 -0.45593999997E+02  0.45594000000E+02  0.51100000000E-03 0. -1.
    9900012    2    1    2    0    0  0.43926606959E+01 -0.90928880850E+01 -0.30244541238E+02  0.59302135476E+02  0.50000349155E+02 0.  0.
        -12    1    1    2    0    0 -0.43926606959E+01  0.90928880850E+01  0.30244541238E+02  0.31885864524E+02  0.00000000000E+00 0.  1.
         11    1    3    3    0    0 -0.45745193010E+01 -0.99956100036E+01 -0.86842653358E+01  0.14009101001E+02  0.51100000000E-03 0. -1.
        -11    1    3    3    0    0  0.18507654257E+02 -0.11525527016E+02 -0.47521347466E+01  0.22314878983E+02  0.51100000000E-03 0.  1.
         12    1    3    3    0    0 -0.95404742602E+01  0.12428248935E+02 -0.16808141156E+02  0.22978155492E+02  0.00000000000E+00 0. -1.
</event>
<event>
 7    1  0.1215217E-011  0.5930196E+02  0.7816164E-02  0.1266605E+00
        -11   -1    0    0    0    0  0.00000000000E+00  0.00000000000E+00  0.45593999997E+02  0.45594000000E+02  0.51100000000E-03 0.  1.
         11   -1    0    0    0    0 -0.00000000000E+00 -0.00000000000E+00 -0.45593999997E+02  0.45594000000E+02  0.51100000000E-03 0. -1.
    9900012    2    1    2    0    0  0.52302124277E+00  0.18063094638E+02  0.26271095095E+02  0.59301962670E+02  0.50000033999E+02 0.  0.
        -12    1    1    2    0    0 -0.52302124277E+00 -0.18063094638E+02 -0.26271095095E+02  0.31886037330E+02  0.00000000000E+00 0.  1.
         11    1    3    3    0    0 -0.56763775919E+01 -0.66496832075E+01 -0.46356205165E+00  0.87552521017E+01  0.51100000000E-03 0. -1.
        -11    1    3    3    0    0 -0.49982281757E+01 -0.68502213388E+00 -0.58616309087E+01  0.77337091612E+01  0.51100000000E-03 0.  1.
        -12    1    3    3    0    0  0.11197627010E+02  0.25397799980E+02  0.32596288055E+02  0.42813001407E+02  0.00000000000E+00 0.  1.
</event>
<event>
 7    1  0.1215217E-011  0.5930191E+02  0.7816164E-02  0.1266605E+00
        -11   -1    0    0    0    0  0.00000000000E+00  0.00000000000E+00  0.45593999997E+02  0.45594000000E+02  0.51100000000E-03 0. -1.
         11   -1    0    0    0    0 -0.00000000000E+00 -0.00000000000E+00 -0.45593999997E+02  0.45594000000E+02  0.51100000000E-03 0.  1.
    9900012    2    1    2    0    0 -0.12544907817E+02  0.14541167472E+02  0.25453927334E+02  0.59301910865E+02  0.49999939519E+02 0.  0.
        -12    1    1    2    0    0  0.12544907817E+02 -0.14541167472E+02 -0.25453927334E+02  0.31886089135E+02  0.00000000000E+00 0.  1.
         11    1    3    3    0    0 -0.18610565051E+02  0.19295772191E+02  0.18642488780E+02  0.32653060257E+02  0.51100000000E-03 0. -1.
        -11    1    3    3    0    0  0.25133664494E+01  0.99078811646E+01  0.52230034294E+01  0.11478801556E+02  0.51100000000E-03 0.  1.
        -12    1    3    3    0    0  0.35522907850E+01 -0.14662485883E+02  0.15884351249E+01  0.15170049052E+02  0.00000000000E+00 0.  1.
</event>
<event>
 7    1  0.1215217E-011  0.5930194E+02  0.7816164E-02  0.1266605E+00
        -11   -1    0    0    0    0  0.00000000000E+00  0.00000000000E+00  0.45593999997E+02  0.45594000000E+02  0.51100000000E-03 0. -1.
         11   -1    0    0    0    0 -0.00000000000E+00 -0.00000000000E+00 -0.45593999997E+02  0.45594000000E+02  0.51100000000E-03 0.  1.
    9900012    2    1    2    0    0  0.29661237072E+02 -0.95384853156E+01  0.67785887317E+01  0.59301937968E+02  0.49999988948E+02 0.  0.
        -12    1    1    2    0    0 -0.29661237072E+02  0.95384853156E+01 -0.67785887317E+01  0.31886062032E+02  0.00000000000E+00 0.  1.
         11    1    3    3    0    0  0.25033396259E+02 -0.65907628999E+01  0.15701600406E+02  0.30276217390E+02  0.51100000000E-03 0. -1.
        -11    1    3    3    0    0  0.79523376689E+01 -0.67403972135E+01  0.68448157298E+01  0.12470931466E+02  0.51100000000E-03 0.  1.
        -12    1    3    3    0    0 -0.33244968565E+01  0.37926747978E+01 -0.15767827404E+02  0.16554789111E+02  0.00000000000E+00 0.  1.
</event>
<event>
 7    1  0.1215217E-011  0.5930211E+02  0.7816164E-02  0.1266604E+00
        -11   -1    0    0    0    0  0.00000000000E+00  0.00000000000E+00  0.45593999997E+02  0.45594000000E+02  0.51100000000E-03 0.  1.
         11   -1    0    0    0    0 -0.00000000000E+00 -0.00000000000E+00 -0.45593999997E+02  0.45594000000E+02  0.51100000000E-03 0. -1.
    9900012    2    1    2    0    0  0.19045583093E+02 -0.39592349720E+01 -0.25264600459E+02  0.59302112632E+02  0.50000307492E+02 0.  0.
        -12    1    1    2    0    0 -0.19045583093E+02  0.39592349720E+01  0.25264600459E+02  0.31885887368E+02  0.00000000000E+00 0.  1.
         11    1    3    3    0    0  0.15520123794E+01 -0.12264590944E+02 -0.19778705427E+02  0.23324367560E+02  0.51100000000E-03 0. -1.
        -11    1    3    3    0    0  0.23219676493E+01  0.52271315493E+01  0.11592823884E+02  0.12927026103E+02  0.51100000000E-03 0.  1.
         12    1    3    3    0    0  0.15171603065E+02  0.30782244222E+01 -0.17078718916E+02  0.23050718968E+02  0.00000000000E+00 0. -1.
</event>
<event>
 7    1  0.1215217E-011  0.5930192E+02  0.7816164E-02  0.1266605E+00
        -11   -1    0    0    0    0  0.00000000000E+00  0.00000000000E+00  0.45593999997E+02  0.45594000000E+02  0.51100000000E-03 0. -1.
         11   -1    0    0    0    0 -0.00000000000E+00 -0.00000000000E+00 -0.45593999997E+02  0.45594000000E+02  0.51100000000E-03 0.  1.
    9900012    2    1    2    0    0 -0.10710911577E+01  0.87439558927E+01  0.30645028838E+02  0.59301924772E+02  0.49999964883E+02 0.  0.
        -12    1    1    2    0    0  0.10710911577E+01 -0.87439558927E+01 -0.30645028838E+02  0.31886075228E+02  0.00000000000E+00 0.  1.
         11    1    3    3    0    0  0.12726038640E+01  0.38904993300E+01 -0.68038458496E+01  0.79402660054E+01  0.51100000000E-03 0. -1.
        -11    1    3    3    0    0  0.32985487254E+01 -0.24432603349E+01 -0.58192334891E+01  0.71213357890E+01  0.51100000000E-03 0.  1.
         12    1    3    3    0    0 -0.56422437471E+01  0.72967168976E+01  0.43268108177E+02  0.44240322978E+02  0.00000000000E+00 0. -1.
</event>
<event>
 7    1  0.1215217E-011  0.5930195E+02  0.7816164E-02  0.1266605E+00
        -11   -1    0    0    0    0  0.00000000000E+00  0.00000000000E+00  0.45593999997E+02  0.45594000000E+02  0.51100000000E-03 0.  1.
         11   -1    0    0    0    0 -0.00000000000E+00 -0.00000000000E+00 -0.45593999997E+02  0.45594000000E+02  0.51100000000E-03 0. -1.
    9900012    2    1    2    0    0 -0.18310070779E+02 -0.58012433103E+01 -0.25452056216E+02  0.59301948480E+02  0.50000008121E+02 0.  0.
        -12    1    1    2    0    0  0.18310070779E+02  0.58012433103E+01  0.25452056216E+02  0.31886051520E+02  0.00000000000E+00 0.  1.
         11    1    3    3    0    0 -0.14255661747E+02  0.38404976709E+01 -0.28300828183E+01  0.15032720420E+02  0.51100000000E-03 0. -1.
        -11    1    3    3    0    0 -0.67962461281E+01  0.11263286560E+02 -0.18636772060E+02  0.22811835933E+02  0.51100000000E-03 0.  1.
        -12    1    3    3    0    0  0.27418370965E+01 -0.20905027542E+02 -0.39852013383E+01  0.21457392127E+02  0.00000000000E+00 0.  1.
</event>
<event>
 7    1  0.1215217E-011  0.5930195E+02  0.7816164E-02  0.1266605E+00
        -11   -1    0    0    0    0  0.00000000000E+00  0.00000000000E+00  0.45593999997E+02  0.45594000000E+02  0.51100000000E-03 0.  1.
         11   -1    0    0    0    0 -0.00000000000E+00 -0.00000000000E+00 -0.45593999997E+02  0.45594000000E+02  0.51100000000E-03 0. -1.
    9900012    2    1    2    0    0 -0.23370038733E+02 -0.76567624743E+01 -0.20296191422E+02  0.59301951198E+02  0.50000013077E+02 0.  0.
        -12    1    1    2    0    0  0.23370038733E+02  0.76567624743E+01  0.20296191422E+02  0.31886048802E+02  0.00000000000E+00 0.  1.
         11    1    3    3    0    0 -0.66691757491E+01 -0.23024393437E+02 -0.19292148630E+02  0.30769913834E+02  0.51100000000E-03 0. -1.
        -11    1    3    3    0    0  0.75685860060E+00 -0.42058624737E+00 -0.46353484190E+01  0.47155257352E+01  0.51100000000E-03 0.  1.
        -12    1    3    3    0    0 -0.17457721585E+02  0.15788217210E+02  0.36313056275E+01  0.23816511629E+02  0.00000000000E+00 0.  1.
</event>
<event>
 7    1  0.1215217E-011  0.5930197E+02  0.7816164E-02  0.1266605E+00
        -11   -1    0    0    0    0  0.00000000000E+00  0.00000000000E+00  0.45593999997E+02  0.45594000000E+02  0.51100000000E-03 0.  1.
         11   -1    0    0    0    0 -0.00000000000E+00 -0.00000000000E+00 -0.45593999997E+02  0.45594000000E+02  0.51100000000E-03 0. -1.
    9900012    2    1    2    0    0 -0.52659122881E+01 -0.67337133825E+01 -0.30718824061E+02  0.59301970460E+02  0.50000048206E+02 0.  0.
        -12    1    1    2    0    0  0.52659122881E+01  0.67337133825E+01  0.30718824061E+02  0.31886029540E+02  0.00000000000E+00 0.  1.
         11    1    3    3    0    0  0.80618289982E+01 -0.65384200237E+00 -0.88682965947E+01  0.12002803044E+02  0.51100000000E-03 0. -1.
        -11    1    3    3    0    0 -0.94054046160E+01  0.68108213599E+01  0.83007248844E+01  0.14274135962E+02  0.51100000000E-03 0.  1.
         12    1    3    3    0    0 -0.39223366702E+01 -0.12890692740E+02 -0.30151252350E+02  0.33025031454E+02  0.00000000000E+00 0. -1.
</event>
<event>
 7    1  0.1215217E-011  0.5930192E+02  0.7816164E-02  0.1266605E+00
        -11   -1    0    0    0    0  0.00000000000E+00  0.00000000000E+00  0.45593999997E+02  0.45594000000E+02  0.51100000000E-03 0.  1.
         11   -1    0    0    0    0 -0.00000000000E+00 -0.00000000000E+00 -0.45593999997E+02  0.45594000000E+02  0.51100000000E-03 0. -1.
    9900012    2    1    2    0    0  0.15773012907E+02  0.58811609703E+01 -0.27080363996E+02  0.59301919892E+02  0.49999955982E+02 0.  0.
        -12    1    1    2    0    0 -0.15773012907E+02 -0.58811609703E+01  0.27080363996E+02  0.31886080108E+02  0.00000000000E+00 0.  1.
         11    1    3    3    0    0  0.74511346457E+01  0.15238798592E+02 -0.17026685708E+01  0.17048151529E+02  0.51100000000E-03 0. -1.
        -11    1    3    3    0    0 -0.73678663798E+01  0.74212255844E+01 -0.52018208490E+01  0.11679853791E+02  0.51100000000E-03 0.  1.
         12    1    3    3    0    0  0.15689744641E+02 -0.16778863206E+02 -0.20175874576E+02  0.30573914572E+02  0.00000000000E+00 0. -1.
</event>
<event>
 7    1  0.1215217E-011  0.5930192E+02  0.7816164E-02  0.1266605E+00
        -11   -1    0    0    0    0  0.00000000000E+00  0.00000000000E+00  0.45593999997E+02  0.45594000000E+02  0.51100000000E-03 0.  1.
         11   -1    0    0    0    0 -0.00000000000E+00 -0.00000000000E+00 -0.45593999997E+02  0.45594000000E+02  0.51100000000E-03 0. -1.
    9900012    2    1    2    0    0  0.15482131904E+02  0.27482420097E+02 -0.46628487459E+01  0.59301921829E+02  0.49999959515E+02 0.  0.
        -12    1    1    2    0    0 -0.15482131904E+02 -0.27482420097E+02  0.46628487459E+01  0.31886078171E+02  0.00000000000E+00 0.  1.
         11    1    3    3    0    0  0.19515002942E+01  0.10476922225E+02 -0.65495166363E+01  0.12508813738E+02  0.51100000000E-03 0. -1.
        -11    1    3    3    0    0  0.18110238391E+02  0.24810074954E+02  0.12219477998E+02  0.33058073093E+02  0.51100000000E-03 0.  1.
        -12    1    3    3    0    0 -0.45796067804E+01 -0.78045770818E+01 -0.10332810108E+02  0.13735034998E+02  0.00000000000E+00 0.  1.
</event>
<event>
 7    1  0.1215217E-011  0.5930197E+02  0.7816164E-02  0.1266605E+00
        -11   -1    0    0    0    0  0.00000000000E+00  0.00000000000E+00  0.45593999997E+02  0.45594000000E+02  0.51100000000E-03 0.  1.
         11   -1    0    0    0    0 -0.00000000000E+00 -0.00000000000E+00 -0.45593999997E+02  0.45594000000E+02  0.51100000000E-03 0. -1.
    9900012    2    1    2    0    0 -0.30000073160E+02  0.74242992809E+01 -0.78481958467E+01  0.59301971908E+02  0.50000050847E+02 0.  0.
        -12    1    1    2    0    0  0.30000073160E+02 -0.74242992809E+01  0.78481958467E+01  0.31886028092E+02  0.00000000000E+00 0.  1.
         11    1    3    3    0    0 -0.33192112998E+01  0.38664105136E-01 -0.18981687908E+02  0.19269746616E+02  0.51100000000E-03 0. -1.
        -11    1    3    3    0    0 -0.19761576524E+02 -0.81221539312E+01  0.47250627496E+01  0.21881853428E+02  0.51100000000E-03 0.  1.
        -12    1    3    3    0    0 -0.69192853361E+01  0.15507789107E+02  0.64084293114E+01  0.18150371864E+02  0.00000000000E+00 0.  1.
</event>
<event>
 7    1  0.1215217E-011  0.5930195E+02  0.7816164E-02  0.1266605E+00
        -11   -1    0    0    0    0  0.00000000000E+00  0.00000000000E+00  0.45593999997E+02  0.45594000000E+02  0.51100000000E-03 0.  1.
         11   -1    0    0    0    0 -0.00000000000E+00 -0.00000000000E+00 -0.45593999997E+02  0.45594000000E+02  0.51100000000E-03 0. -1.
    9900012    2    1    2    0    0 -0.44409543254E+01  0.33562529995E+01 -0.31396393237E+02  0.59301952615E+02  0.50000015661E+02 0.  0.
        -12    1    1    2    0    0  0.44409543254E+01 -0.33562529995E+01  0.31396393237E+02  0.31886047385E+02  0.00000000000E+00 0.  1.
         11    1    3    3    0    0 -0.15915369737E+02 -0.21977043923E+01 -0.22381460947E+02  0.27551019815E+02  0.51100000000E-03 0. -1.
        -11    1    3    3    0    0  0.76388093642E+01 -0.87806692681E+01 -0.11887834140E+02  0.16636470843E+02  0.51100000000E-03 0.  1.
        -12    1    3    3    0    0  0.38356060472E+01  0.14334626660E+02  0.28729018495E+01  0.15114461957E+02  0.00000000000E+00 0.  1.
</event>
<event>
 7    1  0.1215217E-011  0.5930188E+02  0.7816164E-02  0.1266605E+00
        -11   -1    0    0    0    0  0.00000000000E+00  0.00000000000E+00  0.45593999997E+02  0.45594000000E+02  0.51100000000E-03 0.  1.
         11   -1    0    0    0    0 -0.00000000000E+00 -0.00000000000E+00 -0.45593999997E+02  0.45594000000E+02  0.51100000000E-03 0. -1.
    9900012    2    1    2    0    0 -0.76099256118E+01 -0.27928976766E+02  0.13371075068E+02  0.59301884535E+02  0.49999891499E+02 0.  0.
        -12    1    1    2    0    0  0.76099256118E+01  0.27928976766E+02 -0.13371075068E+02  0.31886115465E+02  0.00000000000E+00 0.  1.
         11    1    3    3    0    0  0.33628480283E+01 -0.18611580934E+02 -0.64403610915E+01  0.19979438004E+02  0.51100000000E-03 0. -1.
        -11    1    3    3    0    0 -0.12579400910E+02 -0.19237875795E+02  0.17803517444E+02  0.29074085128E+02  0.51100000000E-03 0.  1.
         12    1    3    3    0    0  0.16066272701E+01  0.99204799626E+01  0.20079187147E+01  0.10248361403E+02  0.00000000000E+00 0. -1.
</event>
<event>
 7    1  0.1215217E-011  0.5930196E+02  0.7816164E-02  0.1266605E+00
        -11   -1    0    0    0    0  0.00000000000E+00  0.00000000000E+00  0.45593999997E+02  0.45594000000E+02  0.51100000000E-03 0. -1.
         11   -1    0    0    0    0 -0.00000000000E+00 -0.00000000000E+00 -0.45593999997E+02  0.45594000000E+02  0.51100000000E-03 0.  1.
    9900012    2    1    2    0    0  0.20252740466E+02 -0.22125086840E+02  0.10817871557E+02  0.59301963729E+02  0.50000035930E+02 0.  0.
        -12    1    1    2    0    0 -0.20252740466E+02  0.22125086840E+02 -0.10817871557E+02  0.31886036271E+02  0.00000000000E+00 0.  1.
         11    1    3    3    0    0 -0.13716101709E+01 -0.85803561021E+01 -0.94585071558E+01  0.12843955122E+02  0.51100000000E-03 0. -1.
        -11    1    3    3    0    0 -0.28870697909E+01  0.28213737352E+01 -0.58261386867E+01  0.70879626120E+01  0.51100000000E-03 0.  1.
         12    1    3    3    0    0  0.24511420428E+02 -0.16366104473E+02  0.26102517399E+02  0.39370045995E+02  0.00000000000E+00 0. -1.
</event>
<event>
 7    1  0.1215217E-011  0.5930190E+02  0.7816164E-02  0.1266605E+00
        -11   -1    0    0    0    0  0.00000000000E+00  0.00000000000E+00  0.45593999997E+02  0.45594000000E+02  0.51100000000E-03 0. -1.
         11   -1    0    0    0    0 -0.00000000000E+00 -0.00000000000E+00 -0.45593999997E+02  0.45594000000E+02  0.51100000000E-03 0.  1.
    9900012    2    1    2    0    0  0.17966918684E+01  0.31795420983E+02  0.15957835802E+01  0.59301899229E+02  0.49999918298E+02 0.  0.
        -12    1    1    2    0    0 -0.17966918684E+01 -0.31795420983E+02 -0.15957835802E+01  0.31886100771E+02  0.00000000000E+00 0.  1.
         11    1    3    3    0    0 -0.99181049937E+01 -0.46709863366E+01  0.53716246401E+01  0.12208246048E+02  0.51100000000E-03 0. -1.
        -11    1    3    3    0    0 -0.95937057638E+00  0.29831854157E+02  0.50688157812E+01  0.30274623170E+02  0.51100000000E-03 0.  1.
        -12    1    3    3    0    0  0.12674167438E+02  0.66345531617E+01 -0.88446568410E+01  0.16819030012E+02  0.00000000000E+00 0.  1.
</event>
<event>
 7    1  0.1215217E-011  0.5930197E+02  0.7816164E-02  0.1266605E+00
        -11   -1    0    0    0    0  0.00000000000E+00  0.00000000000E+00  0.45593999997E+02  0.45594000000E+02  0.51100000000E-03 0.  1.
         11   -1    0    0    0    0 -0.00000000000E+00 -0.00000000000E+00 -0.45593999997E+02  0.45594000000E+02  0.51100000000E-03 0. -1.
    9900012    2    1    2    0    0 -0.31552477779E+02  0.30257403881E+01  0.34648461188E+01  0.59301966733E+02  0.50000041409E+02 0.  0.
        -12    1    1    2    0    0  0.31552477779E+02 -0.30257403881E+01 -0.34648461188E+01  0.31886033267E+02  0.00000000000E+00 0.  1.
         11    1    3    3    0    0 -0.25635798231E+02  0.57222170207E+00  0.59951321540E+01  0.26333689419E+02  0.51100000000E-03 0. -1.
        -11    1    3    3    0    0 -0.68984947871E+01  0.16768422911E+01  0.14366648660E+02  0.16025031182E+02  0.51100000000E-03 0.  1.
        -12    1    3    3    0    0  0.98181523894E+00  0.77667639491E+00 -0.16896934695E+02  0.16943246132E+02  0.00000000000E+00 0.  1.
</event>
<event>
 7    1  0.1215217E-011  0.5930193E+02  0.7816164E-02  0.1266605E+00
        -11   -1    0    0    0    0  0.00000000000E+00  0.00000000000E+00  0.45593999997E+02  0.45594000000E+02  0.51100000000E-03 0.  1.
         11   -1    0    0    0    0 -0.00000000000E+00 -0.00000000000E+00 -0.45593999997E+02  0.45594000000E+02  0.51100000000E-03 0. -1.
    9900012    2    1    2    0    0 -0.44291090033E+01  0.69332547181E+01 -0.30806403442E+02  0.59301929051E+02  0.49999972686E+02 0.  0.
        -12    1    1    2    0    0  0.44291090033E+01 -0.69332547181E+01  0.30806403442E+02  0.31886070949E+02  0.00000000000E+00 0.  1.
         11    1    3    3    0    0  0.15804348195E+02 -0.54783754028E+01 -0.12870938843E+02  0.21105712163E+02  0.51100000000E-03 0. -1.
        -11    1    3    3    0    0  0.13930048171E+01 -0.39736957524E+01  0.18666071424E+01  0.46059681760E+01  0.51100000000E-03 0.  1.
        -12    1    3    3    0    0 -0.21626462016E+02  0.16385325873E+02 -0.19802071741E+02  0.33590248712E+02  0.00000000000E+00 0.  1.
</event>
<event>
 7    1  0.1215217E-011  0.5930194E+02  0.7816164E-02  0.1266605E+00
        -11   -1    0    0    0    0  0.00000000000E+00  0.00000000000E+00  0.45593999997E+02  0.45594000000E+02  0.51100000000E-03 0.  1.
         11   -1    0    0    0    0 -0.00000000000E+00 -0.00000000000E+00 -0.45593999997E+02  0.45594000000E+02  0.51100000000E-03 0. -1.
    9900012    2    1    2    0    0 -0.20376364540E+01  0.12903934373E+01 -0.31794709019E+02  0.59301943499E+02  0.49999999037E+02 0.  0.
        -12    1    1    2    0    0  0.20376364540E+01 -0.12903934373E+01  0.31794709019E+02  0.31886056501E+02  0.00000000000E+00 0.  1.
         11    1    3    3    0    0 -0.16544336394E+00 -0.42838632721E+01 -0.34617533148E+02  0.34881978980E+02  0.51100000000E-03 0. -1.
        -11    1    3    3    0    0  0.95953378621E+01  0.56689475397E+01 -0.30236542482E+01  0.11547725324E+02  0.51100000000E-03 0.  1.
         12    1    3    3    0    0 -0.11467530952E+02 -0.94690830270E-01  0.58464783768E+01  0.12872239195E+02  0.00000000000E+00 0. -1.
</event>
<event>
 7    1  0.1215217E-011  0.5930192E+02  0.7816164E-02  0.1266605E+00
        -11   -1    0    0    0    0  0.00000000000E+00  0.00000000000E+00  0.45593999997E+02  0.45594000000E+02  0.51100000000E-03 0.  1.
         11   -1    0    0    0    0 -0.00000000000E+00 -0.00000000000E+00 -0.45593999997E+02  0.45594000000E+02  0.51100000000E-03 0. -1.
    9900012    2    1    2    0    0 -0.18856676436E+02 -0.18867884869E+00 -0.25712100254E+02  0.59301922390E+02  0.49999960537E+02 0.  0.
        -12    1    1    2    0    0  0.18856676436E+02  0.18867884869E+00  0.25712100254E+02  0.31886077610E+02  0.00000000000E+00 0.  1.
         11    1    3    3    0    0 -0.82582105118E+01  0.58476514099E+01 -0.13023429738E+02  0.16492507095E+02  0.51100000000E-03 0. -1.
        -11    1    3    3    0    0 -0.11065149671E+02 -0.36175334044E+01  0.12742250396E+02  0.17259462059E+02  0.51100000000E-03 0.  1.
         12    1    3    3    0    0  0.46668374679E+00 -0.24187968542E+01 -0.25430920911E+02  0.25549953235E+02  0.00000000000E+00 0. -1.
</event>
<event>
 7    1  0.1215217E-011  0.5930209E+02  0.7816164E-02  0.1266604E+00
        -11   -1    0    0    0    0  0.00000000000E+00  0.00000000000E+00  0.45593999997E+02  0.45594000000E+02  0.51100000000E-03 0.  1.
         11   -1    0    0    0    0 -0.00000000000E+00 -0.00000000000E+00 -0.45593999997E+02  0.45594000000E+02  0.51100000000E-03 0. -1.
    9900012    2    1    2    0    0 -0.66771468402E+01 -0.15097448552E+02 -0.27279923558E+02  0.59302086620E+02  0.50000260054E+02 0.  0.
        -12    1    1    2    0    0  0.66771468402E+01  0.15097448552E+02  0.27279923558E+02  0.31885913380E+02  0.00000000000E+00 0.  1.
         11    1    3    3    0    0 -0.18540713156E+01 -0.22306067340E+02 -0.64665876843E+01  0.23298390012E+02  0.51100000000E-03 0. -1.
        -11    1    3    3    0    0  0.97497271189E+01 -0.22770980654E+01 -0.16841732141E+01  0.10152772733E+02  0.51100000000E-03 0.  1.
         12    1    3    3    0    0 -0.14572802644E+02  0.94857168535E+01 -0.19129162660E+02  0.25850923875E+02  0.00000000000E+00 0. -1.
</event>
<event>
 7    1  0.1215217E-011  0.5930195E+02  0.7816164E-02  0.1266605E+00
        -11   -1    0    0    0    0  0.00000000000E+00  0.00000000000E+00  0.45593999997E+02  0.45594000000E+02  0.51100000000E-03 0.  1.
         11   -1    0    0    0    0 -0.00000000000E+00 -0.00000000000E+00 -0.45593999997E+02  0.45594000000E+02  0.51100000000E-03 0. -1.
    9900012    2    1    2    0    0  0.85898027881E+01  0.28128156114E+02 -0.12318384166E+02  0.59301945575E+02  0.50000002823E+02 0.  0.
        -12    1    1    2    0    0 -0.85898027881E+01 -0.28128156114E+02  0.12318384166E+02  0.31886054425E+02  0.00000000000E+00 0.  1.
         11    1    3    3    0    0 -0.45150173529E+01  0.29399377584E+02  0.87912683732E+01  0.31016047199E+02  0.51100000000E-03 0. -1.
        -11    1    3    3    0    0  0.94053668311E+01  0.47385420858E+00 -0.32476933846E+01  0.99615749568E+01  0.51100000000E-03 0.  1.
        -12    1    3    3    0    0  0.36994533099E+01 -0.17450756786E+01 -0.17861959155E+02  0.18324323419E+02  0.00000000000E+00 0.  1.
</event>
<event>
 7    1  0.1215217E-011  0.5930197E+02  0.7816164E-02  0.1266605E+00
        -11   -1    0    0    0    0  0.00000000000E+00  0.00000000000E+00  0.45593999997E+02  0.45594000000E+02  0.51100000000E-03 0. -1.
         11   -1    0    0    0    0 -0.00000000000E+00 -0.00000000000E+00 -0.45593999997E+02  0.45594000000E+02  0.51100000000E-03 0.  1.
    9900012    2    1    2    0    0  0.78880971117E+01 -0.28735889854E+02 -0.11346607526E+02  0.59301969452E+02  0.50000046368E+02 0.  0.
        -12    1    1    2    0    0 -0.78880971117E+01  0.28735889854E+02  0.11346607526E+02  0.31886030548E+02  0.00000000000E+00 0.  1.
         11    1    3    3    0    0  0.44393996791E+00  0.68839413752E+00  0.80598314873E+01  0.81013488413E+01  0.51100000000E-03 0. -1.
        -11    1    3    3    0    0  0.29583198615E+01  0.28244830177E+01  0.77760072356E+01  0.87861054803E+01  0.51100000000E-03 0.  1.
         12    1    3    3    0    0  0.44858372823E+01 -0.32248767009E+02 -0.27182446249E+02  0.42414515131E+02  0.00000000000E+00 0. -1.
</event>
<event>
 7    1  0.1215217E-011  0.5930193E+02  0.7816164E-02  0.1266605E+00
        -11   -1    0    0    0    0  0.00000000000E+00  0.00000000000E+00  0.45593999997E+02  0.45594000000E+02  0.51100000000E-03 0.  1.
         11   -1    0    0    0    0 -0.00000000000E+00 -0.00000000000E+00 -0.45593999997E+02  0.45594000000E+02  0.51100000000E-03 0. -1.
    9900012    2    1    2    0    0 -0.56829754435E+00 -0.29819160816E+02 -0.11279017982E+02  0.59301928425E+02  0.49999971544E+02 0.  0.
        -12    1    1    2    0    0  0.56829754435E+00  0.29819160816E+02  0.11279017982E+02  0.31886071575E+02  0.00000000000E+00 0.  1.
         11    1    3    3    0    0  0.16236911816E+02 -0.80972624321E+01 -0.13799163016E+02  0.22795171954E+02  0.51100000000E-03 0. -1.
        -11    1    3    3    0    0 -0.77244743885E+01 -0.32856686901E+00 -0.78849919442E+01  0.11043032146E+02  0.51100000000E-03 0.  1.
        -12    1    3    3    0    0 -0.90807349723E+01 -0.21393331514E+02  0.10405136978E+02  0.25463724324E+02  0.00000000000E+00 0.  1.
</event>
<event>
 7    1  0.1215217E-011  0.5930195E+02  0.7816164E-02  0.1266605E+00
        -11   -1    0    0    0    0  0.00000000000E+00  0.00000000000E+00  0.45593999997E+02  0.45594000000E+02  0.51100000000E-03 0.  1.
         11   -1    0    0    0    0 -0.00000000000E+00 -0.00000000000E+00 -0.45593999997E+02  0.45594000000E+02  0.51100000000E-03 0. -1.
    9900012    2    1    2    0    0  0.12172231115E+02  0.12500415488E+01 -0.29444770526E+02  0.59301947790E+02  0.50000006862E+02 0.  0.
        -12    1    1    2    0    0 -0.12172231115E+02 -0.12500415488E+01  0.29444770526E+02  0.31886052210E+02  0.00000000000E+00 0.  1.
         11    1    3    3    0    0 -0.63607252949E+01 -0.62292879979E+01 -0.10775970603E+02  0.13977996921E+02  0.51100000000E-03 0. -1.
        -11    1    3    3    0    0  0.67503930340E+01  0.68630907163E+01 -0.28427048847E+02  0.30012779390E+02  0.51100000000E-03 0.  1.
        -12    1    3    3    0    0  0.11782563376E+02  0.61623883038E+00  0.97582489236E+01  0.15311171479E+02  0.00000000000E+00 0.  1.
</event>
<event>
 7    1  0.1215217E-011  0.5930202E+02  0.7816164E-02  0.1266605E+00
        -11   -1    0    0    0    0  0.00000000000E+00  0.00000000000E+00  0.45593999997E+02  0.45594000000E+02  0.51100000000E-03 0.  1.
         11   -1    0    0    0    0 -0.00000000000E+00 -0.00000000000E+00 -0.45593999997E+02  0.45594000000E+02  0.51100000000E-03 0. -1.
    9900012    2    1    2    0    0 -0.27683074157E+02  0.10134058269E+02 -0.12151712294E+02  0.59302018073E+02  0.50000135040E+02 0.  0.
        -12    1    1    2    0    0  0.27683074157E+02 -0.10134058269E+02  0.12151712294E+02  0.31885981927E+02  0.00000000000E+00 0.  1.
         11    1    3    3    0    0 -0.17759622335E+02 -0.80436824447E+01  0.11179854305E+02  0.22474299884E+02  0.51100000000E-03 0. -1.
        -11    1    3    3    0    0  0.14697578628E+01 -0.29513788950E+01 -0.71625466195E+01  0.78849793846E+01  0.51100000000E-03 0.  1.
         12    1    3    3    0    0 -0.11393209685E+02  0.21129119608E+02 -0.16169019980E+02  0.28942738804E+02  0.00000000000E+00 0. -1.
</event>
<event>
 7    1  0.1215217E-011  0.5930195E+02  0.7816164E-02  0.1266605E+00
        -11   -1    0    0    0    0  0.00000000000E+00  0.00000000000E+00  0.45593999997E+02  0.45594000000E+02  0.51100000000E-03 0.  1.
         11   -1    0    0    0    0 -0.00000000000E+00 -0.00000000000E+00 -0.45593999997E+02  0.45594000000E+02  0.51100000000E-03 0. -1.
    9900012    2    1    2    0    0 -0.42293482465E-01 -0.24774405060E+02 -0.20073546365E+02  0.59301949782E+02  0.50000010495E+02 0.  0.
        -12    1    1    2    0    0  0.42293482465E-01  0.24774405060E+02  0.20073546365E+02  0.31886050218E+02  0.00000000000E+00 0.  1.
         11    1    3    3    0    0  0.15279019081E+02 -0.14500449880E+02  0.71074512997E+01  0.22231224326E+02  0.51100000000E-03 0. -1.
        -11    1    3    3    0    0 -0.81889514543E+00 -0.33677459033E+00  0.24565766758E+01  0.26112785391E+01  0.51100000000E-03 0.  1.
         12    1    3    3    0    0 -0.14502417418E+02 -0.99371805902E+01 -0.29637574341E+02  0.34459446917E+02  0.00000000000E+00 0. -1.
</event>
<event>
 7    1  0.1215217E-011  0.5930193E+02  0.7816164E-02  0.1266605E+00
        -11   -1    0    0    0    0  0.00000000000E+00  0.00000000000E+00  0.45593999997E+02  0.45594000000E+02  0.51100000000E-03 0. -1.
         11   -1    0    0    0    0 -0.00000000000E+00 -0.00000000000E+00 -0.45593999997E+02  0.45594000000E+02  0.51100000000E-03 0.  1.
    9900012    2    1    2    0    0 -0.38335298682E+01 -0.31642711785E+02  0.87428806587E+00  0.59301928746E+02  0.49999972130E+02 0.  0.
        -12    1    1    2    0    0  0.38335298682E+01  0.31642711785E+02 -0.87428806587E+00  0.31886071254E+02  0.00000000000E+00 0.  1.
         11    1    3    3    0    0 -0.44465276600E+01  0.22457592301E+01 -0.86125915315E+01  0.99494610859E+01  0.51100000000E-03 0. -1.
        -11    1    3    3    0    0  0.14976629576E+01  0.69094739508E+01 -0.11945970203E+01  0.71701385561E+01  0.51100000000E-03 0.  1.
         12    1    3    3    0    0 -0.88466516589E+00 -0.40797944966E+02  0.10681476618E+02  0.42182329104E+02  0.00000000000E+00 0. -1.
</event>
<event>
 7    1  0.1215217E-011  0.5930185E+02  0.7816164E-02  0.1266605E+00
        -11   -1    0    0    0    0  0.00000000000E+00  0.00000000000E+00  0.45593999997E+02  0.45594000000E+02  0.51100000000E-03 0. -1.
         11   -1    0    0    0    0 -0.00000000000E+00 -0.00000000000E+00 -0.45593999997E+02  0.45594000000E+02  0.51100000000E-03 0.  1.
    9900012    2    1    2    0    0 -0.63972309223E+01 -0.18382928450E+02  0.25256089138E+02  0.59301848454E+02  0.49999825696E+02 0.  0.
        -12    1    1    2    0    0  0.63972309223E+01  0.18382928450E+02 -0.25256089138E+02  0.31886151546E+02  0.00000000000E+00 0.  1.
         11    1    3    3    0    0 -0.20265565880E+02 -0.80638039024E+01  0.23039990009E+02  0.31726317682E+02  0.51100000000E-03 0. -1.
        -11    1    3    3    0    0  0.60916590395E+01  0.59718431812E+01 -0.25526567590E+01  0.89043403812E+01  0.51100000000E-03 0.  1.
        -12    1    3    3    0    0  0.77766759179E+01 -0.16290967729E+02  0.47687558888E+01  0.18671190390E+02  0.00000000000E+00 0.  1.
</event>
<event>
 7    1  0.1215217E-011  0.5930194E+02  0.7816164E-02  0.1266605E+00
        -11   -1    0    0    0    0  0.00000000000E+00  0.00000000000E+00  0.45593999997E+02  0.45594000000E+02  0.51100000000E-03 0. -1.
         11   -1    0    0    0    0 -0.00000000000E+00 -0.00000000000E+00 -0.45593999997E+02  0.45594000000E+02  0.51100000000E-03 0.  1.
    9900012    2    1    2    0    0 -0.11736052117E+02 -0.26254158940E+02  0.13773353099E+02  0.59301936641E+02  0.49999986528E+02 0.  0.
        -12    1    1    2    0    0  0.11736052117E+02  0.26254158940E+02 -0.13773353099E+02  0.31886063359E+02  0.00000000000E+00 0.  1.
         11    1    3    3    0    0  0.25390477267E+01 -0.25281131632E+02  0.19467884858E+01  0.25482785672E+02  0.51100000000E-03 0. -1.
        -11    1    3    3    0    0  0.31202105933E+01 -0.96115926151E+01 -0.15676176278E+01  0.10226233521E+02  0.51100000000E-03 0.  1.
        -12    1    3    3    0    0 -0.17395310437E+02  0.86385653070E+01  0.13394182241E+02  0.23592917447E+02  0.00000000000E+00 0.  1.
</event>
<event>
 7    1  0.1215217E-011  0.5930195E+02  0.7816164E-02  0.1266605E+00
        -11   -1    0    0    0    0  0.00000000000E+00  0.00000000000E+00  0.45593999997E+02  0.45594000000E+02  0.51100000000E-03 0.  1.
         11   -1    0    0    0    0 -0.00000000000E+00 -0.00000000000E+00 -0.45593999997E+02  0.45594000000E+02  0.51100000000E-03 0. -1.
    9900012    2    1    2    0    0  0.73634367626E+01  0.22513539872E+02 -0.21345738346E+02  0.59301949381E+02  0.50000009763E+02 0.  0.
        -12    1    1    2    0    0 -0.73634367626E+01 -0.22513539872E+02  0.21345738346E+02  0.31886050619E+02  0.00000000000E+00 0.  1.
         11    1    3    3    0    0  0.85277854031E+01  0.44467914671E+01 -0.21748835018E+01  0.98603852227E+01  0.51100000000E-03 0. -1.
        -11    1    3    3    0    0  0.35506375431E+01  0.26306502510E+02  0.16111480810E+01  0.26593888390E+02  0.51100000000E-03 0.  1.
         12    1    3    3    0    0 -0.47149861836E+01 -0.82397541051E+01 -0.20782002926E+02  0.22847675769E+02  0.00000000000E+00 0. -1.
</event>
<event>
 7    1  0.1215217E-011  0.5930192E+02  0.7816164E-02  0.1266605E+00
        -11   -1    0    0    0    0  0.00000000000E+00  0.00000000000E+00  0.45593999997E+02  0.45594000000E+02  0.51100000000E-03 0. -1.
         11   -1    0    0    0    0 -0.00000000000E+00 -0.00000000000E+00 -0.45593999997E+02  0.45594000000E+02  0.51100000000E-03 0.  1.
    9900012    2    1    2    0    0 -0.67313376444E+01 -0.31166482931E+02  0.24780628978E+00  0.59301921960E+02  0.49999959754E+02 0.  0.
        -12    1    1    2    0    0  0.67313376444E+01  0.31166482931E+02 -0.24780628978E+00  0.31886078040E+02  0.00000000000E+00 0.  1.
         11    1    3    3    0    0  0.96712089599E+01 -0.42349495325E+01  0.79916404621E+01  0.13241351813E+02  0.51100000000E-03 0. -1.
        -11    1    3    3    0    0 -0.46403268874E+01  0.68621901959E+01  0.28214722076E+01  0.87511709837E+01  0.51100000000E-03 0.  1.
        -12    1    3    3    0    0 -0.11762219717E+02 -0.33793723595E+02 -0.10565306380E+02  0.37309399164E+02  0.00000000000E+00 0.  1.
</event>
<event>
 7    1  0.1215217E-011  0.5930193E+02  0.7816164E-02  0.1266605E+00
        -11   -1    0    0    0    0  0.00000000000E+00  0.00000000000E+00  0.45593999997E+02  0.45594000000E+02  0.51100000000E-03 0.  1.
         11   -1    0    0    0    0 -0.00000000000E+00 -0.00000000000E+00 -0.45593999997E+02  0.45594000000E+02  0.51100000000E-03 0. -1.
    9900012    2    1    2    0    0 -0.31262768304E+02 -0.35505636824E+01  0.51724607837E+01  0.59301928824E+02  0.49999972272E+02 0.  0.
        -12    1    1    2    0    0  0.31262768304E+02  0.35505636824E+01 -0.51724607837E+01  0.31886071176E+02  0.00000000000E+00 0.  1.
         11    1    3    3    0    0 -0.13951939390E+02 -0.78021021087E+01 -0.84134371088E+01  0.18064200350E+02  0.51100000000E-03 0. -1.
        -11    1    3    3    0    0 -0.10927885426E+02 -0.12914803362E+02  0.15343060511E+02  0.22839008995E+02  0.51100000000E-03 0.  1.
        -12    1    3    3    0    0 -0.63829434880E+01  0.17166341789E+02 -0.17571626187E+01  0.18398719479E+02  0.00000000000E+00 0.  1.
</event>
<event>
 7    1  0.1215217E-011  0.5930193E+02  0.7816164E-02  0.1266605E+00
        -11   -1    0    0    0    0  0.00000000000E+00  0.00000000000E+00  0.45593999997E+02  0.45594000000E+02  0.51100000000E-03 0.  1.
         11   -1    0    0    0    0 -0.00000000000E+00 -0.00000000000E+00 -0.45593999997E+02  0.45594000000E+02  0.51100000000E-03 0. -1.
    9900012    2    1    2    0    0 -0.11295652127E+02  0.29210717579E+02 -0.59886127974E+01  0.59301933110E+02  0.49999980089E+02 0.  0.
        -12    1    1    2    0    0  0.11295652127E+02 -0.29210717579E+02  0.59886127974E+01  0.31886066890E+02  0.00000000000E+00 0.  1.
         11    1    3    3    0    0  0.71464978163E+01  0.17316405866E+02 -0.32564871727E+01  0.19014075106E+02  0.51100000000E-03 0. -1.
        -11    1    3    3    0    0  0.12959615828E+01  0.45737139368E+00  0.12681973158E+02  0.12756219990E+02  0.51100000000E-03 0.  1.
        -12    1    3    3    0    0 -0.19738111526E+02  0.11436940319E+02 -0.15414098782E+02  0.27531638014E+02  0.00000000000E+00 0.  1.
</event>
<event>
 7    1  0.1215217E-011  0.5930194E+02  0.7816164E-02  0.1266605E+00
        -11   -1    0    0    0    0  0.00000000000E+00  0.00000000000E+00  0.45593999997E+02  0.45594000000E+02  0.51100000000E-03 0.  1.
         11   -1    0    0    0    0 -0.00000000000E+00 -0.00000000000E+00 -0.45593999997E+02  0.45594000000E+02  0.51100000000E-03 0. -1.
    9900012    2    1    2    0    0  0.14464332500E+02 -0.19892833137E+02 -0.20292338294E+02  0.59301941630E+02  0.49999995628E+02 0.  0.
        -12    1    1    2    0    0 -0.14464332500E+02  0.19892833137E+02  0.20292338294E+02  0.31886058370E+02  0.00000000000E+00 0.  1.
         11    1    3    3    0    0  0.27553310358E+02 -0.17250069200E+02 -0.97276038241E+01  0.33931932976E+02  0.51100000000E-03 0. -1.
        -11    1    3    3    0    0  0.59802946709E+00 -0.26724430472E+00  0.46913714190E+01  0.47368792273E+01  0.51100000000E-03 0.  1.
        -12    1    3    3    0    0 -0.13687007325E+02 -0.23755196326E+01 -0.15256105889E+02  0.20633129427E+02  0.00000000000E+00 0.  1.
</event>
<event>
 7    1  0.1215217E-011  0.5930194E+02  0.7816164E-02  0.1266605E+00
        -11   -1    0    0    0    0  0.00000000000E+00  0.00000000000E+00  0.45593999997E+02  0.45594000000E+02  0.51100000000E-03 0.  1.
         11   -1    0    0    0    0 -0.00000000000E+00 -0.00000000000E+00 -0.45593999997E+02  0.45594000000E+02  0.51100000000E-03 0. -1.
    9900012    2    1    2    0    0  0.19546880167E+01 -0.16128411797E+02 -0.27436734835E+02  0.59301938927E+02  0.49999990697E+02 0.  0.
        -12    1    1    2    0    0 -0.19546880167E+01  0.16128411797E+02  0.27436734835E+02  0.31886061073E+02  0.00000000000E+00 0.  1.
         11    1    3    3    0    0  0.22543909768E+01 -0.10538077971E+02 -0.60656057786E+01  0.12366282372E+02  0.51100000000E-03 0. -1.
        -11    1    3    3    0    0 -0.13023578615E+02 -0.98029081784E+01 -0.27679146307E+02  0.32122355910E+02  0.51100000000E-03 0.  1.
        -12    1    3    3    0    0  0.12723875655E+02  0.42125743522E+01  0.63080172498E+01  0.14813300644E+02  0.00000000000E+00 0.  1.
</event>
<event>
 7    1  0.1215217E-011  0.5930172E+02  0.7816164E-02  0.1266606E+00
        -11   -1    0    0    0    0  0.00000000000E+00  0.00000000000E+00  0.45593999997E+02  0.45594000000E+02  0.51100000000E-03 0. -1.
         11   -1    0    0    0    0 -0.00000000000E+00 -0.00000000000E+00 -0.45593999997E+02  0.45594000000E+02  0.51100000000E-03 0.  1.
    9900012    2    1    2    0    0  0.20592323202E+02 -0.24126957670E+02 -0.32528189858E+01  0.59301722503E+02  0.49999595991E+02 0.  0.
        -12    1    1    2    0    0 -0.20592323202E+02  0.24126957670E+02  0.32528189858E+01  0.31886277497E+02  0.00000000000E+00 0.  1.
         11    1    3    3    0    0  0.12534231963E+01 -0.14361649475E+02  0.55619357946E+01  0.15451963480E+02  0.51100000000E-03 0. -1.
        -11    1    3    3    0    0 -0.69212301105E+01 -0.12318361611E+02  0.37616063286E+01  0.14621735241E+02  0.51100000000E-03 0.  1.
         12    1    3    3    0    0  0.26260130116E+02  0.25530534160E+01 -0.12576361109E+02  0.29228023782E+02  0.00000000000E+00 0. -1.
</event>
<event>
 7    1  0.1215217E-011  0.5930197E+02  0.7816164E-02  0.1266605E+00
        -11   -1    0    0    0    0  0.00000000000E+00  0.00000000000E+00  0.45593999997E+02  0.45594000000E+02  0.51100000000E-03 0.  1.
         11   -1    0    0    0    0 -0.00000000000E+00 -0.00000000000E+00 -0.45593999997E+02  0.45594000000E+02  0.51100000000E-03 0. -1.
    9900012    2    1    2    0    0 -0.20022290137E+02  0.24749944639E+02  0.18075648015E+01  0.59301966185E+02  0.50000040409E+02 0.  0.
        -12    1    1    2    0    0  0.20022290137E+02 -0.24749944639E+02 -0.18075648015E+01  0.31886033815E+02  0.00000000000E+00 0.  1.
         11    1    3    3    0    0 -0.75927134889E+01 -0.90484367402E+01  0.66148114417E+01  0.13538066193E+02  0.51100000000E-03 0.  1.
        -11    1    3    3    0    0 -0.15996096538E+02  0.67337430382E+01  0.24231249195E+01  0.17523981693E+02  0.51100000000E-03 0. -1.
        -12    1    3    3    0    0  0.35665198893E+01  0.27064638341E+02 -0.72303715596E+01  0.28239918299E+02  0.00000000000E+00 0.  1.
</event>
<event>
 7    1  0.1215217E-011  0.5930197E+02  0.7816164E-02  0.1266605E+00
        -11   -1    0    0    0    0  0.00000000000E+00  0.00000000000E+00  0.45593999997E+02  0.45594000000E+02  0.51100000000E-03 0. -1.
         11   -1    0    0    0    0 -0.00000000000E+00 -0.00000000000E+00 -0.45593999997E+02  0.45594000000E+02  0.51100000000E-03 0.  1.
    9900012    2    1    2    0    0  0.30179685764E+02  0.77852494176E+01  0.67302001516E+01  0.59301966453E+02  0.50000040898E+02 0.  0.
        -12    1    1    2    0    0 -0.30179685764E+02 -0.77852494176E+01 -0.67302001516E+01  0.31886033547E+02  0.00000000000E+00 0.  1.
         11    1    3    3    0    0  0.13907319117E+02  0.11974728760E+02 -0.44657759522E+00  0.18357752741E+02  0.51100000000E-03 0. -1.
        -11    1    3    3    0    0 -0.69857205787E+01  0.25718800390E+01 -0.91039976491E+01  0.11760001377E+02  0.51100000000E-03 0.  1.
         12    1    3    3    0    0  0.23258087226E+02 -0.67613593811E+01  0.16280775396E+02  0.29184212334E+02  0.00000000000E+00 0. -1.
</event>
<event>
 7    1  0.1215217E-011  0.5930195E+02  0.7816164E-02  0.1266605E+00
        -11   -1    0    0    0    0  0.00000000000E+00  0.00000000000E+00  0.45593999997E+02  0.45594000000E+02  0.51100000000E-03 0.  1.
         11   -1    0    0    0    0 -0.00000000000E+00 -0.00000000000E+00 -0.45593999997E+02  0.45594000000E+02  0.51100000000E-03 0. -1.
    9900012    2    1    2    0    0  0.43375343938E+01 -0.21124199031E+02 -0.23487740266E+02  0.59301953959E+02  0.50000018112E+02 0.  0.
        -12    1    1    2    0    0 -0.43375343938E+01  0.21124199031E+02  0.23487740266E+02  0.31886046041E+02  0.00000000000E+00 0.  1.
         11    1    3    3    0    0  0.39700350105E+01 -0.48105545511E+01 -0.11042078518E+02  0.12681881222E+02  0.51100000000E-03 0. -1.
        -11    1    3    3    0    0 -0.11773856729E+02 -0.62286784336E+01 -0.23733355977E+02  0.27215663201E+02  0.51100000000E-03 0.  1.
        -12    1    3    3    0    0  0.12141356112E+02 -0.10084966047E+02  0.11287694229E+02  0.19404409535E+02  0.00000000000E+00 0.  1.
</event>
<event>
 7    1  0.1215217E-011  0.5930196E+02  0.7816164E-02  0.1266605E+00
        -11   -1    0    0    0    0  0.00000000000E+00  0.00000000000E+00  0.45593999997E+02  0.45594000000E+02  0.51100000000E-03 0.  1.
         11   -1    0    0    0    0 -0.00000000000E+00 -0.00000000000E+00 -0.45593999997E+02  0.45594000000E+02  0.51100000000E-03 0. -1.
    9900012    2    1    2    0    0 -0.79144516780E+01  0.12317460676E+02 -0.28325984027E+02  0.59301956752E+02  0.50000023207E+02 0.  0.
        -12    1    1    2    0    0  0.79144516780E+01 -0.12317460676E+02  0.28325984027E+02  0.31886043248E+02  0.00000000000E+00 0.  1.
         11    1    3    3    0    0  0.71863826531E+01  0.23619663769E+01 -0.21870708622E+01  0.78744053756E+01  0.51100000000E-03 0. -1.
        -11    1    3    3    0    0 -0.14625852442E+02 -0.13372492599E+02 -0.62832457722E+01  0.20789860405E+02  0.51100000000E-03 0.  1.
         12    1    3    3    0    0 -0.47498188906E+00  0.23327986898E+02 -0.19855667393E+02  0.30637690972E+02  0.00000000000E+00 0. -1.
</event>
<event>
 7    1  0.1215217E-011  0.5930194E+02  0.7816164E-02  0.1266605E+00
        -11   -1    0    0    0    0  0.00000000000E+00  0.00000000000E+00  0.45593999997E+02  0.45594000000E+02  0.51100000000E-03 0.  1.
         11   -1    0    0    0    0 -0.00000000000E+00 -0.00000000000E+00 -0.45593999997E+02  0.45594000000E+02  0.51100000000E-03 0. -1.
    9900012    2    1    2    0    0 -0.12034271082E+02  0.23603372880E+02  0.17741988653E+02  0.59301936380E+02  0.49999986053E+02 0.  0.
        -12    1    1    2    0    0  0.12034271082E+02 -0.23603372880E+02 -0.17741988653E+02  0.31886063620E+02  0.00000000000E+00 0.  1.
         11    1    3    3    0    0  0.14243158023E+02 -0.17584666463E+01  0.16186694212E+01  0.14442293668E+02  0.51100000000E-03 0. -1.
        -11    1    3    3    0    0 -0.65295939227E+01  0.14410468790E+02 -0.19444945563E+01  0.15939832712E+02  0.51100000000E-03 0.  1.
        -12    1    3    3    0    0 -0.19747835182E+02  0.10951370736E+02  0.18067813788E+02  0.28919810001E+02  0.00000000000E+00 0.  1.
</event>
<event>
 7    1  0.1215217E-011  0.5930195E+02  0.7816164E-02  0.1266605E+00
        -11   -1    0    0    0    0  0.00000000000E+00  0.00000000000E+00  0.45593999997E+02  0.45594000000E+02  0.51100000000E-03 0.  1.
         11   -1    0    0    0    0 -0.00000000000E+00 -0.00000000000E+00 -0.45593999997E+02  0.45594000000E+02  0.51100000000E-03 0. -1.
    9900012    2    1    2    0    0 -0.26876322618E+02  0.11183188959E+02 -0.13012290030E+02  0.59301950942E+02  0.50000012609E+02 0.  0.
        -12    1    1    2    0    0  0.26876322618E+02 -0.11183188959E+02  0.13012290030E+02  0.31886049058E+02  0.00000000000E+00 0.  1.
         11    1    3    3    0    0 -0.56037038402E+01 -0.98825984416E+01 -0.38108762616E+01  0.11982905609E+02  0.51100000000E-03 0. -1.
        -11    1    3    3    0    0 -0.64879966514E+01  0.27230355172E+01 -0.20147634882E+02  0.21340951586E+02  0.51100000000E-03 0.  1.
        -12    1    3    3    0    0 -0.14784622126E+02  0.18342751883E+02  0.10946221114E+02  0.25978093747E+02  0.00000000000E+00 0.  1.
</event>
<event>
 7    1  0.1215217E-011  0.5930194E+02  0.7816164E-02  0.1266605E+00
        -11   -1    0    0    0    0  0.00000000000E+00  0.00000000000E+00  0.45593999997E+02  0.45594000000E+02  0.51100000000E-03 0. -1.
         11   -1    0    0    0    0 -0.00000000000E+00 -0.00000000000E+00 -0.45593999997E+02  0.45594000000E+02  0.51100000000E-03 0.  1.
    9900012    2    1    2    0    0  0.22976777493E+02 -0.22091730093E+02 -0.86267371148E+00  0.59301936455E+02  0.49999986188E+02 0.  0.
        -12    1    1    2    0    0 -0.22976777493E+02  0.22091730093E+02  0.86267371148E+00  0.31886063545E+02  0.00000000000E+00 0.  1.
         11    1    3    3    0    0  0.17694279762E+02 -0.45316474028E+00 -0.75868704854E+01  0.19257556922E+02  0.51100000000E-03 0. -1.
        -11    1    3    3    0    0  0.14592557250E+02  0.13659124744E+01  0.22814663849E+01  0.14832853168E+02  0.51100000000E-03 0.  1.
         12    1    3    3    0    0 -0.93100595183E+01 -0.23004477827E+02  0.44427303890E+01  0.25211526365E+02  0.00000000000E+00 0. -1.
</event>
<event>
 7    1  0.1215217E-011  0.5930195E+02  0.7816164E-02  0.1266605E+00
        -11   -1    0    0    0    0  0.00000000000E+00  0.00000000000E+00  0.45593999997E+02  0.45594000000E+02  0.51100000000E-03 0.  1.
         11   -1    0    0    0    0 -0.00000000000E+00 -0.00000000000E+00 -0.45593999997E+02  0.45594000000E+02  0.51100000000E-03 0. -1.
    9900012    2    1    2    0    0 -0.37963422069E+01 -0.26408333973E+02 -0.17461618506E+02  0.59301946023E+02  0.50000003639E+02 0.  0.
        -12    1    1    2    0    0  0.37963422069E+01  0.26408333973E+02  0.17461618506E+02  0.31886053977E+02  0.00000000000E+00 0.  1.
         11    1    3    3    0    0  0.93236061125E+01  0.86476389527E+01 -0.11350385432E+02  0.17045308448E+02  0.51100000000E-03 0. -1.
        -11    1    3    3    0    0 -0.14445271593E+01  0.22466223670E+01  0.13148731827E+00  0.26741839783E+01  0.51100000000E-03 0.  1.
        -12    1    3    3    0    0 -0.11675421160E+02 -0.37302595292E+02 -0.62427203926E+01  0.39582453596E+02  0.00000000000E+00 0.  1.
</event>
<event>
 7    1  0.1215217E-011  0.5930193E+02  0.7816164E-02  0.1266605E+00
        -11   -1    0    0    0    0  0.00000000000E+00  0.00000000000E+00  0.45593999997E+02  0.45594000000E+02  0.51100000000E-03 0. -1.
         11   -1    0    0    0    0 -0.00000000000E+00 -0.00000000000E+00 -0.45593999997E+02  0.45594000000E+02  0.51100000000E-03 0.  1.
    9900012    2    1    2    0    0  0.26615241336E+02  0.11872868052E+02  0.12937741650E+02  0.59301933668E+02  0.49999981106E+02 0.  0.
        -12    1    1    2    0    0 -0.26615241336E+02 -0.11872868052E+02 -0.12937741650E+02  0.31886066332E+02  0.00000000000E+00 0.  1.
         11    1    3    3    0    0 -0.39298927533E+01 -0.78496718931E+01  0.10833137622E+02  0.13943395457E+02  0.51100000000E-03 0. -1.
        -11    1    3    3    0    0 -0.49505446663E+01  0.68204206387E+00  0.77073091845E+00  0.50563920219E+01  0.51100000000E-03 0.  1.
        -12    1    3    3    0    0  0.35495678756E+02  0.19040497881E+02  0.13338731089E+01  0.40302146188E+02  0.00000000000E+00 0.  1.
</event>
<event>
 7    1  0.1215217E-011  0.5930203E+02  0.7816164E-02  0.1266604E+00
        -11   -1    0    0    0    0  0.00000000000E+00  0.00000000000E+00  0.45593999997E+02  0.45594000000E+02  0.51100000000E-03 0. -1.
         11   -1    0    0    0    0 -0.00000000000E+00 -0.00000000000E+00 -0.45593999997E+02  0.45594000000E+02  0.51100000000E-03 0.  1.
    9900012    2    1    2    0    0 -0.23910670048E+02  0.16444313863E+02 -0.13212848106E+02  0.59302031995E+02  0.50000160430E+02 0.  0.
        -12    1    1    2    0    0  0.23910670048E+02 -0.16444313863E+02  0.13212848106E+02  0.31885968005E+02  0.00000000000E+00 0.  1.
         11    1    3    3    0    0 -0.29362969035E+02  0.39817064312E+01 -0.59829102705E+01  0.30229673372E+02  0.51100000000E-03 0. -1.
        -11    1    3    3    0    0 -0.93236167443E+00  0.13134967518E+02 -0.14356221161E+02  0.19480702150E+02  0.51100000000E-03 0.  1.
        -12    1    3    3    0    0  0.63846606612E+01 -0.67236008601E+00  0.71262833251E+01  0.95916564718E+01  0.00000000000E+00 0.  1.
</event>
<event>
 7    1  0.1215217E-011  0.5930193E+02  0.7816164E-02  0.1266605E+00
        -11   -1    0    0    0    0  0.00000000000E+00  0.00000000000E+00  0.45593999997E+02  0.45594000000E+02  0.51100000000E-03 0.  1.
         11   -1    0    0    0    0 -0.00000000000E+00 -0.00000000000E+00 -0.45593999997E+02  0.45594000000E+02  0.51100000000E-03 0. -1.
    9900012    2    1    2    0    0 -0.24480709511E+02  0.44617103087E+01 -0.19937646476E+02  0.59301925547E+02  0.49999966296E+02 0.  0.
        -12    1    1    2    0    0  0.24480709511E+02 -0.44617103087E+01  0.19937646476E+02  0.31886074453E+02  0.00000000000E+00 0.  1.
         11    1    3    3    0    0 -0.12162973969E+02  0.10247479142E+02 -0.10016800230E+02  0.18795878581E+02  0.51100000000E-03 0. -1.
        -11    1    3    3    0    0 -0.95568596833E+01  0.14813953947E+02 -0.87705261306E+01  0.19690325731E+02  0.51100000000E-03 0.  1.
        -12    1    3    3    0    0 -0.27608758587E+01 -0.20599722780E+02 -0.11503201151E+01  0.20815721234E+02  0.00000000000E+00 0.  1.
</event>
<event>
 7    1  0.1215217E-011  0.5930193E+02  0.7816164E-02  0.1266605E+00
        -11   -1    0    0    0    0  0.00000000000E+00  0.00000000000E+00  0.45593999997E+02  0.45594000000E+02  0.51100000000E-03 0. -1.
         11   -1    0    0    0    0 -0.00000000000E+00 -0.00000000000E+00 -0.45593999997E+02  0.45594000000E+02  0.51100000000E-03 0.  1.
    9900012    2    1    2    0    0 -0.30747212151E+02  0.50484656968E+01  0.67707631257E+01  0.59301932599E+02  0.49999979157E+02 0.  0.
        -12    1    1    2    0    0  0.30747212151E+02 -0.50484656968E+01 -0.67707631257E+01  0.31886067401E+02  0.00000000000E+00 0.  1.
         11    1    3    3    0    0  0.10891492985E+02  0.52513288944E+01  0.57599780875E+01  0.13393223004E+02  0.51100000000E-03 0. -1.
        -11    1    3    3    0    0 -0.11763229260E+01  0.10705923146E+01 -0.47584692800E+01  0.50172635649E+01  0.51100000000E-03 0.  1.
         12    1    3    3    0    0 -0.40462382210E+02 -0.12734555122E+01  0.57692543181E+01  0.40891446031E+02  0.00000000000E+00 0. -1.
</event>
<event>
 7    1  0.1215217E-011  0.5930192E+02  0.7816164E-02  0.1266605E+00
        -11   -1    0    0    0    0  0.00000000000E+00  0.00000000000E+00  0.45593999997E+02  0.45594000000E+02  0.51100000000E-03 0. -1.
         11   -1    0    0    0    0 -0.00000000000E+00 -0.00000000000E+00 -0.45593999997E+02  0.45594000000E+02  0.51100000000E-03 0.  1.
    9900012    2    1    2    0    0  0.17923251030E+02 -0.19673971412E+02  0.17561714799E+02  0.59301923019E+02  0.49999961685E+02 0.  0.
        -12    1    1    2    0    0 -0.17923251030E+02  0.19673971412E+02 -0.17561714799E+02  0.31886076981E+02  0.00000000000E+00 0.  1.
         11    1    3    3    0    0 -0.50175516181E+01  0.11246238991E+01  0.32242273696E+01  0.60692870707E+01  0.51100000000E-03 0. -1.
        -11    1    3    3    0    0  0.12174283072E+02 -0.17995143809E+02 -0.11872784633E+02  0.24758864760E+02  0.51100000000E-03 0.  1.
         12    1    3    3    0    0  0.10766519575E+02 -0.28034515021E+01  0.26210272062E+02  0.28473771188E+02  0.00000000000E+00 0. -1.
</event>
<event>
 7    1  0.1215217E-011  0.5930195E+02  0.7816164E-02  0.1266605E+00
        -11   -1    0    0    0    0  0.00000000000E+00  0.00000000000E+00  0.45593999997E+02  0.45594000000E+02  0.51100000000E-03 0.  1.
         11   -1    0    0    0    0 -0.00000000000E+00 -0.00000000000E+00 -0.45593999997E+02  0.45594000000E+02  0.51100000000E-03 0. -1.
    9900012    2    1    2    0    0  0.15701287150E+02 -0.26597692460E+02 -0.79216658492E+01  0.59301945804E+02  0.50000003239E+02 0.  0.
        -12    1    1    2    0    0 -0.15701287150E+02  0.26597692460E+02  0.79216658492E+01  0.31886054196E+02  0.00000000000E+00 0.  1.
         11    1    3    3    0    0  0.99298416529E+01  0.60968019354E+01  0.33920831351E+00  0.11657092761E+02  0.51100000000E-03 0. -1.
        -11    1    3    3    0    0 -0.11875461183E+02 -0.70711120322E+01 -0.90535406586E+01  0.16522524093E+02  0.51100000000E-03 0.  1.
         12    1    3    3    0    0  0.17646906680E+02 -0.25623382363E+02  0.79266649587E+00  0.31122328950E+02  0.00000000000E+00 0. -1.
</event>
<event>
 7    1  0.1215217E-011  0.5930194E+02  0.7816164E-02  0.1266605E+00
        -11   -1    0    0    0    0  0.00000000000E+00  0.00000000000E+00  0.45593999997E+02  0.45594000000E+02  0.51100000000E-03 0.  1.
         11   -1    0    0    0    0 -0.00000000000E+00 -0.00000000000E+00 -0.45593999997E+02  0.45594000000E+02  0.51100000000E-03 0. -1.
    9900012    2    1    2    0    0 -0.13889514541E+02 -0.27003341279E+02 -0.97273666298E+01  0.59301941668E+02  0.49999995697E+02 0.  0.
        -12    1    1    2    0    0  0.13889514541E+02  0.27003341279E+02  0.97273666298E+01  0.31886058332E+02  0.00000000000E+00 0.  1.
         11    1    3    3    0    0 -0.13289100293E+02 -0.17035192577E+02 -0.16625163992E+02  0.27261585625E+02  0.51100000000E-03 0. -1.
        -11    1    3    3    0    0  0.96383476342E+01  0.84511106842E+00 -0.67848991530E+01  0.11817225335E+02  0.51100000000E-03 0.  1.
        -12    1    3    3    0    0 -0.10238761881E+02 -0.10813259770E+02  0.13682696516E+02  0.20223130709E+02  0.00000000000E+00 0.  1.
</event>
<event>
 7    1  0.1215217E-011  0.5930193E+02  0.7816164E-02  0.1266605E+00
        -11   -1    0    0    0    0  0.00000000000E+00  0.00000000000E+00  0.45593999997E+02  0.45594000000E+02  0.51100000000E-03 0.  1.
         11   -1    0    0    0    0 -0.00000000000E+00 -0.00000000000E+00 -0.45593999997E+02  0.45594000000E+02  0.51100000000E-03 0. -1.
    9900012    2    1    2    0    0  0.23615831328E+02 -0.21378531995E+02  0.14043101164E+01  0.59301933976E+02  0.49999981669E+02 0.  0.
        -12    1    1    2    0    0 -0.23615831328E+02  0.21378531995E+02 -0.14043101164E+01  0.31886066024E+02  0.00000000000E+00 0.  1.
         11    1    3    3    0    0 -0.19317489871E+01  0.17621336916E+01 -0.75754708934E+01  0.80140207645E+01  0.51100000000E-03 0. -1.
        -11    1    3    3    0    0  0.99570107549E+01 -0.24384839977E+02  0.19208861930E+02  0.32599737128E+02  0.51100000000E-03 0.  1.
         12    1    3    3    0    0  0.15590569560E+02  0.12441742908E+01 -0.10229080920E+02  0.18688176084E+02  0.00000000000E+00 0. -1.
</event>
<event>
 7    1  0.1215217E-011  0.5930195E+02  0.7816164E-02  0.1266605E+00
        -11   -1    0    0    0    0  0.00000000000E+00  0.00000000000E+00  0.45593999997E+02  0.45594000000E+02  0.51100000000E-03 0.  1.
         11   -1    0    0    0    0 -0.00000000000E+00 -0.00000000000E+00 -0.45593999997E+02  0.45594000000E+02  0.51100000000E-03 0. -1.
    9900012    2    1    2    0    0 -0.30748513130E+02  0.75855002416E+01 -0.37026016866E+01  0.59301950811E+02  0.50000012371E+02 0.  0.
        -12    1    1    2    0    0  0.30748513130E+02 -0.75855002416E+01  0.37026016866E+01  0.31886049189E+02  0.00000000000E+00 0.  1.
         11    1    3    3    0    0 -0.18960976165E+02  0.15142031473E+02 -0.64114420637E+01  0.25097934653E+02  0.51100000000E-03 0. -1.
        -11    1    3    3    0    0  0.65300356139E+01  0.22258541171E+01  0.10040029682E+02  0.12181871282E+02  0.51100000000E-03 0.  1.
         12    1    3    3    0    0 -0.18317572579E+02 -0.97823853488E+01 -0.73311893046E+01  0.22022144875E+02  0.00000000000E+00 0. -1.
</event>
<event>
 7    1  0.1215217E-011  0.5930192E+02  0.7816164E-02  0.1266605E+00
        -11   -1    0    0    0    0  0.00000000000E+00  0.00000000000E+00  0.45593999997E+02  0.45594000000E+02  0.51100000000E-03 0. -1.
         11   -1    0    0    0    0 -0.00000000000E+00 -0.00000000000E+00 -0.45593999997E+02  0.45594000000E+02  0.51100000000E-03 0.  1.
    9900012    2    1    2    0    0  0.20176573511E+02  0.27296290129E+01  0.24539296350E+02  0.59301920615E+02  0.49999957301E+02 0.  0.
        -12    1    1    2    0    0 -0.20176573511E+02 -0.27296290129E+01 -0.24539296350E+02  0.31886079385E+02  0.00000000000E+00 0.  1.
         11    1    3    3    0    0  0.33242534772E+00  0.12072829746E+02 -0.45616103594E+01  0.12910151587E+02  0.51100000000E-03 0. -1.
        -11    1    3    3    0    0  0.19853615447E+02  0.88849149290E+00  0.54265841153E+01  0.20601050431E+02  0.51100000000E-03 0.  1.
         12    1    3    3    0    0 -0.94672838710E-02 -0.10231692226E+02  0.23674322594E+02  0.25790718596E+02  0.00000000000E+00 0. -1.
</event>
<event>
 7    1  0.1215217E-011  0.5930190E+02  0.7816164E-02  0.1266605E+00
        -11   -1    0    0    0    0  0.00000000000E+00  0.00000000000E+00  0.45593999997E+02  0.45594000000E+02  0.51100000000E-03 0.  1.
         11   -1    0    0    0    0 -0.00000000000E+00 -0.00000000000E+00 -0.45593999997E+02  0.45594000000E+02  0.51100000000E-03 0. -1.
    9900012    2    1    2    0    0  0.98881875379E+01 -0.35193044027E+01 -0.30109159803E+02  0.59301901771E+02  0.49999922933E+02 0.  0.
        -12    1    1    2    0    0 -0.98881875379E+01  0.35193044027E+01  0.30109159803E+02  0.31886098229E+02  0.00000000000E+00 0.  1.
         11    1    3    3    0    0 -0.81278519590E+01 -0.15420854155E+02 -0.21350564824E+02  0.27562861587E+02  0.51100000000E-03 0. -1.
        -11    1    3    3    0    0  0.14402992424E+02 -0.23735638960E+01  0.16786582512E-01  0.14597269552E+02  0.51100000000E-03 0.  1.
        -12    1    3    3    0    0  0.36130470730E+01  0.14275113648E+02 -0.87753815615E+01  0.17141770631E+02  0.00000000000E+00 0.  1.
</event>
<event>
 7    1  0.1215217E-011  0.5930194E+02  0.7816164E-02  0.1266605E+00
        -11   -1    0    0    0    0  0.00000000000E+00  0.00000000000E+00  0.45593999997E+02  0.45594000000E+02  0.51100000000E-03 0.  1.
         11   -1    0    0    0    0 -0.00000000000E+00 -0.00000000000E+00 -0.45593999997E+02  0.45594000000E+02  0.51100000000E-03 0. -1.
    9900012    2    1    2    0    0  0.75978062669E+01  0.19576911317E+02 -0.23994558076E+02  0.59301938248E+02  0.49999989460E+02 0.  0.
        -12    1    1    2    0    0 -0.75978062669E+01 -0.19576911317E+02  0.23994558076E+02  0.31886061752E+02  0.00000000000E+00 0.  1.
         11    1    3    3    0    0  0.47011942546E+01  0.16685730454E+02  0.45709802823E+01  0.17927874643E+02  0.51100000000E-03 0. -1.
        -11    1    3    3    0    0  0.14068453056E+02  0.53226119152E+01 -0.62271073866E+01  0.16279693967E+02  0.51100000000E-03 0.  1.
        -12    1    3    3    0    0 -0.11171841044E+02 -0.24314310525E+01 -0.22338430972E+02  0.25094369638E+02  0.00000000000E+00 0.  1.
</event>
<event>
 7    1  0.1215217E-011  0.5930220E+02  0.7816164E-02  0.1266604E+00
        -11   -1    0    0    0    0  0.00000000000E+00  0.00000000000E+00  0.45593999997E+02  0.45594000000E+02  0.51100000000E-03 0. -1.
         11   -1    0    0    0    0 -0.00000000000E+00 -0.00000000000E+00 -0.45593999997E+02  0.45594000000E+02  0.51100000000E-03 0.  1.
    9900012    2    1    2    0    0 -0.14766607400E+02  0.13800233871E+02 -0.24661819123E+02  0.59302196396E+02  0.50000460257E+02 0.  0.
        -12    1    1    2    0    0  0.14766607400E+02 -0.13800233871E+02  0.24661819123E+02  0.31885803604E+02  0.00000000000E+00 0.  1.
         11    1    3    3    0    0  0.44667291147E+01  0.58161469162E+00  0.85271195861E+01  0.96437395927E+01  0.51100000000E-03 0. -1.
        -11    1    3    3    0    0 -0.42072901718E+01  0.19974866906E+02 -0.17073226814E+02  0.26611870897E+02  0.51100000000E-03 0.  1.
        -12    1    3    3    0    0 -0.15026046343E+02 -0.67562477266E+01 -0.16115711895E+02  0.23046585906E+02  0.00000000000E+00 0.  1.
</event>
<event>
 7    1  0.1215217E-011  0.5930190E+02  0.7816164E-02  0.1266605E+00
        -11   -1    0    0    0    0  0.00000000000E+00  0.00000000000E+00  0.45593999997E+02  0.45594000000E+02  0.51100000000E-03 0.  1.
         11   -1    0    0    0    0 -0.00000000000E+00 -0.00000000000E+00 -0.45593999997E+02  0.45594000000E+02  0.51100000000E-03 0. -1.
    9900012    2    1    2    0    0  0.15467660191E+02 -0.80296454475E+00 -0.27871667644E+02  0.59301903954E+02  0.49999926914E+02 0.  0.
        -12    1    1    2    0    0 -0.15467660191E+02  0.80296454475E+00  0.27871667644E+02  0.31886096046E+02  0.00000000000E+00 0.  1.
         11    1    3    3    0    0  0.51165070106E+01 -0.10974002516E+02  0.16289198958E+01  0.12217231908E+02  0.51100000000E-03 0. -1.
        -11    1    3    3    0    0  0.12323454303E+02 -0.53140428495E+01  0.32134951496E+00  0.13424225979E+02  0.51100000000E-03 0.  1.
         12    1    3    3    0    0 -0.19723011223E+01  0.15485080821E+02 -0.29821937054E+02  0.33660446067E+02  0.00000000000E+00 0. -1.
</event>
<event>
 7    1  0.1215217E-011  0.5930201E+02  0.7816164E-02  0.1266605E+00
        -11   -1    0    0    0    0  0.00000000000E+00  0.00000000000E+00  0.45593999997E+02  0.45594000000E+02  0.51100000000E-03 0. -1.
         11   -1    0    0    0    0 -0.00000000000E+00 -0.00000000000E+00 -0.45593999997E+02  0.45594000000E+02  0.51100000000E-03 0.  1.
    9900012    2    1    2    0    0 -0.79571597434E+01 -0.23993973853E+02  0.19434224601E+02  0.59302011568E+02  0.50000123177E+02 0.  0.
        -12    1    1    2    0    0  0.79571597434E+01  0.23993973853E+02 -0.19434224601E+02  0.31885988432E+02  0.00000000000E+00 0.  1.
         11    1    3    3    0    0 -0.18275796995E+01  0.39223740741E+01  0.50605435425E+01  0.66583907322E+01  0.51100000000E-03 0. -1.
        -11    1    3    3    0    0 -0.41987304808E+01  0.78182500581E+01  0.14331773938E+02  0.16856871480E+02  0.51100000000E-03 0.  1.
         12    1    3    3    0    0 -0.19308495632E+01 -0.35734597986E+02  0.41907120332E-01  0.35786749356E+02  0.00000000000E+00 0. -1.
</event>
<event>
 7    1  0.1215217E-011  0.5930197E+02  0.7816164E-02  0.1266605E+00
        -11   -1    0    0    0    0  0.00000000000E+00  0.00000000000E+00  0.45593999997E+02  0.45594000000E+02  0.51100000000E-03 0.  1.
         11   -1    0    0    0    0 -0.00000000000E+00 -0.00000000000E+00 -0.45593999997E+02  0.45594000000E+02  0.51100000000E-03 0. -1.
    9900012    2    1    2    0    0  0.31626795454E+02 -0.19917191246E+01 -0.35351962092E+01  0.59301972527E+02  0.50000051976E+02 0.  0.
        -12    1    1    2    0    0 -0.31626795454E+02  0.19917191246E+01  0.35351962092E+01  0.31886027473E+02  0.00000000000E+00 0.  1.
         11    1    3    3    0    0  0.29865282401E+02 -0.11335684793E+02 -0.63082339768E+01  0.32561121891E+02  0.51100000000E-03 0. -1.
        -11    1    3    3    0    0  0.12083868718E+02  0.99960386897E+01  0.43590157173E+01  0.16277029550E+02  0.51100000000E-03 0.  1.
        -12    1    3    3    0    0 -0.10322355664E+02 -0.65207302105E+00 -0.15859779497E+01  0.10463821087E+02  0.00000000000E+00 0.  1.
</event>
<event>
 7    1  0.1215217E-011  0.5930201E+02  0.7816164E-02  0.1266605E+00
        -11   -1    0    0    0    0  0.00000000000E+00  0.00000000000E+00  0.45593999997E+02  0.45594000000E+02  0.51100000000E-03 0. -1.
         11   -1    0    0    0    0 -0.00000000000E+00 -0.00000000000E+00 -0.45593999997E+02  0.45594000000E+02  0.51100000000E-03 0.  1.
    9900012    2    1    2    0    0 -0.25949266974E+02  0.28998015656E+01  0.18301455170E+02  0.59302006728E+02  0.50000114350E+02 0.  0.
        -12    1    1    2    0    0  0.25949266974E+02 -0.28998015656E+01 -0.18301455170E+02  0.31885993272E+02  0.00000000000E+00 0.  1.
         11    1    3    3    0    0 -0.34638757584E+01 -0.66792868875E+01  0.32970981286E+01  0.82147528828E+01  0.51100000000E-03 0. -1.
        -11    1    3    3    0    0 -0.28480716254E+01  0.14705222070E+01 -0.14432606688E+02  0.14784251202E+02  0.51100000000E-03 0.  1.
         12    1    3    3    0    0 -0.19637319590E+02  0.81085662461E+01  0.29436963730E+02  0.36303002643E+02  0.00000000000E+00 0. -1.
</event>
<event>
 7    1  0.1215217E-011  0.5930195E+02  0.7816164E-02  0.1266605E+00
        -11   -1    0    0    0    0  0.00000000000E+00  0.00000000000E+00  0.45593999997E+02  0.45594000000E+02  0.51100000000E-03 0. -1.
         11   -1    0    0    0    0 -0.00000000000E+00 -0.00000000000E+00 -0.45593999997E+02  0.45594000000E+02  0.51100000000E-03 0.  1.
    9900012    2    1    2    0    0 -0.75962376182E+01 -0.17635537108E+02  0.25455943608E+02  0.59301951953E+02  0.50000014454E+02 0.  0.
        -12    1    1    2    0    0  0.75962376182E+01  0.17635537108E+02 -0.25455943608E+02  0.31886048047E+02  0.00000000000E+00 0.  1.
         11    1    3    3    0    0  0.68525648725E+01 -0.15165051188E+01  0.33691325459E+01  0.77851453089E+01  0.51100000000E-03 0. -1.
        -11    1    3    3    0    0 -0.26304257263E+01  0.37929575291E+01 -0.10541172064E+02  0.11507474748E+02  0.51100000000E-03 0.  1.
        -12    1    3    3    0    0 -0.11818376764E+02 -0.19911989518E+02  0.32627983127E+02  0.40009331897E+02  0.00000000000E+00 0.  1.
</event>
<event>
 7    1  0.1215217E-011  0.5930220E+02  0.7816164E-02  0.1266604E+00
        -11   -1    0    0    0    0  0.00000000000E+00  0.00000000000E+00  0.45593999997E+02  0.45594000000E+02  0.51100000000E-03 0.  1.
         11   -1    0    0    0    0 -0.00000000000E+00 -0.00000000000E+00 -0.45593999997E+02  0.45594000000E+02  0.51100000000E-03 0. -1.
    9900012    2    1    2    0    0  0.55684757472E+01  0.23296811433E+02 -0.21046499993E+02  0.59302195839E+02  0.50000459241E+02 0.  0.
        -12    1    1    2    0    0 -0.55684757472E+01 -0.23296811433E+02  0.21046499993E+02  0.31885804161E+02  0.00000000000E+00 0.  1.
         11    1    3    3    0    0 -0.91182890821E+01  0.80158047632E+01 -0.64336771035E+00  0.12157723638E+02  0.51100000000E-03 0.  1.
        -11    1    3    3    0    0 -0.68500789476E+01  0.48935852130E+01  0.68757480377E+01  0.10869529390E+02  0.51100000000E-03 0. -1.
        -12    1    3    3    0    0  0.21536843777E+02  0.10387421457E+02 -0.27278880320E+02  0.36274942810E+02  0.00000000000E+00 0.  1.
</event>
<event>
 7    1  0.1215217E-011  0.5930195E+02  0.7816164E-02  0.1266605E+00
        -11   -1    0    0    0    0  0.00000000000E+00  0.00000000000E+00  0.45593999997E+02  0.45594000000E+02  0.51100000000E-03 0.  1.
         11   -1    0    0    0    0 -0.00000000000E+00 -0.00000000000E+00 -0.45593999997E+02  0.45594000000E+02  0.51100000000E-03 0. -1.
    9900012    2    1    2    0    0  0.35676805374E+00 -0.25816154020E+02 -0.18711468388E+02  0.59301950683E+02  0.50000012138E+02 0.  0.
        -12    1    1    2    0    0 -0.35676805374E+00  0.25816154020E+02  0.18711468388E+02  0.31886049317E+02  0.00000000000E+00 0.  1.
         11    1    3    3    0    0  0.82926292935E+01  0.16187028960E+01 -0.45895697747E+01  0.96151989393E+01  0.51100000000E-03 0. -1.
        -11    1    3    3    0    0 -0.78100207326E+01 -0.16916448446E+02  0.11564804558E+02  0.21929600010E+02  0.51100000000E-03 0.  1.
         12    1    3    3    0    0 -0.12584050713E+00 -0.10518408470E+02 -0.25686703171E+02  0.27757151734E+02  0.00000000000E+00 0. -1.
</event>
<event>
 7    1  0.1215217E-011  0.5930195E+02  0.7816164E-02  0.1266605E+00
        -11   -1    0    0    0    0  0.00000000000E+00  0.00000000000E+00  0.45593999997E+02  0.45594000000E+02  0.51100000000E-03 0.  1.
         11   -1    0    0    0    0 -0.00000000000E+00 -0.00000000000E+00 -0.45593999997E+02  0.45594000000E+02  0.51100000000E-03 0. -1.
    9900012    2    1    2    0    0  0.15969280985E+02 -0.25869742678E+02 -0.96155527280E+01  0.59301947004E+02  0.50000005428E+02 0.  0.
        -12    1    1    2    0    0 -0.15969280985E+02  0.25869742678E+02  0.96155527280E+01  0.31886052996E+02  0.00000000000E+00 0.  1.
         11    1    3    3    0    0  0.20292370994E+02 -0.24209606934E+01 -0.79403884389E+01  0.21924669668E+02  0.51100000000E-03 0. -1.
        -11    1    3    3    0    0  0.38259732304E+01 -0.43968705032E+01  0.11450417988E+02  0.12848447912E+02  0.51100000000E-03 0.  1.
        -12    1    3    3    0    0 -0.81490632392E+01 -0.19051911481E+02 -0.13125582277E+02  0.24528829424E+02  0.00000000000E+00 0.  1.
</event>
<event>
 7    1  0.1215217E-011  0.5930194E+02  0.7816164E-02  0.1266605E+00
        -11   -1    0    0    0    0  0.00000000000E+00  0.00000000000E+00  0.45593999997E+02  0.45594000000E+02  0.51100000000E-03 0.  1.
         11   -1    0    0    0    0 -0.00000000000E+00 -0.00000000000E+00 -0.45593999997E+02  0.45594000000E+02  0.51100000000E-03 0. -1.
    9900012    2    1    2    0    0  0.18509527778E+02 -0.99134300990E+01 -0.23996708998E+02  0.59301941015E+02  0.49999994505E+02 0.  0.
        -12    1    1    2    0    0 -0.18509527778E+02  0.99134300990E+01  0.23996708998E+02  0.31886058985E+02  0.00000000000E+00 0.  1.
         11    1    3    3    0    0 -0.36166059990E+01 -0.24153086786E+01 -0.75928999090E+01  0.87501819555E+01  0.51100000000E-03 0. -1.
        -11    1    3    3    0    0  0.37211722877E+01 -0.16572199566E+02  0.79096514220E+01  0.18736261835E+02  0.51100000000E-03 0.  1.
         12    1    3    3    0    0  0.18404961490E+02  0.90740781458E+01 -0.24313460511E+02  0.31815497224E+02  0.00000000000E+00 0. -1.
</event>
<event>
 7    1  0.1215217E-011  0.5930195E+02  0.7816164E-02  0.1266605E+00
        -11   -1    0    0    0    0  0.00000000000E+00  0.00000000000E+00  0.45593999997E+02  0.45594000000E+02  0.51100000000E-03 0.  1.
         11   -1    0    0    0    0 -0.00000000000E+00 -0.00000000000E+00 -0.45593999997E+02  0.45594000000E+02  0.51100000000E-03 0. -1.
    9900012    2    1    2    0    0 -0.22380636974E+02 -0.21237494098E+02  0.80495891576E+01  0.59301953639E+02  0.50000017528E+02 0.  0.
        -12    1    1    2    0    0  0.22380636974E+02  0.21237494098E+02 -0.80495891576E+01  0.31886046361E+02  0.00000000000E+00 0.  1.
         11    1    3    3    0    0  0.15776045362E+01 -0.82091424680E+01 -0.11358412551E+02  0.14102921402E+02  0.51100000000E-03 0. -1.
        -11    1    3    3    0    0 -0.25049444031E+02  0.25284017793E+01  0.13048765450E+02  0.28357322544E+02  0.51100000000E-03 0.  1.
         12    1    3    3    0    0  0.10912025208E+01 -0.15556753409E+02  0.63592362587E+01  0.16841709693E+02  0.00000000000E+00 0. -1.
</event>
<event>
 7    1  0.1215217E-011  0.5930194E+02  0.7816164E-02  0.1266605E+00
        -11   -1    0    0    0    0  0.00000000000E+00  0.00000000000E+00  0.45593999997E+02  0.45594000000E+02  0.51100000000E-03 0.  1.
         11   -1    0    0    0    0 -0.00000000000E+00 -0.00000000000E+00 -0.45593999997E+02  0.45594000000E+02  0.51100000000E-03 0. -1.
    9900012    2    1    2    0    0  0.27491412525E+02  0.36384031896E+00  0.16149625157E+02  0.59301944504E+02  0.50000000868E+02 0.  0.
        -12    1    1    2    0    0 -0.27491412525E+02 -0.36384031896E+00 -0.16149625157E+02  0.31886055496E+02  0.00000000000E+00 0.  1.
         11    1    3    3    0    0  0.10267737230E+02  0.28030109625E+01  0.19958155388E+02  0.22618825456E+02  0.51100000000E-03 0.  1.
        -11    1    3    3    0    0  0.20900846686E+02 -0.13230882120E+02 -0.24385839560E+00  0.24737847543E+02  0.51100000000E-03 0. -1.
         12    1    3    3    0    0 -0.36771713909E+01  0.10791711476E+02 -0.35646718349E+01  0.11945271505E+02  0.00000000000E+00 0. -1.
</event>
<event>
 7    1  0.1215217E-011  0.5930197E+02  0.7816164E-02  0.1266605E+00
        -11   -1    0    0    0    0  0.00000000000E+00  0.00000000000E+00  0.45593999997E+02  0.45594000000E+02  0.51100000000E-03 0. -1.
         11   -1    0    0    0    0 -0.00000000000E+00 -0.00000000000E+00 -0.45593999997E+02  0.45594000000E+02  0.51100000000E-03 0.  1.
    9900012    2    1    2    0    0 -0.14084847047E+02 -0.27126898053E+02 -0.90811566489E+01  0.59301969824E+02  0.50000047046E+02 0.  0.
        -12    1    1    2    0    0  0.14084847047E+02  0.27126898053E+02  0.90811566489E+01  0.31886030176E+02  0.00000000000E+00 0.  1.
         11    1    3    3    0    0  0.37264271336E+00 -0.11855574126E+02  0.46434252502E+01  0.12737931495E+02  0.51100000000E-03 0. -1.
        -11    1    3    3    0    0 -0.11580100613E+01 -0.26171558309E+02 -0.31717531247E+01  0.26388472289E+02  0.51100000000E-03 0.  1.
        -12    1    3    3    0    0 -0.13299479699E+02  0.10900234383E+02 -0.10552828774E+02  0.20175566040E+02  0.00000000000E+00 0.  1.
</event>
<event>
 7    1  0.1215217E-011  0.5930197E+02  0.7816164E-02  0.1266605E+00
        -11   -1    0    0    0    0  0.00000000000E+00  0.00000000000E+00  0.45593999997E+02  0.45594000000E+02  0.51100000000E-03 0.  1.
         11   -1    0    0    0    0 -0.00000000000E+00 -0.00000000000E+00 -0.45593999997E+02  0.45594000000E+02  0.51100000000E-03 0. -1.
    9900012    2    1    2    0    0  0.16992359284E+02 -0.22248173517E+02 -0.15264261272E+02  0.59301965893E+02  0.50000039877E+02 0.  0.
        -12    1    1    2    0    0 -0.16992359284E+02  0.22248173517E+02  0.15264261272E+02  0.31886034107E+02  0.00000000000E+00 0.  1.
         11    1    3    3    0    0  0.47734384233E+01 -0.39367826788E+01 -0.58946979534E+01  0.85458432272E+01  0.51100000000E-03 0. -1.
        -11    1    3    3    0    0  0.19999684677E+02  0.64820353220E+00  0.10164513972E+02  0.22443816510E+02  0.51100000000E-03 0.  1.
        -12    1    3    3    0    0 -0.77807638164E+01 -0.18959594370E+02 -0.19534077291E+02  0.28312306156E+02  0.00000000000E+00 0.  1.
</event>
<event>
 7    1  0.1215217E-011  0.5930197E+02  0.7816164E-02  0.1266605E+00
        -11   -1    0    0    0    0  0.00000000000E+00  0.00000000000E+00  0.45593999997E+02  0.45594000000E+02  0.51100000000E-03 0.  1.
         11   -1    0    0    0    0 -0.00000000000E+00 -0.00000000000E+00 -0.45593999997E+02  0.45594000000E+02  0.51100000000E-03 0. -1.
    9900012    2    1    2    0    0 -0.41550255682E+00  0.26787242397E+02 -0.17291326687E+02  0.59301968949E+02  0.50000045451E+02 0.  0.
        -12    1    1    2    0    0  0.41550255682E+00 -0.26787242397E+02  0.17291326687E+02  0.31886031051E+02  0.00000000000E+00 0.  1.
         11    1    3    3    0    0  0.20336394706E+01  0.12071881153E+02 -0.22795389360E+02  0.25874616527E+02  0.51100000000E-03 0. -1.
        -11    1    3    3    0    0  0.62660135682E+01  0.23356562553E+01  0.14393292580E+02  0.15870888058E+02  0.51100000000E-03 0.  1.
         12    1    3    3    0    0 -0.87151555956E+01  0.12379704988E+02 -0.88892299067E+01  0.17556464364E+02  0.00000000000E+00 0. -1.
</event>
<event>
 7    1  0.1215217E-011  0.5930195E+02  0.7816164E-02  0.1266605E+00
        -11   -1    0    0    0    0  0.00000000000E+00  0.00000000000E+00  0.45593999997E+02  0.45594000000E+02  0.51100000000E-03 0.  1.
         11   -1    0    0    0    0 -0.00000000000E+00 -0.00000000000E+00 -0.45593999997E+02  0.45594000000E+02  0.51100000000E-03 0. -1.
    9900012    2    1    2    0    0  0.46595992386E+01  0.27130827015E+02 -0.16091203764E+02  0.59301945396E+02  0.50000002496E+02 0.  0.
        -12    1    1    2    0    0 -0.46595992386E+01 -0.27130827015E+02  0.16091203764E+02  0.31886054604E+02  0.00000000000E+00 0.  1.
         11    1    3    3    0    0 -0.63427144647E+01  0.15224923134E+02 -0.14562393548E+02  0.22002082114E+02  0.51100000000E-03 0. -1.
        -11    1    3    3    0    0  0.14966108947E+00 -0.11465617303E+02 -0.12021573570E+01  0.11529438891E+02  0.51100000000E-03 0.  1.
         12    1    3    3    0    0  0.10852652614E+02  0.23371521184E+02 -0.32665285923E+00  0.25770424391E+02  0.00000000000E+00 0. -1.
</event>
<event>
 7    1  0.1215217E-011  0.5930194E+02  0.7816164E-02  0.1266605E+00
        -11   -1    0    0    0    0  0.00000000000E+00  0.00000000000E+00  0.45593999997E+02  0.45594000000E+02  0.51100000000E-03 0.  1.
         11   -1    0    0    0    0 -0.00000000000E+00 -0.00000000000E+00 -0.45593999997E+02  0.45594000000E+02  0.51100000000E-03 0. -1.
    9900012    2    1    2    0    0  0.20337392767E+02  0.10401002620E+02 -0.22247032522E+02  0.59301939470E+02  0.49999991688E+02 0.  0.
        -12    1    1    2    0    0 -0.20337392767E+02 -0.10401002620E+02  0.22247032522E+02  0.31886060530E+02  0.00000000000E+00 0.  1.
         11    1    3    3    0    0  0.89556231342E-01  0.60773633020E+01 -0.47849848850E+01  0.77355313737E+01  0.51100000000E-03 0. -1.
        -11    1    3    3    0    0  0.26531570453E+02  0.11701175574E+02 -0.25776313876E+02  0.38797681604E+02  0.51100000000E-03 0.  1.
        -12    1    3    3    0    0 -0.62837339174E+01 -0.73775362558E+01  0.83142662393E+01  0.12768726493E+02  0.00000000000E+00 0.  1.
</event>
<event>
 7    1  0.1215217E-011  0.5930194E+02  0.7816164E-02  0.1266605E+00
        -11   -1    0    0    0    0  0.00000000000E+00  0.00000000000E+00  0.45593999997E+02  0.45594000000E+02  0.51100000000E-03 0. -1.
         11   -1    0    0    0    0 -0.00000000000E+00 -0.00000000000E+00 -0.45593999997E+02  0.45594000000E+02  0.51100000000E-03 0.  1.
    9900012    2    1    2    0    0 -0.60494987521E+01  0.19192598930E+02  0.24733950112E+02  0.59301943847E+02  0.49999999671E+02 0.  0.
        -12    1    1    2    0    0  0.60494987521E+01 -0.19192598930E+02 -0.24733950112E+02  0.31886056153E+02  0.00000000000E+00 0.  1.
         11    1    3    3    0    0 -0.68924238297E+01  0.26455877285E+02  0.23305979227E+02  0.35924749368E+02  0.51100000000E-03 0. -1.
        -11    1    3    3    0    0 -0.80669151266E+01  0.10726640663E+01  0.62464581336E+01  0.10258848246E+02  0.51100000000E-03 0.  1.
        -12    1    3    3    0    0  0.89098402041E+01 -0.83359424213E+01 -0.48184872490E+01  0.13118346233E+02  0.00000000000E+00 0.  1.
</event>
<event>
 7    1  0.1215217E-011  0.5930194E+02  0.7816164E-02  0.1266605E+00
        -11   -1    0    0    0    0  0.00000000000E+00  0.00000000000E+00  0.45593999997E+02  0.45594000000E+02  0.51100000000E-03 0.  1.
         11   -1    0    0    0    0 -0.00000000000E+00 -0.00000000000E+00 -0.45593999997E+02  0.45594000000E+02  0.51100000000E-03 0. -1.
    9900012    2    1    2    0    0  0.31072814493E+02  0.67610452077E+01 -0.23429308755E+01  0.59301939442E+02  0.49999991637E+02 0.  0.
        -12    1    1    2    0    0 -0.31072814493E+02 -0.67610452077E+01  0.23429308755E+01  0.31886060558E+02  0.00000000000E+00 0.  1.
         11    1    3    3    0    0  0.14597907279E+02 -0.60405600513E+01 -0.14257721072E+02  0.21280739486E+02  0.51100000000E-03 0. -1.
        -11    1    3    3    0    0 -0.29527227855E+01  0.11069890837E+02 -0.47153382606E+01  0.12389328882E+02  0.51100000000E-03 0.  1.
         12    1    3    3    0    0  0.19427630000E+02  0.17317144225E+01  0.16630128457E+02  0.25631871074E+02  0.00000000000E+00 0. -1.
</event>
<event>
 7    1  0.1215217E-011  0.5930204E+02  0.7816164E-02  0.1266604E+00
        -11   -1    0    0    0    0  0.00000000000E+00  0.00000000000E+00  0.45593999997E+02  0.45594000000E+02  0.51100000000E-03 0.  1.
         11   -1    0    0    0    0 -0.00000000000E+00 -0.00000000000E+00 -0.45593999997E+02  0.45594000000E+02  0.51100000000E-03 0. -1.
    9900012    2    1    2    0    0  0.15303158458E+02 -0.91200925567E+01 -0.26445254160E+02  0.59302043615E+02  0.50000181622E+02 0.  0.
        -12    1    1    2    0    0 -0.15303158458E+02  0.91200925567E+01  0.26445254160E+02  0.31885956385E+02  0.00000000000E+00 0.  1.
         11    1    3    3    0    0  0.11416591746E+02  0.93334888617E+01 -0.16060082179E+02  0.21803183742E+02  0.51100000000E-03 0. -1.
        -11    1    3    3    0    0  0.11330964310E+02 -0.11391528912E+02 -0.18437021504E+02  0.24455703739E+02  0.51100000000E-03 0.  1.
        -12    1    3    3    0    0 -0.74443975979E+01 -0.70620525061E+01  0.80518495230E+01  0.13043156134E+02  0.00000000000E+00 0.  1.
</event>
<event>
 7    1  0.1215217E-011  0.5930193E+02  0.7816164E-02  0.1266605E+00
        -11   -1    0    0    0    0  0.00000000000E+00  0.00000000000E+00  0.45593999997E+02  0.45594000000E+02  0.51100000000E-03 0. -1.
         11   -1    0    0    0    0 -0.00000000000E+00 -0.00000000000E+00 -0.45593999997E+02  0.45594000000E+02  0.51100000000E-03 0.  1.
    9900012    2    1    2    0    0  0.18676320365E+01 -0.20337822646E+02  0.24486856040E+02  0.59301934107E+02  0.49999981907E+02 0.  0.
        -12    1    1    2    0    0 -0.18676320365E+01  0.20337822646E+02 -0.24486856040E+02  0.31886065893E+02  0.00000000000E+00 0.  1.
         11    1    3    3    0    0  0.86181839587E+01 -0.24377115913E+01  0.26697643641E+02  0.28159895398E+02  0.51100000000E-03 0. -1.
        -11    1    3    3    0    0 -0.13463696028E+02 -0.32922159591E+01  0.31152991150E+01  0.14206156606E+02  0.51100000000E-03 0.  1.
         12    1    3    3    0    0  0.67131441061E+01 -0.14607895096E+02 -0.53260867165E+01  0.16935882104E+02  0.00000000000E+00 0. -1.
</event>
<event>
 7    1  0.1215217E-011  0.5930195E+02  0.7816164E-02  0.1266605E+00
        -11   -1    0    0    0    0  0.00000000000E+00  0.00000000000E+00  0.45593999997E+02  0.45594000000E+02  0.51100000000E-03 0.  1.
         11   -1    0    0    0    0 -0.00000000000E+00 -0.00000000000E+00 -0.45593999997E+02  0.45594000000E+02  0.51100000000E-03 0. -1.
    9900012    2    1    2    0    0 -0.87254655653E+01 -0.20149715284E+02 -0.23120890149E+02  0.59301947616E+02  0.50000006543E+02 0.  0.
        -12    1    1    2    0    0  0.87254655653E+01  0.20149715284E+02  0.23120890149E+02  0.31886052384E+02  0.00000000000E+00 0.  1.
         11    1    3    3    0    0 -0.21386268054E+02 -0.11642604987E+02 -0.14843048228E+02  0.28517341971E+02  0.51100000000E-03 0. -1.
        -11    1    3    3    0    0  0.88621736054E+01 -0.93369245822E+01  0.72521186620E+01  0.14775300573E+02  0.51100000000E-03 0.  1.
        -12    1    3    3    0    0  0.37986288831E+01  0.82981428512E+00 -0.15529960584E+02  0.16009305072E+02  0.00000000000E+00 0.  1.
</event>
<event>
 7    1  0.1215217E-011  0.5930191E+02  0.7816164E-02  0.1266605E+00
        -11   -1    0    0    0    0  0.00000000000E+00  0.00000000000E+00  0.45593999997E+02  0.45594000000E+02  0.51100000000E-03 0. -1.
         11   -1    0    0    0    0 -0.00000000000E+00 -0.00000000000E+00 -0.45593999997E+02  0.45594000000E+02  0.51100000000E-03 0.  1.
    9900012    2    1    2    0    0 -0.20634952980E+02  0.10185077625E+02  0.22072287894E+02  0.59301906109E+02  0.49999930846E+02 0.  0.
        -12    1    1    2    0    0  0.20634952980E+02 -0.10185077625E+02 -0.22072287894E+02  0.31886093891E+02  0.00000000000E+00 0.  1.
         11    1    3    3    0    0  0.13810089966E-01 -0.68684036885E+01  0.14658949207E+02  0.16188265875E+02  0.51100000000E-03 0. -1.
        -11    1    3    3    0    0 -0.23628989403E+02 -0.12126621964E+01  0.15986056516E+01  0.23714030237E+02  0.51100000000E-03 0.  1.
         12    1    3    3    0    0  0.29802263332E+01  0.18266143510E+02  0.58147330360E+01  0.19399609996E+02  0.00000000000E+00 0. -1.
</event>
<event>
 7    1  0.1215217E-011  0.5930183E+02  0.7816164E-02  0.1266605E+00
        -11   -1    0    0    0    0  0.00000000000E+00  0.00000000000E+00  0.45593999997E+02  0.45594000000E+02  0.51100000000E-03 0. -1.
         11   -1    0    0    0    0 -0.00000000000E+00 -0.00000000000E+00 -0.45593999997E+02  0.45594000000E+02  0.51100000000E-03 0.  1.
    9900012    2    1    2    0    0 -0.77850113024E+01 -0.29056549246E+02 -0.10575360354E+02  0.59301832126E+02  0.49999795917E+02 0.  0.
        -12    1    1    2    0    0  0.77850113024E+01  0.29056549246E+02  0.10575360354E+02  0.31886167874E+02  0.00000000000E+00 0.  1.
         11    1    3    3    0    0  0.72936201088E+01 -0.81301327588E+01 -0.85765536737E+00  0.10955890012E+02  0.51100000000E-03 0. -1.
        -11    1    3    3    0    0  0.11218936221E+02 -0.88434651977E+00  0.48002651160E+01  0.12234751495E+02  0.51100000000E-03 0.  1.
         12    1    3    3    0    0 -0.26297567632E+02 -0.20042069968E+02 -0.14517970103E+02  0.36111190618E+02  0.00000000000E+00 0. -1.
</event>
<event>
 7    1  0.1215217E-011  0.5930194E+02  0.7816164E-02  0.1266605E+00
        -11   -1    0    0    0    0  0.00000000000E+00  0.00000000000E+00  0.45593999997E+02  0.45594000000E+02  0.51100000000E-03 0.  1.
         11   -1    0    0    0    0 -0.00000000000E+00 -0.00000000000E+00 -0.45593999997E+02  0.45594000000E+02  0.51100000000E-03 0. -1.
    9900012    2    1    2    0    0 -0.13885688624E+01  0.31767317787E+02 -0.23727763664E+01  0.59301942380E+02  0.49999996996E+02 0.  0.
        -12    1    1    2    0    0  0.13885688624E+01 -0.31767317787E+02  0.23727763664E+01  0.31886057620E+02  0.00000000000E+00 0.  1.
         11    1    3    3    0    0  0.50038729793E+01  0.31943524181E+01 -0.16587463815E+02  0.17617791810E+02  0.51100000000E-03 0. -1.
        -11    1    3    3    0    0 -0.14013797629E+02  0.62496618342E+01  0.33103301809E+01  0.15697231705E+02  0.51100000000E-03 0.  1.
        -12    1    3    3    0    0  0.76213557872E+01  0.22323303534E+02  0.10904357268E+02  0.25986918866E+02  0.00000000000E+00 0.  1.
</event>
<event>
 7    1  0.1215217E-011  0.5930194E+02  0.7816164E-02  0.1266605E+00
        -11   -1    0    0    0    0  0.00000000000E+00  0.00000000000E+00  0.45593999997E+02  0.45594000000E+02  0.51100000000E-03 0. -1.
         11   -1    0    0    0    0 -0.00000000000E+00 -0.00000000000E+00 -0.45593999997E+02  0.45594000000E+02  0.51100000000E-03 0.  1.
    9900012    2    1    2    0    0  0.15920882406E+02 -0.78724374598E+01  0.26481518145E+02  0.59301943935E+02  0.49999999830E+02 0.  0.
        -12    1    1    2    0    0 -0.15920882406E+02  0.78724374598E+01 -0.26481518145E+02  0.31886056065E+02  0.00000000000E+00 0.  1.
         11    1    3    3    0    0 -0.91691343690E+00 -0.87770545655E+01  0.23029234465E+02  0.24662178683E+02  0.51100000000E-03 0. -1.
        -11    1    3    3    0    0  0.57502461354E+01 -0.88836626182E+01  0.13206202116E+02  0.16923018842E+02  0.51100000000E-03 0.  1.
        -12    1    3    3    0    0  0.11087549708E+02  0.97882797238E+01 -0.97539184365E+01  0.17716746410E+02  0.00000000000E+00 0.  1.
</event>
<event>
 7    1  0.1215217E-011  0.5930195E+02  0.7816164E-02  0.1266605E+00
        -11   -1    0    0    0    0  0.00000000000E+00  0.00000000000E+00  0.45593999997E+02  0.45594000000E+02  0.51100000000E-03 0. -1.
         11   -1    0    0    0    0 -0.00000000000E+00 -0.00000000000E+00 -0.45593999997E+02  0.45594000000E+02  0.51100000000E-03 0.  1.
    9900012    2    1    2    0    0  0.30018792222E+02 -0.10197377447E+02 -0.34066817905E+01  0.59301954870E+02  0.50000019773E+02 0.  0.
        -12    1    1    2    0    0 -0.30018792222E+02  0.10197377447E+02  0.34066817905E+01  0.31886045130E+02  0.00000000000E+00 0.  1.
         11    1    3    3    0    0  0.20313670463E+02 -0.90222026856E+01 -0.35648318797E+01  0.22511183345E+02  0.51100000000E-03 0. -1.
        -11    1    3    3    0    0  0.22010075135E+02 -0.40247290172E+01 -0.53589083772E+01  0.23007819331E+02  0.51100000000E-03 0.  1.
         12    1    3    3    0    0 -0.12304953377E+02  0.28495542562E+01  0.55170584664E+01  0.13782952194E+02  0.00000000000E+00 0. -1.
</event>
<event>
 7    1  0.1215217E-011  0.5930196E+02  0.7816164E-02  0.1266605E+00
        -11   -1    0    0    0    0  0.00000000000E+00  0.00000000000E+00  0.45593999997E+02  0.45594000000E+02  0.51100000000E-03 0. -1.
         11   -1    0    0    0    0 -0.00000000000E+00 -0.00000000000E+00 -0.45593999997E+02  0.45594000000E+02  0.51100000000E-03 0.  1.
    9900012    2    1    2    0    0  0.18260157392E+02 -0.25341973768E+02 -0.64086073047E+01  0.59301964969E+02  0.50000038192E+02 0.  0.
        -12    1    1    2    0    0 -0.18260157392E+02  0.25341973768E+02  0.64086073047E+01  0.31886035031E+02  0.00000000000E+00 0.  1.
         11    1    3    3    0    0  0.16376083006E+02 -0.38476638779E+01 -0.10615893322E+02  0.19891651596E+02  0.51100000000E-03 0. -1.
        -11    1    3    3    0    0 -0.80109537799E+01  0.59487917734E+01  0.35409732341E+00  0.99844323425E+01  0.51100000000E-03 0.  1.
        -12    1    3    3    0    0  0.98950281657E+01 -0.27443101663E+02  0.38531886936E+01  0.29425881030E+02  0.00000000000E+00 0.  1.
</event>
<event>
 7    1  0.1215217E-011  0.5930195E+02  0.7816164E-02  0.1266605E+00
        -11   -1    0    0    0    0  0.00000000000E+00  0.00000000000E+00  0.45593999997E+02  0.45594000000E+02  0.51100000000E-03 0.  1.
         11   -1    0    0    0    0 -0.00000000000E+00 -0.00000000000E+00 -0.45593999997E+02  0.45594000000E+02  0.51100000000E-03 0. -1.
    9900012    2    1    2    0    0 -0.28419837057E+02  0.71534075157E+01  0.12564316880E+02  0.59301946057E+02  0.50000003700E+02 0.  0.
        -12    1    1    2    0    0  0.28419837057E+02 -0.71534075157E+01 -0.12564316880E+02  0.31886053943E+02  0.00000000000E+00 0.  1.
         11    1    3    3    0    0 -0.68737648468E+01 -0.10493354992E+02 -0.14207940123E+02  0.18953224131E+02  0.51100000000E-03 0. -1.
        -11    1    3    3    0    0 -0.18673852716E+01  0.15439586948E+01 -0.10647275633E+01  0.26466169441E+01  0.51100000000E-03 0.  1.
         12    1    3    3    0    0 -0.19678686938E+02  0.16102803813E+02  0.27836984567E+02  0.37702104981E+02  0.00000000000E+00 0. -1.
</event>
<event>
 7    1  0.1215217E-011  0.5930195E+02  0.7816164E-02  0.1266605E+00
        -11   -1    0    0    0    0  0.00000000000E+00  0.00000000000E+00  0.45593999997E+02  0.45594000000E+02  0.51100000000E-03 0. -1.
         11   -1    0    0    0    0 -0.00000000000E+00 -0.00000000000E+00 -0.45593999997E+02  0.45594000000E+02  0.51100000000E-03 0.  1.
    9900012    2    1    2    0    0  0.64230988765E+00 -0.31664660871E+02 -0.36955314666E+01  0.59301948773E+02  0.50000008654E+02 0.  0.
        -12    1    1    2    0    0 -0.64230988765E+00  0.31664660871E+02  0.36955314666E+01  0.31886051227E+02  0.00000000000E+00 0.  1.
         11    1    3    3    0    0 -0.37150475803E+01 -0.70582653748E+01  0.11623087885E+02  0.14096696807E+02  0.51100000000E-03 0. -1.
        -11    1    3    3    0    0 -0.10032860559E+02 -0.68688482273E+01  0.63537065606E+01  0.13718926864E+02  0.51100000000E-03 0.  1.
        -12    1    3    3    0    0  0.14390218027E+02 -0.17737547268E+02 -0.21672325912E+02  0.31486325102E+02  0.00000000000E+00 0.  1.
</event>
<event>
 7    1  0.1215217E-011  0.5930194E+02  0.7816164E-02  0.1266605E+00
        -11   -1    0    0    0    0  0.00000000000E+00  0.00000000000E+00  0.45593999997E+02  0.45594000000E+02  0.51100000000E-03 0.  1.
         11   -1    0    0    0    0 -0.00000000000E+00 -0.00000000000E+00 -0.45593999997E+02  0.45594000000E+02  0.51100000000E-03 0. -1.
    9900012    2    1    2    0    0 -0.17957416002E+01  0.97931130150E+01 -0.30291764946E+02  0.59301940758E+02  0.49999994037E+02 0.  0.
        -12    1    1    2    0    0  0.17957416002E+01 -0.97931130150E+01  0.30291764946E+02  0.31886059242E+02  0.00000000000E+00 0.  1.
         11    1    3    3    0    0  0.45092128156E+01 -0.26382316655E+00 -0.35852070940E+02  0.36135489395E+02  0.51100000000E-03 0. -1.
        -11    1    3    3    0    0  0.20026960193E+01 -0.40709479416E+01  0.50224276549E+01  0.67681746652E+01  0.51100000000E-03 0.  1.
        -12    1    3    3    0    0 -0.83076504351E+01  0.14127884123E+02  0.53787833832E+00  0.16398276698E+02  0.00000000000E+00 0.  1.
</event>
<event>
 7    1  0.1215217E-011  0.5930193E+02  0.7816164E-02  0.1266605E+00
        -11   -1    0    0    0    0  0.00000000000E+00  0.00000000000E+00  0.45593999997E+02  0.45594000000E+02  0.51100000000E-03 0.  1.
         11   -1    0    0    0    0 -0.00000000000E+00 -0.00000000000E+00 -0.45593999997E+02  0.45594000000E+02  0.51100000000E-03 0. -1.
    9900012    2    1    2    0    0 -0.12687272193E+02 -0.27985628584E+02 -0.85181530154E+01  0.59301933863E+02  0.49999981461E+02 0.  0.
        -12    1    1    2    0    0  0.12687272193E+02  0.27985628584E+02  0.85181530154E+01  0.31886066137E+02  0.00000000000E+00 0.  1.
         11    1    3    3    0    0  0.69430808441E+01  0.65089957575E+01  0.33974377792E+01  0.10105245227E+02  0.51100000000E-03 0. -1.
        -11    1    3    3    0    0 -0.11401335718E+02 -0.18458431790E+02  0.72615198663E+01  0.22878676345E+02  0.51100000000E-03 0.  1.
         12    1    3    3    0    0 -0.82290173188E+01 -0.16036192552E+02 -0.19177110661E+02  0.26318012290E+02  0.00000000000E+00 0. -1.
</event>
<event>
 7    1  0.1215217E-011  0.5930158E+02  0.7816164E-02  0.1266606E+00
        -11   -1    0    0    0    0  0.00000000000E+00  0.00000000000E+00  0.45593999997E+02  0.45594000000E+02  0.51100000000E-03 0.  1.
         11   -1    0    0    0    0 -0.00000000000E+00 -0.00000000000E+00 -0.45593999997E+02  0.45594000000E+02  0.51100000000E-03 0. -1.
    9900012    2    1    2    0    0 -0.16321140400E+02 -0.26216737462E+02  0.79401983103E+01  0.59301581319E+02  0.49999338502E+02 0.  0.
        -12    1    1    2    0    0  0.16321140400E+02  0.26216737462E+02 -0.79401983103E+01  0.31886418681E+02  0.00000000000E+00 0.  1.
         11    1    3    3    0    0  0.20775376519E+01 -0.13267451224E+02  0.13318560428E+02  0.18913632037E+02  0.51100000000E-03 0.  1.
        -11    1    3    3    0    0 -0.81904649919E+01 -0.22624294636E+02 -0.92854462189E+01  0.25790733536E+02  0.51100000000E-03 0. -1.
         12    1    3    3    0    0 -0.10208213060E+02  0.96750083985E+01  0.39070841010E+01  0.14597215747E+02  0.00000000000E+00 0. -1.
</event>
<event>
 7    1  0.1215217E-011  0.5930193E+02  0.7816164E-02  0.1266605E+00
        -11   -1    0    0    0    0  0.00000000000E+00  0.00000000000E+00  0.45593999997E+02  0.45594000000E+02  0.51100000000E-03 0. -1.
         11   -1    0    0    0    0 -0.00000000000E+00 -0.00000000000E+00 -0.45593999997E+02  0.45594000000E+02  0.51100000000E-03 0.  1.
    9900012    2    1    2    0    0  0.40442479650E+01 -0.22681114648E+02  0.22043872634E+02  0.59301933702E+02  0.49999981168E+02 0.  0.
        -12    1    1    2    0    0 -0.40442479650E+01  0.22681114648E+02 -0.22043872634E+02  0.31886066298E+02  0.00000000000E+00 0.  1.
         11    1    3    3    0    0  0.90576219513E+01 -0.15440373096E+02  0.24847232869E+02  0.30624020282E+02  0.51100000000E-03 0. -1.
        -11    1    3    3    0    0  0.10001046938E+02 -0.21538755221E+01  0.45575108082E+01  0.11199599307E+02  0.51100000000E-03 0.  1.
         12    1    3    3    0    0 -0.15014420924E+02 -0.50868660297E+01 -0.73608710431E+01  0.17478314112E+02  0.00000000000E+00 0. -1.
</event>
<event>
 7    1  0.1215217E-011  0.5930196E+02  0.7816164E-02  0.1266605E+00
        -11   -1    0    0    0    0  0.00000000000E+00  0.00000000000E+00  0.45593999997E+02  0.45594000000E+02  0.51100000000E-03 0.  1.
         11   -1    0    0    0    0 -0.00000000000E+00 -0.00000000000E+00 -0.45593999997E+02  0.45594000000E+02  0.51100000000E-03 0. -1.
    9900012    2    1    2    0    0 -0.28852090882E+02 -0.13473606454E+02  0.16548486012E+01  0.59301956925E+02  0.50000023521E+02 0.  0.
        -12    1    1    2    0    0  0.28852090882E+02  0.13473606454E+02 -0.16548486012E+01  0.31886043075E+02  0.00000000000E+00 0.  1.
         11    1    3    3    0    0 -0.10930652228E+02 -0.45596982985E+01 -0.54037350770E+01  0.13018078190E+02  0.51100000000E-03 0. -1.
        -11    1    3    3    0    0  0.53922472523E+01 -0.19153065935E+02  0.60648801288E+01  0.20801419095E+02  0.51100000000E-03 0.  1.
         12    1    3    3    0    0 -0.23313685905E+02  0.10239157780E+02  0.99370354945E+00  0.25482459640E+02  0.00000000000E+00 0. -1.
</event>
<event>
 7    1  0.1215217E-011  0.5930192E+02  0.7816164E-02  0.1266605E+00
        -11   -1    0    0    0    0  0.00000000000E+00  0.00000000000E+00  0.45593999997E+02  0.45594000000E+02  0.51100000000E-03 0.  1.
         11   -1    0    0    0    0 -0.00000000000E+00 -0.00000000000E+00 -0.45593999997E+02  0.45594000000E+02  0.51100000000E-03 0. -1.
    9900012    2    1    2    0    0 -0.81329588037E+01 -0.54743666532E+01 -0.30341524989E+02  0.59301923919E+02  0.49999963327E+02 0.  0.
        -12    1    1    2    0    0  0.81329588037E+01  0.54743666532E+01  0.30341524989E+02  0.31886076081E+02  0.00000000000E+00 0.  1.
         11    1    3    3    0    0 -0.56610022921E+01 -0.39025352892E+01 -0.15612016712E+02  0.17059067815E+02  0.51100000000E-03 0. -1.
        -11    1    3    3    0    0 -0.15308657567E+02  0.13004079557E+02 -0.88523449672E+01  0.21950514648E+02  0.51100000000E-03 0.  1.
         12    1    3    3    0    0  0.12836701056E+02 -0.14575910921E+02 -0.58771633104E+01  0.20292341456E+02  0.00000000000E+00 0. -1.
</event>
<event>
 7    1  0.1215217E-011  0.5930199E+02  0.7816164E-02  0.1266605E+00
        -11   -1    0    0    0    0  0.00000000000E+00  0.00000000000E+00  0.45593999997E+02  0.45594000000E+02  0.51100000000E-03 0. -1.
         11   -1    0    0    0    0 -0.00000000000E+00 -0.00000000000E+00 -0.45593999997E+02  0.45594000000E+02  0.51100000000E-03 0.  1.
    9900012    2    1    2    0    0  0.15661032191E+02  0.27774955422E+02  0.39735502876E-01  0.59301989637E+02  0.50000083180E+02 0.  0.
        -12    1    1    2    0    0 -0.15661032191E+02 -0.27774955422E+02 -0.39735502876E-01  0.31886010363E+02  0.00000000000E+00 0.  1.
         11    1    3    3    0    0 -0.13804171963E+02  0.10493247513E+02 -0.17951362756E+01  0.17432324041E+02  0.51100000000E-03 0. -1.
        -11    1    3    3    0    0  0.12007774431E+02  0.20408180036E+02 -0.18672611799E+01  0.23752202503E+02  0.51100000000E-03 0.  1.
        -12    1    3    3    0    0  0.17457429723E+02 -0.31264721269E+01  0.37021329583E+01  0.18117463093E+02  0.00000000000E+00 0.  1.
</event>
<event>
 7    1  0.1215217E-011  0.5930195E+02  0.7816164E-02  0.1266605E+00
        -11   -1    0    0    0    0  0.00000000000E+00  0.00000000000E+00  0.45593999997E+02  0.45594000000E+02  0.51100000000E-03 0.  1.
         11   -1    0    0    0    0 -0.00000000000E+00 -0.00000000000E+00 -0.45593999997E+02  0.45594000000E+02  0.51100000000E-03 0. -1.
    9900012    2    1    2    0    0  0.32289303758E+01 -0.44077736738E+01 -0.31414422740E+02  0.59301946368E+02  0.50000004268E+02 0.  0.
        -12    1    1    2    0    0 -0.32289303758E+01  0.44077736738E+01  0.31414422740E+02  0.31886053632E+02  0.00000000000E+00 0.  1.
         11    1    3    3    0    0  0.13574530971E+01 -0.13688466558E+02  0.30441549410E+00  0.13758977603E+02  0.51100000000E-03 0. -1.
        -11    1    3    3    0    0 -0.32653065523E+01  0.55768800043E+01  0.50694435204E+01  0.82135908914E+01  0.51100000000E-03 0.  1.
         12    1    3    3    0    0  0.51367838309E+01  0.37038128798E+01 -0.36788281755E+02  0.37329377874E+02  0.00000000000E+00 0. -1.
</event>
<event>
 7    1  0.1215217E-011  0.5930194E+02  0.7816164E-02  0.1266605E+00
        -11   -1    0    0    0    0  0.00000000000E+00  0.00000000000E+00  0.45593999997E+02  0.45594000000E+02  0.51100000000E-03 0. -1.
         11   -1    0    0    0    0 -0.00000000000E+00 -0.00000000000E+00 -0.45593999997E+02  0.45594000000E+02  0.51100000000E-03 0.  1.
    9900012    2    1    2    0    0  0.27700278252E+02 -0.64072825790E+01  0.14434762130E+02  0.59301936539E+02  0.49999986343E+02 0.  0.
        -12    1    1    2    0    0 -0.27700278252E+02  0.64072825790E+01 -0.14434762130E+02  0.31886063461E+02  0.00000000000E+00 0.  1.
         11    1    3    3    0    0  0.13162088163E+02  0.27785180187E+01  0.11256441589E+02  0.17540473331E+02  0.51100000000E-03 0. -1.
        -11    1    3    3    0    0  0.20790541789E+02 -0.71256894287E+01  0.16110527697E+02  0.27250159278E+02  0.51100000000E-03 0.  1.
        -12    1    3    3    0    0 -0.62523517004E+01 -0.20601111690E+01 -0.12932207156E+02  0.14511303930E+02  0.00000000000E+00 0.  1.
</event>
<event>
 7    1  0.1215217E-011  0.5930202E+02  0.7816164E-02  0.1266605E+00
        -11   -1    0    0    0    0  0.00000000000E+00  0.00000000000E+00  0.45593999997E+02  0.45594000000E+02  0.51100000000E-03 0. -1.
         11   -1    0    0    0    0 -0.00000000000E+00 -0.00000000000E+00 -0.45593999997E+02  0.45594000000E+02  0.51100000000E-03 0.  1.
    9900012    2    1    2    0    0  0.11853252735E+02 -0.29599878648E+02 -0.25179511982E+00  0.59302018485E+02  0.50000135792E+02 0.  0.
        -12    1    1    2    0    0 -0.11853252735E+02  0.29599878648E+02  0.25179511982E+00  0.31885981515E+02  0.00000000000E+00 0.  1.
         11    1    3    3    0    0  0.95873997098E+01 -0.21972366753E+02 -0.18523865683E+02  0.30295820405E+02  0.51100000000E-03 0. -1.
        -11    1    3    3    0    0 -0.21981189692E+01 -0.13403179747E+00 -0.42870340100E+01  0.48195801051E+01  0.51100000000E-03 0.  1.
        -12    1    3    3    0    0  0.44639719941E+01 -0.74934800982E+01  0.22559104573E+02  0.24186617975E+02  0.00000000000E+00 0.  1.
</event>
<event>
 7    1  0.1215217E-011  0.5930189E+02  0.7816164E-02  0.1266605E+00
        -11   -1    0    0    0    0  0.00000000000E+00  0.00000000000E+00  0.45593999997E+02  0.45594000000E+02  0.51100000000E-03 0.  1.
         11   -1    0    0    0    0 -0.00000000000E+00 -0.00000000000E+00 -0.45593999997E+02  0.45594000000E+02  0.51100000000E-03 0. -1.
    9900012    2    1    2    0    0 -0.28613480979E+02  0.10903388340E+01 -0.14028684864E+02  0.59301888109E+02  0.49999898017E+02 0.  0.
        -12    1    1    2    0    0  0.28613480979E+02 -0.10903388340E+01  0.14028684864E+02  0.31886111891E+02  0.00000000000E+00 0.  1.
         11    1    3    3    0    0  0.28810171177E+01 -0.76069414156E+01 -0.64692775400E+01  0.10393140501E+02  0.51100000000E-03 0. -1.
        -11    1    3    3    0    0 -0.27294982161E+01 -0.56196225678E+00  0.12389726797E+02  0.12699263461E+02  0.51100000000E-03 0.  1.
         12    1    3    3    0    0 -0.28764999881E+02  0.92592425063E+01 -0.19949134121E+02  0.36209484146E+02  0.00000000000E+00 0. -1.
</event>
<event>
 7    1  0.1215217E-011  0.5930198E+02  0.7816164E-02  0.1266605E+00
        -11   -1    0    0    0    0  0.00000000000E+00  0.00000000000E+00  0.45593999997E+02  0.45594000000E+02  0.51100000000E-03 0. -1.
         11   -1    0    0    0    0 -0.00000000000E+00 -0.00000000000E+00 -0.45593999997E+02  0.45594000000E+02  0.51100000000E-03 0.  1.
    9900012    2    1    2    0    0  0.15656827798E+02 -0.14684371299E+02  0.23578617726E+02  0.59301980634E+02  0.50000066761E+02 0.  0.
        -12    1    1    2    0    0 -0.15656827798E+02  0.14684371299E+02 -0.23578617726E+02  0.31886019366E+02  0.00000000000E+00 0.  1.
         11    1    3    3    0    0  0.54847027204E+01 -0.93323617254E+01 -0.72377758027E+01  0.13021533632E+02  0.51100000000E-03 0. -1.
        -11    1    3    3    0    0  0.66641894878E+01  0.13425927229E+02  0.99518829122E+01  0.17991856971E+02  0.51100000000E-03 0.  1.
         12    1    3    3    0    0  0.35079355901E+01 -0.18777936803E+02  0.20864510616E+02  0.28288590031E+02  0.00000000000E+00 0. -1.
</event>
<event>
 7    1  0.1215217E-011  0.5930195E+02  0.7816164E-02  0.1266605E+00
        -11   -1    0    0    0    0  0.00000000000E+00  0.00000000000E+00  0.45593999997E+02  0.45594000000E+02  0.51100000000E-03 0.  1.
         11   -1    0    0    0    0 -0.00000000000E+00 -0.00000000000E+00 -0.45593999997E+02  0.45594000000E+02  0.51100000000E-03 0. -1.
    9900012    2    1    2    0    0 -0.25791779781E+02 -0.48540809761E+01 -0.18109182077E+02  0.59301945338E+02  0.50000002390E+02 0.  0.
        -12    1    1    2    0    0  0.25791779781E+02  0.48540809761E+01  0.18109182077E+02  0.31886054662E+02  0.00000000000E+00 0.  1.
         11    1    3    3    0    0 -0.11335801487E+02  0.97946408213E+01 -0.10974746535E+02  0.18570957055E+02  0.51100000000E-03 0. -1.
        -11    1    3    3    0    0 -0.53469250782E+01  0.46422665388E+01 -0.16101376911E+02  0.17589615831E+02  0.51100000000E-03 0.  1.
         12    1    3    3    0    0 -0.91090532159E+01 -0.19290988336E+02  0.89669413684E+01  0.23141372452E+02  0.00000000000E+00 0. -1.
</event>
<event>
 7    1  0.1215217E-011  0.5930197E+02  0.7816164E-02  0.1266605E+00
        -11   -1    0    0    0    0  0.00000000000E+00  0.00000000000E+00  0.45593999997E+02  0.45594000000E+02  0.51100000000E-03 0.  1.
         11   -1    0    0    0    0 -0.00000000000E+00 -0.00000000000E+00 -0.45593999997E+02  0.45594000000E+02  0.51100000000E-03 0. -1.
    9900012    2    1    2    0    0 -0.19979157672E+02 -0.84272097879E+01 -0.23378074267E+02  0.59301969163E+02  0.50000045841E+02 0.  0.
        -12    1    1    2    0    0  0.19979157672E+02  0.84272097879E+01  0.23378074267E+02  0.31886030837E+02  0.00000000000E+00 0.  1.
         11    1    3    3    0    0 -0.27054564556E+02  0.48669612240E+01 -0.35796272435E+01  0.27720939853E+02  0.51100000000E-03 0. -1.
        -11    1    3    3    0    0 -0.27773882121E+01  0.83774223198E+00  0.21991525622E+01  0.36403254773E+01  0.51100000000E-03 0.  1.
         12    1    3    3    0    0  0.98527950957E+01 -0.14131913244E+02 -0.21997599586E+02  0.27940703833E+02  0.00000000000E+00 0. -1.
</event>
<event>
 7    1  0.1215217E-011  0.5930195E+02  0.7816164E-02  0.1266605E+00
        -11   -1    0    0    0    0  0.00000000000E+00  0.00000000000E+00  0.45593999997E+02  0.45594000000E+02  0.51100000000E-03 0.  1.
         11   -1    0    0    0    0 -0.00000000000E+00 -0.00000000000E+00 -0.45593999997E+02  0.45594000000E+02  0.51100000000E-03 0. -1.
    9900012    2    1    2    0    0  0.79057584882E+01  0.73812335712E+01 -0.29995608595E+02  0.59301950366E+02  0.50000011559E+02 0.  0.
        -12    1    1    2    0    0 -0.79057584882E+01 -0.73812335712E+01  0.29995608595E+02  0.31886049634E+02  0.00000000000E+00 0.  1.
         11    1    3    3    0    0  0.14576055054E+02  0.16646076185E+02 -0.12856276349E+02  0.25589784585E+02  0.51100000000E-03 0. -1.
        -11    1    3    3    0    0  0.55849582772E+01 -0.10468605023E+02  0.86800788277E+00  0.11896927672E+02  0.51100000000E-03 0.  1.
         12    1    3    3    0    0 -0.12255254843E+02  0.12037624100E+01 -0.18007340129E+02  0.21815238109E+02  0.00000000000E+00 0. -1.
</event>
<event>
 7    1  0.1215217E-011  0.5930183E+02  0.7816164E-02  0.1266605E+00
        -11   -1    0    0    0    0  0.00000000000E+00  0.00000000000E+00  0.45593999997E+02  0.45594000000E+02  0.51100000000E-03 0.  1.
         11   -1    0    0    0    0 -0.00000000000E+00 -0.00000000000E+00 -0.45593999997E+02  0.45594000000E+02  0.51100000000E-03 0. -1.
    9900012    2    1    2    0    0  0.17292451235E+02  0.24273837278E+02 -0.11334898759E+02  0.59301827828E+02  0.49999788079E+02 0.  0.
        -12    1    1    2    0    0 -0.17292451235E+02 -0.24273837278E+02  0.11334898759E+02  0.31886172172E+02  0.00000000000E+00 0.  1.
         11    1    3    3    0    0  0.29512370467E+02  0.19467837397E+02 -0.17057931861E+02  0.39254932724E+02  0.51100000000E-03 0. -1.
        -11    1    3    3    0    0 -0.55109815886E+01  0.33096144684E+01 -0.44148334725E+01  0.77984114312E+01  0.51100000000E-03 0.  1.
        -12    1    3    3    0    0 -0.67089376435E+01  0.14963854122E+01  0.10137866574E+02  0.12248483673E+02  0.00000000000E+00 0.  1.
</event>
<event>
 7    1  0.1215217E-011  0.5930193E+02  0.7816164E-02  0.1266605E+00
        -11   -1    0    0    0    0  0.00000000000E+00  0.00000000000E+00  0.45593999997E+02  0.45594000000E+02  0.51100000000E-03 0. -1.
         11   -1    0    0    0    0 -0.00000000000E+00 -0.00000000000E+00 -0.45593999997E+02  0.45594000000E+02  0.51100000000E-03 0.  1.
    9900012    2    1    2    0    0  0.11398888667E+02 -0.21759497073E+02  0.20330050182E+02  0.59301932257E+02  0.49999978533E+02 0.  0.
        -12    1    1    2    0    0 -0.11398888667E+02  0.21759497073E+02 -0.20330050182E+02  0.31886067743E+02  0.00000000000E+00 0.  1.
         11    1    3    3    0    0  0.12313003960E+02 -0.23410422602E+02  0.19892465783E+02  0.33096346446E+02  0.51100000000E-03 0. -1.
        -11    1    3    3    0    0  0.56531739416E+01 -0.10442638173E+02 -0.24974076203E+01  0.12134418516E+02  0.51100000000E-03 0.  1.
        -12    1    3    3    0    0 -0.65672892344E+01  0.12093563701E+02  0.29349920188E+01  0.14071167295E+02  0.00000000000E+00 0.  1.
</event>
<event>
 7    1  0.1215217E-011  0.5930194E+02  0.7816164E-02  0.1266605E+00
        -11   -1    0    0    0    0  0.00000000000E+00  0.00000000000E+00  0.45593999997E+02  0.45594000000E+02  0.51100000000E-03 0. -1.
         11   -1    0    0    0    0 -0.00000000000E+00 -0.00000000000E+00 -0.45593999997E+02  0.45594000000E+02  0.51100000000E-03 0.  1.
    9900012    2    1    2    0    0  0.34018924129E+01  0.24234091030E+02  0.20441543830E+02  0.59301941069E+02  0.49999994603E+02 0.  0.
        -12    1    1    2    0    0 -0.34018924129E+01 -0.24234091030E+02 -0.20441543830E+02  0.31886058931E+02  0.00000000000E+00 0.  1.
         11    1    3    3    0    0 -0.15616550547E+02  0.63883300182E+01  0.87909017559E+01  0.19025439951E+02  0.51100000000E-03 0. -1.
        -11    1    3    3    0    0  0.51983161556E+01  0.16064095571E+01 -0.90485281053E+01  0.10558357053E+02  0.51100000000E-03 0.  1.
         12    1    3    3    0    0  0.13820126804E+02  0.16239351455E+02  0.20699170179E+02  0.29718144065E+02  0.00000000000E+00 0. -1.
</event>
<event>
 7    1  0.1215217E-011  0.5930192E+02  0.7816164E-02  0.1266605E+00
        -11   -1    0    0    0    0  0.00000000000E+00  0.00000000000E+00  0.45593999997E+02  0.45594000000E+02  0.51100000000E-03 0.  1.
         11   -1    0    0    0    0 -0.00000000000E+00 -0.00000000000E+00 -0.45593999997E+02  0.45594000000E+02  0.51100000000E-03 0. -1.
    9900012    2    1    2    0    0  0.11198272736E+01  0.11692995772E+02 -0.29643586438E+02  0.59301915572E+02  0.49999948103E+02 0.  0.
        -12    1    1    2    0    0 -0.11198272736E+01 -0.11692995772E+02  0.29643586438E+02  0.31886084428E+02  0.00000000000E+00 0.  1.
         11    1    3    3    0    0 -0.37573810113E+00  0.15661501259E+01 -0.11692049527E+02  0.11802458546E+02  0.51100000000E-03 0. -1.
        -11    1    3    3    0    0 -0.63570323143E+01  0.22702305841E+02 -0.21877538965E+02  0.32162606576E+02  0.51100000000E-03 0.  1.
        -12    1    3    3    0    0  0.78525976890E+01 -0.12575460195E+02  0.39260020538E+01  0.15336850449E+02  0.00000000000E+00 0.  1.
</event>
<event>
 7    1  0.1215217E-011  0.5930195E+02  0.7816164E-02  0.1266605E+00
        -11   -1    0    0    0    0  0.00000000000E+00  0.00000000000E+00  0.45593999997E+02  0.45594000000E+02  0.51100000000E-03 0.  1.
         11   -1    0    0    0    0 -0.00000000000E+00 -0.00000000000E+00 -0.45593999997E+02  0.45594000000E+02  0.51100000000E-03 0. -1.
    9900012    2    1    2    0    0  0.28923303308E+02 -0.95335046320E+01 -0.94485514853E+01  0.59301948034E+02  0.50000007307E+02 0.  0.
        -12    1    1    2    0    0 -0.28923303308E+02  0.95335046320E+01  0.94485514853E+01  0.31886051966E+02  0.00000000000E+00 0.  1.
         11    1    3    3    0    0  0.28798129687E+02 -0.15407033834E+02 -0.19633430468E+02  0.38107486892E+02  0.51100000000E-03 0. -1.
        -11    1    3    3    0    0  0.69069766620E+01  0.56174615515E+01  0.11226697275E+02  0.14328326241E+02  0.51100000000E-03 0.  1.
        -12    1    3    3    0    0 -0.67818030409E+01  0.25606765041E+00 -0.10418182923E+01  0.68661349012E+01  0.00000000000E+00 0.  1.
</event>
<event>
 7    1  0.1215217E-011  0.5930193E+02  0.7816164E-02  0.1266605E+00
        -11   -1    0    0    0    0  0.00000000000E+00  0.00000000000E+00  0.45593999997E+02  0.45594000000E+02  0.51100000000E-03 0.  1.
         11   -1    0    0    0    0 -0.00000000000E+00 -0.00000000000E+00 -0.45593999997E+02  0.45594000000E+02  0.51100000000E-03 0. -1.
    9900012    2    1    2    0    0  0.13556418312E+01  0.25592227518E+02 -0.18971592780E+02  0.59301933973E+02  0.49999981662E+02 0.  0.
        -12    1    1    2    0    0 -0.13556418312E+01 -0.25592227518E+02  0.18971592780E+02  0.31886066027E+02  0.00000000000E+00 0.  1.
         11    1    3    3    0    0 -0.26491680770E+01  0.72317557315E+01 -0.29284293559E+01  0.82396651154E+01  0.51100000000E-03 0. -1.
        -11    1    3    3    0    0  0.16765249713E+02  0.27686521579E+02 -0.80600867390E+01  0.33355390473E+02  0.51100000000E-03 0.  1.
         12    1    3    3    0    0 -0.12760439805E+02 -0.93260497931E+01 -0.79830766846E+01  0.17706878384E+02  0.00000000000E+00 0. -1.
</event>
<event>
 7    1  0.1215217E-011  0.5930196E+02  0.7816164E-02  0.1266605E+00
        -11   -1    0    0    0    0  0.00000000000E+00  0.00000000000E+00  0.45593999997E+02  0.45594000000E+02  0.51100000000E-03 0.  1.
         11   -1    0    0    0    0 -0.00000000000E+00 -0.00000000000E+00 -0.45593999997E+02  0.45594000000E+02  0.51100000000E-03 0. -1.
    9900012    2    1    2    0    0 -0.35900553579E+00 -0.32177785869E+01 -0.31721232115E+02  0.59301959937E+02  0.50000029014E+02 0.  0.
        -12    1    1    2    0    0  0.35900553579E+00  0.32177785869E+01  0.31721232115E+02  0.31886040063E+02  0.00000000000E+00 0.  1.
         11    1    3    3    0    0 -0.60525308208E+01  0.74364820786E+01 -0.17852404749E+02  0.20264322111E+02  0.51100000000E-03 0. -1.
        -11    1    3    3    0    0  0.76996282317E+01 -0.68509591677E+01 -0.25034304352E+02  0.27072796514E+02  0.51100000000E-03 0.  1.
        -12    1    3    3    0    0 -0.20061029467E+01 -0.38033014977E+01  0.11165476985E+02  0.11964841312E+02  0.00000000000E+00 0.  1.
</event>
<event>
 7    1  0.1215217E-011  0.5930193E+02  0.7816164E-02  0.1266605E+00
        -11   -1    0    0    0    0  0.00000000000E+00  0.00000000000E+00  0.45593999997E+02  0.45594000000E+02  0.51100000000E-03 0. -1.
         11   -1    0    0    0    0 -0.00000000000E+00 -0.00000000000E+00 -0.45593999997E+02  0.45594000000E+02  0.51100000000E-03 0.  1.
    9900012    2    1    2    0    0  0.31218607576E+02  0.62229363667E+01 -0.18425083779E+01  0.59301933558E+02  0.49999980906E+02 0.  0.
        -12    1    1    2    0    0 -0.31218607576E+02 -0.62229363667E+01  0.18425083779E+01  0.31886066442E+02  0.00000000000E+00 0.  1.
         11    1    3    3    0    0  0.78609638004E+01  0.15788663163E+02 -0.84302519924E+01  0.19548549441E+02  0.51100000000E-03 0.  1.
        -11    1    3    3    0    0  0.18817459631E+02  0.83291526662E+01  0.52815413738E+01  0.21245381866E+02  0.51100000000E-03 0. -1.
         12    1    3    3    0    0  0.45401841449E+01 -0.17894879462E+02  0.13062022407E+01  0.18508002251E+02  0.00000000000E+00 0. -1.
</event>
<event>
 7    1  0.1215217E-011  0.5930196E+02  0.7816164E-02  0.1266605E+00
        -11   -1    0    0    0    0  0.00000000000E+00  0.00000000000E+00  0.45593999997E+02  0.45594000000E+02  0.51100000000E-03 0.  1.
         11   -1    0    0    0    0 -0.00000000000E+00 -0.00000000000E+00 -0.45593999997E+02  0.45594000000E+02  0.51100000000E-03 0. -1.
    9900012    2    1    2    0    0 -0.21517638599E+02 -0.61593516358E+01 -0.22710639072E+02  0.59301960570E+02  0.50000030169E+02 0.  0.
        -12    1    1    2    0    0  0.21517638599E+02  0.61593516358E+01  0.22710639072E+02  0.31886039430E+02  0.00000000000E+00 0.  1.
         11    1    3    3    0    0 -0.23837622291E+01 -0.23265181487E+01 -0.12770558531E+01  0.35673352764E+01  0.51100000000E-03 0. -1.
        -11    1    3    3    0    0 -0.26513584509E+02 -0.63741889335E+01 -0.32353257556E+02  0.42312335350E+02  0.51100000000E-03 0.  1.
         12    1    3    3    0    0  0.73797081388E+01  0.25413554464E+01  0.10919674336E+02  0.13422289944E+02  0.00000000000E+00 0. -1.
</event>
<event>
 7    1  0.1215217E-011  0.5930197E+02  0.7816164E-02  0.1266605E+00
        -11   -1    0    0    0    0  0.00000000000E+00  0.00000000000E+00  0.45593999997E+02  0.45594000000E+02  0.51100000000E-03 0.  1.
         11   -1    0    0    0    0 -0.00000000000E+00 -0.00000000000E+00 -0.45593999997E+02  0.45594000000E+02  0.51100000000E-03 0. -1.
    9900012    2    1    2    0    0  0.29853660099E+02  0.90361789714E+01 -0.66200699404E+01  0.59301970493E+02  0.50000048266E+02 0.  0.
        -12    1    1    2    0    0 -0.29853660099E+02 -0.90361789714E+01  0.66200699404E+01  0.31886029507E+02  0.00000000000E+00 0.  1.
         11    1    3    3    0    0  0.24263838952E+02 -0.50702544822E+01 -0.27970815670E+01  0.24945240563E+02  0.51100000000E-03 0. -1.
        -11    1    3    3    0    0 -0.32409728686E+01 -0.22432504684E+01  0.10292426572E+02  0.11021348502E+02  0.51100000000E-03 0.  1.
         12    1    3    3    0    0  0.88307940160E+01  0.16349683922E+02 -0.14115414946E+02  0.23335381428E+02  0.00000000000E+00 0. -1.
</event>
<event>
 7    1  0.1215217E-011  0.5930197E+02  0.7816164E-02  0.1266605E+00
        -11   -1    0    0    0    0  0.00000000000E+00  0.00000000000E+00  0.45593999997E+02  0.45594000000E+02  0.51100000000E-03 0.  1.
         11   -1    0    0    0    0 -0.00000000000E+00 -0.00000000000E+00 -0.45593999997E+02  0.45594000000E+02  0.51100000000E-03 0. -1.
    9900012    2    1    2    0    0 -0.28253104157E+02 -0.10499082021E+02 -0.10404350511E+02  0.59301966579E+02  0.50000041128E+02 0.  0.
        -12    1    1    2    0    0  0.28253104157E+02  0.10499082021E+02  0.10404350511E+02  0.31886033421E+02  0.00000000000E+00 0.  1.
         11    1    3    3    0    0 -0.16027477328E+02  0.50704830789E+01 -0.11847984717E+02  0.20566102457E+02  0.51100000000E-03 0. -1.
        -11    1    3    3    0    0  0.92780238245E+01 -0.78355076228E+01 -0.74126302921E+01  0.14227578638E+02  0.51100000000E-03 0.  1.
         12    1    3    3    0    0 -0.21503650653E+02 -0.77340574774E+01  0.88562644984E+01  0.24508285484E+02  0.00000000000E+00 0. -1.
</event>
<event>
 7    1  0.1215217E-011  0.5930199E+02  0.7816164E-02  0.1266605E+00
        -11   -1    0    0    0    0  0.00000000000E+00  0.00000000000E+00  0.45593999997E+02  0.45594000000E+02  0.51100000000E-03 0.  1.
         11   -1    0    0    0    0 -0.00000000000E+00 -0.00000000000E+00 -0.45593999997E+02  0.45594000000E+02  0.51100000000E-03 0. -1.
    9900012    2    1    2    0    0  0.68747340963E+01  0.15012541657E+02 -0.27277821471E+02  0.59301985509E+02  0.50000075653E+02 0.  0.
        -12    1    1    2    0    0 -0.68747340963E+01 -0.15012541657E+02  0.27277821471E+02  0.31886014491E+02  0.00000000000E+00 0.  1.
         11    1    3    3    0    0 -0.13230707997E+02 -0.37278984414E+01 -0.10141102215E+02  0.17081885589E+02  0.51100000000E-03 0. -1.
        -11    1    3    3    0    0  0.14318540856E+02  0.14054155988E+01 -0.19019201388E+02  0.23847973225E+02  0.51100000000E-03 0.  1.
         12    1    3    3    0    0  0.57869012371E+01  0.17335024499E+02  0.18824821319E+01  0.18372126695E+02  0.00000000000E+00 0. -1.
</event>
<event>
 7    1  0.1215217E-011  0.5930194E+02  0.7816164E-02  0.1266605E+00
        -11   -1    0    0    0    0  0.00000000000E+00  0.00000000000E+00  0.45593999997E+02  0.45594000000E+02  0.51100000000E-03 0.  1.
         11   -1    0    0    0    0 -0.00000000000E+00 -0.00000000000E+00 -0.45593999997E+02  0.45594000000E+02  0.51100000000E-03 0. -1.
    9900012    2    1    2    0    0 -0.31000478857E+02  0.52864488960E+00 -0.74438953753E+01  0.59301941398E+02  0.49999995205E+02 0.  0.
        -12    1    1    2    0    0  0.31000478857E+02 -0.52864488960E+00  0.74438953753E+01  0.31886058602E+02  0.00000000000E+00 0.  1.
         11    1    3    3    0    0 -0.32975046477E+01  0.11298543390E+01  0.30987376022E+01  0.46639342531E+01  0.51100000000E-03 0. -1.
        -11    1    3    3    0    0 -0.20114910982E+02  0.21271576861E+02 -0.18897349910E+00  0.29276702977E+02  0.51100000000E-03 0.  1.
         12    1    3    3    0    0 -0.75880632277E+01 -0.21872786310E+02 -0.10353659478E+02  0.25361304168E+02  0.00000000000E+00 0. -1.
</event>
<event>
 7    1  0.1215217E-011  0.5930198E+02  0.7816164E-02  0.1266605E+00
        -11   -1    0    0    0    0  0.00000000000E+00  0.00000000000E+00  0.45593999997E+02  0.45594000000E+02  0.51100000000E-03 0. -1.
         11   -1    0    0    0    0 -0.00000000000E+00 -0.00000000000E+00 -0.45593999997E+02  0.45594000000E+02  0.51100000000E-03 0.  1.
    9900012    2    1    2    0    0 -0.21486396554E+02  0.22418411534E+02  0.72434713803E+01  0.59301979705E+02  0.50000065067E+02 0.  0.
        -12    1    1    2    0    0  0.21486396554E+02 -0.22418411534E+02 -0.72434713803E+01  0.31886020295E+02  0.00000000000E+00 0.  1.
         11    1    3    3    0    0 -0.15592906411E+02 -0.81442237186E+01 -0.27876096262E+01  0.17811172842E+02  0.51100000000E-03 0. -1.
        -11    1    3    3    0    0 -0.15976987959E+02  0.16853946531E+02  0.51599621006E+01  0.23789595773E+02  0.51100000000E-03 0.  1.
         12    1    3    3    0    0  0.10083497815E+02  0.13708688722E+02  0.48711189059E+01  0.17701211090E+02  0.00000000000E+00 0. -1.
</event>
<event>
 7    1  0.1215217E-011  0.5930195E+02  0.7816164E-02  0.1266605E+00
        -11   -1    0    0    0    0  0.00000000000E+00  0.00000000000E+00  0.45593999997E+02  0.45594000000E+02  0.51100000000E-03 0. -1.
         11   -1    0    0    0    0 -0.00000000000E+00 -0.00000000000E+00 -0.45593999997E+02  0.45594000000E+02  0.51100000000E-03 0.  1.
    9900012    2    1    2    0    0 -0.12833463510E+02  0.25468510012E+02  0.14261036599E+02  0.59301953636E+02  0.50000017522E+02 0.  0.
        -12    1    1    2    0    0  0.12833463510E+02 -0.25468510012E+02 -0.14261036599E+02  0.31886046364E+02  0.00000000000E+00 0.  1.
         11    1    3    3    0    0 -0.29839909411E+01  0.23155395211E+01  0.91633234759E+01  0.99112270984E+01  0.51100000000E-03 0. -1.
        -11    1    3    3    0    0 -0.17627763205E+02  0.18109949535E+01  0.16287747084E+02  0.24068827218E+02  0.51100000000E-03 0.  1.
         12    1    3    3    0    0  0.77782906366E+01  0.21341975537E+02 -0.11190033961E+02  0.25321899319E+02  0.00000000000E+00 0. -1.
</event>
<event>
 7    1  0.1215217E-011  0.5930195E+02  0.7816164E-02  0.1266605E+00
        -11   -1    0    0    0    0  0.00000000000E+00  0.00000000000E+00  0.45593999997E+02  0.45594000000E+02  0.51100000000E-03 0.  1.
         11   -1    0    0    0    0 -0.00000000000E+00 -0.00000000000E+00 -0.45593999997E+02  0.45594000000E+02  0.51100000000E-03 0. -1.
    9900012    2    1    2    0    0  0.12961427042E+02  0.19104320331E+02 -0.21994239506E+02  0.59301949481E+02  0.50000009946E+02 0.  0.
        -12    1    1    2    0    0 -0.12961427042E+02 -0.19104320331E+02  0.21994239506E+02  0.31886050519E+02  0.00000000000E+00 0.  1.
         11    1    3    3    0    0 -0.79225397506E+01  0.20935694437E+01 -0.20792273467E+02  0.22348787557E+02  0.51100000000E-03 0. -1.
        -11    1    3    3    0    0  0.77046141114E+01  0.10045974957E+02  0.11699922738E+02  0.17238645068E+02  0.51100000000E-03 0.  1.
         12    1    3    3    0    0  0.13179352681E+02  0.69647759302E+01 -0.12901888777E+02  0.19714516856E+02  0.00000000000E+00 0. -1.
</event>
<event>
 7    1  0.1215217E-011  0.5930194E+02  0.7816164E-02  0.1266605E+00
        -11   -1    0    0    0    0  0.00000000000E+00  0.00000000000E+00  0.45593999997E+02  0.45594000000E+02  0.51100000000E-03 0.  1.
         11   -1    0    0    0    0 -0.00000000000E+00 -0.00000000000E+00 -0.45593999997E+02  0.45594000000E+02  0.51100000000E-03 0. -1.
    9900012    2    1    2    0    0  0.91361657927E+01  0.30232805490E+02  0.43850937013E+01  0.59301935647E+02  0.49999984715E+02 0.  0.
        -12    1    1    2    0    0 -0.91361657927E+01 -0.30232805490E+02 -0.43850937013E+01  0.31886064353E+02  0.00000000000E+00 0.  1.
         11    1    3    3    0    0  0.55416061277E+01  0.51302277861E+01  0.29415310883E+01  0.81043964005E+01  0.51100000000E-03 0. -1.
        -11    1    3    3    0    0  0.67878336015E+01  0.30486867023E+02 -0.14228397598E+02  0.34321582777E+02  0.51100000000E-03 0.  1.
        -12    1    3    3    0    0 -0.31932739365E+01 -0.53842893194E+01  0.15671960211E+02  0.16875956469E+02  0.00000000000E+00 0.  1.
</event>
<event>
 7    1  0.1215217E-011  0.5930195E+02  0.7816164E-02  0.1266605E+00
        -11   -1    0    0    0    0  0.00000000000E+00  0.00000000000E+00  0.45593999997E+02  0.45594000000E+02  0.51100000000E-03 0.  1.
         11   -1    0    0    0    0 -0.00000000000E+00 -0.00000000000E+00 -0.45593999997E+02  0.45594000000E+02  0.51100000000E-03 0. -1.
    9900012    2    1    2    0    0  0.16599651799E+02  0.61650221101E+01 -0.26517240897E+02  0.59301952860E+02  0.50000016108E+02 0.  0.
        -12    1    1    2    0    0 -0.16599651799E+02 -0.61650221101E+01  0.26517240897E+02  0.31886047140E+02  0.00000000000E+00 0.  1.
         11    1    3    3    0    0  0.44543466400E+01  0.39965641814E+01 -0.13558926851E+02  0.14820871326E+02  0.51100000000E-03 0. -1.
        -11    1    3    3    0    0  0.21359061863E+02  0.15119098835E+02 -0.47620626032E+01  0.26598381788E+02  0.51100000000E-03 0.  1.
        -12    1    3    3    0    0 -0.92137567042E+01 -0.12950640906E+02 -0.81962514422E+01  0.17882699746E+02  0.00000000000E+00 0.  1.
</event>
<event>
 7    1  0.1215217E-011  0.5930184E+02  0.7816164E-02  0.1266605E+00
        -11   -1    0    0    0    0  0.00000000000E+00  0.00000000000E+00  0.45593999997E+02  0.45594000000E+02  0.51100000000E-03 0.  1.
         11   -1    0    0    0    0 -0.00000000000E+00 -0.00000000000E+00 -0.45593999997E+02  0.45594000000E+02  0.51100000000E-03 0. -1.
    9900012    2    1    2    0    0  0.21719346912E+02 -0.13234580249E+02 -0.19231300659E+02  0.59301842036E+02  0.49999813991E+02 0.  0.
        -12    1    1    2    0    0 -0.21719346912E+02  0.13234580249E+02  0.19231300659E+02  0.31886157964E+02  0.00000000000E+00 0.  1.
         11    1    3    3    0    0 -0.78823089845E+01 -0.15371779740E+02 -0.16283626281E+02  0.23739816605E+02  0.51100000000E-03 0. -1.
        -11    1    3    3    0    0 -0.12164688390E+01  0.34447116335E+01 -0.29826662622E+01  0.47161565885E+01  0.51100000000E-03 0.  1.
         12    1    3    3    0    0  0.30818124736E+02 -0.13075121420E+01  0.34991883418E-01  0.30845868843E+02  0.00000000000E+00 0. -1.
</event>
<event>
 7    1  0.1215217E-011  0.5930195E+02  0.7816164E-02  0.1266605E+00
        -11   -1    0    0    0    0  0.00000000000E+00  0.00000000000E+00  0.45593999997E+02  0.45594000000E+02  0.51100000000E-03 0.  1.
         11   -1    0    0    0    0 -0.00000000000E+00 -0.00000000000E+00 -0.45593999997E+02  0.45594000000E+02  0.51100000000E-03 0. -1.
    9900012    2    1    2    0    0  0.55795760557E+01 -0.24589343514E+02 -0.19518003597E+02  0.59301953712E+02  0.50000017662E+02 0.  0.
        -12    1    1    2    0    0 -0.55795760557E+01  0.24589343514E+02  0.19518003597E+02  0.31886046288E+02  0.00000000000E+00 0.  1.
         11    1    3    3    0    0 -0.48440654442E+01  0.10117836439E+01 -0.12762002691E+02  0.13687855534E+02  0.51100000000E-03 0. -1.
        -11    1    3    3    0    0  0.10716518786E+02  0.19340802949E+00 -0.15086350737E+02  0.18506192487E+02  0.51100000000E-03 0.  1.
         12    1    3    3    0    0 -0.29287728592E+00 -0.25794535188E+02  0.83303498307E+01  0.27107905691E+02  0.00000000000E+00 0. -1.
</event>
<event>
 7    1  0.1215217E-011  0.5930194E+02  0.7816164E-02  0.1266605E+00
        -11   -1    0    0    0    0  0.00000000000E+00  0.00000000000E+00  0.45593999997E+02  0.45594000000E+02  0.51100000000E-03 0.  1.
         11   -1    0    0    0    0 -0.00000000000E+00 -0.00000000000E+00 -0.45593999997E+02  0.45594000000E+02  0.51100000000E-03 0. -1.
    9900012    2    1    2    0    0 -0.11268112914E+02 -0.28334308821E+02 -0.93229576131E+01  0.59301937784E+02  0.49999988612E+02 0.  0.
        -12    1    1    2    0    0  0.11268112914E+02  0.28334308821E+02  0.93229576131E+01  0.31886062216E+02  0.00000000000E+00 0.  1.
         11    1    3    3    0    0 -0.18965162025E+02 -0.10384976691E+02 -0.97488318740E+01  0.23718449247E+02  0.51100000000E-03 0. -1.
        -11    1    3    3    0    0 -0.90005406447E+01 -0.16378326101E+02 -0.12403188987E+01  0.18729593935E+02  0.51100000000E-03 0.  1.
        -12    1    3    3    0    0  0.16697589756E+02 -0.15710060293E+01  0.16661931595E+01  0.16853894601E+02  0.00000000000E+00 0.  1.
</event>
<event>
 7    1  0.1215217E-011  0.5930195E+02  0.7816164E-02  0.1266605E+00
        -11   -1    0    0    0    0  0.00000000000E+00  0.00000000000E+00  0.45593999997E+02  0.45594000000E+02  0.51100000000E-03 0.  1.
         11   -1    0    0    0    0 -0.00000000000E+00 -0.00000000000E+00 -0.45593999997E+02  0.45594000000E+02  0.51100000000E-03 0. -1.
    9900012    2    1    2    0    0  0.17597982637E+02 -0.22850919210E+02 -0.13596572361E+02  0.59301948479E+02  0.50000008118E+02 0.  0.
        -12    1    1    2    0    0 -0.17597982637E+02  0.22850919210E+02  0.13596572361E+02  0.31886051521E+02  0.00000000000E+00 0.  1.
         11    1    3    3    0    0  0.66736340488E+01  0.61147529793E+01 -0.26362307928E+01  0.94274762513E+01  0.51100000000E-03 0. -1.
        -11    1    3    3    0    0 -0.85936275949E+01 -0.39774822833E+01  0.84551342832E+01  0.12694884661E+02  0.51100000000E-03 0.  1.
         12    1    3    3    0    0  0.19517976183E+02 -0.24988189906E+02 -0.19415475852E+02  0.37179587566E+02  0.00000000000E+00 0. -1.
</event>
<event>
 7    1  0.1215217E-011  0.5930197E+02  0.7816164E-02  0.1266605E+00
        -11   -1    0    0    0    0  0.00000000000E+00  0.00000000000E+00  0.45593999997E+02  0.45594000000E+02  0.51100000000E-03 0.  1.
         11   -1    0    0    0    0 -0.00000000000E+00 -0.00000000000E+00 -0.45593999997E+02  0.45594000000E+02  0.51100000000E-03 0. -1.
    9900012    2    1    2    0    0  0.36021332016E+01 -0.26469817644E+02 -0.17409553561E+02  0.59301965989E+02  0.50000040053E+02 0.  0.
        -12    1    1    2    0    0 -0.36021332016E+01  0.26469817644E+02  0.17409553561E+02  0.31886034011E+02  0.00000000000E+00 0.  1.
         11    1    3    3    0    0 -0.11649437215E+02 -0.16512003350E+02 -0.19910901015E+02  0.28368990493E+02  0.51100000000E-03 0. -1.
        -11    1    3    3    0    0  0.55192912687E+01 -0.17516425405E+02  0.32849834752E-01  0.18365424429E+02  0.51100000000E-03 0.  1.
         12    1    3    3    0    0  0.97322791480E+01  0.75586111111E+01  0.24684976196E+01  0.12567551068E+02  0.00000000000E+00 0. -1.
</event>
<event>
 7    1  0.1215217E-011  0.5930191E+02  0.7816164E-02  0.1266605E+00
        -11   -1    0    0    0    0  0.00000000000E+00  0.00000000000E+00  0.45593999997E+02  0.45594000000E+02  0.51100000000E-03 0. -1.
         11   -1    0    0    0    0 -0.00000000000E+00 -0.00000000000E+00 -0.45593999997E+02  0.45594000000E+02  0.51100000000E-03 0.  1.
    9900012    2    1    2    0    0  0.22153554055E+02  0.78870621379E+01  0.21534550837E+02  0.59301912341E+02  0.49999942211E+02 0.  0.
        -12    1    1    2    0    0 -0.22153554055E+02 -0.78870621379E+01 -0.21534550837E+02  0.31886087659E+02  0.00000000000E+00 0.  1.
         11    1    3    3    0    0  0.32496971774E+01  0.13457073566E+01  0.21095312650E+01  0.41014122511E+01  0.51100000000E-03 0. -1.
        -11    1    3    3    0    0  0.12126907760E+02  0.27278749812E+02  0.11309296107E+02  0.31923224489E+02  0.51100000000E-03 0.  1.
         12    1    3    3    0    0  0.67769491185E+01 -0.20737395031E+02  0.81157234652E+01  0.23277275600E+02  0.00000000000E+00 0. -1.
</event>
<event>
 7    1  0.1215217E-011  0.5930199E+02  0.7816164E-02  0.1266605E+00
        -11   -1    0    0    0    0  0.00000000000E+00  0.00000000000E+00  0.45593999997E+02  0.45594000000E+02  0.51100000000E-03 0.  1.
         11   -1    0    0    0    0 -0.00000000000E+00 -0.00000000000E+00 -0.45593999997E+02  0.45594000000E+02  0.51100000000E-03 0. -1.
    9900012    2    1    2    0    0 -0.16481212927E+01  0.18155570048E+01 -0.31791591779E+02  0.59301986469E+02  0.50000077403E+02 0.  0.
        -12    1    1    2    0    0  0.16481212927E+01 -0.18155570048E+01  0.31791591779E+02  0.31886013531E+02  0.00000000000E+00 0.  1.
         11    1    3    3    0    0 -0.16370225254E+02  0.33739373355E+01 -0.19682859788E+02  0.25822135809E+02  0.51100000000E-03 0. -1.
        -11    1    3    3    0    0 -0.20401608500E+01 -0.88333481342E+01 -0.12208722110E+02  0.15206682458E+02  0.51100000000E-03 0.  1.
        -12    1    3    3    0    0  0.16762264811E+02  0.72749678035E+01  0.99990118684E-01  0.18273168203E+02  0.00000000000E+00 0.  1.
</event>
<event>
 7    1  0.1215217E-011  0.5930193E+02  0.7816164E-02  0.1266605E+00
        -11   -1    0    0    0    0  0.00000000000E+00  0.00000000000E+00  0.45593999997E+02  0.45594000000E+02  0.51100000000E-03 0. -1.
         11   -1    0    0    0    0 -0.00000000000E+00 -0.00000000000E+00 -0.45593999997E+02  0.45594000000E+02  0.51100000000E-03 0.  1.
    9900012    2    1    2    0    0  0.21212551871E+02  0.22572627583E+02  0.75647482946E+01  0.59301932672E+02  0.49999979289E+02 0.  0.
        -12    1    1    2    0    0 -0.21212551871E+02 -0.22572627583E+02 -0.75647482946E+01  0.31886067328E+02  0.00000000000E+00 0.  1.
         11    1    3    3    0    0  0.19933653119E+02  0.68703950198E+01 -0.54085753828E+01  0.21767074731E+02  0.51100000000E-03 0. -1.
        -11    1    3    3    0    0  0.14001137107E+02  0.37592352927E+01  0.13868334530E+02  0.20062262913E+02  0.51100000000E-03 0.  1.
        -12    1    3    3    0    0 -0.12722238355E+02  0.11942997271E+02 -0.89501085303E+00  0.17472595028E+02  0.00000000000E+00 0.  1.
</event>
<event>
 7    1  0.1215217E-011  0.5930197E+02  0.7816164E-02  0.1266605E+00
        -11   -1    0    0    0    0  0.00000000000E+00  0.00000000000E+00  0.45593999997E+02  0.45594000000E+02  0.51100000000E-03 0.  1.
         11   -1    0    0    0    0 -0.00000000000E+00 -0.00000000000E+00 -0.45593999997E+02  0.45594000000E+02  0.51100000000E-03 0. -1.
    9900012    2    1    2    0    0  0.17784029538E+02  0.62226222984E+01 -0.25724033287E+02  0.59301974481E+02  0.50000055539E+02 0.  0.
        -12    1    1    2    0    0 -0.17784029538E+02 -0.62226222984E+01  0.25724033287E+02  0.31886025519E+02  0.00000000000E+00 0.  1.
         11    1    3    3    0    0 -0.46875000458E+01  0.37916716191E+01  0.17755813791E+01  0.62850711882E+01  0.51100000000E-03 0.  1.
        -11    1    3    3    0    0  0.23143798429E+02  0.31364121286E+01 -0.36843453829E+02  0.43622386192E+02  0.51100000000E-03 0. -1.
         12    1    3    3    0    0 -0.67226884569E+00 -0.70546144937E+00  0.93438391630E+01  0.93945171011E+01  0.00000000000E+00 0. -1.
</event>
<event>
 7    1  0.1215217E-011  0.5930192E+02  0.7816164E-02  0.1266605E+00
        -11   -1    0    0    0    0  0.00000000000E+00  0.00000000000E+00  0.45593999997E+02  0.45594000000E+02  0.51100000000E-03 0. -1.
         11   -1    0    0    0    0 -0.00000000000E+00 -0.00000000000E+00 -0.45593999997E+02  0.45594000000E+02  0.51100000000E-03 0.  1.
    9900012    2    1    2    0    0  0.46167447803E+01 -0.23902915758E+02  0.20592677849E+02  0.59301920042E+02  0.49999956255E+02 0.  0.
        -12    1    1    2    0    0 -0.46167447803E+01  0.23902915758E+02 -0.20592677849E+02  0.31886079958E+02  0.00000000000E+00 0.  1.
         11    1    3    3    0    0  0.45296792312E+01 -0.87621489345E+01  0.85782503255E+01  0.13072093436E+02  0.51100000000E-03 0. -1.
        -11    1    3    3    0    0  0.10481374187E+02 -0.22313335060E+02  0.19603021816E+02  0.31496390126E+02  0.51100000000E-03 0.  1.
        -12    1    3    3    0    0 -0.10394308638E+02  0.71725682369E+01 -0.75885942925E+01  0.14733436480E+02  0.00000000000E+00 0.  1.
</event>
<event>
 7    1  0.1215217E-011  0.5930197E+02  0.7816164E-02  0.1266605E+00
        -11   -1    0    0    0    0  0.00000000000E+00  0.00000000000E+00  0.45593999997E+02  0.45594000000E+02  0.51100000000E-03 0.  1.
         11   -1    0    0    0    0 -0.00000000000E+00 -0.00000000000E+00 -0.45593999997E+02  0.45594000000E+02  0.51100000000E-03 0. -1.
    9900012    2    1    2    0    0  0.29291807994E+02 -0.93292224023E+01  0.84660786416E+01  0.59301970241E+02  0.50000047807E+02 0.  0.
        -12    1    1    2    0    0 -0.29291807994E+02  0.93292224023E+01 -0.84660786416E+01  0.31886029759E+02  0.00000000000E+00 0.  1.
         11    1    3    3    0    0  0.62372122580E+01 -0.19097956065E+02  0.13246751954E+02  0.24064728966E+02  0.51100000000E-03 0. -1.
        -11    1    3    3    0    0  0.15306954669E+01 -0.72872149529E+01 -0.83753004613E+00  0.74931960619E+01  0.51100000000E-03 0.  1.
         12    1    3    3    0    0  0.21523900270E+02  0.17055948616E+02 -0.39431432660E+01  0.27744045213E+02  0.00000000000E+00 0. -1.
</event>
<event>
 7    1  0.1215217E-011  0.5930194E+02  0.7816164E-02  0.1266605E+00
        -11   -1    0    0    0    0  0.00000000000E+00  0.00000000000E+00  0.45593999997E+02  0.45594000000E+02  0.51100000000E-03 0.  1.
         11   -1    0    0    0    0 -0.00000000000E+00 -0.00000000000E+00 -0.45593999997E+02  0.45594000000E+02  0.51100000000E-03 0. -1.
    9900012    2    1    2    0    0 -0.27736612923E+02 -0.15224368892E+02  0.39521386558E+01  0.59301944983E+02  0.50000001742E+02 0.  0.
        -12    1    1    2    0    0  0.27736612923E+02  0.15224368892E+02 -0.39521386558E+01  0.31886055017E+02  0.00000000000E+00 0.  1.
         11    1    3    3    0    0  0.45801128918E+01 -0.70299602385E+01 -0.19418986197E+01  0.86121278188E+01  0.51100000000E-03 0.  1.
        -11    1    3    3    0    0 -0.38877760153E+02  0.55510141826E+00  0.15203463018E+01  0.38911435662E+02  0.51100000000E-03 0. -1.
         12    1    3    3    0    0  0.65610343380E+01 -0.87495100716E+01  0.43736909737E+01  0.11778381502E+02  0.00000000000E+00 0. -1.
</event>
<event>
 7    1  0.1215217E-011  0.5930197E+02  0.7816164E-02  0.1266605E+00
        -11   -1    0    0    0    0  0.00000000000E+00  0.00000000000E+00  0.45593999997E+02  0.45594000000E+02  0.51100000000E-03 0. -1.
         11   -1    0    0    0    0 -0.00000000000E+00 -0.00000000000E+00 -0.45593999997E+02  0.45594000000E+02  0.51100000000E-03 0.  1.
    9900012    2    1    2    0    0 -0.98859854391E+01  0.49548832788E+00  0.30310740324E+02  0.59301965505E+02  0.50000039170E+02 0.  0.
        -12    1    1    2    0    0  0.98859854391E+01 -0.49548832788E+00 -0.30310740324E+02  0.31886034495E+02  0.00000000000E+00 0.  1.
         11    1    3    3    0    0  0.82066303289E+01 -0.31400356216E+01  0.18133307074E+02  0.20150072724E+02  0.51100000000E-03 0. -1.
        -11    1    3    3    0    0  0.63303324852E+01  0.10104932406E+02  0.45156033750E+01  0.12750429107E+02  0.51100000000E-03 0.  1.
         12    1    3    3    0    0 -0.24422948253E+02 -0.64694084565E+01  0.76618298753E+01  0.26401463675E+02  0.00000000000E+00 0. -1.
</event>
<event>
 7    1  0.1215217E-011  0.5930193E+02  0.7816164E-02  0.1266605E+00
        -11   -1    0    0    0    0  0.00000000000E+00  0.00000000000E+00  0.45593999997E+02  0.45594000000E+02  0.51100000000E-03 0.  1.
         11   -1    0    0    0    0 -0.00000000000E+00 -0.00000000000E+00 -0.45593999997E+02  0.45594000000E+02  0.51100000000E-03 0. -1.
    9900012    2    1    2    0    0 -0.17157282844E+02  0.24137736503E+02  0.11820262464E+02  0.59301932779E+02  0.49999979485E+02 0.  0.
        -12    1    1    2    0    0  0.17157282844E+02 -0.24137736503E+02 -0.11820262464E+02  0.31886067221E+02  0.00000000000E+00 0.  1.
         11    1    3    3    0    0 -0.11288328460E+02  0.11451841132E+02 -0.36421281180E+01  0.16487453479E+02  0.51100000000E-03 0. -1.
        -11    1    3    3    0    0  0.88420997834E+01  0.18298120454E+02 -0.58738567034E+00  0.20330985291E+02  0.51100000000E-03 0.  1.
         12    1    3    3    0    0 -0.14711054168E+02 -0.56122250825E+01  0.16049776252E+02  0.22483494009E+02  0.00000000000E+00 0. -1.
</event>
<event>
 7    1  0.1215217E-011  0.5930192E+02  0.7816164E-02  0.1266605E+00
        -11   -1    0    0    0    0  0.00000000000E+00  0.00000000000E+00  0.45593999997E+02  0.45594000000E+02  0.51100000000E-03 0.  1.
         11   -1    0    0    0    0 -0.00000000000E+00 -0.00000000000E+00 -0.45593999997E+02  0.45594000000E+02  0.51100000000E-03 0. -1.
    9900012    2    1    2    0    0 -0.65397726134E+01  0.13084707896E+02 -0.28332730169E+02  0.59301924585E+02  0.49999964540E+02 0.  0.
        -12    1    1    2    0    0  0.65397726134E+01 -0.13084707896E+02  0.28332730169E+02  0.31886075415E+02  0.00000000000E+00 0.  1.
         11    1    3    3    0    0 -0.49099587219E+01 -0.98622128875E+01 -0.65221291773E+01  0.12802699206E+02  0.51100000000E-03 0.  1.
        -11    1    3    3    0    0 -0.16517069464E+02  0.10588908907E+02 -0.18311006788E+02  0.26837129977E+02  0.51100000000E-03 0. -1.
        -12    1    3    3    0    0  0.14887255572E+02  0.12358011876E+02 -0.34995942037E+01  0.19662095402E+02  0.00000000000E+00 0.  1.
</event>
<event>
 7    1  0.1215217E-011  0.5930194E+02  0.7816164E-02  0.1266605E+00
        -11   -1    0    0    0    0  0.00000000000E+00  0.00000000000E+00  0.45593999997E+02  0.45594000000E+02  0.51100000000E-03 0. -1.
         11   -1    0    0    0    0 -0.00000000000E+00 -0.00000000000E+00 -0.45593999997E+02  0.45594000000E+02  0.51100000000E-03 0.  1.
    9900012    2    1    2    0    0 -0.20329470424E+02 -0.18660121824E+02  0.15976022248E+02  0.59301940333E+02  0.49999993262E+02 0.  0.
        -12    1    1    2    0    0  0.20329470424E+02  0.18660121824E+02 -0.15976022248E+02  0.31886059667E+02  0.00000000000E+00 0.  1.
         11    1    3    3    0    0 -0.48397309817E+01 -0.89166209408E+01 -0.96635314338E+01  0.14011172863E+02  0.51100000000E-03 0. -1.
        -11    1    3    3    0    0 -0.31937194738E+01 -0.68652370333E+01 -0.69886255893E+01  0.10303990076E+02  0.51100000000E-03 0.  1.
         12    1    3    3    0    0 -0.12296019968E+02 -0.28782638495E+01  0.32628179271E+02  0.34986777394E+02  0.00000000000E+00 0. -1.
</event>
<event>
 7    1  0.1215217E-011  0.5930231E+02  0.7816164E-02  0.1266603E+00
        -11   -1    0    0    0    0  0.00000000000E+00  0.00000000000E+00  0.45593999997E+02  0.45594000000E+02  0.51100000000E-03 0. -1.
         11   -1    0    0    0    0 -0.00000000000E+00 -0.00000000000E+00 -0.45593999997E+02  0.45594000000E+02  0.51100000000E-03 0.  1.
    9900012    2    1    2    0    0 -0.16491242750E+02 -0.16971887325E+02 -0.21370330479E+02  0.59302312434E+02  0.50000671879E+02 0.  0.
        -12    1    1    2    0    0  0.16491242750E+02  0.16971887325E+02  0.21370330479E+02  0.31885687566E+02  0.00000000000E+00 0.  1.
         11    1    3    3    0    0 -0.83349190508E+01  0.25323947834E+01 -0.26078057172E+02  0.27494526093E+02  0.51100000000E-03 0. -1.
        -11    1    3    3    0    0 -0.15194434109E+02 -0.13008916581E+02 -0.20190106797E+01  0.20104207094E+02  0.51100000000E-03 0.  1.
        -12    1    3    3    0    0  0.70381104105E+01 -0.64953655280E+01  0.67267373731E+01  0.11703579247E+02  0.00000000000E+00 0.  1.
</event>
<event>
 7    1  0.1215217E-011  0.5930174E+02  0.7816164E-02  0.1266605E+00
        -11   -1    0    0    0    0  0.00000000000E+00  0.00000000000E+00  0.45593999997E+02  0.45594000000E+02  0.51100000000E-03 0.  1.
         11   -1    0    0    0    0 -0.00000000000E+00 -0.00000000000E+00 -0.45593999997E+02  0.45594000000E+02  0.51100000000E-03 0. -1.
    9900012    2    1    2    0    0  0.10920600035E+02 -0.18923945056E+02 -0.23224096003E+02  0.59301735923E+02  0.49999620466E+02 0.  0.
        -12    1    1    2    0    0 -0.10920600035E+02  0.18923945056E+02  0.23224096003E+02  0.31886264077E+02  0.00000000000E+00 0.  1.
         11    1    3    3    0    0  0.18026038172E+02 -0.13201384881E+01 -0.11623719143E+02  0.21489338398E+02  0.51100000000E-03 0. -1.
        -11    1    3    3    0    0  0.62485487216E+01  0.27018893062E+01 -0.11668275984E+02  0.13509005576E+02  0.51100000000E-03 0.  1.
        -12    1    3    3    0    0 -0.13353986858E+02 -0.20305695874E+02  0.67899123791E-01  0.24303391949E+02  0.00000000000E+00 0.  1.
</event>
<event>
 7    1  0.1215217E-011  0.5930195E+02  0.7816164E-02  0.1266605E+00
        -11   -1    0    0    0    0  0.00000000000E+00  0.00000000000E+00  0.45593999997E+02  0.45594000000E+02  0.51100000000E-03 0. -1.
         11   -1    0    0    0    0 -0.00000000000E+00 -0.00000000000E+00 -0.45593999997E+02  0.45594000000E+02  0.51100000000E-03 0.  1.
    9900012    2    1    2    0    0 -0.54551950235E+01 -0.27150202720E+02  0.15805932584E+02  0.59301950303E+02  0.50000011444E+02 0.  0.
        -12    1    1    2    0    0  0.54551950235E+01  0.27150202720E+02 -0.15805932584E+02  0.31886049697E+02  0.00000000000E+00 0.  1.
         11    1    3    3    0    0 -0.20445941185E+01 -0.53151154490E+01  0.11876151531E+01  0.58173230406E+01  0.51100000000E-03 0. -1.
        -11    1    3    3    0    0 -0.92399976036E+01 -0.22484422784E+02 -0.11374299558E+02  0.26838433530E+02  0.51100000000E-03 0.  1.
         12    1    3    3    0    0  0.58293966986E+01  0.64933551294E+00  0.25992616989E+02  0.26646193732E+02  0.00000000000E+00 0. -1.
</event>
<event>
 7    1  0.1215217E-011  0.5930192E+02  0.7816164E-02  0.1266605E+00
        -11   -1    0    0    0    0  0.00000000000E+00  0.00000000000E+00  0.45593999997E+02  0.45594000000E+02  0.51100000000E-03 0. -1.
         11   -1    0    0    0    0 -0.00000000000E+00 -0.00000000000E+00 -0.45593999997E+02  0.45594000000E+02  0.51100000000E-03 0.  1.
    9900012    2    1    2    0    0 -0.26605443130E+02 -0.54768089050E+01  0.16699611586E+02  0.59301920481E+02  0.49999957057E+02 0.  0.
        -12    1    1    2    0    0  0.26605443130E+02  0.54768089050E+01 -0.16699611586E+02  0.31886079519E+02  0.00000000000E+00 0.  1.
         11    1    3    3    0    0 -0.14188912697E+02 -0.11871197765E+02  0.16503312979E+02  0.24791327505E+02  0.51100000000E-03 0. -1.
        -11    1    3    3    0    0 -0.32474779244E+01  0.30148076435E+01  0.15628539901E+02  0.16244581795E+02  0.51100000000E-03 0.  1.
        -12    1    3    3    0    0 -0.91690525092E+01  0.33795812165E+01 -0.15432241294E+02  0.18266011182E+02  0.00000000000E+00 0.  1.
</event>
<event>
 7    1  0.1215217E-011  0.5930195E+02  0.7816164E-02  0.1266605E+00
        -11   -1    0    0    0    0  0.00000000000E+00  0.00000000000E+00  0.45593999997E+02  0.45594000000E+02  0.51100000000E-03 0. -1.
         11   -1    0    0    0    0 -0.00000000000E+00 -0.00000000000E+00 -0.45593999997E+02  0.45594000000E+02  0.51100000000E-03 0.  1.
    9900012    2    1    2    0    0 -0.12163248813E+02  0.11308236811E+02  0.27219466778E+02  0.59301949553E+02  0.50000010076E+02 0.  0.
        -12    1    1    2    0    0  0.12163248813E+02 -0.11308236811E+02 -0.27219466778E+02  0.31886050447E+02  0.00000000000E+00 0.  1.
         11    1    3    3    0    0  0.62936150217E+01  0.14752549407E+02  0.15579665196E+02  0.22360082109E+02  0.51100000000E-03 0. -1.
        -11    1    3    3    0    0 -0.99468979369E+00  0.10184974024E+02 -0.26629132249E+01  0.10574223885E+02  0.51100000000E-03 0.  1.
         12    1    3    3    0    0 -0.17462174041E+02 -0.13629286620E+02  0.14302714806E+02  0.26367643559E+02  0.00000000000E+00 0. -1.
</event>
<event>
 7    1  0.1215217E-011  0.5930192E+02  0.7816164E-02  0.1266605E+00
        -11   -1    0    0    0    0  0.00000000000E+00  0.00000000000E+00  0.45593999997E+02  0.45594000000E+02  0.51100000000E-03 0.  1.
         11   -1    0    0    0    0 -0.00000000000E+00 -0.00000000000E+00 -0.45593999997E+02  0.45594000000E+02  0.51100000000E-03 0. -1.
    9900012    2    1    2    0    0 -0.12866544147E+02  0.28051995010E+02  0.80162268987E+01  0.59301917205E+02  0.49999951081E+02 0.  0.
        -12    1    1    2    0    0  0.12866544147E+02 -0.28051995010E+02 -0.80162268987E+01  0.31886082795E+02  0.00000000000E+00 0.  1.
         11    1    3    3    0    0  0.12052652370E+02  0.16084500588E+02  0.15101212412E+01  0.20155844183E+02  0.51100000000E-03 0. -1.
        -11    1    3    3    0    0 -0.49963498374E+01 -0.74449226818E+01  0.69207769553E+01  0.11326408935E+02  0.51100000000E-03 0.  1.
        -12    1    3    3    0    0 -0.19922846679E+02  0.19412417104E+02 -0.41467129782E+00  0.27819664087E+02  0.00000000000E+00 0.  1.
</event>
<event>
 7    1  0.1215217E-011  0.5930195E+02  0.7816164E-02  0.1266605E+00
        -11   -1    0    0    0    0  0.00000000000E+00  0.00000000000E+00  0.45593999997E+02  0.45594000000E+02  0.51100000000E-03 0.  1.
         11   -1    0    0    0    0 -0.00000000000E+00 -0.00000000000E+00 -0.45593999997E+02  0.45594000000E+02  0.51100000000E-03 0. -1.
    9900012    2    1    2    0    0  0.23332219543E+02  0.20197828830E+02 -0.80234217557E+01  0.59301952033E+02  0.50000014601E+02 0.  0.
        -12    1    1    2    0    0 -0.23332219543E+02 -0.20197828830E+02  0.80234217557E+01  0.31886047967E+02  0.00000000000E+00 0.  1.
         11    1    3    3    0    0  0.13211922938E+02 -0.74623069821E+01 -0.83981074447E+00  0.15196914672E+02  0.51100000000E-03 0. -1.
        -11    1    3    3    0    0 -0.88515024338E+01  0.87555417714E+00  0.35422322075E+01  0.95740847984E+01  0.51100000000E-03 0.  1.
        -12    1    3    3    0    0  0.18971799039E+02  0.26784581635E+02 -0.10725843219E+02  0.34530952563E+02  0.00000000000E+00 0.  1.
</event>
<event>
 7    1  0.1215217E-011  0.5930194E+02  0.7816164E-02  0.1266605E+00
        -11   -1    0    0    0    0  0.00000000000E+00  0.00000000000E+00  0.45593999997E+02  0.45594000000E+02  0.51100000000E-03 0.  1.
         11   -1    0    0    0    0 -0.00000000000E+00 -0.00000000000E+00 -0.45593999997E+02  0.45594000000E+02  0.51100000000E-03 0. -1.
    9900012    2    1    2    0    0  0.91404498157E+01  0.35821227708E+01 -0.30337133963E+02  0.59301935278E+02  0.49999984042E+02 0.  0.
        -12    1    1    2    0    0 -0.91404498157E+01 -0.35821227708E+01  0.30337133963E+02  0.31886064722E+02  0.00000000000E+00 0.  1.
         11    1    3    3    0    0  0.12978934923E+02 -0.15717758431E+02 -0.13612648190E+02  0.24511321320E+02  0.51100000000E-03 0. -1.
        -11    1    3    3    0    0 -0.49693239767E+01  0.51117135141E+00  0.42857466819E+01  0.65820287008E+01  0.51100000000E-03 0.  1.
         12    1    3    3    0    0  0.11308388699E+01  0.18788709850E+02 -0.21010232455E+02  0.28208585257E+02  0.00000000000E+00 0. -1.
</event>
<event>
 7    1  0.1215217E-011  0.5930195E+02  0.7816164E-02  0.1266605E+00
        -11   -1    0    0    0    0  0.00000000000E+00  0.00000000000E+00  0.45593999997E+02  0.45594000000E+02  0.51100000000E-03 0.  1.
         11   -1    0    0    0    0 -0.00000000000E+00 -0.00000000000E+00 -0.45593999997E+02  0.45594000000E+02  0.51100000000E-03 0. -1.
    9900012    2    1    2    0    0  0.15017020561E+02  0.21895346235E+01 -0.28043100808E+02  0.59301945504E+02  0.50000002693E+02 0.  0.
        -12    1    1    2    0    0 -0.15017020561E+02 -0.21895346235E+01  0.28043100808E+02  0.31886054496E+02  0.00000000000E+00 0.  1.
         11    1    3    3    0    0  0.19755004507E+02 -0.21483041392E+01 -0.13168489130E+02  0.23838718925E+02  0.51100000000E-03 0. -1.
        -11    1    3    3    0    0 -0.77597086893E+01 -0.96299556882E+01 -0.16992200338E+02  0.21016279359E+02  0.51100000000E-03 0.  1.
        -12    1    3    3    0    0  0.30217247432E+01  0.13967794451E+02  0.21175886607E+01  0.14446947220E+02  0.00000000000E+00 0.  1.
</event>
<event>
 7    1  0.1215217E-011  0.5930196E+02  0.7816164E-02  0.1266605E+00
        -11   -1    0    0    0    0  0.00000000000E+00  0.00000000000E+00  0.45593999997E+02  0.45594000000E+02  0.51100000000E-03 0.  1.
         11   -1    0    0    0    0 -0.00000000000E+00 -0.00000000000E+00 -0.45593999997E+02  0.45594000000E+02  0.51100000000E-03 0. -1.
    9900012    2    1    2    0    0 -0.29843078465E+02  0.52956439518E+01 -0.99028617578E+01  0.59301955276E+02  0.50000020515E+02 0.  0.
        -12    1    1    2    0    0  0.29843078465E+02 -0.52956439518E+01  0.99028617578E+01  0.31886044724E+02  0.00000000000E+00 0.  1.
         11    1    3    3    0    0 -0.21343983226E+02  0.75943244805E+01 -0.33680835942E+01  0.22903785094E+02  0.51100000000E-03 0. -1.
        -11    1    3    3    0    0 -0.94835653748E+01 -0.10353864174E+02 -0.17701669704E+02  0.22594017485E+02  0.51100000000E-03 0.  1.
        -12    1    3    3    0    0  0.98447013619E+00  0.80551836449E+01  0.11166891541E+02  0.13804152697E+02  0.00000000000E+00 0.  1.
</event>
<event>
 7    1  0.1215217E-011  0.5930195E+02  0.7816164E-02  0.1266605E+00
        -11   -1    0    0    0    0  0.00000000000E+00  0.00000000000E+00  0.45593999997E+02  0.45594000000E+02  0.51100000000E-03 0.  1.
         11   -1    0    0    0    0 -0.00000000000E+00 -0.00000000000E+00 -0.45593999997E+02  0.45594000000E+02  0.51100000000E-03 0. -1.
    9900012    2    1    2    0    0  0.30053402978E+02 -0.20177294371E+01 -0.10461443266E+02  0.59301951988E+02  0.50000014517E+02 0.  0.
        -12    1    1    2    0    0 -0.30053402978E+02  0.20177294371E+01  0.10461443266E+02  0.31886048012E+02  0.00000000000E+00 0.  1.
         11    1    3    3    0    0  0.19701007448E+02 -0.37964193443E+01  0.12888579950E-01  0.20063465819E+02  0.51100000000E-03 0. -1.
        -11    1    3    3    0    0  0.17840118950E+02  0.10319205211E+02 -0.16481815523E+02  0.26389507073E+02  0.51100000000E-03 0.  1.
        -12    1    3    3    0    0 -0.74877234204E+01 -0.85405153037E+01  0.60074836775E+01  0.12848979096E+02  0.00000000000E+00 0.  1.
</event>
<event>
 7    1  0.1215217E-011  0.5930191E+02  0.7816164E-02  0.1266605E+00
        -11   -1    0    0    0    0  0.00000000000E+00  0.00000000000E+00  0.45593999997E+02  0.45594000000E+02  0.51100000000E-03 0. -1.
         11   -1    0    0    0    0 -0.00000000000E+00 -0.00000000000E+00 -0.45593999997E+02  0.45594000000E+02  0.51100000000E-03 0.  1.
    9900012    2    1    2    0    0 -0.27977660984E+02  0.10651827144E+02  0.10977790971E+02  0.59301908514E+02  0.49999935231E+02 0.  0.
        -12    1    1    2    0    0  0.27977660984E+02 -0.10651827144E+02 -0.10977790971E+02  0.31886091486E+02  0.00000000000E+00 0.  1.
         11    1    3    3    0    0 -0.78833696940E+01  0.15973494700E+02  0.20127564544E+02  0.26877851577E+02  0.51100000000E-03 0. -1.
        -11    1    3    3    0    0 -0.33059742338E+01  0.32796546231E+01  0.64434072941E+01  0.79500376037E+01  0.51100000000E-03 0.  1.
        -12    1    3    3    0    0 -0.16788317056E+02 -0.86013221783E+01 -0.15593180866E+02  0.24474019333E+02  0.00000000000E+00 0.  1.
</event>
<event>
 7    1  0.1215217E-011  0.5930194E+02  0.7816164E-02  0.1266605E+00
        -11   -1    0    0    0    0  0.00000000000E+00  0.00000000000E+00  0.45593999997E+02  0.45594000000E+02  0.51100000000E-03 0.  1.
         11   -1    0    0    0    0 -0.00000000000E+00 -0.00000000000E+00 -0.45593999997E+02  0.45594000000E+02  0.51100000000E-03 0. -1.
    9900012    2    1    2    0    0 -0.31045187294E+01 -0.31507683785E+02 -0.37879881230E+01  0.59301936774E+02  0.49999986772E+02 0.  0.
        -12    1    1    2    0    0  0.31045187294E+01  0.31507683785E+02  0.37879881230E+01  0.31886063226E+02  0.00000000000E+00 0.  1.
         11    1    3    3    0    0 -0.17132105032E+02 -0.21051934298E+02 -0.11181169336E+02  0.29354923071E+02  0.51100000000E-03 0. -1.
        -11    1    3    3    0    0 -0.41453742139E+01  0.27388844511E+01 -0.23141679688E+01  0.54809660698E+01  0.51100000000E-03 0.  1.
        -12    1    3    3    0    0  0.18172960516E+02 -0.13194633938E+02  0.97073491819E+01  0.24466047634E+02  0.00000000000E+00 0.  1.
</event>
<event>
 7    1  0.1345673E-011  0.5930194E+02  0.7816164E-02  0.1266605E+00
        -11   -1    0    0    0    0  0.00000000000E+00  0.00000000000E+00  0.45593999997E+02  0.45594000000E+02  0.51100000000E-03 0. -1.
         11   -1    0    0    0    0 -0.00000000000E+00 -0.00000000000E+00 -0.45593999997E+02  0.45594000000E+02  0.51100000000E-03 0.  1.
    9900012    2    1    2    0    0  0.27046723599E+02  0.79954216815E+01  0.14875107408E+02  0.59301939633E+02  0.49999991986E+02 0.  0.
        -12    1    1    2    0    0 -0.27046723599E+02 -0.79954216815E+01 -0.14875107408E+02  0.31886060367E+02  0.00000000000E+00 0.  1.
         11    1    3    3    0    0  0.19956496968E+02 -0.73105565341E+00  0.28604140091E+01  0.20173700260E+02  0.51100000000E-03 0. -1.
        -11    1    3    3    0    0 -0.66198645696E+00  0.82442268233E+01 -0.11612682919E+02  0.14256924873E+02  0.51100000000E-03 0.  1.
         12    1    3    3    0    0  0.77522130880E+01  0.48225051163E+00  0.23627376318E+02  0.24871314501E+02  0.00000000000E+00 0. -1.
</event>
<event>
 7    1  0.1215217E-011  0.5930196E+02  0.7816164E-02  0.1266605E+00
        -11   -1    0    0    0    0  0.00000000000E+00  0.00000000000E+00  0.45593999997E+02  0.45594000000E+02  0.51100000000E-03 0. -1.
         11   -1    0    0    0    0 -0.00000000000E+00 -0.00000000000E+00 -0.45593999997E+02  0.45594000000E+02  0.51100000000E-03 0.  1.
    9900012    2    1    2    0    0 -0.21873994199E+02 -0.26370879587E+01  0.23049811930E+02  0.59301957832E+02  0.50000025175E+02 0.  0.
        -12    1    1    2    0    0  0.21873994199E+02  0.26370879587E+01 -0.23049811930E+02  0.31886042168E+02  0.00000000000E+00 0.  1.
         11    1    3    3    0    0 -0.58811019699E+01 -0.41049003985E+01  0.21504257251E+02  0.22668715178E+02  0.51100000000E-03 0. -1.
        -11    1    3    3    0    0 -0.66541433725E+01 -0.78375491721E+01  0.14746451466E+02  0.17976724734E+02  0.51100000000E-03 0.  1.
        -12    1    3    3    0    0 -0.93387488567E+01  0.93053616120E+01 -0.13200896786E+02  0.18656517920E+02  0.00000000000E+00 0.  1.
</event>
<event>
 7    1  0.1215217E-011  0.5930195E+02  0.7816164E-02  0.1266605E+00
        -11   -1    0    0    0    0  0.00000000000E+00  0.00000000000E+00  0.45593999997E+02  0.45594000000E+02  0.51100000000E-03 0.  1.
         11   -1    0    0    0    0 -0.00000000000E+00 -0.00000000000E+00 -0.45593999997E+02  0.45594000000E+02  0.51100000000E-03 0. -1.
    9900012    2    1    2    0    0 -0.13166626054E+01  0.33255126449E+01 -0.31684817088E+02  0.59301948682E+02  0.50000008488E+02 0.  0.
        -12    1    1    2    0    0  0.13166626054E+01 -0.33255126449E+01  0.31684817088E+02  0.31886051318E+02  0.00000000000E+00 0.  1.
         11    1    3    3    0    0 -0.17462815278E+02  0.15941812158E+01 -0.30110401146E+02  0.34844333666E+02  0.51100000000E-03 0. -1.
        -11    1    3    3    0    0  0.11504655081E+01  0.53990295392E+01 -0.62390283877E+01  0.83305801919E+01  0.51100000000E-03 0.  1.
         12    1    3    3    0    0  0.14995687164E+02 -0.36676981101E+01  0.46646124458E+01  0.16127034824E+02  0.00000000000E+00 0. -1.
</event>
<event>
 7    1  0.1215217E-011  0.5930203E+02  0.7816164E-02  0.1266604E+00
        -11   -1    0    0    0    0  0.00000000000E+00  0.00000000000E+00  0.45593999997E+02  0.45594000000E+02  0.51100000000E-03 0.  1.
         11   -1    0    0    0    0 -0.00000000000E+00 -0.00000000000E+00 -0.45593999997E+02  0.45594000000E+02  0.51100000000E-03 0. -1.
    9900012    2    1    2    0    0  0.23262392329E+02  0.33619219560E+01 -0.21547013989E+02  0.59302027725E+02  0.50000152643E+02 0.  0.
        -12    1    1    2    0    0 -0.23262392329E+02 -0.33619219560E+01  0.21547013989E+02  0.31885972275E+02  0.00000000000E+00 0.  1.
         11    1    3    3    0    0  0.24500423041E+01  0.40047655055E+01  0.17201511183E+01  0.49999774176E+01  0.51100000000E-03 0. -1.
        -11    1    3    3    0    0 -0.42054329700E+01  0.72160439944E+00 -0.28406707900E+02  0.28725379603E+02  0.51100000000E-03 0.  1.
         12    1    3    3    0    0  0.25017782995E+02 -0.13644479489E+01  0.51395427925E+01  0.25576670704E+02  0.00000000000E+00 0. -1.
</event>
<event>
 7    1  0.1215217E-011  0.5930195E+02  0.7816164E-02  0.1266605E+00
        -11   -1    0    0    0    0  0.00000000000E+00  0.00000000000E+00  0.45593999997E+02  0.45594000000E+02  0.51100000000E-03 0.  1.
         11   -1    0    0    0    0 -0.00000000000E+00 -0.00000000000E+00 -0.45593999997E+02  0.45594000000E+02  0.51100000000E-03 0. -1.
    9900012    2    1    2    0    0 -0.19660861069E+02  0.24540367038E+02 -0.52859538006E+01  0.59301946937E+02  0.50000005306E+02 0.  0.
        -12    1    1    2    0    0  0.19660861069E+02 -0.24540367038E+02  0.52859538006E+01  0.31886053063E+02  0.00000000000E+00 0.  1.
         11    1    3    3    0    0 -0.35962156687E+01  0.17494100310E+02 -0.18960412612E+02  0.26047525017E+02  0.51100000000E-03 0. -1.
        -11    1    3    3    0    0 -0.25517432206E+00  0.18020318564E+01 -0.66971774377E+01  0.69400733886E+01  0.51100000000E-03 0.  1.
        -12    1    3    3    0    0 -0.15809471079E+02  0.52442348717E+01  0.20371636249E+02  0.26314348532E+02  0.00000000000E+00 0.  1.
</event>
<event>
 7    1  0.1215217E-011  0.5930193E+02  0.7816164E-02  0.1266605E+00
        -11   -1    0    0    0    0  0.00000000000E+00  0.00000000000E+00  0.45593999997E+02  0.45594000000E+02  0.51100000000E-03 0.  1.
         11   -1    0    0    0    0 -0.00000000000E+00 -0.00000000000E+00 -0.45593999997E+02  0.45594000000E+02  0.51100000000E-03 0. -1.
    9900012    2    1    2    0    0 -0.29844623065E+02  0.33759838479E+01 -0.10706199667E+02  0.59301929309E+02  0.49999973156E+02 0.  0.
        -12    1    1    2    0    0  0.29844623065E+02 -0.33759838479E+01  0.10706199667E+02  0.31886070691E+02  0.00000000000E+00 0.  1.
         11    1    3    3    0    0  0.32334641921E+01 -0.43897257605E+01 -0.96574020486E+01  0.11090103585E+02  0.51100000000E-03 0. -1.
        -11    1    3    3    0    0 -0.20841386672E+02 -0.94454560337E+01 -0.10377749455E+02  0.25125240737E+02  0.51100000000E-03 0.  1.
        -12    1    3    3    0    0 -0.12236700585E+02  0.17211165642E+02  0.93289518367E+01  0.23086584987E+02  0.00000000000E+00 0.  1.
</event>
<event>
 7    1  0.1215217E-011  0.5930205E+02  0.7816164E-02  0.1266604E+00
        -11   -1    0    0    0    0  0.00000000000E+00  0.00000000000E+00  0.45593999997E+02  0.45594000000E+02  0.51100000000E-03 0.  1.
         11   -1    0    0    0    0 -0.00000000000E+00 -0.00000000000E+00 -0.45593999997E+02  0.45594000000E+02  0.51100000000E-03 0. -1.
    9900012    2    1    2    0    0  0.20085652198E+02 -0.22539579001E+02 -0.10259028182E+02  0.59302051606E+02  0.50000196197E+02 0.  0.
        -12    1    1    2    0    0 -0.20085652198E+02  0.22539579001E+02  0.10259028182E+02  0.31885948394E+02  0.00000000000E+00 0.  1.
         11    1    3    3    0    0  0.14713662543E+02 -0.19021761404E+02 -0.26732981846E+02  0.35957914163E+02  0.51100000000E-03 0. -1.
        -11    1    3    3    0    0  0.65985450125E+01 -0.18430593900E+01  0.11302283536E+00  0.68520390118E+01  0.51100000000E-03 0.  1.
        -12    1    3    3    0    0 -0.12265553576E+01 -0.16747582064E+01  0.16360930829E+02  0.16492098431E+02  0.00000000000E+00 0.  1.
</event>
<event>
 7    1  0.1215217E-011  0.5930213E+02  0.7816164E-02  0.1266604E+00
        -11   -1    0    0    0    0  0.00000000000E+00  0.00000000000E+00  0.45593999997E+02  0.45594000000E+02  0.51100000000E-03 0. -1.
         11   -1    0    0    0    0 -0.00000000000E+00 -0.00000000000E+00 -0.45593999997E+02  0.45594000000E+02  0.51100000000E-03 0.  1.
    9900012    2    1    2    0    0 -0.21077681767E+02  0.95547782654E+01  0.21935051047E+02  0.59302126626E+02  0.50000333015E+02 0.  0.
        -12    1    1    2    0    0  0.21077681767E+02 -0.95547782654E+01 -0.21935051047E+02  0.31885873374E+02  0.00000000000E+00 0.  1.
         11    1    3    3    0    0 -0.34423009078E+00 -0.30505410237E+01  0.13207688777E+02  0.13559769097E+02  0.51100000000E-03 0. -1.
        -11    1    3    3    0    0 -0.29117298656E+02 -0.18928778263E+00  0.88898244988E+01  0.30444735025E+02  0.51100000000E-03 0.  1.
        -12    1    3    3    0    0  0.83838469794E+01  0.12794607072E+02 -0.16246222880E+00  0.15297622504E+02  0.00000000000E+00 0.  1.
</event>
<event>
 7    1  0.1215217E-011  0.5930196E+02  0.7816164E-02  0.1266605E+00
        -11   -1    0    0    0    0  0.00000000000E+00  0.00000000000E+00  0.45593999997E+02  0.45594000000E+02  0.51100000000E-03 0. -1.
         11   -1    0    0    0    0 -0.00000000000E+00 -0.00000000000E+00 -0.45593999997E+02  0.45594000000E+02  0.51100000000E-03 0.  1.
    9900012    2    1    2    0    0  0.31383735311E+01 -0.30292089205E+01  0.31586297903E+02  0.59301957437E+02  0.50000024456E+02 0.  0.
        -12    1    1    2    0    0 -0.31383735311E+01  0.30292089205E+01 -0.31586297903E+02  0.31886042563E+02  0.00000000000E+00 0.  1.
         11    1    3    3    0    0 -0.10528211580E+02  0.10019533081E+02  0.90016372555E+01  0.17095723318E+02  0.51100000000E-03 0. -1.
        -11    1    3    3    0    0  0.22649614869E+02 -0.12476036707E+02  0.12605549301E+02  0.28767280355E+02  0.51100000000E-03 0.  1.
         12    1    3    3    0    0 -0.89830297579E+01 -0.57270529449E+00  0.99791113468E+01  0.13438953764E+02  0.00000000000E+00 0. -1.
</event>
<event>
 7    1  0.1215217E-011  0.5930191E+02  0.7816164E-02  0.1266605E+00
        -11   -1    0    0    0    0  0.00000000000E+00  0.00000000000E+00  0.45593999997E+02  0.45594000000E+02  0.51100000000E-03 0.  1.
         11   -1    0    0    0    0 -0.00000000000E+00 -0.00000000000E+00 -0.45593999997E+02  0.45594000000E+02  0.51100000000E-03 0. -1.
    9900012    2    1    2    0    0 -0.22765819341E+02 -0.46760194141E+01 -0.21830593748E+02  0.59301913517E+02  0.49999944355E+02 0.  0.
        -12    1    1    2    0    0  0.22765819341E+02  0.46760194141E+01  0.21830593748E+02  0.31886086483E+02  0.00000000000E+00 0.  1.
         11    1    3    3    0    0  0.20202781792E+01  0.84303232461E+01  0.13587535362E+01  0.87748552916E+01  0.51100000000E-03 0. -1.
        -11    1    3    3    0    0 -0.97419387860E+01  0.10774890135E+02 -0.88459561771E+00  0.14552873888E+02  0.51100000000E-03 0.  1.
         12    1    3    3    0    0 -0.15044158734E+02 -0.23881232795E+02 -0.22304751666E+02  0.35974184337E+02  0.00000000000E+00 0. -1.
</event>
<event>
 7    1  0.1215217E-011  0.5930196E+02  0.7816164E-02  0.1266605E+00
        -11   -1    0    0    0    0  0.00000000000E+00  0.00000000000E+00  0.45593999997E+02  0.45594000000E+02  0.51100000000E-03 0. -1.
         11   -1    0    0    0    0 -0.00000000000E+00 -0.00000000000E+00 -0.45593999997E+02  0.45594000000E+02  0.51100000000E-03 0.  1.
    9900012    2    1    2    0    0  0.13732020626E+02 -0.27157203943E+02  0.95203844869E+01  0.59301955447E+02  0.50000020826E+02 0.  0.
        -12    1    1    2    0    0 -0.13732020626E+02  0.27157203943E+02 -0.95203844869E+01  0.31886044553E+02  0.00000000000E+00 0.  1.
         11    1    3    3    0    0  0.16666673751E+02  0.34747469161E+01  0.88743023370E+01  0.19199091705E+02  0.51100000000E-03 0. -1.
        -11    1    3    3    0    0 -0.79515061188E+01  0.81058154157E+00 -0.17169411987E+01  0.81750461365E+01  0.51100000000E-03 0.  1.
         12    1    3    3    0    0  0.50168529935E+01 -0.31442532401E+02  0.23630233485E+01  0.31927817606E+02  0.00000000000E+00 0. -1.
</event>
<event>
 7    1  0.1215217E-011  0.5930193E+02  0.7816164E-02  0.1266605E+00
        -11   -1    0    0    0    0  0.00000000000E+00  0.00000000000E+00  0.45593999997E+02  0.45594000000E+02  0.51100000000E-03 0. -1.
         11   -1    0    0    0    0 -0.00000000000E+00 -0.00000000000E+00 -0.45593999997E+02  0.45594000000E+02  0.51100000000E-03 0.  1.
    9900012    2    1    2    0    0 -0.18066512646E+02  0.15259506603E+02  0.21388552750E+02  0.59301927653E+02  0.49999970136E+02 0.  0.
        -12    1    1    2    0    0  0.18066512646E+02 -0.15259506603E+02 -0.21388552750E+02  0.31886072347E+02  0.00000000000E+00 0.  1.
         11    1    3    3    0    0 -0.28419029278E+02  0.13498670285E+02  0.16881863665E+02  0.35705078709E+02  0.51100000000E-03 0. -1.
        -11    1    3    3    0    0 -0.54777797663E+01  0.40606507065E+01  0.32427175417E+01  0.75505081050E+01  0.51100000000E-03 0.  1.
        -12    1    3    3    0    0  0.15830296398E+02 -0.22998143884E+01  0.12639715436E+01  0.16046340839E+02  0.00000000000E+00 0.  1.
</event>
<event>
 7    1  0.1215217E-011  0.5930196E+02  0.7816164E-02  0.1266605E+00
        -11   -1    0    0    0    0  0.00000000000E+00  0.00000000000E+00  0.45593999997E+02  0.45594000000E+02  0.51100000000E-03 0.  1.
         11   -1    0    0    0    0 -0.00000000000E+00 -0.00000000000E+00 -0.45593999997E+02  0.45594000000E+02  0.51100000000E-03 0. -1.
    9900012    2    1    2    0    0  0.26135825794E+01 -0.25020855862E+02 -0.19591968734E+02  0.59301964171E+02  0.50000036737E+02 0.  0.
        -12    1    1    2    0    0 -0.26135825794E+01  0.25020855862E+02  0.19591968734E+02  0.31886035829E+02  0.00000000000E+00 0.  1.
         11    1    3    3    0    0 -0.13683248440E+02 -0.14764479262E+02 -0.86755238596E+01  0.21919987460E+02  0.51100000000E-03 0. -1.
        -11    1    3    3    0    0  0.34561431703E+01 -0.17556139602E+02  0.16770496098E+01  0.17971517993E+02  0.51100000000E-03 0.  1.
         12    1    3    3    0    0  0.12840687849E+02  0.72997630017E+01 -0.12593494484E+02  0.19410458718E+02  0.00000000000E+00 0. -1.
</event>
<event>
 7    1  0.1215217E-011  0.5930196E+02  0.7816164E-02  0.1266605E+00
        -11   -1    0    0    0    0  0.00000000000E+00  0.00000000000E+00  0.45593999997E+02  0.45594000000E+02  0.51100000000E-03 0.  1.
         11   -1    0    0    0    0 -0.00000000000E+00 -0.00000000000E+00 -0.45593999997E+02  0.45594000000E+02  0.51100000000E-03 0. -1.
    9900012    2    1    2    0    0  0.17613364182E+02  0.70550891129E+01 -0.25626448082E+02  0.59301957262E+02  0.50000024136E+02 0.  0.
        -12    1    1    2    0    0 -0.17613364182E+02 -0.70550891129E+01  0.25626448082E+02  0.31886042738E+02  0.00000000000E+00 0.  1.
         11    1    3    3    0    0  0.13831107591E+02 -0.37200983691E+01 -0.66300679630E+01  0.15782790327E+02  0.51100000000E-03 0. -1.
        -11    1    3    3    0    0 -0.13622057486E+01 -0.13060850160E+02 -0.12847112682E+02  0.18370893172E+02  0.51100000000E-03 0.  1.
         12    1    3    3    0    0  0.51444623398E+01  0.23836037642E+02 -0.61492674369E+01  0.25148273763E+02  0.00000000000E+00 0. -1.
</event>
<event>
 7    1  0.1215217E-011  0.5930194E+02  0.7816164E-02  0.1266605E+00
        -11   -1    0    0    0    0  0.00000000000E+00  0.00000000000E+00  0.45593999997E+02  0.45594000000E+02  0.51100000000E-03 0.  1.
         11   -1    0    0    0    0 -0.00000000000E+00 -0.00000000000E+00 -0.45593999997E+02  0.45594000000E+02  0.51100000000E-03 0. -1.
    9900012    2    1    2    0    0 -0.23551563616E+02 -0.15217922754E+02 -0.15180899899E+02  0.59301936533E+02  0.49999986331E+02 0.  0.
        -12    1    1    2    0    0  0.23551563616E+02  0.15217922754E+02  0.15180899899E+02  0.31886063467E+02  0.00000000000E+00 0.  1.
         11    1    3    3    0    0  0.22866248827E+01 -0.74240980135E+01 -0.15436546783E+02  0.17280997122E+02  0.51100000000E-03 0. -1.
        -11    1    3    3    0    0 -0.20386491330E+01  0.34144417038E+01  0.12417672890E+02  0.13038907266E+02  0.51100000000E-03 0.  1.
         12    1    3    3    0    0 -0.23799539365E+02 -0.11208266444E+02 -0.12162026006E+02  0.28982032145E+02  0.00000000000E+00 0. -1.
</event>
<event>
 7    1  0.1215217E-011  0.5930191E+02  0.7816164E-02  0.1266605E+00
        -11   -1    0    0    0    0  0.00000000000E+00  0.00000000000E+00  0.45593999997E+02  0.45594000000E+02  0.51100000000E-03 0. -1.
         11   -1    0    0    0    0 -0.00000000000E+00 -0.00000000000E+00 -0.45593999997E+02  0.45594000000E+02  0.51100000000E-03 0.  1.
    9900012    2    1    2    0    0 -0.31235471093E+01  0.20470080460E+02  0.24247510694E+02  0.59301913451E+02  0.49999944235E+02 0.  0.
        -12    1    1    2    0    0  0.31235471093E+01 -0.20470080460E+02 -0.24247510694E+02  0.31886086549E+02  0.00000000000E+00 0.  1.
         11    1    3    3    0    0  0.15229098791E+02  0.12755012035E+02  0.12133066593E+02  0.23277179538E+02  0.51100000000E-03 0. -1.
        -11    1    3    3    0    0  0.62352588958E+01  0.69327394734E+01  0.31498186588E+01  0.98418843698E+01  0.51100000000E-03 0.  1.
         12    1    3    3    0    0 -0.24587904797E+02  0.78232895113E+00  0.89646254423E+01  0.26182849543E+02  0.00000000000E+00 0. -1.
</event>
<event>
 7    1  0.1215217E-011  0.5930193E+02  0.7816164E-02  0.1266605E+00
        -11   -1    0    0    0    0  0.00000000000E+00  0.00000000000E+00  0.45593999997E+02  0.45594000000E+02  0.51100000000E-03 0. -1.
         11   -1    0    0    0    0 -0.00000000000E+00 -0.00000000000E+00 -0.45593999997E+02  0.45594000000E+02  0.51100000000E-03 0.  1.
    9900012    2    1    2    0    0  0.15318694399E+02 -0.97860327324E+01  0.26197181949E+02  0.59301934442E+02  0.49999982517E+02 0.  0.
        -12    1    1    2    0    0 -0.15318694399E+02  0.97860327324E+01 -0.26197181949E+02  0.31886065558E+02  0.00000000000E+00 0.  1.
         11    1    3    3    0    0 -0.41523539530E+01 -0.80360908862E+01  0.14637113433E+02  0.17206565316E+02  0.51100000000E-03 0. -1.
        -11    1    3    3    0    0  0.70912987947E+00 -0.16473404803E+02  0.30188703810E+01  0.16762741710E+02  0.51100000000E-03 0.  1.
        -12    1    3    3    0    0  0.18761918473E+02  0.14723462957E+02  0.85411981351E+01  0.25332627416E+02  0.00000000000E+00 0.  1.
</event>
<event>
 7    1  0.1215217E-011  0.5930214E+02  0.7816164E-02  0.1266604E+00
        -11   -1    0    0    0    0  0.00000000000E+00  0.00000000000E+00  0.45593999997E+02  0.45594000000E+02  0.51100000000E-03 0.  1.
         11   -1    0    0    0    0 -0.00000000000E+00 -0.00000000000E+00 -0.45593999997E+02  0.45594000000E+02  0.51100000000E-03 0. -1.
    9900012    2    1    2    0    0  0.17826138698E+02  0.11786058983E+02 -0.23664867834E+02  0.59302135156E+02  0.50000348572E+02 0.  0.
        -12    1    1    2    0    0 -0.17826138698E+02 -0.11786058983E+02  0.23664867834E+02  0.31885864844E+02  0.00000000000E+00 0.  1.
         11    1    3    3    0    0  0.15975394459E+02 -0.66880973005E+01 -0.21214279717E+01  0.17448333173E+02  0.51100000000E-03 0. -1.
        -11    1    3    3    0    0  0.15502221346E+02  0.14490113485E+02 -0.96329138765E+01  0.23303975744E+02  0.51100000000E-03 0.  1.
         12    1    3    3    0    0 -0.13651477107E+02  0.39840427983E+01 -0.11910525986E+02  0.18549826239E+02  0.00000000000E+00 0. -1.
</event>
<event>
 7    1  0.1215217E-011  0.5930203E+02  0.7816164E-02  0.1266604E+00
        -11   -1    0    0    0    0  0.00000000000E+00  0.00000000000E+00  0.45593999997E+02  0.45594000000E+02  0.51100000000E-03 0. -1.
         11   -1    0    0    0    0 -0.00000000000E+00 -0.00000000000E+00 -0.45593999997E+02  0.45594000000E+02  0.51100000000E-03 0.  1.
    9900012    2    1    2    0    0  0.17435547448E+02  0.25953714574E+02  0.62547398347E+01  0.59302025256E+02  0.50000148140E+02 0.  0.
        -12    1    1    2    0    0 -0.17435547448E+02 -0.25953714574E+02 -0.62547398347E+01  0.31885974744E+02  0.00000000000E+00 0.  1.
         11    1    3    3    0    0  0.14217873529E+02  0.38077691142E+02 -0.21385207985E+01  0.40701741509E+02  0.51100000000E-03 0. -1.
        -11    1    3    3    0    0 -0.29494859325E+01 -0.97808820274E+00 -0.38361009786E+00  0.31310191259E+01  0.51100000000E-03 0.  1.
        -12    1    3    3    0    0  0.61671598515E+01 -0.11145888365E+02  0.87768707311E+01  0.15469264621E+02  0.00000000000E+00 0.  1.
</event>
<event>
 7    1  0.1215217E-011  0.5930201E+02  0.7816164E-02  0.1266605E+00
        -11   -1    0    0    0    0  0.00000000000E+00  0.00000000000E+00  0.45593999997E+02  0.45594000000E+02  0.51100000000E-03 0. -1.
         11   -1    0    0    0    0 -0.00000000000E+00 -0.00000000000E+00 -0.45593999997E+02  0.45594000000E+02  0.51100000000E-03 0.  1.
    9900012    2    1    2    0    0  0.67415710255E+01 -0.21623657635E+02  0.22442932080E+02  0.59302006998E+02  0.50000114842E+02 0.  0.
        -12    1    1    2    0    0 -0.67415710255E+01  0.21623657635E+02 -0.22442932080E+02  0.31885993002E+02  0.00000000000E+00 0.  1.
         11    1    3    3    0    0  0.11683332802E+01  0.44849025396E+01 -0.21274518486E+01  0.50995494970E+01  0.51100000000E-03 0. -1.
        -11    1    3    3    0    0  0.73423404538E+01  0.84037415582E+01 -0.10132772143E+01  0.11205336518E+02  0.51100000000E-03 0.  1.
         12    1    3    3    0    0 -0.17691027086E+01 -0.34512301732E+02  0.25583661143E+02  0.42997120982E+02  0.00000000000E+00 0. -1.
</event>
<event>
 7    1  0.1215217E-011  0.5930196E+02  0.7816164E-02  0.1266605E+00
        -11   -1    0    0    0    0  0.00000000000E+00  0.00000000000E+00  0.45593999997E+02  0.45594000000E+02  0.51100000000E-03 0. -1.
         11   -1    0    0    0    0 -0.00000000000E+00 -0.00000000000E+00 -0.45593999997E+02  0.45594000000E+02  0.51100000000E-03 0.  1.
    9900012    2    1    2    0    0  0.48182764478E+01  0.31031883515E+02  0.55250554973E+01  0.59301955706E+02  0.50000021299E+02 0.  0.
        -12    1    1    2    0    0 -0.48182764478E+01 -0.31031883515E+02 -0.55250554973E+01  0.31886044294E+02  0.00000000000E+00 0.  1.
         11    1    3    3    0    0  0.58973945045E+01  0.34936917570E+02  0.18040749530E+02  0.39759729817E+02  0.51100000000E-03 0. -1.
        -11    1    3    3    0    0  0.66996875900E+01 -0.15974306325E+01 -0.60476755446E+01  0.91658048301E+01  0.51100000000E-03 0.  1.
        -12    1    3    3    0    0 -0.77788056467E+01 -0.23076034223E+01 -0.64680184879E+01  0.10376421059E+02  0.00000000000E+00 0.  1.
</event>
<event>
 7    1  0.1215217E-011  0.5930195E+02  0.7816164E-02  0.1266605E+00
        -11   -1    0    0    0    0  0.00000000000E+00  0.00000000000E+00  0.45593999997E+02  0.45594000000E+02  0.51100000000E-03 0.  1.
         11   -1    0    0    0    0 -0.00000000000E+00 -0.00000000000E+00 -0.45593999997E+02  0.45594000000E+02  0.51100000000E-03 0. -1.
    9900012    2    1    2    0    0 -0.25421727043E+02 -0.19132596403E+02 -0.20974818794E+01  0.59301954757E+02  0.50000019568E+02 0.  0.
        -12    1    1    2    0    0  0.25421727043E+02  0.19132596403E+02  0.20974818794E+01  0.31886045243E+02  0.00000000000E+00 0.  1.
         11    1    3    3    0    0 -0.10461109484E+02 -0.20393571665E+02 -0.30917238331E+01  0.23127717860E+02  0.51100000000E-03 0. -1.
        -11    1    3    3    0    0 -0.17333055053E+02  0.12737387236E+01 -0.13174134796E+02  0.21808600040E+02  0.51100000000E-03 0.  1.
        -12    1    3    3    0    0  0.23724374944E+01 -0.12763461688E-01  0.14168376750E+02  0.14365636857E+02  0.00000000000E+00 0.  1.
</event>
<event>
 7    1  0.1215217E-011  0.5930193E+02  0.7816164E-02  0.1266605E+00
        -11   -1    0    0    0    0  0.00000000000E+00  0.00000000000E+00  0.45593999997E+02  0.45594000000E+02  0.51100000000E-03 0. -1.
         11   -1    0    0    0    0 -0.00000000000E+00 -0.00000000000E+00 -0.45593999997E+02  0.45594000000E+02  0.51100000000E-03 0.  1.
    9900012    2    1    2    0    0  0.14504640459E+02  0.15863462976E+02  0.23551806785E+02  0.59301926939E+02  0.49999968834E+02 0.  0.
        -12    1    1    2    0    0 -0.14504640459E+02 -0.15863462976E+02 -0.23551806785E+02  0.31886073061E+02  0.00000000000E+00 0.  1.
         11    1    3    3    0    0 -0.91721740198E+01  0.11399362767E+02  0.71255613616E+01  0.16274147373E+02  0.51100000000E-03 0. -1.
        -11    1    3    3    0    0 -0.17841462979E+01  0.10717126199E+02 -0.19141936280E+01  0.11031958552E+02  0.51100000000E-03 0.  1.
        -12    1    3    3    0    0  0.25460960777E+02 -0.62530259911E+01  0.18340439052E+02  0.31995821013E+02  0.00000000000E+00 0.  1.
</event>
<event>
 7    1  0.1215217E-011  0.5930197E+02  0.7816164E-02  0.1266605E+00
        -11   -1    0    0    0    0  0.00000000000E+00  0.00000000000E+00  0.45593999997E+02  0.45594000000E+02  0.51100000000E-03 0. -1.
         11   -1    0    0    0    0 -0.00000000000E+00 -0.00000000000E+00 -0.45593999997E+02  0.45594000000E+02  0.51100000000E-03 0.  1.
    9900012    2    1    2    0    0 -0.32147471028E+01 -0.33004474176E+01  0.31551412103E+02  0.59301966101E+02  0.50000040257E+02 0.  0.
        -12    1    1    2    0    0  0.32147471028E+01  0.33004474176E+01 -0.31551412103E+02  0.31886033899E+02  0.00000000000E+00 0.  1.
         11    1    3    3    0    0 -0.56866498599E+01 -0.11251000142E+02  0.11948383139E+02  0.17369135002E+02  0.51100000000E-03 0. -1.
        -11    1    3    3    0    0  0.18454822340E+02 -0.12005721119E+01  0.11752387433E+02  0.21912107421E+02  0.51100000000E-03 0.  1.
        -12    1    3    3    0    0 -0.15982919582E+02  0.91511248365E+01  0.78506415316E+01  0.20020723678E+02  0.00000000000E+00 0.  1.
</event>
<event>
 7    1  0.1215217E-011  0.5930191E+02  0.7816164E-02  0.1266605E+00
        -11   -1    0    0    0    0  0.00000000000E+00  0.00000000000E+00  0.45593999997E+02  0.45594000000E+02  0.51100000000E-03 0. -1.
         11   -1    0    0    0    0 -0.00000000000E+00 -0.00000000000E+00 -0.45593999997E+02  0.45594000000E+02  0.51100000000E-03 0.  1.
    9900012    2    1    2    0    0  0.71572313236E+01 -0.25689905757E+02  0.17479294273E+02  0.59301906694E+02  0.49999931912E+02 0.  0.
        -12    1    1    2    0    0 -0.71572313236E+01  0.25689905757E+02 -0.17479294273E+02  0.31886093306E+02  0.00000000000E+00 0.  1.
         11    1    3    3    0    0  0.13208980186E+02 -0.11766068516E+01 -0.31279744143E+01  0.13625189373E+02  0.51100000000E-03 0. -1.
        -11    1    3    3    0    0  0.60263623590E+01  0.41659630899E+01 -0.15338250736E+01  0.74849790491E+01  0.51100000000E-03 0.  1.
        -12    1    3    3    0    0 -0.12078111222E+02 -0.28679261996E+02  0.22141093761E+02  0.38191738272E+02  0.00000000000E+00 0.  1.
</event>
<event>
 7    1  0.1215217E-011  0.5930195E+02  0.7816164E-02  0.1266605E+00
        -11   -1    0    0    0    0  0.00000000000E+00  0.00000000000E+00  0.45593999997E+02  0.45594000000E+02  0.51100000000E-03 0.  1.
         11   -1    0    0    0    0 -0.00000000000E+00 -0.00000000000E+00 -0.45593999997E+02  0.45594000000E+02  0.51100000000E-03 0. -1.
    9900012    2    1    2    0    0  0.24097499934E+02  0.20837497123E+02 -0.13525231614E+01  0.59301951196E+02  0.50000013073E+02 0.  0.
        -12    1    1    2    0    0 -0.24097499934E+02 -0.20837497123E+02  0.13525231614E+01  0.31886048804E+02  0.00000000000E+00 0.  1.
         11    1    3    3    0    0 -0.31727311257E+01 -0.42889885541E+01  0.39970214835E+01  0.66661703109E+01  0.51100000000E-03 0. -1.
        -11    1    3    3    0    0  0.18258242059E+02  0.62614865609E+01  0.14239082287E+02  0.23985851697E+02  0.51100000000E-03 0.  1.
         12    1    3    3    0    0  0.90119890012E+01  0.18864999116E+02 -0.19588626931E+02  0.28649929188E+02  0.00000000000E+00 0. -1.
</event>
<event>
 7    1  0.1215217E-011  0.5930194E+02  0.7816164E-02  0.1266605E+00
        -11   -1    0    0    0    0  0.00000000000E+00  0.00000000000E+00  0.45593999997E+02  0.45594000000E+02  0.51100000000E-03 0. -1.
         11   -1    0    0    0    0 -0.00000000000E+00 -0.00000000000E+00 -0.45593999997E+02  0.45594000000E+02  0.51100000000E-03 0.  1.
    9900012    2    1    2    0    0  0.24967517087E+02 -0.86276679028E+01 -0.17857978173E+02  0.59301938039E+02  0.49999989079E+02 0.  0.
        -12    1    1    2    0    0 -0.24967517087E+02  0.86276679028E+01  0.17857978173E+02  0.31886061961E+02  0.00000000000E+00 0.  1.
         11    1    3    3    0    0  0.29690814293E+01  0.72882883508E+01  0.14757342492E+01  0.80070208850E+01  0.51100000000E-03 0. -1.
        -11    1    3    3    0    0 -0.92900457949E+01 -0.21351586593E+01 -0.13631539947E+02  0.16633782942E+02  0.51100000000E-03 0.  1.
         12    1    3    3    0    0  0.31288481452E+02 -0.13780797594E+02 -0.57021724752E+01  0.34661134212E+02  0.00000000000E+00 0. -1.
</event>
<event>
 7    1  0.1215217E-011  0.5930196E+02  0.7816164E-02  0.1266605E+00
        -11   -1    0    0    0    0  0.00000000000E+00  0.00000000000E+00  0.45593999997E+02  0.45594000000E+02  0.51100000000E-03 0. -1.
         11   -1    0    0    0    0 -0.00000000000E+00 -0.00000000000E+00 -0.45593999997E+02  0.45594000000E+02  0.51100000000E-03 0.  1.
    9900012    2    1    2    0    0 -0.59718563469E+01 -0.28023922153E+02 -0.13989871463E+02  0.59301956272E+02  0.50000022331E+02 0.  0.
        -12    1    1    2    0    0  0.59718563469E+01  0.28023922153E+02  0.13989871463E+02  0.31886043728E+02  0.00000000000E+00 0.  1.
         11    1    3    3    0    0 -0.12402631570E+01 -0.65773585041E+01 -0.20910913224E+01  0.70123149366E+01  0.51100000000E-03 0. -1.
        -11    1    3    3    0    0 -0.49800165274E+01 -0.33267983749E+02 -0.18863642524E+02  0.38566777372E+02  0.51100000000E-03 0.  1.
        -12    1    3    3    0    0  0.24842333751E+00  0.11821420100E+02  0.69648623838E+01  0.13722863963E+02  0.00000000000E+00 0.  1.
</event>
<event>
 7    1  0.1215217E-011  0.5930195E+02  0.7816164E-02  0.1266605E+00
        -11   -1    0    0    0    0  0.00000000000E+00  0.00000000000E+00  0.45593999997E+02  0.45594000000E+02  0.51100000000E-03 0. -1.
         11   -1    0    0    0    0 -0.00000000000E+00 -0.00000000000E+00 -0.45593999997E+02  0.45594000000E+02  0.51100000000E-03 0.  1.
    9900012    2    1    2    0    0 -0.79634555771E+01  0.30857247848E+02  0.10648130995E+01  0.59301949815E+02  0.50000010554E+02 0.  0.
        -12    1    1    2    0    0  0.79634555771E+01 -0.30857247848E+02 -0.10648130995E+01  0.31886050185E+02  0.00000000000E+00 0.  1.
         11    1    3    3    0    0  0.98440013003E+01  0.23674474644E+02  0.11531182900E+02  0.28113222701E+02  0.51100000000E-03 0. -1.
        -11    1    3    3    0    0  0.30104246862E+01 -0.20331940433E+01 -0.73645821151E+01  0.82117966853E+01  0.51100000000E-03 0.  1.
         12    1    3    3    0    0 -0.20817881564E+02  0.92159672468E+01 -0.31017876851E+01  0.22976930429E+02  0.00000000000E+00 0. -1.
</event>
<event>
 7    1  0.1215217E-011  0.5930198E+02  0.7816164E-02  0.1266605E+00
        -11   -1    0    0    0    0  0.00000000000E+00  0.00000000000E+00  0.45593999997E+02  0.45594000000E+02  0.51100000000E-03 0. -1.
         11   -1    0    0    0    0 -0.00000000000E+00 -0.00000000000E+00 -0.45593999997E+02  0.45594000000E+02  0.51100000000E-03 0.  1.
    9900012    2    1    2    0    0 -0.99580763647E+01  0.90693905634E+01  0.28901580397E+02  0.59301976737E+02  0.50000059655E+02 0.  0.
        -12    1    1    2    0    0  0.99580763647E+01 -0.90693905634E+01 -0.28901580397E+02  0.31886023263E+02  0.00000000000E+00 0.  1.
         11    1    3    3    0    0 -0.67383731707E+01  0.19575786646E+01  0.99747213638E+01  0.12195607970E+02  0.51100000000E-03 0. -1.
        -11    1    3    3    0    0 -0.15614816964E+02 -0.12337968118E+02  0.10869036649E+02  0.22675624005E+02  0.51100000000E-03 0.  1.
         12    1    3    3    0    0  0.12395113770E+02  0.19449780017E+02  0.80578223843E+01  0.24430744762E+02  0.00000000000E+00 0. -1.
</event>
<event>
 7    1  0.1215217E-011  0.5930194E+02  0.7816164E-02  0.1266605E+00
        -11   -1    0    0    0    0  0.00000000000E+00  0.00000000000E+00  0.45593999997E+02  0.45594000000E+02  0.51100000000E-03 0.  1.
         11   -1    0    0    0    0 -0.00000000000E+00 -0.00000000000E+00 -0.45593999997E+02  0.45594000000E+02  0.51100000000E-03 0. -1.
    9900012    2    1    2    0    0  0.14585202711E+02 -0.19148545853E+02 -0.20912336469E+02  0.59301940930E+02  0.49999994351E+02 0.  0.
        -12    1    1    2    0    0 -0.14585202711E+02  0.19148545853E+02  0.20912336469E+02  0.31886059070E+02  0.00000000000E+00 0.  1.
         11    1    3    3    0    0  0.20605473377E+01 -0.57803204205E+00 -0.23140704223E+01  0.31519674098E+01  0.51100000000E-03 0. -1.
        -11    1    3    3    0    0 -0.15850769808E+01 -0.41856039714E+01 -0.31765677795E+02  0.32079433220E+02  0.51100000000E-03 0.  1.
        -12    1    3    3    0    0  0.14109732354E+02 -0.14384909840E+02  0.13167411749E+02  0.24070540301E+02  0.00000000000E+00 0.  1.
</event>
<event>
 7    1  0.1215217E-011  0.5930191E+02  0.7816164E-02  0.1266605E+00
        -11   -1    0    0    0    0  0.00000000000E+00  0.00000000000E+00  0.45593999997E+02  0.45594000000E+02  0.51100000000E-03 0. -1.
         11   -1    0    0    0    0 -0.00000000000E+00 -0.00000000000E+00 -0.45593999997E+02  0.45594000000E+02  0.51100000000E-03 0.  1.
    9900012    2    1    2    0    0 -0.28921822469E+02 -0.50272712497E+00  0.13416344408E+02  0.59301908256E+02  0.49999934760E+02 0.  0.
        -12    1    1    2    0    0  0.28921822469E+02  0.50272712497E+00 -0.13416344408E+02  0.31886091744E+02  0.00000000000E+00 0.  1.
         11    1    3    3    0    0 -0.11158514381E+02  0.23472722275E+01 -0.49309629019E+01  0.12423225246E+02  0.51100000000E-03 0. -1.
        -11    1    3    3    0    0 -0.18413788767E+02 -0.15493817856E+02 -0.62128187802E+00  0.24073055475E+02  0.51100000000E-03 0.  1.
         12    1    3    3    0    0  0.65048067951E+00  0.12643818503E+02  0.18968589188E+02  0.22805627534E+02  0.00000000000E+00 0. -1.
</event>
<event>
 7    1  0.1215217E-011  0.5930183E+02  0.7816164E-02  0.1266605E+00
        -11   -1    0    0    0    0  0.00000000000E+00  0.00000000000E+00  0.45593999997E+02  0.45594000000E+02  0.51100000000E-03 0. -1.
         11   -1    0    0    0    0 -0.00000000000E+00 -0.00000000000E+00 -0.45593999997E+02  0.45594000000E+02  0.51100000000E-03 0.  1.
    9900012    2    1    2    0    0 -0.10410348757E+02  0.17766594597E+02  0.24345438450E+02  0.59301833436E+02  0.49999798307E+02 0.  0.
        -12    1    1    2    0    0  0.10410348757E+02 -0.17766594597E+02 -0.24345438450E+02  0.31886166564E+02  0.00000000000E+00 0.  1.
         11    1    3    3    0    0 -0.71262977593E+01  0.14592446639E+02 -0.15522518899E+01  0.16313586511E+02  0.51100000000E-03 0.  1.
        -11    1    3    3    0    0  0.14240548311E+02  0.15228491189E+01  0.19639037240E+02  0.24306461479E+02  0.51100000000E-03 0. -1.
         12    1    3    3    0    0 -0.17524599309E+02  0.16512988387E+01  0.62586530994E+01  0.18681785445E+02  0.00000000000E+00 0. -1.
</event>
<event>
 7    1  0.1215217E-011  0.5930194E+02  0.7816164E-02  0.1266605E+00
        -11   -1    0    0    0    0  0.00000000000E+00  0.00000000000E+00  0.45593999997E+02  0.45594000000E+02  0.51100000000E-03 0.  1.
         11   -1    0    0    0    0 -0.00000000000E+00 -0.00000000000E+00 -0.45593999997E+02  0.45594000000E+02  0.51100000000E-03 0. -1.
    9900012    2    1    2    0    0  0.26589412488E+01 -0.26622969596E+02 -0.17345563924E+02  0.59301936171E+02  0.49999985671E+02 0.  0.
        -12    1    1    2    0    0 -0.26589412488E+01  0.26622969596E+02  0.17345563924E+02  0.31886063829E+02  0.00000000000E+00 0.  1.
         11    1    3    3    0    0  0.58691155522E+01 -0.68952602757E+01  0.24291857573E+01  0.93750773512E+01  0.51100000000E-03 0. -1.
        -11    1    3    3    0    0  0.15605133392E+02 -0.78828147411E+01  0.34011097972E+01  0.17810853560E+02  0.51100000000E-03 0.  1.
         12    1    3    3    0    0 -0.18815307695E+02 -0.11844894579E+02 -0.23175859479E+02  0.32116005260E+02  0.00000000000E+00 0. -1.
</event>
<event>
 7    1  0.1215217E-011  0.5930203E+02  0.7816164E-02  0.1266604E+00
        -11   -1    0    0    0    0  0.00000000000E+00  0.00000000000E+00  0.45593999997E+02  0.45594000000E+02  0.51100000000E-03 0. -1.
         11   -1    0    0    0    0 -0.00000000000E+00 -0.00000000000E+00 -0.45593999997E+02  0.45594000000E+02  0.51100000000E-03 0.  1.
    9900012    2    1    2    0    0  0.30102698874E+02  0.47417704574E+01 -0.93839362148E+01  0.59302029332E+02  0.50000155574E+02 0.  0.
        -12    1    1    2    0    0 -0.30102698874E+02 -0.47417704574E+01  0.93839362148E+01  0.31885970668E+02  0.00000000000E+00 0.  1.
         11    1    3    3    0    0  0.19617783140E+01  0.23654846916E+01 -0.11232952047E+01  0.32719847734E+01  0.51100000000E-03 0. -1.
        -11    1    3    3    0    0  0.25324622782E+02  0.17802172410E+02  0.94587679367E+01  0.32368536462E+02  0.51100000000E-03 0.  1.
        -12    1    3    3    0    0  0.28162977784E+01 -0.15425886645E+02 -0.17719408947E+02  0.23661508096E+02  0.00000000000E+00 0.  1.
</event>
<event>
 7    1  0.1215217E-011  0.5930194E+02  0.7816164E-02  0.1266605E+00
        -11   -1    0    0    0    0  0.00000000000E+00  0.00000000000E+00  0.45593999997E+02  0.45594000000E+02  0.51100000000E-03 0.  1.
         11   -1    0    0    0    0 -0.00000000000E+00 -0.00000000000E+00 -0.45593999997E+02  0.45594000000E+02  0.51100000000E-03 0. -1.
    9900012    2    1    2    0    0 -0.25494474571E+02  0.92014293324E+00 -0.19128662100E+02  0.59301943324E+02  0.49999998716E+02 0.  0.
        -12    1    1    2    0    0  0.25494474571E+02 -0.92014293324E+00  0.19128662100E+02  0.31886056676E+02  0.00000000000E+00 0.  1.
         11    1    3    3    0    0 -0.10531935572E+02  0.17169278338E+02 -0.21222497708E+02  0.29259189920E+02  0.51100000000E-03 0.  1.
        -11    1    3    3    0    0 -0.14934105029E+01 -0.25219072336E+00 -0.70558214383E+01  0.72165429065E+01  0.51100000000E-03 0. -1.
        -12    1    3    3    0    0 -0.13469128496E+02 -0.15996944682E+02  0.91496570464E+01  0.22826210497E+02  0.00000000000E+00 0.  1.
</event>
<event>
 7    1  0.1215217E-011  0.5930197E+02  0.7816164E-02  0.1266605E+00
        -11   -1    0    0    0    0  0.00000000000E+00  0.00000000000E+00  0.45593999997E+02  0.45594000000E+02  0.51100000000E-03 0. -1.
         11   -1    0    0    0    0 -0.00000000000E+00 -0.00000000000E+00 -0.45593999997E+02  0.45594000000E+02  0.51100000000E-03 0.  1.
    9900012    2    1    2    0    0 -0.17416865927E+02  0.23882091030E+02  0.11958978712E+02  0.59301973868E+02  0.50000054421E+02 0.  0.
        -12    1    1    2    0    0  0.17416865927E+02 -0.23882091030E+02 -0.11958978712E+02  0.31886026132E+02  0.00000000000E+00 0.  1.
         11    1    3    3    0    0 -0.46137007111E+01 -0.70919476134E+01  0.14228618790E+02  0.16554019093E+02  0.51100000000E-03 0. -1.
        -11    1    3    3    0    0 -0.42588649906E+01 -0.36873090081E+01  0.34322126919E+01  0.65965341622E+01  0.51100000000E-03 0.  1.
        -12    1    3    3    0    0 -0.85443002253E+01  0.34661347651E+02 -0.57018527692E+01  0.36151420613E+02  0.00000000000E+00 0.  1.
</event>
<event>
 7    1  0.1215217E-011  0.5930199E+02  0.7816164E-02  0.1266605E+00
        -11   -1    0    0    0    0  0.00000000000E+00  0.00000000000E+00  0.45593999997E+02  0.45594000000E+02  0.51100000000E-03 0.  1.
         11   -1    0    0    0    0 -0.00000000000E+00 -0.00000000000E+00 -0.45593999997E+02  0.45594000000E+02  0.51100000000E-03 0. -1.
    9900012    2    1    2    0    0  0.21141840253E+02 -0.69134613622E+01 -0.22846104597E+02  0.59301986569E+02  0.50000077585E+02 0.  0.
        -12    1    1    2    0    0 -0.21141840253E+02  0.69134613622E+01  0.22846104597E+02  0.31886013431E+02  0.00000000000E+00 0.  1.
         11    1    3    3    0    0 -0.62466215874E+01 -0.33322001590E+01  0.34516872191E+01  0.78764194959E+01  0.51100000000E-03 0. -1.
        -11    1    3    3    0    0 -0.97036676061E-01  0.12243280895E+02 -0.97573810352E+01  0.15656111526E+02  0.51100000000E-03 0.  1.
         12    1    3    3    0    0  0.27485498516E+02 -0.15824542099E+02 -0.16540410781E+02  0.35769455547E+02  0.00000000000E+00 0. -1.
</event>
<event>
 7    1  0.1215217E-011  0.5930192E+02  0.7816164E-02  0.1266605E+00
        -11   -1    0    0    0    0  0.00000000000E+00  0.00000000000E+00  0.45593999997E+02  0.45594000000E+02  0.51100000000E-03 0.  1.
         11   -1    0    0    0    0 -0.00000000000E+00 -0.00000000000E+00 -0.45593999997E+02  0.45594000000E+02  0.51100000000E-03 0. -1.
    9900012    2    1    2    0    0 -0.69231929364E+00 -0.24503498745E+02 -0.20391693037E+02  0.59301923075E+02  0.49999961787E+02 0.  0.
        -12    1    1    2    0    0  0.69231929364E+00  0.24503498745E+02  0.20391693037E+02  0.31886076925E+02  0.00000000000E+00 0.  1.
         11    1    3    3    0    0  0.37596209034E+01  0.19357483484E+01 -0.27126344057E+02  0.27453968987E+02  0.51100000000E-03 0. -1.
        -11    1    3    3    0    0 -0.71748391569E+00  0.15199756494E+01 -0.17157359869E+01  0.24018449954E+01  0.51100000000E-03 0.  1.
        -12    1    3    3    0    0 -0.37344562813E+01 -0.27959222743E+02  0.84503870067E+01  0.29446109092E+02  0.00000000000E+00 0.  1.
</event>
<event>
 7    1  0.1215217E-011  0.5930193E+02  0.7816164E-02  0.1266605E+00
        -11   -1    0    0    0    0  0.00000000000E+00  0.00000000000E+00  0.45593999997E+02  0.45594000000E+02  0.51100000000E-03 0. -1.
         11   -1    0    0    0    0 -0.00000000000E+00 -0.00000000000E+00 -0.45593999997E+02  0.45594000000E+02  0.51100000000E-03 0.  1.
    9900012    2    1    2    0    0 -0.26085053008E+02  0.15317908910E+02 -0.10082328018E+02  0.59301926832E+02  0.49999968639E+02 0.  0.
        -12    1    1    2    0    0  0.26085053008E+02 -0.15317908910E+02  0.10082328018E+02  0.31886073168E+02  0.00000000000E+00 0.  1.
         11    1    3    3    0    0 -0.21233963798E+02 -0.53774997234E+01  0.24183094052E+01  0.22037398724E+02  0.51100000000E-03 0. -1.
        -11    1    3    3    0    0  0.57793376914E+00 -0.68886796491E+01 -0.34805947862E+01  0.77396676334E+01  0.51100000000E-03 0.  1.
         12    1    3    3    0    0 -0.54290229786E+01  0.27584088283E+02 -0.90200426367E+01  0.29524860475E+02  0.00000000000E+00 0. -1.
</event>
<event>
 7    1  0.1215217E-011  0.5930195E+02  0.7816164E-02  0.1266605E+00
        -11   -1    0    0    0    0  0.00000000000E+00  0.00000000000E+00  0.45593999997E+02  0.45594000000E+02  0.51100000000E-03 0. -1.
         11   -1    0    0    0    0 -0.00000000000E+00 -0.00000000000E+00 -0.45593999997E+02  0.45594000000E+02  0.51100000000E-03 0.  1.
    9900012    2    1    2    0    0  0.82319813120E+01  0.30355281811E+02  0.52451443429E+01  0.59301949926E+02  0.50000010758E+02 0.  0.
        -12    1    1    2    0    0 -0.82319813120E+01 -0.30355281811E+02 -0.52451443429E+01  0.31886050074E+02  0.00000000000E+00 0.  1.
         11    1    3    3    0    0 -0.86797303884E+01  0.14663003681E+02  0.26877628812E+01  0.17250085974E+02  0.51100000000E-03 0. -1.
        -11    1    3    3    0    0  0.66621854086E+01  0.18519129460E+02 -0.12723769891E+02  0.23435810011E+02  0.51100000000E-03 0.  1.
         12    1    3    3    0    0  0.10249526292E+02 -0.28268513306E+01  0.15281151353E+02  0.18616053941E+02  0.00000000000E+00 0. -1.
</event>
<event>
 7    1  0.1215217E-011  0.5930193E+02  0.7816164E-02  0.1266605E+00
        -11   -1    0    0    0    0  0.00000000000E+00  0.00000000000E+00  0.45593999997E+02  0.45594000000E+02  0.51100000000E-03 0.  1.
         11   -1    0    0    0    0 -0.00000000000E+00 -0.00000000000E+00 -0.45593999997E+02  0.45594000000E+02  0.51100000000E-03 0. -1.
    9900012    2    1    2    0    0 -0.18668410894E+02  0.21084433163E+02 -0.14955227663E+02  0.59301925899E+02  0.49999966938E+02 0.  0.
        -12    1    1    2    0    0  0.18668410894E+02 -0.21084433163E+02  0.14955227663E+02  0.31886074101E+02  0.00000000000E+00 0.  1.
         11    1    3    3    0    0 -0.10214473970E+02  0.21691999420E+02 -0.17616245383E+02  0.29752485929E+02  0.51100000000E-03 0. -1.
        -11    1    3    3    0    0 -0.94775342577E+01  0.66843826373E+01 -0.97280236671E+01  0.15137340307E+02  0.51100000000E-03 0.  1.
        -12    1    3    3    0    0  0.10235973331E+01 -0.72919488946E+01  0.12389041388E+02  0.14412099663E+02  0.00000000000E+00 0.  1.
</event>
<event>
 7    1  0.1215217E-011  0.5930192E+02  0.7816164E-02  0.1266605E+00
        -11   -1    0    0    0    0  0.00000000000E+00  0.00000000000E+00  0.45593999997E+02  0.45594000000E+02  0.51100000000E-03 0.  1.
         11   -1    0    0    0    0 -0.00000000000E+00 -0.00000000000E+00 -0.45593999997E+02  0.45594000000E+02  0.51100000000E-03 0. -1.
    9900012    2    1    2    0    0  0.29264120596E+02 -0.12112682218E+02 -0.36900325838E+01  0.59301918942E+02  0.49999954249E+02 0.  0.
        -12    1    1    2    0    0 -0.29264120596E+02  0.12112682218E+02  0.36900325838E+01  0.31886081058E+02  0.00000000000E+00 0.  1.
         11    1    3    3    0    0  0.69490506620E+01 -0.50906034591E+01  0.35536563472E+01  0.93183701566E+01  0.51100000000E-03 0. -1.
        -11    1    3    3    0    0  0.12824905791E+01  0.16618315091E+02  0.25468022915E+01  0.16861179696E+02  0.51100000000E-03 0.  1.
         12    1    3    3    0    0  0.21032579355E+02 -0.23640393850E+02 -0.97904912225E+01  0.33122369089E+02  0.00000000000E+00 0. -1.
</event>
<event>
 7    1  0.1215217E-011  0.5930194E+02  0.7816164E-02  0.1266605E+00
        -11   -1    0    0    0    0  0.00000000000E+00  0.00000000000E+00  0.45593999997E+02  0.45594000000E+02  0.51100000000E-03 0.  1.
         11   -1    0    0    0    0 -0.00000000000E+00 -0.00000000000E+00 -0.45593999997E+02  0.45594000000E+02  0.51100000000E-03 0. -1.
    9900012    2    1    2    0    0 -0.19709033817E+02 -0.22537937125E+02 -0.10968865660E+02  0.59301942895E+02  0.49999997933E+02 0.  0.
        -12    1    1    2    0    0  0.19709033817E+02  0.22537937125E+02  0.10968865660E+02  0.31886057105E+02  0.00000000000E+00 0.  1.
         11    1    3    3    0    0 -0.13847942256E+02 -0.30678631954E+02 -0.76063153594E+01  0.34507970049E+02  0.51100000000E-03 0.  1.
        -11    1    3    3    0    0 -0.47076099464E+00 -0.77511756466E+01 -0.61980682041E+00  0.77901540790E+01  0.51100000000E-03 0. -1.
         12    1    3    3    0    0 -0.53903305665E+01  0.15891870476E+02 -0.27427434799E+01  0.17003818766E+02  0.00000000000E+00 0. -1.
</event>
<event>
 7    1  0.1215217E-011  0.5930196E+02  0.7816164E-02  0.1266605E+00
        -11   -1    0    0    0    0  0.00000000000E+00  0.00000000000E+00  0.45593999997E+02  0.45594000000E+02  0.51100000000E-03 0.  1.
         11   -1    0    0    0    0 -0.00000000000E+00 -0.00000000000E+00 -0.45593999997E+02  0.45594000000E+02  0.51100000000E-03 0. -1.
    9900012    2    1    2    0    0  0.23185361129E+02  0.13744485782E+02 -0.17036653441E+02  0.59301961981E+02  0.50000032743E+02 0.  0.
        -12    1    1    2    0    0 -0.23185361129E+02 -0.13744485782E+02  0.17036653441E+02  0.31886038019E+02  0.00000000000E+00 0.  1.
         11    1    3    3    0    0  0.22872115364E+02 -0.59158213809E+01 -0.18863953787E+02  0.30232091502E+02  0.51100000000E-03 0. -1.
        -11    1    3    3    0    0  0.11254713430E+01  0.12215472157E+02 -0.94827875234E+01  0.15505086431E+02  0.51100000000E-03 0.  1.
        -12    1    3    3    0    0 -0.81222557851E+00  0.74448350054E+01  0.11310087870E+02  0.13564784048E+02  0.00000000000E+00 0.  1.
</event>
<event>
 7    1  0.1215217E-011  0.5930195E+02  0.7816164E-02  0.1266605E+00
        -11   -1    0    0    0    0  0.00000000000E+00  0.00000000000E+00  0.45593999997E+02  0.45594000000E+02  0.51100000000E-03 0.  1.
         11   -1    0    0    0    0 -0.00000000000E+00 -0.00000000000E+00 -0.45593999997E+02  0.45594000000E+02  0.51100000000E-03 0. -1.
    9900012    2    1    2    0    0 -0.16292686766E+02  0.27159270393E+02 -0.36936003054E+01  0.59301948291E+02  0.50000007776E+02 0.  0.
        -12    1    1    2    0    0  0.16292686766E+02 -0.27159270393E+02  0.36936003054E+01  0.31886051709E+02  0.00000000000E+00 0.  1.
         11    1    3    3    0    0  0.61770091071E+01  0.26863474938E+02  0.72661245025E+01  0.28506109745E+02  0.51100000000E-03 0.  1.
        -11    1    3    3    0    0 -0.77675659863E+01  0.85878509174E+01 -0.22286137607E+01  0.11792072943E+02  0.51100000000E-03 0. -1.
        -12    1    3    3    0    0 -0.14702129887E+02 -0.82920554621E+01 -0.87311110472E+01  0.19003765604E+02  0.00000000000E+00 0.  1.
</event>
<event>
 7    1  0.1215217E-011  0.5930190E+02  0.7816164E-02  0.1266605E+00
        -11   -1    0    0    0    0  0.00000000000E+00  0.00000000000E+00  0.45593999997E+02  0.45594000000E+02  0.51100000000E-03 0.  1.
         11   -1    0    0    0    0 -0.00000000000E+00 -0.00000000000E+00 -0.45593999997E+02  0.45594000000E+02  0.51100000000E-03 0. -1.
    9900012    2    1    2    0    0 -0.78047028716E+01 -0.20718348398E+02 -0.22946892647E+02  0.59301902255E+02  0.49999923816E+02 0.  0.
        -12    1    1    2    0    0  0.78047028716E+01  0.20718348398E+02  0.22946892647E+02  0.31886097745E+02  0.00000000000E+00 0.  1.
         11    1    3    3    0    0 -0.18082472294E+02 -0.18785118763E+02 -0.47899197183E+01  0.26510371977E+02  0.51100000000E-03 0. -1.
        -11    1    3    3    0    0 -0.19743661524E+01  0.44183875193E+01  0.42730406412E+01  0.64559388595E+01  0.51100000000E-03 0.  1.
        -12    1    3    3    0    0  0.12252135575E+02 -0.63516171545E+01 -0.22430013570E+02  0.26335591418E+02  0.00000000000E+00 0.  1.
</event>
<event>
 7    1  0.1215217E-011  0.5930195E+02  0.7816164E-02  0.1266605E+00
        -11   -1    0    0    0    0  0.00000000000E+00  0.00000000000E+00  0.45593999997E+02  0.45594000000E+02  0.51100000000E-03 0.  1.
         11   -1    0    0    0    0 -0.00000000000E+00 -0.00000000000E+00 -0.45593999997E+02  0.45594000000E+02  0.51100000000E-03 0. -1.
    9900012    2    1    2    0    0 -0.19474899660E+02  0.24671009477E+02 -0.53656271207E+01  0.59301946940E+02  0.50000005310E+02 0.  0.
        -12    1    1    2    0    0  0.19474899660E+02 -0.24671009477E+02  0.53656271207E+01  0.31886053060E+02  0.00000000000E+00 0.  1.
         11    1    3    3    0    0 -0.12240871682E+02  0.18636421291E+02  0.63890199733E+01  0.23194281936E+02  0.51100000000E-03 0.  1.
        -11    1    3    3    0    0  0.39285485812E-01 -0.11431188837E+02  0.33345715915E+01  0.11907686154E+02  0.51100000000E-03 0. -1.
         12    1    3    3    0    0 -0.72733134640E+01  0.17465777023E+02 -0.15089218686E+02  0.24199978849E+02  0.00000000000E+00 0. -1.
</event>
<event>
 7    1  0.1215217E-011  0.5930194E+02  0.7816164E-02  0.1266605E+00
        -11   -1    0    0    0    0  0.00000000000E+00  0.00000000000E+00  0.45593999997E+02  0.45594000000E+02  0.51100000000E-03 0. -1.
         11   -1    0    0    0    0 -0.00000000000E+00 -0.00000000000E+00 -0.45593999997E+02  0.45594000000E+02  0.51100000000E-03 0.  1.
    9900012    2    1    2    0    0 -0.92476742272E+01  0.26344974829E+01  0.30401661717E+02  0.59301935791E+02  0.49999984977E+02 0.  0.
        -12    1    1    2    0    0  0.92476742272E+01 -0.26344974829E+01 -0.30401661717E+02  0.31886064209E+02  0.00000000000E+00 0.  1.
         11    1    3    3    0    0 -0.35773670432E+01  0.11144004544E+02 -0.36477909788E+01  0.12259395235E+02  0.51100000000E-03 0. -1.
        -11    1    3    3    0    0 -0.53615016073E+00  0.78301829582E+01 -0.11164320681E+01  0.79275243915E+01  0.51100000000E-03 0.  1.
         12    1    3    3    0    0 -0.51341570232E+01 -0.16339690019E+02  0.35165884764E+02  0.39115016164E+02  0.00000000000E+00 0. -1.
</event>
<event>
 7    1  0.1215217E-011  0.5930194E+02  0.7816164E-02  0.1266605E+00
        -11   -1    0    0    0    0  0.00000000000E+00  0.00000000000E+00  0.45593999997E+02  0.45594000000E+02  0.51100000000E-03 0. -1.
         11   -1    0    0    0    0 -0.00000000000E+00 -0.00000000000E+00 -0.45593999997E+02  0.45594000000E+02  0.51100000000E-03 0.  1.
    9900012    2    1    2    0    0  0.85044316975E+01 -0.20993878692E+02  0.22442208553E+02  0.59301936810E+02  0.49999986837E+02 0.  0.
        -12    1    1    2    0    0 -0.85044316975E+01  0.20993878692E+02 -0.22442208553E+02  0.31886063190E+02  0.00000000000E+00 0.  1.
         11    1    3    3    0    0  0.15491580666E+02 -0.12434438101E+02 -0.20099281754E+01  0.19966074576E+02  0.51100000000E-03 0. -1.
        -11    1    3    3    0    0  0.21549837752E+01  0.97084221533E+01  0.50118499261E+01  0.11136249625E+02  0.51100000000E-03 0.  1.
         12    1    3    3    0    0 -0.91421327438E+01 -0.18267862744E+02  0.19440286802E+02  0.28199612609E+02  0.00000000000E+00 0. -1.
</event>
<event>
 7    1  0.1215217E-011  0.5930194E+02  0.7816164E-02  0.1266605E+00
        -11   -1    0    0    0    0  0.00000000000E+00  0.00000000000E+00  0.45593999997E+02  0.45594000000E+02  0.51100000000E-03 0.  1.
         11   -1    0    0    0    0 -0.00000000000E+00 -0.00000000000E+00 -0.45593999997E+02  0.45594000000E+02  0.51100000000E-03 0. -1.
    9900012    2    1    2    0    0 -0.58269035284E+01  0.12866809938E+02 -0.28586937840E+02  0.59301943207E+02  0.49999998504E+02 0.  0.
        -12    1    1    2    0    0  0.58269035284E+01 -0.12866809938E+02  0.28586937840E+02  0.31886056793E+02  0.00000000000E+00 0.  1.
         11    1    3    3    0    0 -0.12873863020E+01  0.13204553147E+02 -0.30972161886E+01  0.13623888420E+02  0.51100000000E-03 0. -1.
        -11    1    3    3    0    0 -0.20669079343E+02  0.42934806236E+01 -0.14794820689E+02  0.25778509193E+02  0.51100000000E-03 0.  1.
        -12    1    3    3    0    0  0.16129562117E+02 -0.46312238328E+01 -0.10694900963E+02  0.19899545594E+02  0.00000000000E+00 0.  1.
</event>
<event>
 7    1  0.1215217E-011  0.5930192E+02  0.7816164E-02  0.1266605E+00
        -11   -1    0    0    0    0  0.00000000000E+00  0.00000000000E+00  0.45593999997E+02  0.45594000000E+02  0.51100000000E-03 0.  1.
         11   -1    0    0    0    0 -0.00000000000E+00 -0.00000000000E+00 -0.45593999997E+02  0.45594000000E+02  0.51100000000E-03 0. -1.
    9900012    2    1    2    0    0  0.22793444771E+02  0.21399766116E+02 -0.62634451747E+01  0.59301923731E+02  0.49999962984E+02 0.  0.
        -12    1    1    2    0    0 -0.22793444771E+02 -0.21399766116E+02  0.62634451747E+01  0.31886076269E+02  0.00000000000E+00 0.  1.
         11    1    3    3    0    0 -0.56687915316E+01 -0.66387311717E+01 -0.29806877483E+01  0.92245568302E+01  0.51100000000E-03 0. -1.
        -11    1    3    3    0    0  0.12843689416E+02 -0.25834549839E+01  0.60902973576E+01  0.14447363761E+02  0.51100000000E-03 0.  1.
         12    1    3    3    0    0  0.15618546887E+02  0.30621952272E+02 -0.93730547840E+01  0.35630003140E+02  0.00000000000E+00 0. -1.
</event>
<event>
 7    1  0.1215217E-011  0.5930206E+02  0.7816164E-02  0.1266604E+00
        -11   -1    0    0    0    0  0.00000000000E+00  0.00000000000E+00  0.45593999997E+02  0.45594000000E+02  0.51100000000E-03 0.  1.
         11   -1    0    0    0    0 -0.00000000000E+00 -0.00000000000E+00 -0.45593999997E+02  0.45594000000E+02  0.51100000000E-03 0. -1.
    9900012    2    1    2    0    0  0.29903635339E+01 -0.28197630190E+02 -0.14583012449E+02  0.59302064629E+02  0.50000219947E+02 0.  0.
        -12    1    1    2    0    0 -0.29903635339E+01  0.28197630190E+02  0.14583012449E+02  0.31885935371E+02  0.00000000000E+00 0.  1.
         11    1    3    3    0    0 -0.13673570812E+02 -0.19304833011E+02 -0.17527697233E+02  0.29442542126E+02  0.51100000000E-03 0. -1.
        -11    1    3    3    0    0  0.52860494946E+01 -0.14372944588E+02  0.66538327113E+01  0.16697225680E+02  0.51100000000E-03 0.  1.
        -12    1    3    3    0    0  0.11377884851E+02  0.54801474085E+01 -0.37091479272E+01  0.13162296823E+02  0.00000000000E+00 0.  1.
</event>
<event>
 7    1  0.1215217E-011  0.5930195E+02  0.7816164E-02  0.1266605E+00
        -11   -1    0    0    0    0  0.00000000000E+00  0.00000000000E+00  0.45593999997E+02  0.45594000000E+02  0.51100000000E-03 0.  1.
         11   -1    0    0    0    0 -0.00000000000E+00 -0.00000000000E+00 -0.45593999997E+02  0.45594000000E+02  0.51100000000E-03 0. -1.
    9900012    2    1    2    0    0  0.32877470977E+01  0.10701458803E+02 -0.29856146606E+02  0.59301953026E+02  0.50000016411E+02 0.  0.
        -12    1    1    2    0    0 -0.32877470977E+01 -0.10701458803E+02  0.29856146606E+02  0.31886046974E+02  0.00000000000E+00 0.  1.
         11    1    3    3    0    0  0.76229672474E+01 -0.86344788391E+01 -0.11832404670E+02  0.16512711922E+02  0.51100000000E-03 0. -1.
        -11    1    3    3    0    0 -0.61822120748E+01 -0.75274781916E+01  0.10414235867E+01  0.97962869196E+01  0.51100000000E-03 0.  1.
        -12    1    3    3    0    0  0.18469919252E+01  0.26863415833E+02 -0.19065165522E+02  0.32992954184E+02  0.00000000000E+00 0.  1.
</event>
<event>
 7    1  0.1215217E-011  0.5930196E+02  0.7816164E-02  0.1266605E+00
        -11   -1    0    0    0    0  0.00000000000E+00  0.00000000000E+00  0.45593999997E+02  0.45594000000E+02  0.51100000000E-03 0.  1.
         11   -1    0    0    0    0 -0.00000000000E+00 -0.00000000000E+00 -0.45593999997E+02  0.45594000000E+02  0.51100000000E-03 0. -1.
    9900012    2    1    2    0    0  0.25664606488E+02  0.13013471116E+02  0.13736714947E+02  0.59301956122E+02  0.50000022057E+02 0.  0.
        -12    1    1    2    0    0 -0.25664606488E+02 -0.13013471116E+02 -0.13736714947E+02  0.31886043878E+02  0.00000000000E+00 0.  1.
         11    1    3    3    0    0  0.10007955120E+02 -0.84903060170E+01 -0.31665899946E+01  0.13500805694E+02  0.51100000000E-03 0. -1.
        -11    1    3    3    0    0  0.93262301609E+01 -0.73738117640E+01  0.29655238341E+00  0.11892838708E+02  0.51100000000E-03 0.  1.
         12    1    3    3    0    0  0.63304212068E+01  0.28877588897E+02  0.16606752558E+02  0.33908311720E+02  0.00000000000E+00 0. -1.
</event>
<event>
 7    1  0.1215217E-011  0.5930206E+02  0.7816164E-02  0.1266604E+00
        -11   -1    0    0    0    0  0.00000000000E+00  0.00000000000E+00  0.45593999997E+02  0.45594000000E+02  0.51100000000E-03 0. -1.
         11   -1    0    0    0    0 -0.00000000000E+00 -0.00000000000E+00 -0.45593999997E+02  0.45594000000E+02  0.51100000000E-03 0.  1.
    9900012    2    1    2    0    0  0.22361413094E+02 -0.22530484912E+02  0.30095967835E+01  0.59302059231E+02  0.50000210103E+02 0.  0.
        -12    1    1    2    0    0 -0.22361413094E+02  0.22530484912E+02 -0.30095967835E+01  0.31885940769E+02  0.00000000000E+00 0.  1.
         11    1    3    3    0    0  0.89546293242E+01 -0.34017855263E-01  0.63295719504E+01  0.10965857234E+02  0.51100000000E-03 0. -1.
        -11    1    3    3    0    0  0.20546497422E+02 -0.22052944045E+01 -0.13350377070E+02  0.24601919598E+02  0.51100000000E-03 0.  1.
        -12    1    3    3    0    0 -0.71397136522E+01 -0.20291172652E+02  0.10030401903E+02  0.23734282399E+02  0.00000000000E+00 0.  1.
</event>
<event>
 7    1  0.1215217E-011  0.5930194E+02  0.7816164E-02  0.1266605E+00
        -11   -1    0    0    0    0  0.00000000000E+00  0.00000000000E+00  0.45593999997E+02  0.45594000000E+02  0.51100000000E-03 0. -1.
         11   -1    0    0    0    0 -0.00000000000E+00 -0.00000000000E+00 -0.45593999997E+02  0.45594000000E+02  0.51100000000E-03 0.  1.
    9900012    2    1    2    0    0  0.26176914047E+02  0.13133419090E+02  0.12609654539E+02  0.59301938568E+02  0.49999990044E+02 0.  0.
        -12    1    1    2    0    0 -0.26176914047E+02 -0.13133419090E+02 -0.12609654539E+02  0.31886061432E+02  0.00000000000E+00 0.  1.
         11    1    3    3    0    0  0.95314719277E+01 -0.39951042650E+01 -0.43456136756E+01  0.11211341297E+02  0.51100000000E-03 0. -1.
        -11    1    3    3    0    0  0.66261381060E+01  0.14692521895E+02 -0.10179323639E+02  0.19062909952E+02  0.51100000000E-03 0.  1.
         12    1    3    3    0    0  0.10019304013E+02  0.24360014596E+01  0.27134591854E+02  0.29027687319E+02  0.00000000000E+00 0. -1.
</event>
<event>
 7    1  0.1215217E-011  0.5930199E+02  0.7816164E-02  0.1266605E+00
        -11   -1    0    0    0    0  0.00000000000E+00  0.00000000000E+00  0.45593999997E+02  0.45594000000E+02  0.51100000000E-03 0.  1.
         11   -1    0    0    0    0 -0.00000000000E+00 -0.00000000000E+00 -0.45593999997E+02  0.45594000000E+02  0.51100000000E-03 0. -1.
    9900012    2    1    2    0    0  0.25637180486E+02  0.19583796481E+01 -0.18857818514E+02  0.59301990635E+02  0.50000085000E+02 0.  0.
        -12    1    1    2    0    0 -0.25637180486E+02 -0.19583796481E+01  0.18857818514E+02  0.31886009365E+02  0.00000000000E+00 0.  1.
         11    1    3    3    0    0  0.17326780432E+02 -0.10073589464E+02 -0.12201677309E+02  0.23464344317E+02  0.51100000000E-03 0. -1.
        -11    1    3    3    0    0 -0.10053037645E+01 -0.83792643634E+01  0.57380681447E+01  0.10205299272E+02  0.51100000000E-03 0.  1.
         12    1    3    3    0    0  0.93157038186E+01  0.20411233476E+02 -0.12394209350E+02  0.25632347046E+02  0.00000000000E+00 0. -1.
</event>
<event>
 7    1  0.1215217E-011  0.5930195E+02  0.7816164E-02  0.1266605E+00
        -11   -1    0    0    0    0  0.00000000000E+00  0.00000000000E+00  0.45593999997E+02  0.45594000000E+02  0.51100000000E-03 0. -1.
         11   -1    0    0    0    0 -0.00000000000E+00 -0.00000000000E+00 -0.45593999997E+02  0.45594000000E+02  0.51100000000E-03 0.  1.
    9900012    2    1    2    0    0  0.11821278466E+02 -0.25309018147E+02  0.15376328011E+02  0.59301945254E+02  0.50000002237E+02 0.  0.
        -12    1    1    2    0    0 -0.11821278466E+02  0.25309018147E+02 -0.15376328011E+02  0.31886054746E+02  0.00000000000E+00 0.  1.
         11    1    3    3    0    0  0.16888458465E+02  0.62907955480E+01  0.93675260103E+01  0.20311195971E+02  0.51100000000E-03 0. -1.
        -11    1    3    3    0    0 -0.51611195780E+01  0.14593373785E+01 -0.13621552331E+00  0.53652004448E+01  0.51100000000E-03 0.  1.
        -12    1    3    3    0    0  0.93939579270E-01 -0.33059151074E+02  0.61450175237E+01  0.33625548839E+02  0.00000000000E+00 0.  1.
</event>
<event>
 7    1  0.1215217E-011  0.5930195E+02  0.7816164E-02  0.1266605E+00
        -11   -1    0    0    0    0  0.00000000000E+00  0.00000000000E+00  0.45593999997E+02  0.45594000000E+02  0.51100000000E-03 0. -1.
         11   -1    0    0    0    0 -0.00000000000E+00 -0.00000000000E+00 -0.45593999997E+02  0.45594000000E+02  0.51100000000E-03 0.  1.
    9900012    2    1    2    0    0 -0.21645438185E+01  0.29167336190E+02 -0.12700453758E+02  0.59301948566E+02  0.50000008278E+02 0.  0.
        -12    1    1    2    0    0  0.21645438185E+01 -0.29167336190E+02  0.12700453758E+02  0.31886051434E+02  0.00000000000E+00 0.  1.
         11    1    3    3    0    0 -0.11408315592E+02  0.34152952007E+02 -0.85269210834E+00  0.36018063240E+02  0.51100000000E-03 0. -1.
        -11    1    3    3    0    0  0.61917264241E+01  0.60056344620E+01 -0.54882306604E+01  0.10223785867E+02  0.51100000000E-03 0.  1.
        -12    1    3    3    0    0  0.30520453495E+01 -0.10991250279E+02 -0.63595309894E+01  0.13060099460E+02  0.00000000000E+00 0.  1.
</event>
<event>
 7    1  0.1215217E-011  0.5930195E+02  0.7816164E-02  0.1266605E+00
        -11   -1    0    0    0    0  0.00000000000E+00  0.00000000000E+00  0.45593999997E+02  0.45594000000E+02  0.51100000000E-03 0.  1.
         11   -1    0    0    0    0 -0.00000000000E+00 -0.00000000000E+00 -0.45593999997E+02  0.45594000000E+02  0.51100000000E-03 0. -1.
    9900012    2    1    2    0    0  0.31676008165E+02 -0.23082867250E+01 -0.28323602320E+01  0.59301953751E+02  0.50000017733E+02 0.  0.
        -12    1    1    2    0    0 -0.31676008165E+02  0.23082867250E+01  0.28323602320E+01  0.31886046249E+02  0.00000000000E+00 0.  1.
         11    1    3    3    0    0  0.18121584132E+02  0.79657119141E+01 -0.17026644876E+02  0.26110362191E+02  0.51100000000E-03 0. -1.
        -11    1    3    3    0    0  0.18329272190E+02 -0.78857713156E+00  0.46806385512E+01  0.18933896863E+02  0.51100000000E-03 0.  1.
        -12    1    3    3    0    0 -0.47748481568E+01 -0.94854215076E+01  0.95136460930E+01  0.14257694697E+02  0.00000000000E+00 0.  1.
</event>
<event>
 7    1  0.1215217E-011  0.5930193E+02  0.7816164E-02  0.1266605E+00
        -11   -1    0    0    0    0  0.00000000000E+00  0.00000000000E+00  0.45593999997E+02  0.45594000000E+02  0.51100000000E-03 0. -1.
         11   -1    0    0    0    0 -0.00000000000E+00 -0.00000000000E+00 -0.45593999997E+02  0.45594000000E+02  0.51100000000E-03 0.  1.
    9900012    2    1    2    0    0  0.25354647323E+02  0.87457780665E+01  0.17244556165E+02  0.59301929496E+02  0.49999973497E+02 0.  0.
        -12    1    1    2    0    0 -0.25354647323E+02 -0.87457780665E+01 -0.17244556165E+02  0.31886070504E+02  0.00000000000E+00 0.  1.
         11    1    3    3    0    0 -0.74129633328E+01  0.67197691344E+01  0.12728246652E+01  0.10086000470E+02  0.51100000000E-03 0. -1.
        -11    1    3    3    0    0  0.17113232422E+02 -0.50738364408E+00  0.25500875340E+02  0.30715058285E+02  0.51100000000E-03 0.  1.
         12    1    3    3    0    0  0.15654378234E+02  0.25333925762E+01 -0.95291438398E+01  0.18500870741E+02  0.00000000000E+00 0. -1.
</event>
<event>
 7    1  0.1215217E-011  0.5930191E+02  0.7816164E-02  0.1266605E+00
        -11   -1    0    0    0    0  0.00000000000E+00  0.00000000000E+00  0.45593999997E+02  0.45594000000E+02  0.51100000000E-03 0.  1.
         11   -1    0    0    0    0 -0.00000000000E+00 -0.00000000000E+00 -0.45593999997E+02  0.45594000000E+02  0.51100000000E-03 0. -1.
    9900012    2    1    2    0    0  0.30036732236E+02 -0.10537944450E+01 -0.10649283932E+02  0.59301905626E+02  0.49999929964E+02 0.  0.
        -12    1    1    2    0    0 -0.30036732236E+02  0.10537944450E+01  0.10649283932E+02  0.31886094374E+02  0.00000000000E+00 0.  1.
         11    1    3    3    0    0  0.13643697277E+02  0.47433543194E+01 -0.18386998949E+02  0.23382292792E+02  0.51100000000E-03 0.  1.
        -11    1    3    3    0    0  0.13001773202E+02  0.14025792696E+01 -0.10010428923E+02  0.16468819705E+02  0.51100000000E-03 0. -1.
        -12    1    3    3    0    0  0.33912617572E+01 -0.71997280341E+01  0.17748143939E+02  0.19450793129E+02  0.00000000000E+00 0.  1.
</event>
<event>
 7    1  0.1215217E-011  0.5930194E+02  0.7816164E-02  0.1266605E+00
        -11   -1    0    0    0    0  0.00000000000E+00  0.00000000000E+00  0.45593999997E+02  0.45594000000E+02  0.51100000000E-03 0. -1.
         11   -1    0    0    0    0 -0.00000000000E+00 -0.00000000000E+00 -0.45593999997E+02  0.45594000000E+02  0.51100000000E-03 0.  1.
    9900012    2    1    2    0    0 -0.17487598228E+02  0.53095940298E+01  0.26128772582E+02  0.59301942903E+02  0.49999997948E+02 0.  0.
        -12    1    1    2    0    0  0.17487598228E+02 -0.53095940298E+01 -0.26128772582E+02  0.31886057097E+02  0.00000000000E+00 0.  1.
         11    1    3    3    0    0  0.10018046804E+02 -0.27557779935E+01 -0.13832536133E+01  0.10481839769E+02  0.51100000000E-03 0. -1.
        -11    1    3    3    0    0 -0.12759781426E+02  0.71122562321E+00 -0.38889564439E+01  0.13358212695E+02  0.51100000000E-03 0.  1.
         12    1    3    3    0    0 -0.14745863606E+02  0.73541464001E+01  0.31400982639E+02  0.35461890439E+02  0.00000000000E+00 0. -1.
</event>
<event>
 7    1  0.1215217E-011  0.5930195E+02  0.7816164E-02  0.1266605E+00
        -11   -1    0    0    0    0  0.00000000000E+00  0.00000000000E+00  0.45593999997E+02  0.45594000000E+02  0.51100000000E-03 0. -1.
         11   -1    0    0    0    0 -0.00000000000E+00 -0.00000000000E+00 -0.45593999997E+02  0.45594000000E+02  0.51100000000E-03 0.  1.
    9900012    2    1    2    0    0 -0.13646877497E+02  0.14632021892E+02  0.24827140836E+02  0.59301948940E+02  0.50000008959E+02 0.  0.
        -12    1    1    2    0    0  0.13646877497E+02 -0.14632021892E+02 -0.24827140836E+02  0.31886051060E+02  0.00000000000E+00 0.  1.
         11    1    3    3    0    0 -0.56725415982E+01 -0.10316289982E+02 -0.80853054087E+00  0.11800732565E+02  0.51100000000E-03 0. -1.
        -11    1    3    3    0    0 -0.76644166394E+01  0.50387125283E+01 -0.53875598787E+01  0.10637561190E+02  0.51100000000E-03 0.  1.
        -12    1    3    3    0    0 -0.30991925970E+00  0.19909599346E+02  0.31023231256E+02  0.36863655185E+02  0.00000000000E+00 0.  1.
</event>
<event>
 7    1  0.1215217E-011  0.5930194E+02  0.7816164E-02  0.1266605E+00
        -11   -1    0    0    0    0  0.00000000000E+00  0.00000000000E+00  0.45593999997E+02  0.45594000000E+02  0.51100000000E-03 0. -1.
         11   -1    0    0    0    0 -0.00000000000E+00 -0.00000000000E+00 -0.45593999997E+02  0.45594000000E+02  0.51100000000E-03 0.  1.
    9900012    2    1    2    0    0  0.31360515464E+01  0.21506765005E+02  0.23331208080E+02  0.59301936731E+02  0.49999986693E+02 0.  0.
        -12    1    1    2    0    0 -0.31360515464E+01 -0.21506765005E+02 -0.23331208080E+02  0.31886063269E+02  0.00000000000E+00 0.  1.
         11    1    3    3    0    0 -0.88108320947E+01  0.21176622510E+02  0.24860906256E+01  0.23070776970E+02  0.51100000000E-03 0. -1.
        -11    1    3    3    0    0  0.12198849704E+02  0.97556031310E+01  0.27968755909E+01  0.15868403823E+02  0.51100000000E-03 0.  1.
         12    1    3    3    0    0 -0.25196606268E+00 -0.94254606353E+01  0.18048241863E+02  0.20362755939E+02  0.00000000000E+00 0. -1.
</event>
<event>
 7    1  0.1215217E-011  0.5930201E+02  0.7816164E-02  0.1266605E+00
        -11   -1    0    0    0    0  0.00000000000E+00  0.00000000000E+00  0.45593999997E+02  0.45594000000E+02  0.51100000000E-03 0. -1.
         11   -1    0    0    0    0 -0.00000000000E+00 -0.00000000000E+00 -0.45593999997E+02  0.45594000000E+02  0.51100000000E-03 0.  1.
    9900012    2    1    2    0    0 -0.89210900541E+00  0.31600442491E+02 -0.41632092719E+01  0.59302013492E+02  0.50000126687E+02 0.  0.
        -12    1    1    2    0    0  0.89210900541E+00 -0.31600442491E+02  0.41632092719E+01  0.31885986508E+02  0.00000000000E+00 0.  1.
         11    1    3    3    0    0 -0.13333910960E+02  0.16347712080E+02 -0.41340100186E+01  0.21497230306E+02  0.51100000000E-03 0. -1.
        -11    1    3    3    0    0  0.13089178363E+02  0.15799099882E+02 -0.13336596198E+02  0.24470450460E+02  0.51100000000E-03 0.  1.
         12    1    3    3    0    0 -0.64737640779E+00 -0.54636947042E+00  0.13307396945E+02  0.13334332726E+02  0.00000000000E+00 0. -1.
</event>
<event>
 7    1  0.1215217E-011  0.5930191E+02  0.7816164E-02  0.1266605E+00
        -11   -1    0    0    0    0  0.00000000000E+00  0.00000000000E+00  0.45593999997E+02  0.45594000000E+02  0.51100000000E-03 0. -1.
         11   -1    0    0    0    0 -0.00000000000E+00 -0.00000000000E+00 -0.45593999997E+02  0.45594000000E+02  0.51100000000E-03 0.  1.
    9900012    2    1    2    0    0 -0.97227003999E+01 -0.28878810795E+02  0.93918084590E+01  0.59301910836E+02  0.49999939467E+02 0.  0.
        -12    1    1    2    0    0  0.97227003999E+01  0.28878810795E+02 -0.93918084590E+01  0.31886089164E+02  0.00000000000E+00 0.  1.
         11    1    3    3    0    0  0.47611663742E+01 -0.10335471478E+02  0.29518497746E+01  0.11756023701E+02  0.51100000000E-03 0. -1.
        -11    1    3    3    0    0  0.11825905734E+02 -0.12866842265E+02 -0.51830151594E+01  0.18228311022E+02  0.51100000000E-03 0.  1.
        -12    1    3    3    0    0 -0.26309772508E+02 -0.56764970524E+01  0.11622973844E+02  0.29317576113E+02  0.00000000000E+00 0.  1.
</event>
<event>
 7    1  0.1215217E-011  0.5930196E+02  0.7816164E-02  0.1266605E+00
        -11   -1    0    0    0    0  0.00000000000E+00  0.00000000000E+00  0.45593999997E+02  0.45594000000E+02  0.51100000000E-03 0.  1.
         11   -1    0    0    0    0 -0.00000000000E+00 -0.00000000000E+00 -0.45593999997E+02  0.45594000000E+02  0.51100000000E-03 0. -1.
    9900012    2    1    2    0    0 -0.23306016573E+02  0.19051206910E+02 -0.10516677954E+02  0.59301962171E+02  0.50000033089E+02 0.  0.
        -12    1    1    2    0    0  0.23306016573E+02 -0.19051206910E+02  0.10516677954E+02  0.31886037829E+02  0.00000000000E+00 0.  1.
         11    1    3    3    0    0 -0.26307363250E+01  0.13044265323E+02  0.72345497410E+01  0.15146363975E+02  0.51100000000E-03 0. -1.
        -11    1    3    3    0    0 -0.14955570054E+02  0.20684031736E+01  0.82762784510E+01  0.17217553618E+02  0.51100000000E-03 0.  1.
        -12    1    3    3    0    0 -0.57197101937E+01  0.39385384135E+01 -0.26027506146E+02  0.26938044579E+02  0.00000000000E+00 0.  1.
</event>
<event>
 7    1  0.1215217E-011  0.5930193E+02  0.7816164E-02  0.1266605E+00
        -11   -1    0    0    0    0  0.00000000000E+00  0.00000000000E+00  0.45593999997E+02  0.45594000000E+02  0.51100000000E-03 0.  1.
         11   -1    0    0    0    0 -0.00000000000E+00 -0.00000000000E+00 -0.45593999997E+02  0.45594000000E+02  0.51100000000E-03 0. -1.
    9900012    2    1    2    0    0  0.15501312075E+02 -0.27831956629E+02  0.13464840999E+01  0.59301929290E+02  0.49999973122E+02 0.  0.
        -12    1    1    2    0    0 -0.15501312075E+02  0.27831956629E+02 -0.13464840999E+01  0.31886070710E+02  0.00000000000E+00 0.  1.
         11    1    3    3    0    0  0.10361248762E+02  0.14740225754E+00 -0.14620099495E+02  0.17919947345E+02  0.51100000000E-03 0. -1.
        -11    1    3    3    0    0 -0.80227030547E+01 -0.42151570795E+01 -0.13551365131E+01  0.91633895878E+01  0.51100000000E-03 0.  1.
        -12    1    3    3    0    0  0.13162766368E+02 -0.23764201808E+02  0.17321720108E+02  0.32218592358E+02  0.00000000000E+00 0.  1.
</event>
<event>
 7    1  0.1215217E-011  0.5930196E+02  0.7816164E-02  0.1266605E+00
        -11   -1    0    0    0    0  0.00000000000E+00  0.00000000000E+00  0.45593999997E+02  0.45594000000E+02  0.51100000000E-03 0. -1.
         11   -1    0    0    0    0 -0.00000000000E+00 -0.00000000000E+00 -0.45593999997E+02  0.45594000000E+02  0.51100000000E-03 0.  1.
    9900012    2    1    2    0    0 -0.56878080071E+01 -0.24448314776E+02  0.19663380983E+02  0.59301955921E+02  0.50000021691E+02 0.  0.
        -12    1    1    2    0    0  0.56878080071E+01  0.24448314776E+02 -0.19663380983E+02  0.31886044079E+02  0.00000000000E+00 0.  1.
         11    1    3    3    0    0  0.12470856616E+02 -0.94121169966E+01  0.10129452563E+02  0.18620312043E+02  0.51100000000E-03 0. -1.
        -11    1    3    3    0    0  0.86702022817E+01  0.21911488265E+00  0.25237934338E+01  0.90327156766E+01  0.51100000000E-03 0.  1.
        -12    1    3    3    0    0 -0.26828866904E+02 -0.15255312662E+02  0.70101349858E+01  0.31648928202E+02  0.00000000000E+00 0.  1.
</event>
<event>
 7    1  0.1215217E-011  0.5930195E+02  0.7816164E-02  0.1266605E+00
        -11   -1    0    0    0    0  0.00000000000E+00  0.00000000000E+00  0.45593999997E+02  0.45594000000E+02  0.51100000000E-03 0.  1.
         11   -1    0    0    0    0 -0.00000000000E+00 -0.00000000000E+00 -0.45593999997E+02  0.45594000000E+02  0.51100000000E-03 0. -1.
    9900012    2    1    2    0    0  0.56506335508E+01  0.11240814243E+02 -0.29299053021E+02  0.59301951761E+02  0.50000014103E+02 0.  0.
        -12    1    1    2    0    0 -0.56506335508E+01 -0.11240814243E+02  0.29299053021E+02  0.31886048239E+02  0.00000000000E+00 0.  1.
         11    1    3    3    0    0 -0.97284940744E+01 -0.11668125631E+02 -0.81223724656E+01  0.17226772403E+02  0.51100000000E-03 0. -1.
        -11    1    3    3    0    0 -0.55308038759E+00  0.31690641457E+00  0.43805644405E+01  0.44266999750E+01  0.51100000000E-03 0.  1.
         12    1    3    3    0    0  0.15932208013E+02  0.22592033460E+02 -0.25557244996E+02  0.37648479382E+02  0.00000000000E+00 0. -1.
</event>
<event>
 7    1  0.1215217E-011  0.5930194E+02  0.7816164E-02  0.1266605E+00
        -11   -1    0    0    0    0  0.00000000000E+00  0.00000000000E+00  0.45593999997E+02  0.45594000000E+02  0.51100000000E-03 0. -1.
         11   -1    0    0    0    0 -0.00000000000E+00 -0.00000000000E+00 -0.45593999997E+02  0.45594000000E+02  0.51100000000E-03 0.  1.
    9900012    2    1    2    0    0  0.27848928491E+02 -0.99662385766E+01 -0.11909336457E+02  0.59301936833E+02  0.49999986878E+02 0.  0.
        -12    1    1    2    0    0 -0.27848928491E+02  0.99662385766E+01  0.11909336457E+02  0.31886063167E+02  0.00000000000E+00 0.  1.
         11    1    3    3    0    0  0.11935235197E+02 -0.98458176130E+01  0.28985535446E+01  0.15741396907E+02  0.51100000000E-03 0. -1.
        -11    1    3    3    0    0  0.15400062714E+02 -0.15614908436E+02  0.27199077493E+00  0.21933109134E+02  0.51100000000E-03 0.  1.
        -12    1    3    3    0    0  0.51363058013E+00  0.15494487472E+02 -0.15079880776E+02  0.21627430791E+02  0.00000000000E+00 0.  1.
</event>
<event>
 7    1  0.1215217E-011  0.5930195E+02  0.7816164E-02  0.1266605E+00
        -11   -1    0    0    0    0  0.00000000000E+00  0.00000000000E+00  0.45593999997E+02  0.45594000000E+02  0.51100000000E-03 0.  1.
         11   -1    0    0    0    0 -0.00000000000E+00 -0.00000000000E+00 -0.45593999997E+02  0.45594000000E+02  0.51100000000E-03 0. -1.
    9900012    2    1    2    0    0 -0.24348026775E+02 -0.59172361753E+00 -0.20580170042E+02  0.59301953779E+02  0.50000017783E+02 0.  0.
        -12    1    1    2    0    0  0.24348026775E+02  0.59172361753E+00  0.20580170042E+02  0.31886046221E+02  0.00000000000E+00 0.  1.
         11    1    3    3    0    0  0.41589276530E+01  0.13852767543E+02 -0.28682295789E+01  0.14745256492E+02  0.51100000000E-03 0. -1.
        -11    1    3    3    0    0  0.33919815096E+01 -0.24838702725E+01  0.25518942382E+01  0.49180600399E+01  0.51100000000E-03 0.  1.
         12    1    3    3    0    0 -0.31898935938E+02 -0.11960620888E+02 -0.20263834701E+02  0.39638637247E+02  0.00000000000E+00 0. -1.
</event>
<event>
 7    1  0.1215217E-011  0.5930205E+02  0.7816164E-02  0.1266604E+00
        -11   -1    0    0    0    0  0.00000000000E+00  0.00000000000E+00  0.45593999997E+02  0.45594000000E+02  0.51100000000E-03 0.  1.
         11   -1    0    0    0    0 -0.00000000000E+00 -0.00000000000E+00 -0.45593999997E+02  0.45594000000E+02  0.51100000000E-03 0. -1.
    9900012    2    1    2    0    0  0.22684409131E+02 -0.81991466211E+01 -0.20854384235E+02  0.59302050668E+02  0.50000194487E+02 0.  0.
        -12    1    1    2    0    0 -0.22684409131E+02  0.81991466211E+01  0.20854384235E+02  0.31885949332E+02  0.00000000000E+00 0.  1.
         11    1    3    3    0    0 -0.93425140598E-01  0.56400376278E+01  0.67443263915E+01  0.87923086523E+01  0.51100000000E-03 0. -1.
        -11    1    3    3    0    0 -0.70450227215E+01 -0.95198186612E+01 -0.50576574271E+01  0.12877856631E+02  0.51100000000E-03 0.  1.
         12    1    3    3    0    0  0.29822856993E+02 -0.43193655877E+01 -0.22541053200E+02  0.37631885386E+02  0.00000000000E+00 0. -1.
</event>
<event>
 7    1  0.1215217E-011  0.5930192E+02  0.7816164E-02  0.1266605E+00
        -11   -1    0    0    0    0  0.00000000000E+00  0.00000000000E+00  0.45593999997E+02  0.45594000000E+02  0.51100000000E-03 0.  1.
         11   -1    0    0    0    0 -0.00000000000E+00 -0.00000000000E+00 -0.45593999997E+02  0.45594000000E+02  0.51100000000E-03 0. -1.
    9900012    2    1    2    0    0 -0.19663341829E+02  0.19274599370E+02 -0.16079950009E+02  0.59301921768E+02  0.49999959403E+02 0.  0.
        -12    1    1    2    0    0  0.19663341829E+02 -0.19274599370E+02  0.16079950009E+02  0.31886078232E+02  0.00000000000E+00 0.  1.
         11    1    3    3    0    0 -0.64500879334E+01 -0.38907684102E+01 -0.79456140824E+01  0.10948721230E+02  0.51100000000E-03 0. -1.
        -11    1    3    3    0    0 -0.35919326762E+01 -0.10408294495E+02  0.34801205722E+01  0.11547545804E+02  0.51100000000E-03 0.  1.
         12    1    3    3    0    0 -0.96213212190E+01  0.33573662275E+02 -0.11614456499E+02  0.36805654733E+02  0.00000000000E+00 0. -1.
</event>
<event>
 7    1  0.1215217E-011  0.5930194E+02  0.7816164E-02  0.1266605E+00
        -11   -1    0    0    0    0  0.00000000000E+00  0.00000000000E+00  0.45593999997E+02  0.45594000000E+02  0.51100000000E-03 0.  1.
         11   -1    0    0    0    0 -0.00000000000E+00 -0.00000000000E+00 -0.45593999997E+02  0.45594000000E+02  0.51100000000E-03 0. -1.
    9900012    2    1    2    0    0 -0.27139176256E+01 -0.29571779911E+02  0.11613158195E+02  0.59301937853E+02  0.49999988739E+02 0.  0.
        -12    1    1    2    0    0  0.27139176256E+01  0.29571779911E+02 -0.11613158195E+02  0.31886062147E+02  0.00000000000E+00 0.  1.
         11    1    3    3    0    0 -0.10395448165E+02 -0.62202603117E+01 -0.33082455455E+01  0.12557924580E+02  0.51100000000E-03 0. -1.
        -11    1    3    3    0    0 -0.12464859702E+02  0.97970333021E+00  0.22302787321E+01  0.12700657050E+02  0.51100000000E-03 0.  1.
        -12    1    3    3    0    0  0.20146390242E+02 -0.24331222929E+02  0.12691125008E+02  0.34043356224E+02  0.00000000000E+00 0.  1.
</event>
<event>
 7    1  0.1215217E-011  0.5930194E+02  0.7816164E-02  0.1266605E+00
        -11   -1    0    0    0    0  0.00000000000E+00  0.00000000000E+00  0.45593999997E+02  0.45594000000E+02  0.51100000000E-03 0.  1.
         11   -1    0    0    0    0 -0.00000000000E+00 -0.00000000000E+00 -0.45593999997E+02  0.45594000000E+02  0.51100000000E-03 0. -1.
    9900012    2    1    2    0    0  0.89638709978E+01  0.26748452406E+02 -0.14862371196E+02  0.59301940868E+02  0.49999994238E+02 0.  0.
        -12    1    1    2    0    0 -0.89638709978E+01 -0.26748452406E+02  0.14862371196E+02  0.31886059132E+02  0.00000000000E+00 0.  1.
         11    1    3    3    0    0  0.97743914420E+01 -0.79305631552E+01 -0.25106388624E+01  0.12834947128E+02  0.51100000000E-03 0. -1.
        -11    1    3    3    0    0  0.10778418273E+02  0.18532599229E+02  0.25999107044E+01  0.21596089243E+02  0.51100000000E-03 0.  1.
         12    1    3    3    0    0 -0.11588938718E+02  0.16146416332E+02 -0.14951643038E+02  0.24870904497E+02  0.00000000000E+00 0. -1.
</event>
<event>
 7    1  0.1215217E-011  0.5930191E+02  0.7816164E-02  0.1266605E+00
        -11   -1    0    0    0    0  0.00000000000E+00  0.00000000000E+00  0.45593999997E+02  0.45594000000E+02  0.51100000000E-03 0.  1.
         11   -1    0    0    0    0 -0.00000000000E+00 -0.00000000000E+00 -0.45593999997E+02  0.45594000000E+02  0.51100000000E-03 0. -1.
    9900012    2    1    2    0    0 -0.24482804274E+02 -0.14581950376E+02 -0.14306701149E+02  0.59301910876E+02  0.49999939539E+02 0.  0.
        -12    1    1    2    0    0  0.24482804274E+02  0.14581950376E+02  0.14306701149E+02  0.31886089124E+02  0.00000000000E+00 0.  1.
         11    1    3    3    0    0 -0.83817290052E+01  0.30856933660E+01 -0.16036685836E+02  0.18356202699E+02  0.51100000000E-03 0. -1.
        -11    1    3    3    0    0 -0.18798402336E+02 -0.10354498754E+02 -0.12416100970E+02  0.24794256157E+02  0.51100000000E-03 0.  1.
        -12    1    3    3    0    0  0.26973270680E+01 -0.73131449880E+01  0.14146085657E+02  0.16151452019E+02  0.00000000000E+00 0.  1.
</event>
<event>
 7    1  0.1215217E-011  0.5930194E+02  0.7816164E-02  0.1266605E+00
        -11   -1    0    0    0    0  0.00000000000E+00  0.00000000000E+00  0.45593999997E+02  0.45594000000E+02  0.51100000000E-03 0.  1.
         11   -1    0    0    0    0 -0.00000000000E+00 -0.00000000000E+00 -0.45593999997E+02  0.45594000000E+02  0.51100000000E-03 0. -1.
    9900012    2    1    2    0    0  0.15273304402E+02 -0.61876979781E+01 -0.27297602886E+02  0.59301944161E+02  0.50000000243E+02 0.  0.
        -12    1    1    2    0    0 -0.15273304402E+02  0.61876979781E+01  0.27297602886E+02  0.31886055839E+02  0.00000000000E+00 0.  1.
         11    1    3    3    0    0  0.16697859987E+01  0.15217113041E+01 -0.30633264417E+01  0.38062789866E+01  0.51100000000E-03 0. -1.
        -11    1    3    3    0    0  0.12689469207E+02  0.13142536601E+02  0.55796385259E+01  0.19101865443E+02  0.51100000000E-03 0.  1.
        -12    1    3    3    0    0  0.91404919673E+00 -0.20851945883E+02 -0.29813914970E+02  0.36393799732E+02  0.00000000000E+00 0.  1.
</event>
<event>
 7    1  0.1215217E-011  0.5930196E+02  0.7816164E-02  0.1266605E+00
        -11   -1    0    0    0    0  0.00000000000E+00  0.00000000000E+00  0.45593999997E+02  0.45594000000E+02  0.51100000000E-03 0. -1.
         11   -1    0    0    0    0 -0.00000000000E+00 -0.00000000000E+00 -0.45593999997E+02  0.45594000000E+02  0.51100000000E-03 0.  1.
    9900012    2    1    2    0    0  0.22301259775E+02 -0.50394719206E+00  0.22784192307E+02  0.59301959647E+02  0.50000028486E+02 0.  0.
        -12    1    1    2    0    0 -0.22301259775E+02  0.50394719206E+00 -0.22784192307E+02  0.31886040353E+02  0.00000000000E+00 0.  1.
         11    1    3    3    0    0 -0.21310463894E+01 -0.13118579882E+01  0.59558140516E+01  0.64601897320E+01  0.51100000000E-03 0. -1.
        -11    1    3    3    0    0  0.16431577638E+01 -0.11548270517E+02 -0.10124420729E+02  0.15445595318E+02  0.51100000000E-03 0.  1.
        -12    1    3    3    0    0  0.22789148400E+02  0.12356181313E+02  0.26952798984E+02  0.37396174597E+02  0.00000000000E+00 0.  1.
</event>
<event>
 7    1  0.1215217E-011  0.5930197E+02  0.7816164E-02  0.1266605E+00
        -11   -1    0    0    0    0  0.00000000000E+00  0.00000000000E+00  0.45593999997E+02  0.45594000000E+02  0.51100000000E-03 0.  1.
         11   -1    0    0    0    0 -0.00000000000E+00 -0.00000000000E+00 -0.45593999997E+02  0.45594000000E+02  0.51100000000E-03 0. -1.
    9900012    2    1    2    0    0 -0.18445490411E+01  0.23193184585E+02 -0.21803496735E+02  0.59301974186E+02  0.50000055001E+02 0.  0.
        -12    1    1    2    0    0  0.18445490411E+01 -0.23193184585E+02  0.21803496735E+02  0.31886025814E+02  0.00000000000E+00 0.  1.
         11    1    3    3    0    0 -0.16731359078E+02  0.11416646322E+02 -0.21856221385E+02  0.29798869162E+02  0.51100000000E-03 0. -1.
        -11    1    3    3    0    0 -0.24663638508E+01  0.18803745497E+01  0.75529194452E+01  0.81648852716E+01  0.51100000000E-03 0.  1.
        -12    1    3    3    0    0  0.17353173888E+02  0.98961637131E+01 -0.75001947950E+01  0.21338219752E+02  0.00000000000E+00 0.  1.
</event>
<event>
 7    1  0.1215217E-011  0.5930192E+02  0.7816164E-02  0.1266605E+00
        -11   -1    0    0    0    0  0.00000000000E+00  0.00000000000E+00  0.45593999997E+02  0.45594000000E+02  0.51100000000E-03 0. -1.
         11   -1    0    0    0    0 -0.00000000000E+00 -0.00000000000E+00 -0.45593999997E+02  0.45594000000E+02  0.51100000000E-03 0.  1.
    9900012    2    1    2    0    0  0.92615822683E+01  0.24235287688E+02  0.18536335375E+02  0.59301924597E+02  0.49999964563E+02 0.  0.
        -12    1    1    2    0    0 -0.92615822683E+01 -0.24235287688E+02 -0.18536335375E+02  0.31886075403E+02  0.00000000000E+00 0.  1.
         11    1    3    3    0    0  0.42801309437E+01 -0.89658728404E+01  0.81154159336E+01  0.12828342556E+02  0.51100000000E-03 0. -1.
        -11    1    3    3    0    0 -0.93776879680E+00  0.76534773243E+01  0.17658638066E+02  0.19268695443E+02  0.51100000000E-03 0.  1.
        -12    1    3    3    0    0  0.59192201215E+01  0.25547683204E+02 -0.72377186243E+01  0.27204886599E+02  0.00000000000E+00 0.  1.
</event>
<event>
 7    1  0.1215217E-011  0.5930188E+02  0.7816164E-02  0.1266605E+00
        -11   -1    0    0    0    0  0.00000000000E+00  0.00000000000E+00  0.45593999997E+02  0.45594000000E+02  0.51100000000E-03 0.  1.
         11   -1    0    0    0    0 -0.00000000000E+00 -0.00000000000E+00 -0.45593999997E+02  0.45594000000E+02  0.51100000000E-03 0. -1.
    9900012    2    1    2    0    0 -0.14613076666E+02  0.91819849404E+01 -0.26811819838E+02  0.59301881702E+02  0.49999886333E+02 0.  0.
        -12    1    1    2    0    0  0.14613076666E+02 -0.91819849404E+01  0.26811819838E+02  0.31886118298E+02  0.00000000000E+00 0.  1.
         11    1    3    3    0    0 -0.31256455262E+01 -0.78573301273E+01 -0.15375126322E+02  0.17547131001E+02  0.51100000000E-03 0. -1.
        -11    1    3    3    0    0 -0.21396097713E+02  0.11287017852E+02 -0.16444466141E+02  0.29250815993E+02  0.51100000000E-03 0.  1.
        -12    1    3    3    0    0  0.99086665737E+01  0.57522972157E+01  0.50077726248E+01  0.12503934708E+02  0.00000000000E+00 0.  1.
</event>
<event>
 7    1  0.1215217E-011  0.5930192E+02  0.7816164E-02  0.1266605E+00
        -11   -1    0    0    0    0  0.00000000000E+00  0.00000000000E+00  0.45593999997E+02  0.45594000000E+02  0.51100000000E-03 0. -1.
         11   -1    0    0    0    0 -0.00000000000E+00 -0.00000000000E+00 -0.45593999997E+02  0.45594000000E+02  0.51100000000E-03 0.  1.
    9900012    2    1    2    0    0 -0.65546025140E+01  0.30322456237E+02  0.73693753130E+01  0.59301923747E+02  0.49999963012E+02 0.  0.
        -12    1    1    2    0    0  0.65546025140E+01 -0.30322456237E+02 -0.73693753130E+01  0.31886076253E+02  0.00000000000E+00 0.  1.
         11    1    3    3    0    0  0.44495152055E+01  0.13257303276E+02  0.12517375213E+02  0.18768030216E+02  0.51100000000E-03 0. -1.
        -11    1    3    3    0    0 -0.11012851057E+02  0.25006326506E+02  0.48654506144E+01  0.27753772062E+02  0.51100000000E-03 0.  1.
        -12    1    3    3    0    0  0.87333372959E-02 -0.79411735457E+01 -0.10013450514E+02  0.12780121468E+02  0.00000000000E+00 0.  1.
</event>
<event>
 7    1  0.1215217E-011  0.5930197E+02  0.7816164E-02  0.1266605E+00
        -11   -1    0    0    0    0  0.00000000000E+00  0.00000000000E+00  0.45593999997E+02  0.45594000000E+02  0.51100000000E-03 0.  1.
         11   -1    0    0    0    0 -0.00000000000E+00 -0.00000000000E+00 -0.45593999997E+02  0.45594000000E+02  0.51100000000E-03 0. -1.
    9900012    2    1    2    0    0 -0.10328645746E+02  0.27959393683E+02 -0.11327416991E+02  0.59301968674E+02  0.50000044949E+02 0.  0.
        -12    1    1    2    0    0  0.10328645746E+02 -0.27959393683E+02  0.11327416991E+02  0.31886031326E+02  0.00000000000E+00 0.  1.
         11    1    3    3    0    0 -0.14159260857E+02 -0.19820138921E+00 -0.95907205570E+00  0.14193088856E+02  0.51100000000E-03 0. -1.
        -11    1    3    3    0    0 -0.52172255234E+01 -0.50946740553E+01  0.33407137677E+01  0.80209422533E+01  0.51100000000E-03 0.  1.
         12    1    3    3    0    0  0.90478406346E+01  0.33252269127E+02 -0.13709058703E+02  0.37087937564E+02  0.00000000000E+00 0. -1.
</event>
<event>
 7    1  0.1215217E-011  0.5930196E+02  0.7816164E-02  0.1266605E+00
        -11   -1    0    0    0    0  0.00000000000E+00  0.00000000000E+00  0.45593999997E+02  0.45594000000E+02  0.51100000000E-03 0. -1.
         11   -1    0    0    0    0 -0.00000000000E+00 -0.00000000000E+00 -0.45593999997E+02  0.45594000000E+02  0.51100000000E-03 0.  1.
    9900012    2    1    2    0    0  0.43347516867E+00 -0.14967259393E+02  0.28151604756E+02  0.59301959092E+02  0.50000027474E+02 0.  0.
        -12    1    1    2    0    0 -0.43347516867E+00  0.14967259393E+02 -0.28151604756E+02  0.31886040908E+02  0.00000000000E+00 0.  1.
         11    1    3    3    0    0 -0.20740387618E+02 -0.11606826133E+02  0.65973631286E+01  0.24665913564E+02  0.51100000000E-03 0. -1.
        -11    1    3    3    0    0  0.41594449722E+00 -0.61006447357E+01  0.39386935232E+01  0.72735261701E+01  0.51100000000E-03 0.  1.
        -12    1    3    3    0    0  0.20757918289E+02  0.27402114751E+01  0.17615548104E+02  0.27362519358E+02  0.00000000000E+00 0.  1.
</event>
<event>
 7    1  0.1215217E-011  0.5930195E+02  0.7816164E-02  0.1266605E+00
        -11   -1    0    0    0    0  0.00000000000E+00  0.00000000000E+00  0.45593999997E+02  0.45594000000E+02  0.51100000000E-03 0. -1.
         11   -1    0    0    0    0 -0.00000000000E+00 -0.00000000000E+00 -0.45593999997E+02  0.45594000000E+02  0.51100000000E-03 0.  1.
    9900012    2    1    2    0    0  0.11747067750E+02  0.16506338618E+02  0.24622496595E+02  0.59301950482E+02  0.50000011771E+02 0.  0.
        -12    1    1    2    0    0 -0.11747067750E+02 -0.16506338618E+02 -0.24622496595E+02  0.31886049518E+02  0.00000000000E+00 0.  1.
         11    1    3    3    0    0  0.94149418627E+01  0.10296441593E+02  0.36766177621E+00  0.13956826832E+02  0.51100000000E-03 0. -1.
        -11    1    3    3    0    0 -0.12304340520E+02 -0.88951172645E+01  0.30655969740E+01  0.15489279901E+02  0.51100000000E-03 0.  1.
         12    1    3    3    0    0  0.14636466407E+02  0.15105014289E+02  0.21189237845E+02  0.29855843750E+02  0.00000000000E+00 0. -1.
</event>
<event>
 7    1  0.1215217E-011  0.5930193E+02  0.7816164E-02  0.1266605E+00
        -11   -1    0    0    0    0  0.00000000000E+00  0.00000000000E+00  0.45593999997E+02  0.45594000000E+02  0.51100000000E-03 0. -1.
         11   -1    0    0    0    0 -0.00000000000E+00 -0.00000000000E+00 -0.45593999997E+02  0.45594000000E+02  0.51100000000E-03 0.  1.
    9900012    2    1    2    0    0  0.29308618650E+02  0.67990497779E+01  0.10559308696E+02  0.59301933996E+02  0.49999981705E+02 0.  0.
        -12    1    1    2    0    0 -0.29308618650E+02 -0.67990497779E+01 -0.10559308696E+02  0.31886066004E+02  0.00000000000E+00 0.  1.
         11    1    3    3    0    0  0.18133787853E+02  0.13203766904E+02  0.83571844966E+01  0.23937757943E+02  0.51100000000E-03 0. -1.
        -11    1    3    3    0    0 -0.82988213652E+01 -0.28500480195E+01  0.10686364312E+02  0.13827204788E+02  0.51100000000E-03 0.  1.
         12    1    3    3    0    0  0.19473652162E+02 -0.35546691064E+01 -0.84842401132E+01  0.21536971265E+02  0.00000000000E+00 0. -1.
</event>
<event>
 7    1  0.1215217E-011  0.5930198E+02  0.7816164E-02  0.1266605E+00
        -11   -1    0    0    0    0  0.00000000000E+00  0.00000000000E+00  0.45593999997E+02  0.45594000000E+02  0.51100000000E-03 0.  1.
         11   -1    0    0    0    0 -0.00000000000E+00 -0.00000000000E+00 -0.45593999997E+02  0.45594000000E+02  0.51100000000E-03 0. -1.
    9900012    2    1    2    0    0  0.18751667650E+01 -0.31824334245E+02  0.64307498305E+00  0.59301983536E+02  0.50000072053E+02 0.  0.
        -12    1    1    2    0    0 -0.18751667650E+01  0.31824334245E+02 -0.64307498305E+00  0.31886016464E+02  0.00000000000E+00 0.  1.
         11    1    3    3    0    0 -0.93073637903E+01 -0.25224458209E+02 -0.54293637389E+01  0.27429515190E+02  0.51100000000E-03 0.  1.
        -11    1    3    3    0    0 -0.10317854448E+00 -0.69003819133E+01  0.15626589824E+02  0.17082629369E+02  0.51100000000E-03 0. -1.
         12    1    3    3    0    0  0.11285709100E+02  0.30050587737E+00 -0.95541511025E+01  0.14789838977E+02  0.00000000000E+00 0. -1.
</event>
<event>
 7    1  0.1215217E-011  0.5930189E+02  0.7816164E-02  0.1266605E+00
        -11   -1    0    0    0    0  0.00000000000E+00  0.00000000000E+00  0.45593999997E+02  0.45594000000E+02  0.51100000000E-03 0.  1.
         11   -1    0    0    0    0 -0.00000000000E+00 -0.00000000000E+00 -0.45593999997E+02  0.45594000000E+02  0.51100000000E-03 0. -1.
    9900012    2    1    2    0    0  0.81422785989E+01  0.22481637671E+02 -0.21095101261E+02  0.59301889695E+02  0.49999900910E+02 0.  0.
        -12    1    1    2    0    0 -0.81422785989E+01 -0.22481637671E+02  0.21095101261E+02  0.31886110305E+02  0.00000000000E+00 0.  1.
         11    1    3    3    0    0  0.93507449180E+01  0.20180903712E+02 -0.11348717235E+02  0.24969955713E+02  0.51100000000E-03 0. -1.
        -11    1    3    3    0    0  0.93650025737E+01  0.64244411123E+01 -0.17303070351E+02  0.20697172770E+02  0.51100000000E-03 0.  1.
        -12    1    3    3    0    0 -0.10573468893E+02 -0.41237071531E+01  0.75566863252E+01  0.13634761213E+02  0.00000000000E+00 0.  1.
</event>
<event>
 7    1  0.1215217E-011  0.5930195E+02  0.7816164E-02  0.1266605E+00
        -11   -1    0    0    0    0  0.00000000000E+00  0.00000000000E+00  0.45593999997E+02  0.45594000000E+02  0.51100000000E-03 0. -1.
         11   -1    0    0    0    0 -0.00000000000E+00 -0.00000000000E+00 -0.45593999997E+02  0.45594000000E+02  0.51100000000E-03 0.  1.
    9900012    2    1    2    0    0 -0.15764779044E+01 -0.26469287554E+02  0.17709077307E+02  0.59301954694E+02  0.50000019452E+02 0.  0.
        -12    1    1    2    0    0  0.15764779044E+01  0.26469287554E+02 -0.17709077307E+02  0.31886045306E+02  0.00000000000E+00 0.  1.
         11    1    3    3    0    0  0.76644690911E+01 -0.33962463363E+01  0.24931689358E+02  0.26303378303E+02  0.51100000000E-03 0. -1.
        -11    1    3    3    0    0 -0.32060820132E+01  0.65762098311E+00 -0.78495890988E+01  0.85045562209E+01  0.51100000000E-03 0.  1.
        -12    1    3    3    0    0 -0.60348649822E+01 -0.23730662201E+02  0.62697704732E+00  0.24494020170E+02  0.00000000000E+00 0.  1.
</event>
<event>
 7    1  0.1215217E-011  0.5930196E+02  0.7816164E-02  0.1266605E+00
        -11   -1    0    0    0    0  0.00000000000E+00  0.00000000000E+00  0.45593999997E+02  0.45594000000E+02  0.51100000000E-03 0.  1.
         11   -1    0    0    0    0 -0.00000000000E+00 -0.00000000000E+00 -0.45593999997E+02  0.45594000000E+02  0.51100000000E-03 0. -1.
    9900012    2    1    2    0    0  0.10963947368E+02 -0.22629711703E+02 -0.19606316994E+02  0.59301958230E+02  0.50000025902E+02 0.  0.
        -12    1    1    2    0    0 -0.10963947368E+02  0.22629711703E+02  0.19606316994E+02  0.31886041770E+02  0.00000000000E+00 0.  1.
         11    1    3    3    0    0  0.11287830116E+02 -0.12554691143E+02 -0.42486922562E+01  0.17409387255E+02  0.51100000000E-03 0. -1.
        -11    1    3    3    0    0  0.58458073130E+01 -0.79553494368E+01  0.10976202155E+02  0.14762725419E+02  0.51100000000E-03 0.  1.
         12    1    3    3    0    0 -0.61696900607E+01 -0.21196711232E+01 -0.26333826892E+02  0.27129845556E+02  0.00000000000E+00 0. -1.
</event>
<event>
 7    1  0.1215217E-011  0.5930194E+02  0.7816164E-02  0.1266605E+00
        -11   -1    0    0    0    0  0.00000000000E+00  0.00000000000E+00  0.45593999997E+02  0.45594000000E+02  0.51100000000E-03 0. -1.
         11   -1    0    0    0    0 -0.00000000000E+00 -0.00000000000E+00 -0.45593999997E+02  0.45594000000E+02  0.51100000000E-03 0.  1.
    9900012    2    1    2    0    0  0.23855025511E+02 -0.12266244568E+02 -0.17239428781E+02  0.59301938741E+02  0.49999990358E+02 0.  0.
        -12    1    1    2    0    0 -0.23855025511E+02  0.12266244568E+02  0.17239428781E+02  0.31886061259E+02  0.00000000000E+00 0.  1.
         11    1    3    3    0    0  0.11879304572E+02  0.38389208148E+01  0.14715309208E+02  0.19297552059E+02  0.51100000000E-03 0. -1.
        -11    1    3    3    0    0  0.40420911684E+01 -0.10848773222E+01 -0.44656469681E+00  0.42089048585E+01  0.51100000000E-03 0.  1.
        -12    1    3    3    0    0  0.79336297706E+01 -0.15020288061E+02 -0.31508173292E+02  0.35795481823E+02  0.00000000000E+00 0.  1.
</event>
<event>
 7    1  0.1215217E-011  0.5930194E+02  0.7816164E-02  0.1266605E+00
        -11   -1    0    0    0    0  0.00000000000E+00  0.00000000000E+00  0.45593999997E+02  0.45594000000E+02  0.51100000000E-03 0.  1.
         11   -1    0    0    0    0 -0.00000000000E+00 -0.00000000000E+00 -0.45593999997E+02  0.45594000000E+02  0.51100000000E-03 0. -1.
    9900012    2    1    2    0    0 -0.26839001016E+02 -0.15551312620E+02 -0.73855074558E+01  0.59301936899E+02  0.49999986998E+02 0.  0.
        -12    1    1    2    0    0  0.26839001016E+02  0.15551312620E+02  0.73855074558E+01  0.31886063101E+02  0.00000000000E+00 0.  1.
         11    1    3    3    0    0 -0.75883851941E+01  0.81218395620E+01 -0.61648650273E+01  0.12710366981E+02  0.51100000000E-03 0. -1.
        -11    1    3    3    0    0  0.49145253955E+01  0.63359926319E+01 -0.81844693811E+00  0.80602244476E+01  0.51100000000E-03 0.  1.
        -12    1    3    3    0    0 -0.24165141217E+02 -0.30009144814E+02 -0.40219549038E+00  0.38531345470E+02  0.00000000000E+00 0.  1.
</event>
<event>
 7    1  0.1215217E-011  0.5930193E+02  0.7816164E-02  0.1266605E+00
        -11   -1    0    0    0    0  0.00000000000E+00  0.00000000000E+00  0.45593999997E+02  0.45594000000E+02  0.51100000000E-03 0.  1.
         11   -1    0    0    0    0 -0.00000000000E+00 -0.00000000000E+00 -0.45593999997E+02  0.45594000000E+02  0.51100000000E-03 0. -1.
    9900012    2    1    2    0    0  0.57497674015E+00  0.18562470934E+02 -0.25919597734E+02  0.59301929811E+02  0.49999974071E+02 0.  0.
        -12    1    1    2    0    0 -0.57497674015E+00 -0.18562470934E+02  0.25919597734E+02  0.31886070189E+02  0.00000000000E+00 0.  1.
         11    1    3    3    0    0 -0.48733117628E+00  0.20077654862E+02  0.82920230535E+01  0.21728031733E+02  0.51100000000E-03 0.  1.
        -11    1    3    3    0    0  0.37346197339E+01  0.62217496087E+01 -0.14030870829E+02  0.15796293529E+02  0.51100000000E-03 0. -1.
        -12    1    3    3    0    0 -0.26723118175E+01 -0.77369335368E+01 -0.20180749958E+02  0.21777604549E+02  0.00000000000E+00 0.  1.
</event>
<event>
 7    1  0.1215217E-011  0.5930194E+02  0.7816164E-02  0.1266605E+00
        -11   -1    0    0    0    0  0.00000000000E+00  0.00000000000E+00  0.45593999997E+02  0.45594000000E+02  0.51100000000E-03 0. -1.
         11   -1    0    0    0    0 -0.00000000000E+00 -0.00000000000E+00 -0.45593999997E+02  0.45594000000E+02  0.51100000000E-03 0.  1.
    9900012    2    1    2    0    0  0.47250304466E+01 -0.91999181704E+00  0.31520600323E+02  0.59301944389E+02  0.50000000659E+02 0.  0.
        -12    1    1    2    0    0 -0.47250304466E+01  0.91999181704E+00 -0.31520600323E+02  0.31886055611E+02  0.00000000000E+00 0.  1.
         11    1    3    3    0    0  0.19438201393E+01 -0.54834790919E+01 -0.11112793405E+01  0.59229993854E+01  0.51100000000E-03 0. -1.
        -11    1    3    3    0    0  0.15868175969E+02  0.17416421423E+02  0.14967738215E+02  0.27913508043E+02  0.51100000000E-03 0.  1.
         12    1    3    3    0    0 -0.13086965661E+02 -0.12852934148E+02  0.17664141449E+02  0.25465436960E+02  0.00000000000E+00 0. -1.
</event>
<event>
 7    1  0.1317393E-011  0.5930194E+02  0.7816164E-02  0.1266605E+00
        -11   -1    0    0    0    0  0.00000000000E+00  0.00000000000E+00  0.45593999997E+02  0.45594000000E+02  0.51100000000E-03 0.  1.
         11   -1    0    0    0    0 -0.00000000000E+00 -0.00000000000E+00 -0.45593999997E+02  0.45594000000E+02  0.51100000000E-03 0. -1.
    9900012    2    1    2    0    0 -0.82504427669E+01  0.29336415939E+02 -0.93822056634E+01  0.59301938953E+02  0.49999990745E+02 0.  0.
        -12    1    1    2    0    0  0.82504427669E+01 -0.29336415939E+02  0.93822056634E+01  0.31886061047E+02  0.00000000000E+00 0.  1.
         11    1    3    3    0    0 -0.17357195326E+02  0.23232630476E+02 -0.15363494845E+02  0.32818658147E+02  0.51100000000E-03 0. -1.
        -11    1    3    3    0    0  0.41126578570E+01 -0.25811084034E+01 -0.79549581346E+01  0.93197336026E+01  0.51100000000E-03 0.  1.
        -12    1    3    3    0    0  0.49940947020E+01  0.86848938656E+01  0.13936247316E+02  0.17163547204E+02  0.00000000000E+00 0.  1.
</event>
<event>
 7    1  0.1215217E-011  0.5930195E+02  0.7816164E-02  0.1266605E+00
        -11   -1    0    0    0    0  0.00000000000E+00  0.00000000000E+00  0.45593999997E+02  0.45594000000E+02  0.51100000000E-03 0.  1.
         11   -1    0    0    0    0 -0.00000000000E+00 -0.00000000000E+00 -0.45593999997E+02  0.45594000000E+02  0.51100000000E-03 0. -1.
    9900012    2    1    2    0    0 -0.16877149957E+02  0.88403223533E+01 -0.25568163262E+02  0.59301945641E+02  0.50000002943E+02 0.  0.
        -12    1    1    2    0    0  0.16877149957E+02 -0.88403223533E+01  0.25568163262E+02  0.31886054359E+02  0.00000000000E+00 0.  1.
         11    1    3    3    0    0  0.30344776700E+01  0.10322343689E+02 -0.18435272133E+02  0.21345212410E+02  0.51100000000E-03 0. -1.
        -11    1    3    3    0    0 -0.25833445623E+01 -0.78740590163E+01 -0.15580202353E+02  0.17647016183E+02  0.51100000000E-03 0.  1.
        -12    1    3    3    0    0 -0.17328283064E+02  0.63920376804E+01  0.84473112241E+01  0.20309717048E+02  0.00000000000E+00 0.  1.
</event>
<event>
 7    1  0.1215217E-011  0.5930195E+02  0.7816164E-02  0.1266605E+00
        -11   -1    0    0    0    0  0.00000000000E+00  0.00000000000E+00  0.45593999997E+02  0.45594000000E+02  0.51100000000E-03 0.  1.
         11   -1    0    0    0    0 -0.00000000000E+00 -0.00000000000E+00 -0.45593999997E+02  0.45594000000E+02  0.51100000000E-03 0. -1.
    9900012    2    1    2    0    0 -0.25961213884E+02 -0.16379699454E+02 -0.86279269906E+01  0.59301948116E+02  0.50000007457E+02 0.  0.
        -12    1    1    2    0    0  0.25961213884E+02  0.16379699454E+02  0.86279269906E+01  0.31886051884E+02  0.00000000000E+00 0.  1.
         11    1    3    3    0    0 -0.29453867524E+02 -0.10459746375E+02  0.53307622337E+01  0.31707311973E+02  0.51100000000E-03 0. -1.
        -11    1    3    3    0    0 -0.23952372266E+01 -0.61348504756E+01  0.46588107871E+01  0.80670979876E+01  0.51100000000E-03 0.  1.
        -12    1    3    3    0    0  0.58878908657E+01  0.21489739571E+00 -0.18617500011E+02  0.19527538155E+02  0.00000000000E+00 0.  1.
</event>
<event>
 7    1  0.1215217E-011  0.5930196E+02  0.7816164E-02  0.1266605E+00
        -11   -1    0    0    0    0  0.00000000000E+00  0.00000000000E+00  0.45593999997E+02  0.45594000000E+02  0.51100000000E-03 0.  1.
         11   -1    0    0    0    0 -0.00000000000E+00 -0.00000000000E+00 -0.45593999997E+02  0.45594000000E+02  0.51100000000E-03 0. -1.
    9900012    2    1    2    0    0 -0.30291556808E+02  0.92942582298E+01  0.35718274843E+01  0.59301959144E+02  0.50000027568E+02 0.  0.
        -12    1    1    2    0    0  0.30291556808E+02 -0.92942582298E+01 -0.35718274843E+01  0.31886040856E+02  0.00000000000E+00 0.  1.
         11    1    3    3    0    0  0.20364679157E+01  0.18785325651E+02  0.11155892925E+02  0.21942871476E+02  0.51100000000E-03 0.  1.
        -11    1    3    3    0    0 -0.16139948199E+02  0.26273345590E+01 -0.37616848072E+01  0.16779484128E+02  0.51100000000E-03 0. -1.
        -12    1    3    3    0    0 -0.16188076525E+02 -0.12118401981E+02 -0.38223806335E+01  0.20579603540E+02  0.00000000000E+00 0.  1.
</event>
<event>
 7    1  0.1215217E-011  0.5930195E+02  0.7816164E-02  0.1266605E+00
        -11   -1    0    0    0    0  0.00000000000E+00  0.00000000000E+00  0.45593999997E+02  0.45594000000E+02  0.51100000000E-03 0.  1.
         11   -1    0    0    0    0 -0.00000000000E+00 -0.00000000000E+00 -0.45593999997E+02  0.45594000000E+02  0.51100000000E-03 0. -1.
    9900012    2    1    2    0    0 -0.53467915611E+01  0.27880017717E+01 -0.31310690948E+02  0.59301945030E+02  0.50000001828E+02 0.  0.
        -12    1    1    2    0    0  0.53467915611E+01 -0.27880017717E+01  0.31310690948E+02  0.31886054970E+02  0.00000000000E+00 0.  1.
         11    1    3    3    0    0 -0.67577912007E+01  0.16451540113E+01 -0.61195886529E+01  0.92641048771E+01  0.51100000000E-03 0. -1.
        -11    1    3    3    0    0 -0.18405213420E+02 -0.83646983542E+01 -0.66487227207E+01  0.21282048155E+02  0.51100000000E-03 0.  1.
         12    1    3    3    0    0  0.19816213060E+02  0.95075461146E+01 -0.18542379575E+02  0.28755791998E+02  0.00000000000E+00 0. -1.
</event>
<event>
 7    1  0.1215217E-011  0.5930188E+02  0.7816164E-02  0.1266605E+00
        -11   -1    0    0    0    0  0.00000000000E+00  0.00000000000E+00  0.45593999997E+02  0.45594000000E+02  0.51100000000E-03 0.  1.
         11   -1    0    0    0    0 -0.00000000000E+00 -0.00000000000E+00 -0.45593999997E+02  0.45594000000E+02  0.51100000000E-03 0. -1.
    9900012    2    1    2    0    0  0.18222958852E+02  0.16090593823E+02 -0.20633498805E+02  0.59301879010E+02  0.49999881422E+02 0.  0.
        -12    1    1    2    0    0 -0.18222958852E+02 -0.16090593823E+02  0.20633498805E+02  0.31886120990E+02  0.00000000000E+00 0.  1.
         11    1    3    3    0    0  0.10958844409E+01 -0.81210515123E+01 -0.19946387212E+02  0.21564109150E+02  0.51100000000E-03 0. -1.
        -11    1    3    3    0    0  0.18422724284E+01 -0.29695029223E+01  0.49390826667E+01  0.60503266983E+01  0.51100000000E-03 0.  1.
        -12    1    3    3    0    0  0.15284801983E+02  0.27181148257E+02 -0.56261942594E+01  0.31687443161E+02  0.00000000000E+00 0.  1.
</event>
<event>
 7    1  0.1215217E-011  0.5930196E+02  0.7816164E-02  0.1266605E+00
        -11   -1    0    0    0    0  0.00000000000E+00  0.00000000000E+00  0.45593999997E+02  0.45594000000E+02  0.51100000000E-03 0.  1.
         11   -1    0    0    0    0 -0.00000000000E+00 -0.00000000000E+00 -0.45593999997E+02  0.45594000000E+02  0.51100000000E-03 0. -1.
    9900012    2    1    2    0    0 -0.20256815119E+01  0.18919351173E+02 -0.25586609001E+02  0.59301956116E+02  0.50000022046E+02 0.  0.
        -12    1    1    2    0    0  0.20256815119E+01 -0.18919351173E+02  0.25586609001E+02  0.31886043884E+02  0.00000000000E+00 0.  1.
         11    1    3    3    0    0  0.80322821254E+01  0.15425148497E+02 -0.10022548269E+02  0.20072474595E+02  0.51100000000E-03 0. -1.
        -11    1    3    3    0    0  0.11757184898E+02  0.60867788898E+01 -0.99311177076E+01  0.16550147225E+02  0.51100000000E-03 0.  1.
         12    1    3    3    0    0 -0.21815148535E+02 -0.25925762136E+01 -0.56329430243E+01  0.22679334297E+02  0.00000000000E+00 0. -1.
</event>
<event>
 7    1  0.1215217E-011  0.5930193E+02  0.7816164E-02  0.1266605E+00
        -11   -1    0    0    0    0  0.00000000000E+00  0.00000000000E+00  0.45593999997E+02  0.45594000000E+02  0.51100000000E-03 0. -1.
         11   -1    0    0    0    0 -0.00000000000E+00 -0.00000000000E+00 -0.45593999997E+02  0.45594000000E+02  0.51100000000E-03 0.  1.
    9900012    2    1    2    0    0 -0.27324291706E+02 -0.11288372509E+02  0.11944758741E+02  0.59301928864E+02  0.49999972345E+02 0.  0.
        -12    1    1    2    0    0  0.27324291706E+02  0.11288372509E+02 -0.11944758741E+02  0.31886071136E+02  0.00000000000E+00 0.  1.
         11    1    3    3    0    0  0.14656840020E+00 -0.10965786489E+02  0.30464109310E+00  0.10970996403E+02  0.51100000000E-03 0. -1.
        -11    1    3    3    0    0  0.84996936233E+01 -0.36652318819E+01  0.76068711955E+01  0.11980951802E+02  0.51100000000E-03 0.  1.
         12    1    3    3    0    0 -0.35970553729E+02  0.33426458620E+01  0.40332464520E+01  0.36349980659E+02  0.00000000000E+00 0. -1.
</event>
<event>
 7    1  0.1215217E-011  0.5930199E+02  0.7816164E-02  0.1266605E+00
        -11   -1    0    0    0    0  0.00000000000E+00  0.00000000000E+00  0.45593999997E+02  0.45594000000E+02  0.51100000000E-03 0.  1.
         11   -1    0    0    0    0 -0.00000000000E+00 -0.00000000000E+00 -0.45593999997E+02  0.45594000000E+02  0.51100000000E-03 0. -1.
    9900012    2    1    2    0    0 -0.21151977763E+02  0.97492504611E+01 -0.21777600111E+02  0.59301985599E+02  0.50000075815E+02 0.  0.
        -12    1    1    2    0    0  0.21151977763E+02 -0.97492504611E+01  0.21777600111E+02  0.31886014401E+02  0.00000000000E+00 0.  1.
         11    1    3    3    0    0 -0.17608215202E+02  0.14191572576E+02  0.16563303316E+00  0.22615866319E+02  0.51100000000E-03 0. -1.
        -11    1    3    3    0    0  0.40806228678E+01  0.29065095082E+01  0.53987216720E+01  0.73651528473E+01  0.51100000000E-03 0.  1.
         12    1    3    3    0    0 -0.76243854288E+01 -0.73488316234E+01 -0.27341954816E+02  0.29320966433E+02  0.00000000000E+00 0. -1.
</event>
<event>
 7    1  0.1215217E-011  0.5930195E+02  0.7816164E-02  0.1266605E+00
        -11   -1    0    0    0    0  0.00000000000E+00  0.00000000000E+00  0.45593999997E+02  0.45594000000E+02  0.51100000000E-03 0.  1.
         11   -1    0    0    0    0 -0.00000000000E+00 -0.00000000000E+00 -0.45593999997E+02  0.45594000000E+02  0.51100000000E-03 0. -1.
    9900012    2    1    2    0    0 -0.17977641214E+02 -0.21171418021E+02 -0.15661921772E+02  0.59301947905E+02  0.50000007071E+02 0.  0.
        -12    1    1    2    0    0  0.17977641214E+02  0.21171418021E+02  0.15661921772E+02  0.31886052095E+02  0.00000000000E+00 0.  1.
         11    1    3    3    0    0 -0.11192306665E+02 -0.16041850350E+02 -0.16483384152E+02  0.25579496565E+02  0.51100000000E-03 0. -1.
        -11    1    3    3    0    0  0.12282966101E+02  0.13160463127E+01  0.47124293272E+01  0.13221581772E+02  0.51100000000E-03 0.  1.
         12    1    3    3    0    0 -0.19068300649E+02 -0.64456139839E+01 -0.38909669469E+01  0.20500869568E+02  0.00000000000E+00 0. -1.
</event>
<event>
 7    1  0.1215217E-011  0.5930195E+02  0.7816164E-02  0.1266605E+00
        -11   -1    0    0    0    0  0.00000000000E+00  0.00000000000E+00  0.45593999997E+02  0.45594000000E+02  0.51100000000E-03 0. -1.
         11   -1    0    0    0    0 -0.00000000000E+00 -0.00000000000E+00 -0.45593999997E+02  0.45594000000E+02  0.51100000000E-03 0.  1.
    9900012    2    1    2    0    0 -0.25131175641E+01  0.28820931892E+01  0.31655935145E+02  0.59301945824E+02  0.50000003276E+02 0.  0.
        -12    1    1    2    0    0  0.25131175641E+01 -0.28820931892E+01 -0.31655935145E+02  0.31886054176E+02  0.00000000000E+00 0.  1.
         11    1    3    3    0    0 -0.19963966448E+01  0.74485449041E+01  0.12211576614E+01  0.78075378351E+01  0.51100000000E-03 0. -1.
        -11    1    3    3    0    0  0.69775319443E+01  0.15051566233E+02  0.28627688833E+01  0.16835410421E+02  0.51100000000E-03 0.  1.
        -12    1    3    3    0    0 -0.74942528635E+01 -0.19618017948E+02  0.27572008600E+02  0.34658997568E+02  0.00000000000E+00 0.  1.
</event>
<event>
 7    1  0.1215217E-011  0.5930193E+02  0.7816164E-02  0.1266605E+00
        -11   -1    0    0    0    0  0.00000000000E+00  0.00000000000E+00  0.45593999997E+02  0.45594000000E+02  0.51100000000E-03 0. -1.
         11   -1    0    0    0    0 -0.00000000000E+00 -0.00000000000E+00 -0.45593999997E+02  0.45594000000E+02  0.51100000000E-03 0.  1.
    9900012    2    1    2    0    0  0.97144118252E+01  0.14322531380E+02  0.26780908586E+02  0.59301925188E+02  0.49999965641E+02 0.  0.
        -12    1    1    2    0    0 -0.97144118252E+01 -0.14322531380E+02 -0.26780908586E+02  0.31886074812E+02  0.00000000000E+00 0.  1.
         11    1    3    3    0    0  0.19651217360E+02  0.16281427580E+02  0.21482101145E+02  0.33357696228E+02  0.51100000000E-03 0. -1.
        -11    1    3    3    0    0  0.14835415825E+01  0.31720869486E+01 -0.73533113208E+01  0.81445821794E+01  0.51100000000E-03 0.  1.
         12    1    3    3    0    0 -0.11420347118E+02 -0.51309831481E+01  0.12652118762E+02  0.17799646781E+02  0.00000000000E+00 0. -1.
</event>
<event>
 7    1  0.1215217E-011  0.5930193E+02  0.7816164E-02  0.1266605E+00
        -11   -1    0    0    0    0  0.00000000000E+00  0.00000000000E+00  0.45593999997E+02  0.45594000000E+02  0.51100000000E-03 0.  1.
         11   -1    0    0    0    0 -0.00000000000E+00 -0.00000000000E+00 -0.45593999997E+02  0.45594000000E+02  0.51100000000E-03 0. -1.
    9900012    2    1    2    0    0 -0.22474634402E+02 -0.19155632571E+02 -0.12028042840E+02  0.59301933055E+02  0.49999979988E+02 0.  0.
        -12    1    1    2    0    0  0.22474634402E+02  0.19155632571E+02  0.12028042840E+02  0.31886066945E+02  0.00000000000E+00 0.  1.
         11    1    3    3    0    0  0.11621277277E+02  0.58218212790E+01 -0.34825002732E+01  0.13456429577E+02  0.51100000000E-03 0. -1.
        -11    1    3    3    0    0 -0.36248372085E+01 -0.12291192408E+01 -0.60158638316E+01  0.71302732625E+01  0.51100000000E-03 0.  1.
        -12    1    3    3    0    0 -0.30471074470E+02 -0.23748334609E+02 -0.25296787353E+01  0.38715230215E+02  0.00000000000E+00 0.  1.
</event>
<event>
 7    1  0.1215217E-011  0.5930196E+02  0.7816164E-02  0.1266605E+00
        -11   -1    0    0    0    0  0.00000000000E+00  0.00000000000E+00  0.45593999997E+02  0.45594000000E+02  0.51100000000E-03 0.  1.
         11   -1    0    0    0    0 -0.00000000000E+00 -0.00000000000E+00 -0.45593999997E+02  0.45594000000E+02  0.51100000000E-03 0. -1.
    9900012    2    1    2    0    0 -0.12903082291E+02 -0.17629775467E+02 -0.23225439183E+02  0.59301960095E+02  0.50000029302E+02 0.  0.
        -12    1    1    2    0    0  0.12903082291E+02  0.17629775467E+02  0.23225439183E+02  0.31886039905E+02  0.00000000000E+00 0.  1.
         11    1    3    3    0    0 -0.15775352796E+02 -0.10566919831E+02 -0.16391074493E+02  0.25083637572E+02  0.51100000000E-03 0. -1.
        -11    1    3    3    0    0 -0.17253213628E+01 -0.19820017440E+02 -0.29491344876E+01  0.20112364844E+02  0.51100000000E-03 0.  1.
         12    1    3    3    0    0  0.45975918682E+01  0.12757161804E+02 -0.38852302023E+01  0.14105957678E+02  0.00000000000E+00 0. -1.
</event>
<event>
 7    1  0.1215217E-011  0.5930195E+02  0.7816164E-02  0.1266605E+00
        -11   -1    0    0    0    0  0.00000000000E+00  0.00000000000E+00  0.45593999997E+02  0.45594000000E+02  0.51100000000E-03 0. -1.
         11   -1    0    0    0    0 -0.00000000000E+00 -0.00000000000E+00 -0.45593999997E+02  0.45594000000E+02  0.51100000000E-03 0.  1.
    9900012    2    1    2    0    0 -0.53692552880E+01 -0.18217155360E+02  0.25613016821E+02  0.59301948466E+02  0.50000008094E+02 0.  0.
        -12    1    1    2    0    0  0.53692552880E+01  0.18217155360E+02 -0.25613016821E+02  0.31886051534E+02  0.00000000000E+00 0.  1.
         11    1    3    3    0    0 -0.13155987401E+02  0.37483293378E+01  0.20462448119E+02  0.24613853022E+02  0.51100000000E-03 0. -1.
        -11    1    3    3    0    0 -0.58413956939E+01 -0.18786904895E+02 -0.28356920484E+00  0.19676130487E+02  0.51100000000E-03 0.  1.
         12    1    3    3    0    0  0.13628127807E+02 -0.31785798026E+01  0.54341379074E+01  0.15011964957E+02  0.00000000000E+00 0. -1.
</event>
<event>
 7    1  0.1215217E-011  0.5930200E+02  0.7816164E-02  0.1266605E+00
        -11   -1    0    0    0    0  0.00000000000E+00  0.00000000000E+00  0.45593999997E+02  0.45594000000E+02  0.51100000000E-03 0. -1.
         11   -1    0    0    0    0 -0.00000000000E+00 -0.00000000000E+00 -0.45593999997E+02  0.45594000000E+02  0.51100000000E-03 0.  1.
    9900012    2    1    2    0    0  0.20319183290E+00  0.17334392609E+02  0.26761815208E+02  0.59301996687E+02  0.50000096038E+02 0.  0.
        -12    1    1    2    0    0 -0.20319183290E+00 -0.17334392609E+02 -0.26761815208E+02  0.31886003313E+02  0.00000000000E+00 0.  1.
         11    1    3    3    0    0 -0.11548025422E+02  0.10906861290E+02 -0.14250257416E+01  0.15948266770E+02  0.51100000000E-03 0.  1.
        -11    1    3    3    0    0  0.47949547487E+01  0.10118676255E+02 -0.26672135040E+01  0.11510570287E+02  0.51100000000E-03 0. -1.
         12    1    3    3    0    0  0.69562625064E+01 -0.36911449361E+01  0.30854054454E+02  0.31843159630E+02  0.00000000000E+00 0. -1.
</event>
<event>
 7    1  0.1215217E-011  0.5930197E+02  0.7816164E-02  0.1266605E+00
        -11   -1    0    0    0    0  0.00000000000E+00  0.00000000000E+00  0.45593999997E+02  0.45594000000E+02  0.51100000000E-03 0.  1.
         11   -1    0    0    0    0 -0.00000000000E+00 -0.00000000000E+00 -0.45593999997E+02  0.45594000000E+02  0.51100000000E-03 0. -1.
    9900012    2    1    2    0    0  0.26152570915E+02  0.34570766544E+01  0.17911191783E+02  0.59301966450E+02  0.50000040893E+02 0.  0.
        -12    1    1    2    0    0 -0.26152570915E+02 -0.34570766544E+01 -0.17911191783E+02  0.31886033550E+02  0.00000000000E+00 0.  1.
         11    1    3    3    0    0  0.16160579916E+02 -0.10142782829E+02 -0.49989394995E+01  0.19723837940E+02  0.51100000000E-03 0. -1.
        -11    1    3    3    0    0  0.36634638217E+00 -0.48980488891E+01 -0.34242791501E+01  0.59875521334E+01  0.51100000000E-03 0.  1.
        -12    1    3    3    0    0  0.96256446172E+01  0.18497908372E+02  0.26334410433E+02  0.33590576376E+02  0.00000000000E+00 0.  1.
</event>
<event>
 7    1  0.1215217E-011  0.5930200E+02  0.7816164E-02  0.1266605E+00
        -11   -1    0    0    0    0  0.00000000000E+00  0.00000000000E+00  0.45593999997E+02  0.45594000000E+02  0.51100000000E-03 0. -1.
         11   -1    0    0    0    0 -0.00000000000E+00 -0.00000000000E+00 -0.45593999997E+02  0.45594000000E+02  0.51100000000E-03 0.  1.
    9900012    2    1    2    0    0 -0.30234830863E+02 -0.77337253963E+00  0.10098227834E+02  0.59301995111E+02  0.50000093163E+02 0.  0.
        -12    1    1    2    0    0  0.30234830863E+02  0.77337253963E+00 -0.10098227834E+02  0.31886004889E+02  0.00000000000E+00 0.  1.
         11    1    3    3    0    0  0.37359407610E+01 -0.27894885571E+01 -0.45305430071E+01  0.65011014436E+01  0.51100000000E-03 0. -1.
        -11    1    3    3    0    0 -0.98234719496E+01  0.15819606476E+02 -0.43572995157E+01  0.19124502857E+02  0.51100000000E-03 0.  1.
         12    1    3    3    0    0 -0.24147299674E+02 -0.13803490459E+02  0.18986070357E+02  0.33676390810E+02  0.00000000000E+00 0. -1.
</event>
<event>
 7    1  0.1215217E-011  0.5930174E+02  0.7816164E-02  0.1266605E+00
        -11   -1    0    0    0    0  0.00000000000E+00  0.00000000000E+00  0.45593999997E+02  0.45594000000E+02  0.51100000000E-03 0.  1.
         11   -1    0    0    0    0 -0.00000000000E+00 -0.00000000000E+00 -0.45593999997E+02  0.45594000000E+02  0.51100000000E-03 0. -1.
    9900012    2    1    2    0    0  0.29697248939E+02 -0.10471839684E+02 -0.50147518499E+01  0.59301737174E+02  0.49999622747E+02 0.  0.
        -12    1    1    2    0    0 -0.29697248939E+02  0.10471839684E+02  0.50147518499E+01  0.31886262826E+02  0.00000000000E+00 0.  1.
         11    1    3    3    0    0 -0.53304522816E+01  0.26272741095E+01 -0.41984378043E+01  0.72762058129E+01  0.51100000000E-03 0. -1.
        -11    1    3    3    0    0  0.15006456591E+02 -0.20825316794E+02  0.10536695394E+02  0.27747243270E+02  0.51100000000E-03 0.  1.
         12    1    3    3    0    0  0.20021244629E+02  0.77262030006E+01 -0.11353009440E+02  0.24278288091E+02  0.00000000000E+00 0. -1.
</event>
<event>
 7    1  0.1215217E-011  0.5930194E+02  0.7816164E-02  0.1266605E+00
        -11   -1    0    0    0    0  0.00000000000E+00  0.00000000000E+00  0.45593999997E+02  0.45594000000E+02  0.51100000000E-03 0.  1.
         11   -1    0    0    0    0 -0.00000000000E+00 -0.00000000000E+00 -0.45593999997E+02  0.45594000000E+02  0.51100000000E-03 0. -1.
    9900012    2    1    2    0    0  0.17516583731E+02 -0.26369747549E+02 -0.38113311964E+01  0.59301944476E+02  0.50000000817E+02 0.  0.
        -12    1    1    2    0    0 -0.17516583731E+02  0.26369747549E+02  0.38113311964E+01  0.31886055524E+02  0.00000000000E+00 0.  1.
         11    1    3    3    0    0 -0.89827619787E-01 -0.46850530771E+00  0.65609852882E+01  0.65783048301E+01  0.51100000000E-03 0.  1.
        -11    1    3    3    0    0 -0.72961673290E+01  0.49588279044E+01 -0.96331399508E+01  0.13062213344E+02  0.51100000000E-03 0. -1.
         12    1    3    3    0    0  0.24902578680E+02 -0.30860070145E+02 -0.73917653379E+00  0.39661426301E+02  0.00000000000E+00 0. -1.
</event>
<event>
 7    1  0.1215217E-011  0.5930197E+02  0.7816164E-02  0.1266605E+00
        -11   -1    0    0    0    0  0.00000000000E+00  0.00000000000E+00  0.45593999997E+02  0.45594000000E+02  0.51100000000E-03 0.  1.
         11   -1    0    0    0    0 -0.00000000000E+00 -0.00000000000E+00 -0.45593999997E+02  0.45594000000E+02  0.51100000000E-03 0. -1.
    9900012    2    1    2    0    0  0.20359441650E+02 -0.62992004937E+01 -0.23717765443E+02  0.59301965615E+02  0.50000039371E+02 0.  0.
        -12    1    1    2    0    0 -0.20359441650E+02  0.62992004937E+01  0.23717765443E+02  0.31886034385E+02  0.00000000000E+00 0.  1.
         11    1    3    3    0    0 -0.61561725101E+01 -0.91319588939E+01 -0.18504818430E+02  0.21534145876E+02  0.51100000000E-03 0. -1.
        -11    1    3    3    0    0 -0.19520336428E+01  0.35967826009E+01  0.59152461348E+01  0.71928726887E+01  0.51100000000E-03 0.  1.
         12    1    3    3    0    0  0.28467647803E+02 -0.76402420062E+00 -0.11128193147E+02  0.30574947051E+02  0.00000000000E+00 0. -1.
</event>
<event>
 7    1  0.1215217E-011  0.5930195E+02  0.7816164E-02  0.1266605E+00
        -11   -1    0    0    0    0  0.00000000000E+00  0.00000000000E+00  0.45593999997E+02  0.45594000000E+02  0.51100000000E-03 0.  1.
         11   -1    0    0    0    0 -0.00000000000E+00 -0.00000000000E+00 -0.45593999997E+02  0.45594000000E+02  0.51100000000E-03 0. -1.
    9900012    2    1    2    0    0  0.14977762885E+02  0.13610559940E+01 -0.28116447377E+02  0.59301945563E+02  0.50000002800E+02 0.  0.
        -12    1    1    2    0    0 -0.14977762885E+02 -0.13610559940E+01  0.28116447377E+02  0.31886054437E+02  0.00000000000E+00 0.  1.
         11    1    3    3    0    0 -0.10742736178E+02 -0.61384263859E+01 -0.18418643885E+02  0.22188580439E+02  0.51100000000E-03 0. -1.
        -11    1    3    3    0    0  0.74601128741E+01  0.14465735859E+02 -0.46755473972E+01  0.16934330272E+02  0.51100000000E-03 0.  1.
        -12    1    3    3    0    0  0.18260386189E+02 -0.69662534786E+01 -0.50222560946E+01  0.20179034852E+02  0.00000000000E+00 0.  1.
</event>
<event>
 7    1  0.1215217E-011  0.5930193E+02  0.7816164E-02  0.1266605E+00
        -11   -1    0    0    0    0  0.00000000000E+00  0.00000000000E+00  0.45593999997E+02  0.45594000000E+02  0.51100000000E-03 0.  1.
         11   -1    0    0    0    0 -0.00000000000E+00 -0.00000000000E+00 -0.45593999997E+02  0.45594000000E+02  0.51100000000E-03 0. -1.
    9900012    2    1    2    0    0 -0.47616766804E+01 -0.20624143871E+02 -0.23847269665E+02  0.59301934930E+02  0.49999983407E+02 0.  0.
        -12    1    1    2    0    0  0.47616766804E+01  0.20624143871E+02  0.23847269665E+02  0.31886065070E+02  0.00000000000E+00 0.  1.
         11    1    3    3    0    0 -0.85670176988E+01 -0.69671734275E+01 -0.26066934310E+02  0.28309368810E+02  0.51100000000E-03 0. -1.
        -11    1    3    3    0    0 -0.15734807068E+01 -0.16120861876E+02 -0.88379069695E+01  0.18451737832E+02  0.51100000000E-03 0.  1.
        -12    1    3    3    0    0  0.53788217252E+01  0.24638914323E+01  0.11057571615E+02  0.12540828288E+02  0.00000000000E+00 0.  1.
</event>
<event>
 7    1  0.1215217E-011  0.5930199E+02  0.7816164E-02  0.1266605E+00
        -11   -1    0    0    0    0  0.00000000000E+00  0.00000000000E+00  0.45593999997E+02  0.45594000000E+02  0.51100000000E-03 0. -1.
         11   -1    0    0    0    0 -0.00000000000E+00 -0.00000000000E+00 -0.45593999997E+02  0.45594000000E+02  0.51100000000E-03 0.  1.
    9900012    2    1    2    0    0 -0.76022846066E+01  0.26388878152E+02  0.16203402015E+02  0.59301986480E+02  0.50000077423E+02 0.  0.
        -12    1    1    2    0    0  0.76022846066E+01 -0.26388878152E+02 -0.16203402015E+02  0.31886013520E+02  0.00000000000E+00 0.  1.
         11    1    3    3    0    0 -0.36140764289E+01  0.55704959307E+01  0.13973370746E+02  0.15470845601E+02  0.51100000000E-03 0. -1.
        -11    1    3    3    0    0 -0.12827287934E+02 -0.38530908809E+01  0.97500235116E+01  0.16566489785E+02  0.51100000000E-03 0.  1.
         12    1    3    3    0    0  0.88390797559E+01  0.24671473102E+02 -0.75199922429E+01  0.27264651094E+02  0.00000000000E+00 0. -1.
</event>
<event>
 7    1  0.1215217E-011  0.5930198E+02  0.7816164E-02  0.1266605E+00
        -11   -1    0    0    0    0  0.00000000000E+00  0.00000000000E+00  0.45593999997E+02  0.45594000000E+02  0.51100000000E-03 0.  1.
         11   -1    0    0    0    0 -0.00000000000E+00 -0.00000000000E+00 -0.45593999997E+02  0.45594000000E+02  0.51100000000E-03 0. -1.
    9900012    2    1    2    0    0 -0.12177479566E+02 -0.20974764544E+02 -0.20699911743E+02  0.59301982650E+02  0.50000070438E+02 0.  0.
        -12    1    1    2    0    0  0.12177479566E+02  0.20974764544E+02  0.20699911743E+02  0.31886017350E+02  0.00000000000E+00 0.  1.
         11    1    3    3    0    0 -0.68908579290E+01 -0.87168602691E+01 -0.61900507217E+01  0.12719445906E+02  0.51100000000E-03 0. -1.
        -11    1    3    3    0    0 -0.90774451213E+00 -0.25303449503E+02  0.16307149310E+01  0.25372185328E+02  0.51100000000E-03 0.  1.
        -12    1    3    3    0    0 -0.43788771253E+01  0.13045545228E+02 -0.16140575952E+02  0.21210351417E+02  0.00000000000E+00 0.  1.
</event>
<event>
 7    1  0.1215217E-011  0.5930193E+02  0.7816164E-02  0.1266605E+00
        -11   -1    0    0    0    0  0.00000000000E+00  0.00000000000E+00  0.45593999997E+02  0.45594000000E+02  0.51100000000E-03 0. -1.
         11   -1    0    0    0    0 -0.00000000000E+00 -0.00000000000E+00 -0.45593999997E+02  0.45594000000E+02  0.51100000000E-03 0.  1.
    9900012    2    1    2    0    0 -0.19822533163E+02 -0.36562758368E+01  0.24706682974E+02  0.59301931607E+02  0.49999977347E+02 0.  0.
        -12    1    1    2    0    0  0.19822533163E+02  0.36562758368E+01 -0.24706682974E+02  0.31886068393E+02  0.00000000000E+00 0.  1.
         11    1    3    3    0    0 -0.18260114121E+02 -0.19500581502E+01  0.28212212099E+01  0.18579391375E+02  0.51100000000E-03 0.  1.
        -11    1    3    3    0    0 -0.26211036365E+01  0.15726050081E+02  0.57585875337E+01  0.16951111057E+02  0.51100000000E-03 0. -1.
         12    1    3    3    0    0  0.10586845946E+01 -0.17432267767E+02  0.16126874231E+02  0.23771429175E+02  0.00000000000E+00 0. -1.
</event>
<event>
 7    1  0.1215217E-011  0.5930192E+02  0.7816164E-02  0.1266605E+00
        -11   -1    0    0    0    0  0.00000000000E+00  0.00000000000E+00  0.45593999997E+02  0.45594000000E+02  0.51100000000E-03 0. -1.
         11   -1    0    0    0    0 -0.00000000000E+00 -0.00000000000E+00 -0.45593999997E+02  0.45594000000E+02  0.51100000000E-03 0.  1.
    9900012    2    1    2    0    0 -0.18547229105E+02 -0.25514531129E+02 -0.46616740520E+01  0.59301918222E+02  0.49999952936E+02 0.  0.
        -12    1    1    2    0    0  0.18547229105E+02  0.25514531129E+02  0.46616740520E+01  0.31886081778E+02  0.00000000000E+00 0.  1.
         11    1    3    3    0    0  0.10732720944E+01  0.29662502802E+01  0.25585930302E+01  0.40616440352E+01  0.51100000000E-03 0. -1.
        -11    1    3    3    0    0 -0.18686257454E+02 -0.32669835597E+02  0.88030111050E+01  0.38652132934E+02  0.51100000000E-03 0.  1.
         12    1    3    3    0    0 -0.93424374551E+00  0.41890541877E+01 -0.16023278187E+02  0.16588141253E+02  0.00000000000E+00 0. -1.
</event>
<event>
 7    1  0.1215217E-011  0.5930195E+02  0.7816164E-02  0.1266605E+00
        -11   -1    0    0    0    0  0.00000000000E+00  0.00000000000E+00  0.45593999997E+02  0.45594000000E+02  0.51100000000E-03 0.  1.
         11   -1    0    0    0    0 -0.00000000000E+00 -0.00000000000E+00 -0.45593999997E+02  0.45594000000E+02  0.51100000000E-03 0. -1.
    9900012    2    1    2    0    0 -0.29379470937E+02 -0.12388453109E+02 -0.30482392999E+00  0.59301952886E+02  0.50000016155E+02 0.  0.
        -12    1    1    2    0    0  0.29379470937E+02  0.12388453109E+02  0.30482392999E+00  0.31886047114E+02  0.00000000000E+00 0.  1.
         11    1    3    3    0    0 -0.84672053646E+01  0.12622853088E+02 -0.68737042372E+01  0.16681660498E+02  0.51100000000E-03 0. -1.
        -11    1    3    3    0    0 -0.17008026924E+02 -0.44068792138E+01  0.11600741540E+02  0.21053996504E+02  0.51100000000E-03 0.  1.
         12    1    3    3    0    0 -0.39042386484E+01 -0.20604426983E+02 -0.50318612324E+01  0.21566295884E+02  0.00000000000E+00 0. -1.
</event>
<event>
 7    1  0.1215217E-011  0.5930193E+02  0.7816164E-02  0.1266605E+00
        -11   -1    0    0    0    0  0.00000000000E+00  0.00000000000E+00  0.45593999997E+02  0.45594000000E+02  0.51100000000E-03 0. -1.
         11   -1    0    0    0    0 -0.00000000000E+00 -0.00000000000E+00 -0.45593999997E+02  0.45594000000E+02  0.51100000000E-03 0.  1.
    9900012    2    1    2    0    0  0.12987272485E+02 -0.27816984093E+02  0.86178561153E+01  0.59301932594E+02  0.49999979147E+02 0.  0.
        -12    1    1    2    0    0 -0.12987272485E+02  0.27816984093E+02 -0.86178561153E+01  0.31886067406E+02  0.00000000000E+00 0.  1.
         11    1    3    3    0    0  0.43444398562E+01 -0.14276287894E+02  0.18802171796E+02  0.24004337487E+02  0.51100000000E-03 0. -1.
        -11    1    3    3    0    0 -0.26025843821E+01 -0.62625638302E+01  0.93874080650E+01  0.11580871368E+02  0.51100000000E-03 0.  1.
        -12    1    3    3    0    0  0.11245417010E+02 -0.72781323690E+01 -0.19571723746E+02  0.23716723739E+02  0.00000000000E+00 0.  1.
</event>
<event>
 7    1  0.1215217E-011  0.5930197E+02  0.7816164E-02  0.1266605E+00
        -11   -1    0    0    0    0  0.00000000000E+00  0.00000000000E+00  0.45593999997E+02  0.45594000000E+02  0.51100000000E-03 0.  1.
         11   -1    0    0    0    0 -0.00000000000E+00 -0.00000000000E+00 -0.45593999997E+02  0.45594000000E+02  0.51100000000E-03 0. -1.
    9900012    2    1    2    0    0  0.11374311945E+02 -0.20806064561E+02  0.21317864395E+02  0.59301974266E+02  0.50000055147E+02 0.  0.
        -12    1    1    2    0    0 -0.11374311945E+02  0.20806064561E+02 -0.21317864395E+02  0.31886025734E+02  0.00000000000E+00 0.  1.
         11    1    3    3    0    0  0.82758461010E+01 -0.21304285196E+02  0.58256703298E+01  0.23586026190E+02  0.51100000000E-03 0. -1.
        -11    1    3    3    0    0  0.92717166639E+01 -0.12762316381E+02  0.21550299017E+01  0.15921231216E+02  0.51100000000E-03 0.  1.
         12    1    3    3    0    0 -0.61732508196E+01  0.13260537016E+02  0.13337164164E+02  0.19794716860E+02  0.00000000000E+00 0. -1.
</event>
<event>
 7    1  0.1215217E-011  0.5930194E+02  0.7816164E-02  0.1266605E+00
        -11   -1    0    0    0    0  0.00000000000E+00  0.00000000000E+00  0.45593999997E+02  0.45594000000E+02  0.51100000000E-03 0. -1.
         11   -1    0    0    0    0 -0.00000000000E+00 -0.00000000000E+00 -0.45593999997E+02  0.45594000000E+02  0.51100000000E-03 0.  1.
    9900012    2    1    2    0    0  0.20999206994E+02  0.11852923491E+02 -0.20862940810E+02  0.59301940524E+02  0.49999993610E+02 0.  0.
        -12    1    1    2    0    0 -0.20999206994E+02 -0.11852923491E+02  0.20862940810E+02  0.31886059476E+02  0.00000000000E+00 0.  1.
         11    1    3    3    0    0  0.84514308622E+01  0.31842706188E+01 -0.28021781656E+02  0.29441238263E+02  0.51100000000E-03 0. -1.
        -11    1    3    3    0    0 -0.97024233832E+00 -0.76962024790E+01  0.16326022029E+01  0.79270608051E+01  0.51100000000E-03 0.  1.
         12    1    3    3    0    0  0.13518018470E+02  0.16364855351E+02  0.55262386428E+01  0.21933641457E+02  0.00000000000E+00 0. -1.
</event>
<event>
 7    1  0.1215217E-011  0.5930195E+02  0.7816164E-02  0.1266605E+00
        -11   -1    0    0    0    0  0.00000000000E+00  0.00000000000E+00  0.45593999997E+02  0.45594000000E+02  0.51100000000E-03 0.  1.
         11   -1    0    0    0    0 -0.00000000000E+00 -0.00000000000E+00 -0.45593999997E+02  0.45594000000E+02  0.51100000000E-03 0. -1.
    9900012    2    1    2    0    0 -0.18967021114E+02  0.20707261862E+01 -0.25547683722E+02  0.59301953829E+02  0.50000017875E+02 0.  0.
        -12    1    1    2    0    0  0.18967021114E+02 -0.20707261862E+01  0.25547683722E+02  0.31886046171E+02  0.00000000000E+00 0.  1.
         11    1    3    3    0    0  0.12496673386E+02  0.44227350096E+01 -0.58602266083E+01  0.14493780971E+02  0.51100000000E-03 0. -1.
        -11    1    3    3    0    0  0.21547200390E+01 -0.58564856570E+01 -0.14710272489E+01  0.64113309168E+01  0.51100000000E-03 0.  1.
         12    1    3    3    0    0 -0.33618414539E+02  0.35044768335E+01 -0.18216429865E+02  0.38396841941E+02  0.00000000000E+00 0. -1.
</event>
<event>
 7    1  0.1215217E-011  0.5930196E+02  0.7816164E-02  0.1266605E+00
        -11   -1    0    0    0    0  0.00000000000E+00  0.00000000000E+00  0.45593999997E+02  0.45594000000E+02  0.51100000000E-03 0. -1.
         11   -1    0    0    0    0 -0.00000000000E+00 -0.00000000000E+00 -0.45593999997E+02  0.45594000000E+02  0.51100000000E-03 0.  1.
    9900012    2    1    2    0    0  0.15312973186E+02  0.14789665020E+02  0.23738111376E+02  0.59301964327E+02  0.50000037021E+02 0.  0.
        -12    1    1    2    0    0 -0.15312973186E+02 -0.14789665020E+02 -0.23738111376E+02  0.31886035673E+02  0.00000000000E+00 0.  1.
         11    1    3    3    0    0  0.16804868774E+02  0.34388649328E+00  0.25441549717E+01  0.16999841094E+02  0.51100000000E-03 0. -1.
        -11    1    3    3    0    0  0.48659523564E+01  0.20767282086E+02  0.23812781021E+01  0.21462245531E+02  0.51100000000E-03 0.  1.
        -12    1    3    3    0    0 -0.63578479447E+01 -0.63215035588E+01  0.18812678303E+02  0.20839877702E+02  0.00000000000E+00 0.  1.
</event>
<event>
 7    1  0.1215217E-011  0.5930198E+02  0.7816164E-02  0.1266605E+00
        -11   -1    0    0    0    0  0.00000000000E+00  0.00000000000E+00  0.45593999997E+02  0.45594000000E+02  0.51100000000E-03 0.  1.
         11   -1    0    0    0    0 -0.00000000000E+00 -0.00000000000E+00 -0.45593999997E+02  0.45594000000E+02  0.51100000000E-03 0. -1.
    9900012    2    1    2    0    0  0.15673557867E+02 -0.22603857313E+02 -0.16128348747E+02  0.59301977750E+02  0.50000061502E+02 0.  0.
        -12    1    1    2    0    0 -0.15673557867E+02  0.22603857313E+02  0.16128348747E+02  0.31886022250E+02  0.00000000000E+00 0.  1.
         11    1    3    3    0    0  0.24561697973E+02 -0.90414135205E+01 -0.69128048097E+01  0.27070482751E+02  0.51100000000E-03 0.  1.
        -11    1    3    3    0    0  0.68538186445E+01 -0.13351896086E+02 -0.59996097113E+01  0.16163021873E+02  0.51100000000E-03 0. -1.
         12    1    3    3    0    0 -0.15741958751E+02 -0.21054770565E+00 -0.32159342257E+01  0.16068473126E+02  0.00000000000E+00 0. -1.
</event>
<event>
 7    1  0.1215217E-011  0.5930193E+02  0.7816164E-02  0.1266605E+00
        -11   -1    0    0    0    0  0.00000000000E+00  0.00000000000E+00  0.45593999997E+02  0.45594000000E+02  0.51100000000E-03 0.  1.
         11   -1    0    0    0    0 -0.00000000000E+00 -0.00000000000E+00 -0.45593999997E+02  0.45594000000E+02  0.51100000000E-03 0. -1.
    9900012    2    1    2    0    0  0.27023909162E+02  0.50988502003E+01 -0.16137894437E+02  0.59301928172E+02  0.49999971083E+02 0.  0.
        -12    1    1    2    0    0 -0.27023909162E+02 -0.50988502003E+01  0.16137894437E+02  0.31886071828E+02  0.00000000000E+00 0.  1.
         11    1    3    3    0    0  0.11783869205E+01 -0.15893705250E+00 -0.49914386688E+01  0.51311126441E+01  0.51100000000E-03 0. -1.
        -11    1    3    3    0    0  0.19250663712E+02 -0.13016206344E+02 -0.21929173389E+02  0.31951499600E+02  0.51100000000E-03 0.  1.
         12    1    3    3    0    0  0.65948585300E+01  0.18273993596E+02  0.10782717621E+02  0.22219315928E+02  0.00000000000E+00 0. -1.
</event>
<event>
 7    1  0.1215217E-011  0.5930195E+02  0.7816164E-02  0.1266605E+00
        -11   -1    0    0    0    0  0.00000000000E+00  0.00000000000E+00  0.45593999997E+02  0.45594000000E+02  0.51100000000E-03 0. -1.
         11   -1    0    0    0    0 -0.00000000000E+00 -0.00000000000E+00 -0.45593999997E+02  0.45594000000E+02  0.51100000000E-03 0.  1.
    9900012    2    1    2    0    0 -0.67286077580E+01 -0.19608193075E+02  0.24227357909E+02  0.59301948672E+02  0.50000008470E+02 0.  0.
        -12    1    1    2    0    0  0.67286077580E+01  0.19608193075E+02 -0.24227357909E+02  0.31886051328E+02  0.00000000000E+00 0.  1.
         11    1    3    3    0    0  0.50665112090E+01  0.34250423294E+01  0.10446254814E+02  0.12104738356E+02  0.51100000000E-03 0. -1.
        -11    1    3    3    0    0 -0.87638056944E+01  0.52413140168E+01  0.15663769657E+02  0.18698378085E+02  0.51100000000E-03 0.  1.
        -12    1    3    3    0    0 -0.30313132726E+01 -0.28274549421E+02 -0.18826665614E+01  0.28498832231E+02  0.00000000000E+00 0.  1.
</event>
<event>
 7    1  0.1215217E-011  0.5930194E+02  0.7816164E-02  0.1266605E+00
        -11   -1    0    0    0    0  0.00000000000E+00  0.00000000000E+00  0.45593999997E+02  0.45594000000E+02  0.51100000000E-03 0.  1.
         11   -1    0    0    0    0 -0.00000000000E+00 -0.00000000000E+00 -0.45593999997E+02  0.45594000000E+02  0.51100000000E-03 0. -1.
    9900012    2    1    2    0    0  0.12521448415E+02 -0.24797048694E+02 -0.15653772059E+02  0.59301939190E+02  0.49999991176E+02 0.  0.
        -12    1    1    2    0    0 -0.12521448415E+02  0.24797048694E+02  0.15653772059E+02  0.31886060810E+02  0.00000000000E+00 0.  1.
         11    1    3    3    0    0  0.59603142301E+01 -0.13191206074E+02 -0.18971567746E+02  0.23863227913E+02  0.51100000000E-03 0. -1.
        -11    1    3    3    0    0 -0.10083607126E+02  0.41479368190E+01 -0.36284089578E+01  0.11491295155E+02  0.51100000000E-03 0.  1.
         12    1    3    3    0    0  0.16644741311E+02 -0.15753779439E+02  0.69462046452E+01  0.23947416122E+02  0.00000000000E+00 0. -1.
</event>
<event>
 7    1  0.1215217E-011  0.5930196E+02  0.7816164E-02  0.1266605E+00
        -11   -1    0    0    0    0  0.00000000000E+00  0.00000000000E+00  0.45593999997E+02  0.45594000000E+02  0.51100000000E-03 0.  1.
         11   -1    0    0    0    0 -0.00000000000E+00 -0.00000000000E+00 -0.45593999997E+02  0.45594000000E+02  0.51100000000E-03 0. -1.
    9900012    2    1    2    0    0 -0.80609978746E+01  0.19746619725E+02 -0.23702556142E+02  0.59301955326E+02  0.50000020606E+02 0.  0.
        -12    1    1    2    0    0  0.80609978746E+01 -0.19746619725E+02  0.23702556142E+02  0.31886044674E+02  0.00000000000E+00 0.  1.
         11    1    3    3    0    0  0.17889578038E+02  0.13924282218E+02 -0.68269304869E+01  0.23675506706E+02  0.51100000000E-03 0.  1.
        -11    1    3    3    0    0 -0.14183101561E+02  0.11274953578E+02 -0.12185448593E+02  0.21835065966E+02  0.51100000000E-03 0. -1.
        -12    1    3    3    0    0 -0.11767474351E+02 -0.54526160717E+01 -0.46901770621E+01  0.13791382654E+02  0.00000000000E+00 0.  1.
</event>
<event>
 7    1  0.1215217E-011  0.5930196E+02  0.7816164E-02  0.1266605E+00
        -11   -1    0    0    0    0  0.00000000000E+00  0.00000000000E+00  0.45593999997E+02  0.45594000000E+02  0.51100000000E-03 0.  1.
         11   -1    0    0    0    0 -0.00000000000E+00 -0.00000000000E+00 -0.45593999997E+02  0.45594000000E+02  0.51100000000E-03 0. -1.
    9900012    2    1    2    0    0 -0.11636435946E+02 -0.27902265495E+02 -0.10137880196E+02  0.59301957973E+02  0.50000025432E+02 0.  0.
        -12    1    1    2    0    0  0.11636435946E+02  0.27902265495E+02  0.10137880196E+02  0.31886042027E+02  0.00000000000E+00 0.  1.
         11    1    3    3    0    0 -0.15979076301E+02 -0.69230844371E+01 -0.73936528647E+00  0.17430049881E+02  0.51100000000E-03 0. -1.
        -11    1    3    3    0    0  0.48584000097E+01 -0.30070970803E+02 -0.11442060278E+02  0.32539023946E+02  0.51100000000E-03 0.  1.
         12    1    3    3    0    0 -0.51575965482E+00  0.90917897454E+01  0.20435453685E+01  0.93328841453E+01  0.00000000000E+00 0. -1.
</event>
<event>
 7    1  0.1215217E-011  0.5930195E+02  0.7816164E-02  0.1266605E+00
        -11   -1    0    0    0    0  0.00000000000E+00  0.00000000000E+00  0.45593999997E+02  0.45594000000E+02  0.51100000000E-03 0.  1.
         11   -1    0    0    0    0 -0.00000000000E+00 -0.00000000000E+00 -0.45593999997E+02  0.45594000000E+02  0.51100000000E-03 0. -1.
    9900012    2    1    2    0    0 -0.12612874685E+02  0.25992515279E+02 -0.13491646374E+02  0.59301953204E+02  0.50000016736E+02 0.  0.
        -12    1    1    2    0    0  0.12612874685E+02 -0.25992515279E+02  0.13491646374E+02  0.31886046796E+02  0.00000000000E+00 0.  1.
         11    1    3    3    0    0 -0.69562523763E+01  0.28358973856E+01 -0.12609712689E+02  0.14677759211E+02  0.51100000000E-03 0. -1.
        -11    1    3    3    0    0  0.35473501556E+01  0.29795730174E+02 -0.82176831972E+01  0.31111083991E+02  0.51100000000E-03 0.  1.
         12    1    3    3    0    0 -0.92039724647E+01 -0.66391122804E+01  0.73357495120E+01  0.13513110001E+02  0.00000000000E+00 0. -1.
</event>
<event>
 7    1  0.1215217E-011  0.5930193E+02  0.7816164E-02  0.1266605E+00
        -11   -1    0    0    0    0  0.00000000000E+00  0.00000000000E+00  0.45593999997E+02  0.45594000000E+02  0.51100000000E-03 0.  1.
         11   -1    0    0    0    0 -0.00000000000E+00 -0.00000000000E+00 -0.45593999997E+02  0.45594000000E+02  0.51100000000E-03 0. -1.
    9900012    2    1    2    0    0 -0.86136075539E+01 -0.13656366872E+02  0.27496016062E+02  0.59301929522E+02  0.49999973545E+02 0.  0.
        -12    1    1    2    0    0  0.86136075539E+01  0.13656366872E+02 -0.27496016062E+02  0.31886070478E+02  0.00000000000E+00 0.  1.
         11    1    3    3    0    0 -0.13259219134E+02 -0.65749049737E+01  0.25752033621E+02  0.29701910769E+02  0.51100000000E-03 0. -1.
        -11    1    3    3    0    0 -0.62840668620E+01 -0.16435668081E+00  0.11697069377E+02  0.13279229711E+02  0.51100000000E-03 0.  1.
         12    1    3    3    0    0  0.10929678442E+02 -0.69171052179E+01 -0.99530869353E+01  0.16320789043E+02  0.00000000000E+00 0. -1.
</event>
<event>
 7    1  0.1215217E-011  0.5930195E+02  0.7816164E-02  0.1266605E+00
        -11   -1    0    0    0    0  0.00000000000E+00  0.00000000000E+00  0.45593999997E+02  0.45594000000E+02  0.51100000000E-03 0. -1.
         11   -1    0    0    0    0 -0.00000000000E+00 -0.00000000000E+00 -0.45593999997E+02  0.45594000000E+02  0.51100000000E-03 0.  1.
    9900012    2    1    2    0    0  0.30092011201E+02 -0.78252986597E+00  0.10515635806E+02  0.59301951523E+02  0.50000013669E+02 0.  0.
        -12    1    1    2    0    0 -0.30092011201E+02  0.78252986597E+00 -0.10515635806E+02  0.31886048477E+02  0.00000000000E+00 0.  1.
         11    1    3    3    0    0  0.14775879160E+02 -0.10869352808E+02 -0.47950317287E+01  0.18959476917E+02  0.51100000000E-03 0. -1.
        -11    1    3    3    0    0  0.80631034674E+01 -0.99904756914E+01 -0.18263913420E+01  0.12967611486E+02  0.51100000000E-03 0.  1.
        -12    1    3    3    0    0  0.72530285734E+01  0.20077298633E+02  0.17137058876E+02  0.27374863120E+02  0.00000000000E+00 0.  1.
</event>
<event>
 7    1  0.1215217E-011  0.5930197E+02  0.7816164E-02  0.1266605E+00
        -11   -1    0    0    0    0  0.00000000000E+00  0.00000000000E+00  0.45593999997E+02  0.45594000000E+02  0.51100000000E-03 0. -1.
         11   -1    0    0    0    0 -0.00000000000E+00 -0.00000000000E+00 -0.45593999997E+02  0.45594000000E+02  0.51100000000E-03 0.  1.
    9900012    2    1    2    0    0  0.38271647929E+01 -0.19113080506E+02  0.25234146539E+02  0.59301965622E+02  0.50000039383E+02 0.  0.
        -12    1    1    2    0    0 -0.38271647929E+01  0.19113080506E+02 -0.25234146539E+02  0.31886034378E+02  0.00000000000E+00 0.  1.
         11    1    3    3    0    0 -0.38640043405E+01 -0.96176871583E-01  0.16184293988E+00  0.38685879766E+01  0.51100000000E-03 0. -1.
        -11    1    3    3    0    0 -0.90957675425E+01  0.10209478640E+02  0.14909526693E+02  0.20230186054E+02  0.51100000000E-03 0.  1.
         12    1    3    3    0    0  0.16786936676E+02 -0.29226382275E+02  0.10162776906E+02  0.35203191592E+02  0.00000000000E+00 0. -1.
</event>
<event>
 7    1  0.1215217E-011  0.5930193E+02  0.7816164E-02  0.1266605E+00
        -11   -1    0    0    0    0  0.00000000000E+00  0.00000000000E+00  0.45593999997E+02  0.45594000000E+02  0.51100000000E-03 0. -1.
         11   -1    0    0    0    0 -0.00000000000E+00 -0.00000000000E+00 -0.45593999997E+02  0.45594000000E+02  0.51100000000E-03 0.  1.
    9900012    2    1    2    0    0  0.28650650316E+02  0.11173490512E+02  0.84270240618E+01  0.59301931125E+02  0.49999976468E+02 0.  0.
        -12    1    1    2    0    0 -0.28650650316E+02 -0.11173490512E+02 -0.84270240618E+01  0.31886068875E+02  0.00000000000E+00 0.  1.
         11    1    3    3    0    0  0.14608809581E+02 -0.10335560423E+02 -0.11303101126E+02  0.21166039354E+02  0.51100000000E-03 0. -1.
        -11    1    3    3    0    0 -0.52158056315E+01  0.36436482371E+01  0.35972347390E+01  0.73089601784E+01  0.51100000000E-03 0.  1.
         12    1    3    3    0    0  0.19257646367E+02  0.17865402697E+02  0.16132890449E+02  0.30826931592E+02  0.00000000000E+00 0. -1.
</event>
<event>
 7    1  0.1215217E-011  0.5930197E+02  0.7816164E-02  0.1266605E+00
        -11   -1    0    0    0    0  0.00000000000E+00  0.00000000000E+00  0.45593999997E+02  0.45594000000E+02  0.51100000000E-03 0.  1.
         11   -1    0    0    0    0 -0.00000000000E+00 -0.00000000000E+00 -0.45593999997E+02  0.45594000000E+02  0.51100000000E-03 0. -1.
    9900012    2    1    2    0    0  0.16318062552E+02  0.79846328806E+01 -0.26204682695E+02  0.59301969786E+02  0.50000046976E+02 0.  0.
        -12    1    1    2    0    0 -0.16318062552E+02 -0.79846328806E+01  0.26204682695E+02  0.31886030214E+02  0.00000000000E+00 0.  1.
         11    1    3    3    0    0  0.12906157906E+02 -0.12615902630E+01 -0.26812734903E+02  0.29783943244E+02  0.51100000000E-03 0. -1.
        -11    1    3    3    0    0  0.13754203279E+02  0.10713248999E+02 -0.43299230907E+01  0.17963853879E+02  0.51100000000E-03 0.  1.
         12    1    3    3    0    0 -0.10342298633E+02 -0.14670258554E+01  0.49379752988E+01  0.11554172663E+02  0.00000000000E+00 0. -1.
</event>
<event>
 7    1  0.1215217E-011  0.5930195E+02  0.7816164E-02  0.1266605E+00
        -11   -1    0    0    0    0  0.00000000000E+00  0.00000000000E+00  0.45593999997E+02  0.45594000000E+02  0.51100000000E-03 0.  1.
         11   -1    0    0    0    0 -0.00000000000E+00 -0.00000000000E+00 -0.45593999997E+02  0.45594000000E+02  0.51100000000E-03 0. -1.
    9900012    2    1    2    0    0  0.30357669798E+01 -0.29240961855E+02 -0.12347890591E+02  0.59301950803E+02  0.50000012356E+02 0.  0.
        -12    1    1    2    0    0 -0.30357669798E+01  0.29240961855E+02  0.12347890591E+02  0.31886049197E+02  0.00000000000E+00 0.  1.
         11    1    3    3    0    0 -0.12697161732E+02 -0.85848803460E+01 -0.74991803254E+01  0.17063287855E+02  0.51100000000E-03 0. -1.
        -11    1    3    3    0    0 -0.60514412946E+01  0.49838086126E+01  0.15490796766E+01  0.79911162008E+01  0.51100000000E-03 0.  1.
        -12    1    3    3    0    0  0.21784370007E+02 -0.25639890122E+02 -0.63977899423E+01  0.34247546747E+02  0.00000000000E+00 0.  1.
</event>
<event>
 7    1  0.1215217E-011  0.5930197E+02  0.7816164E-02  0.1266605E+00
        -11   -1    0    0    0    0  0.00000000000E+00  0.00000000000E+00  0.45593999997E+02  0.45594000000E+02  0.51100000000E-03 0.  1.
         11   -1    0    0    0    0 -0.00000000000E+00 -0.00000000000E+00 -0.45593999997E+02  0.45594000000E+02  0.51100000000E-03 0. -1.
    9900012    2    1    2    0    0  0.21423673079E+02  0.18636687342E+02 -0.14505821312E+02  0.59301972728E+02  0.50000052342E+02 0.  0.
        -12    1    1    2    0    0 -0.21423673079E+02 -0.18636687342E+02  0.14505821312E+02  0.31886027272E+02  0.00000000000E+00 0.  1.
         11    1    3    3    0    0  0.19388687529E+02  0.92300132749E+01 -0.10955708781E+01  0.21501502854E+02  0.51100000000E-03 0. -1.
        -11    1    3    3    0    0  0.31775554377E+01  0.21144760061E+02 -0.21422183925E+01  0.21489226057E+02  0.51100000000E-03 0.  1.
        -12    1    3    3    0    0 -0.11425698876E+01 -0.11738085995E+02 -0.11268032042E+02  0.16311243817E+02  0.00000000000E+00 0.  1.
</event>
<event>
 7    1  0.1215217E-011  0.5930208E+02  0.7816164E-02  0.1266604E+00
        -11   -1    0    0    0    0  0.00000000000E+00  0.00000000000E+00  0.45593999997E+02  0.45594000000E+02  0.51100000000E-03 0. -1.
         11   -1    0    0    0    0 -0.00000000000E+00 -0.00000000000E+00 -0.45593999997E+02  0.45594000000E+02  0.51100000000E-03 0.  1.
    9900012    2    1    2    0    0  0.14896095422E+02 -0.56520356284E+01  0.27620153761E+02  0.59302077411E+02  0.50000243258E+02 0.  0.
        -12    1    1    2    0    0 -0.14896095422E+02  0.56520356284E+01 -0.27620153761E+02  0.31885922589E+02  0.00000000000E+00 0.  1.
         11    1    3    3    0    0  0.20286488965E+01  0.80534963428E+01  0.11947211273E+02  0.14550260381E+02  0.51100000000E-03 0. -1.
        -11    1    3    3    0    0 -0.49201367760E+01  0.90526675905E+01  0.11708168441E+02  0.15596145194E+02  0.51100000000E-03 0.  1.
        -12    1    3    3    0    0  0.17787583302E+02 -0.22758199562E+02  0.39647740479E+01  0.29155671837E+02  0.00000000000E+00 0.  1.
</event>
<event>
 7    1  0.1215217E-011  0.5930158E+02  0.7816164E-02  0.1266606E+00
        -11   -1    0    0    0    0  0.00000000000E+00  0.00000000000E+00  0.45593999997E+02  0.45594000000E+02  0.51100000000E-03 0.  1.
         11   -1    0    0    0    0 -0.00000000000E+00 -0.00000000000E+00 -0.45593999997E+02  0.45594000000E+02  0.51100000000E-03 0. -1.
    9900012    2    1    2    0    0  0.21075234582E+02 -0.14037940099E+02 -0.19378203565E+02  0.59301575799E+02  0.49999328435E+02 0.  0.
        -12    1    1    2    0    0 -0.21075234582E+02  0.14037940099E+02  0.19378203565E+02  0.31886424201E+02  0.00000000000E+00 0.  1.
         11    1    3    3    0    0 -0.12711165297E+02  0.26419578326E+00 -0.91490889369E+01  0.15663631484E+02  0.51100000000E-03 0. -1.
        -11    1    3    3    0    0 -0.18288125030E+01 -0.31606429990E+01 -0.46398739055E+01  0.59044601327E+01  0.51100000000E-03 0.  1.
         12    1    3    3    0    0  0.35615212382E+02 -0.11141492883E+02 -0.55892407225E+01  0.37733484183E+02  0.00000000000E+00 0. -1.
</event>
<event>
 7    1  0.1215217E-011  0.5930192E+02  0.7816164E-02  0.1266605E+00
        -11   -1    0    0    0    0  0.00000000000E+00  0.00000000000E+00  0.45593999997E+02  0.45594000000E+02  0.51100000000E-03 0. -1.
         11   -1    0    0    0    0 -0.00000000000E+00 -0.00000000000E+00 -0.45593999997E+02  0.45594000000E+02  0.51100000000E-03 0.  1.
    9900012    2    1    2    0    0  0.26503903507E+02 -0.11154479080E+02 -0.13778336381E+02  0.59301923759E+02  0.49999963034E+02 0.  0.
        -12    1    1    2    0    0 -0.26503903507E+02  0.11154479080E+02  0.13778336381E+02  0.31886076241E+02  0.00000000000E+00 0.  1.
         11    1    3    3    0    0  0.92507715084E+01 -0.92733186206E+01 -0.11731411140E+02  0.17584004645E+02  0.51100000000E-03 0. -1.
        -11    1    3    3    0    0  0.29219278276E+01 -0.13057685603E+02  0.12597681035E+02  0.18377768724E+02  0.51100000000E-03 0.  1.
         12    1    3    3    0    0  0.14331204171E+02  0.11176525144E+02 -0.14644606275E+02  0.23340150390E+02  0.00000000000E+00 0. -1.
</event>
<event>
 7    1  0.1215217E-011  0.5930192E+02  0.7816164E-02  0.1266605E+00
        -11   -1    0    0    0    0  0.00000000000E+00  0.00000000000E+00  0.45593999997E+02  0.45594000000E+02  0.51100000000E-03 0.  1.
         11   -1    0    0    0    0 -0.00000000000E+00 -0.00000000000E+00 -0.45593999997E+02  0.45594000000E+02  0.51100000000E-03 0. -1.
    9900012    2    1    2    0    0  0.12386254126E+02 -0.77664690813E+01 -0.28336983238E+02  0.59301922281E+02  0.49999960339E+02 0.  0.
        -12    1    1    2    0    0 -0.12386254126E+02  0.77664690813E+01  0.28336983238E+02  0.31886077719E+02  0.00000000000E+00 0.  1.
         11    1    3    3    0    0 -0.44283898980E+01 -0.13707258511E+02 -0.14579633795E+02  0.20495494500E+02  0.51100000000E-03 0. -1.
        -11    1    3    3    0    0 -0.86244611019E+01  0.59842349507E+01 -0.16248835480E+01  0.10622271134E+02  0.51100000000E-03 0.  1.
         12    1    3    3    0    0  0.25439105126E+02 -0.43445521447E-01 -0.12132465896E+02  0.28184156646E+02  0.00000000000E+00 0. -1.
</event>
<event>
 7    1  0.1215217E-011  0.5930194E+02  0.7816164E-02  0.1266605E+00
        -11   -1    0    0    0    0  0.00000000000E+00  0.00000000000E+00  0.45593999997E+02  0.45594000000E+02  0.51100000000E-03 0.  1.
         11   -1    0    0    0    0 -0.00000000000E+00 -0.00000000000E+00 -0.45593999997E+02  0.45594000000E+02  0.51100000000E-03 0. -1.
    9900012    2    1    2    0    0  0.31786407021E+02  0.22627573992E+01 -0.11068289674E+01  0.59301940151E+02  0.49999992929E+02 0.  0.
        -12    1    1    2    0    0 -0.31786407021E+02 -0.22627573992E+01  0.11068289674E+01  0.31886059849E+02  0.00000000000E+00 0.  1.
         11    1    3    3    0    0  0.69329371870E+00  0.68662244274E+01  0.17527158745E+01  0.71202322480E+01  0.51100000000E-03 0. -1.
        -11    1    3    3    0    0  0.72610064541E+00  0.14151717930E+02 -0.77583250607E+01  0.16155183395E+02  0.51100000000E-03 0.  1.
         12    1    3    3    0    0  0.30367012657E+02 -0.18755184958E+02  0.48987802189E+01  0.36026524508E+02  0.00000000000E+00 0. -1.
</event>
<event>
 7    1  0.1215217E-011  0.5930195E+02  0.7816164E-02  0.1266605E+00
        -11   -1    0    0    0    0  0.00000000000E+00  0.00000000000E+00  0.45593999997E+02  0.45594000000E+02  0.51100000000E-03 0.  1.
         11   -1    0    0    0    0 -0.00000000000E+00 -0.00000000000E+00 -0.45593999997E+02  0.45594000000E+02  0.51100000000E-03 0. -1.
    9900012    2    1    2    0    0 -0.18436764653E+02 -0.24655799531E+02 -0.83004407200E+01  0.59301951992E+02  0.50000014525E+02 0.  0.
        -12    1    1    2    0    0  0.18436764653E+02  0.24655799531E+02  0.83004407200E+01  0.31886048008E+02  0.00000000000E+00 0.  1.
         11    1    3    3    0    0  0.65329477647E+01 -0.48140721729E+01 -0.51508181590E+01  0.96117441367E+01  0.51100000000E-03 0. -1.
        -11    1    3    3    0    0 -0.12024516158E+02 -0.47988357456E+01  0.17026216634E+02  0.21389480276E+02  0.51100000000E-03 0.  1.
         12    1    3    3    0    0 -0.12945196260E+02 -0.15042891613E+02 -0.20175839195E+02  0.28300727580E+02  0.00000000000E+00 0. -1.
</event>
<event>
 7    1  0.1215217E-011  0.5930195E+02  0.7816164E-02  0.1266605E+00
        -11   -1    0    0    0    0  0.00000000000E+00  0.00000000000E+00  0.45593999997E+02  0.45594000000E+02  0.51100000000E-03 0.  1.
         11   -1    0    0    0    0 -0.00000000000E+00 -0.00000000000E+00 -0.45593999997E+02  0.45594000000E+02  0.51100000000E-03 0. -1.
    9900012    2    1    2    0    0 -0.52503141468E+01  0.22557484797E+02 -0.21916066381E+02  0.59301954704E+02  0.50000019471E+02 0.  0.
        -12    1    1    2    0    0  0.52503141468E+01 -0.22557484797E+02  0.21916066381E+02  0.31886045296E+02  0.00000000000E+00 0.  1.
         11    1    3    3    0    0 -0.11521586579E+02  0.17785233796E+02 -0.56985067186E-01  0.21191147822E+02  0.51100000000E-03 0. -1.
        -11    1    3    3    0    0  0.31661120301E+01  0.14106907649E+02 -0.35372370969E+00  0.14462165451E+02  0.51100000000E-03 0.  1.
        -12    1    3    3    0    0  0.31051604018E+01 -0.93346566480E+01 -0.21505357604E+02  0.23648641431E+02  0.00000000000E+00 0.  1.
</event>
<event>
 7    1  0.1215217E-011  0.5930193E+02  0.7816164E-02  0.1266605E+00
        -11   -1    0    0    0    0  0.00000000000E+00  0.00000000000E+00  0.45593999997E+02  0.45594000000E+02  0.51100000000E-03 0.  1.
         11   -1    0    0    0    0 -0.00000000000E+00 -0.00000000000E+00 -0.45593999997E+02  0.45594000000E+02  0.51100000000E-03 0. -1.
    9900012    2    1    2    0    0 -0.19479722080E+02  0.12733370017E+00 -0.25243723031E+02  0.59301931903E+02  0.49999977888E+02 0.  0.
        -12    1    1    2    0    0  0.19479722080E+02 -0.12733370017E+00  0.25243723031E+02  0.31886068097E+02  0.00000000000E+00 0.  1.
         11    1    3    3    0    0 -0.16564224737E+02  0.24223045583E+01 -0.24798751605E+02  0.29920213602E+02  0.51100000000E-03 0. -1.
        -11    1    3    3    0    0 -0.15894355247E+02 -0.22406215112E+01  0.19962267003E+01  0.16175161043E+02  0.51100000000E-03 0.  1.
         12    1    3    3    0    0  0.12978857904E+02 -0.54349346894E-01 -0.24411981263E+01  0.13206557259E+02  0.00000000000E+00 0. -1.
</event>
<event>
 7    1  0.1215217E-011  0.5930196E+02  0.7816164E-02  0.1266605E+00
        -11   -1    0    0    0    0  0.00000000000E+00  0.00000000000E+00  0.45593999997E+02  0.45594000000E+02  0.51100000000E-03 0.  1.
         11   -1    0    0    0    0 -0.00000000000E+00 -0.00000000000E+00 -0.45593999997E+02  0.45594000000E+02  0.51100000000E-03 0. -1.
    9900012    2    1    2    0    0  0.24723017687E+02 -0.10215916726E+02 -0.17353013316E+02  0.59301958709E+02  0.50000026775E+02 0.  0.
        -12    1    1    2    0    0 -0.24723017687E+02  0.10215916726E+02  0.17353013316E+02  0.31886041291E+02  0.00000000000E+00 0.  1.
         11    1    3    3    0    0 -0.87454705607E+00  0.67041132251E+01  0.27130894695E+01  0.72849723005E+01  0.51100000000E-03 0. -1.
        -11    1    3    3    0    0 -0.21500965357E+01  0.52310305972E+01  0.57908738443E+01  0.80944929652E+01  0.51100000000E-03 0.  1.
         12    1    3    3    0    0  0.27747661278E+02 -0.22151060548E+02 -0.25856976630E+02  0.43922493443E+02  0.00000000000E+00 0. -1.
</event>
<event>
 7    1  0.1215217E-011  0.5930194E+02  0.7816164E-02  0.1266605E+00
        -11   -1    0    0    0    0  0.00000000000E+00  0.00000000000E+00  0.45593999997E+02  0.45594000000E+02  0.51100000000E-03 0. -1.
         11   -1    0    0    0    0 -0.00000000000E+00 -0.00000000000E+00 -0.45593999997E+02  0.45594000000E+02  0.51100000000E-03 0.  1.
    9900012    2    1    2    0    0  0.26903627923E+02  0.16641869652E+02  0.39954850276E+01  0.59301938444E+02  0.49999989817E+02 0.  0.
        -12    1    1    2    0    0 -0.26903627923E+02 -0.16641869652E+02 -0.39954850276E+01  0.31886061556E+02  0.00000000000E+00 0.  1.
         11    1    3    3    0    0 -0.76876233227E+01  0.44049056912E+01  0.57439797328E+01  0.10559168998E+02  0.51100000000E-03 0. -1.
        -11    1    3    3    0    0  0.25774675427E+02  0.16396066149E+02  0.11198892262E+02  0.32535827432E+02  0.51100000000E-03 0.  1.
        -12    1    3    3    0    0  0.88165758181E+01 -0.41591021880E+01 -0.12947386967E+02  0.16206942014E+02  0.00000000000E+00 0.  1.
</event>
<event>
 7    1  0.1215217E-011  0.5930192E+02  0.7816164E-02  0.1266605E+00
        -11   -1    0    0    0    0  0.00000000000E+00  0.00000000000E+00  0.45593999997E+02  0.45594000000E+02  0.51100000000E-03 0.  1.
         11   -1    0    0    0    0 -0.00000000000E+00 -0.00000000000E+00 -0.45593999997E+02  0.45594000000E+02  0.51100000000E-03 0. -1.
    9900012    2    1    2    0    0  0.38775702595E+01  0.67223639079E+01 -0.30927276599E+02  0.59301918939E+02  0.49999954244E+02 0.  0.
        -12    1    1    2    0    0 -0.38775702595E+01 -0.67223639079E+01  0.30927276599E+02  0.31886081061E+02  0.00000000000E+00 0.  1.
         11    1    3    3    0    0  0.11358965484E+02 -0.46721773852E+00 -0.17867041781E+02  0.21177241831E+02  0.51100000000E-03 0. -1.
        -11    1    3    3    0    0  0.38865888974E+01 -0.67142817739E+01  0.75237462040E+01  0.10807123123E+02  0.51100000000E-03 0.  1.
        -12    1    3    3    0    0 -0.11367984122E+02  0.13903863420E+02 -0.20583981022E+02  0.27317553985E+02  0.00000000000E+00 0.  1.
</event>
<event>
 7    1  0.1215217E-011  0.5930183E+02  0.7816164E-02  0.1266605E+00
        -11   -1    0    0    0    0  0.00000000000E+00  0.00000000000E+00  0.45593999997E+02  0.45594000000E+02  0.51100000000E-03 0.  1.
         11   -1    0    0    0    0 -0.00000000000E+00 -0.00000000000E+00 -0.45593999997E+02  0.45594000000E+02  0.51100000000E-03 0. -1.
    9900012    2    1    2    0    0  0.38218931008E+01  0.11894255438E+02 -0.29336794025E+02  0.59301832733E+02  0.49999797025E+02 0.  0.
        -12    1    1    2    0    0 -0.38218931008E+01 -0.11894255438E+02  0.29336794025E+02  0.31886167267E+02  0.00000000000E+00 0.  1.
         11    1    3    3    0    0 -0.13684202228E+02  0.17454902752E+02 -0.14580298492E+02  0.26542722639E+02  0.51100000000E-03 0. -1.
        -11    1    3    3    0    0 -0.74435815362E+00  0.13256566454E+01  0.48616066372E+01  0.50937858179E+01  0.51100000000E-03 0.  1.
         12    1    3    3    0    0  0.18250453482E+02 -0.68863039599E+01 -0.19618102171E+02  0.27665324276E+02  0.00000000000E+00 0. -1.
</event>
<event>
 7    1  0.1215217E-011  0.5930198E+02  0.7816164E-02  0.1266605E+00
        -11   -1    0    0    0    0  0.00000000000E+00  0.00000000000E+00  0.45593999997E+02  0.45594000000E+02  0.51100000000E-03 0.  1.
         11   -1    0    0    0    0 -0.00000000000E+00 -0.00000000000E+00 -0.45593999997E+02  0.45594000000E+02  0.51100000000E-03 0. -1.
    9900012    2    1    2    0    0  0.28635136903E+02  0.13808533356E+02 -0.24640375134E+01  0.59301982065E+02  0.50000069371E+02 0.  0.
        -12    1    1    2    0    0 -0.28635136903E+02 -0.13808533356E+02  0.24640375134E+01  0.31886017935E+02  0.00000000000E+00 0.  1.
         11    1    3    3    0    0  0.17727527181E+02  0.22567936925E+02  0.90671014182E+01  0.30096334086E+02  0.51100000000E-03 0. -1.
        -11    1    3    3    0    0  0.64740740218E+01  0.66729312412E+01 -0.90201222471E+01  0.12953928030E+02  0.51100000000E-03 0.  1.
         12    1    3    3    0    0  0.44335356999E+01 -0.15432334811E+02 -0.25110166845E+01  0.16251719949E+02  0.00000000000E+00 0. -1.
</event>
<event>
 7    1  0.1215217E-011  0.5930194E+02  0.7816164E-02  0.1266605E+00
        -11   -1    0    0    0    0  0.00000000000E+00  0.00000000000E+00  0.45593999997E+02  0.45594000000E+02  0.51100000000E-03 0.  1.
         11   -1    0    0    0    0 -0.00000000000E+00 -0.00000000000E+00 -0.45593999997E+02  0.45594000000E+02  0.51100000000E-03 0. -1.
    9900012    2    1    2    0    0  0.30357674519E+01  0.56348239123E+00 -0.31736218426E+02  0.59301937898E+02  0.49999988820E+02 0.  0.
        -12    1    1    2    0    0 -0.30357674519E+01 -0.56348239123E+00  0.31736218426E+02  0.31886062102E+02  0.00000000000E+00 0.  1.
         11    1    3    3    0    0 -0.33089426092E+01 -0.19457949579E+02 -0.26118010259E+02  0.32737002965E+02  0.51100000000E-03 0. -1.
        -11    1    3    3    0    0 -0.50476077660E+01  0.65002851615E+01 -0.99554818753E+00  0.82899437752E+01  0.51100000000E-03 0.  1.
        -12    1    3    3    0    0  0.11392317827E+02  0.13521146809E+02 -0.46226599794E+01  0.18274991157E+02  0.00000000000E+00 0.  1.
</event>
<event>
 7    1  0.1215217E-011  0.5930197E+02  0.7816164E-02  0.1266605E+00
        -11   -1    0    0    0    0  0.00000000000E+00  0.00000000000E+00  0.45593999997E+02  0.45594000000E+02  0.51100000000E-03 0. -1.
         11   -1    0    0    0    0 -0.00000000000E+00 -0.00000000000E+00 -0.45593999997E+02  0.45594000000E+02  0.51100000000E-03 0.  1.
    9900012    2    1    2    0    0  0.66764383479E+01 -0.27590790390E+02  0.14522140108E+02  0.59301967060E+02  0.50000042005E+02 0.  0.
        -12    1    1    2    0    0 -0.66764383479E+01  0.27590790390E+02 -0.14522140108E+02  0.31886032940E+02  0.00000000000E+00 0.  1.
         11    1    3    3    0    0 -0.89394429444E+01 -0.85121285302E+01 -0.64536212848E+01  0.13929077508E+02  0.51100000000E-03 0. -1.
        -11    1    3    3    0    0 -0.30019855634E-01 -0.85516992939E+01 -0.73956242156E+01  0.11306092154E+02  0.51100000000E-03 0.  1.
        -12    1    3    3    0    0  0.15645901148E+02 -0.10526962566E+02  0.28371385608E+02  0.34066797398E+02  0.00000000000E+00 0.  1.
</event>
<event>
 7    1  0.1215217E-011  0.5930193E+02  0.7816164E-02  0.1266605E+00
        -11   -1    0    0    0    0  0.00000000000E+00  0.00000000000E+00  0.45593999997E+02  0.45594000000E+02  0.51100000000E-03 0.  1.
         11   -1    0    0    0    0 -0.00000000000E+00 -0.00000000000E+00 -0.45593999997E+02  0.45594000000E+02  0.51100000000E-03 0. -1.
    9900012    2    1    2    0    0  0.11714880650E+02  0.15417489781E+02 -0.25333455255E+02  0.59301931335E+02  0.49999976851E+02 0.  0.
        -12    1    1    2    0    0 -0.11714880650E+02 -0.15417489781E+02  0.25333455255E+02  0.31886068665E+02  0.00000000000E+00 0.  1.
         11    1    3    3    0    0 -0.71018559929E+01  0.11684894712E+02 -0.18771396624E+02  0.23223661521E+02  0.51100000000E-03 0. -1.
        -11    1    3    3    0    0  0.14676098199E+02  0.16483331309E+02 -0.40215559948E+01  0.22433479049E+02  0.51100000000E-03 0.  1.
        -12    1    3    3    0    0  0.41406384436E+01 -0.12750736240E+02 -0.25405026361E+01  0.13644790765E+02  0.00000000000E+00 0.  1.
</event>
<event>
 7    1  0.1215217E-011  0.5930193E+02  0.7816164E-02  0.1266605E+00
        -11   -1    0    0    0    0  0.00000000000E+00  0.00000000000E+00  0.45593999997E+02  0.45594000000E+02  0.51100000000E-03 0.  1.
         11   -1    0    0    0    0 -0.00000000000E+00 -0.00000000000E+00 -0.45593999997E+02  0.45594000000E+02  0.51100000000E-03 0. -1.
    9900012    2    1    2    0    0  0.85641889331E+01  0.17916983240E+02 -0.24947094860E+02  0.59301934666E+02  0.49999982927E+02 0.  0.
        -12    1    1    2    0    0 -0.85641889331E+01 -0.17916983240E+02  0.24947094860E+02  0.31886065334E+02  0.00000000000E+00 0.  1.
         11    1    3    3    0    0 -0.68027723337E+01 -0.86348124384E+01 -0.41845373312E+01  0.11762144796E+02  0.51100000000E-03 0. -1.
        -11    1    3    3    0    0  0.22894795356E+02  0.11021944292E+02 -0.10774416865E+02  0.27599691473E+02  0.51100000000E-03 0.  1.
         12    1    3    3    0    0 -0.75278340890E+01  0.15529851387E+02 -0.99881406644E+01  0.19940098397E+02  0.00000000000E+00 0. -1.
</event>
<event>
 7    1  0.1215217E-011  0.5930194E+02  0.7816164E-02  0.1266605E+00
        -11   -1    0    0    0    0  0.00000000000E+00  0.00000000000E+00  0.45593999997E+02  0.45594000000E+02  0.51100000000E-03 0.  1.
         11   -1    0    0    0    0 -0.00000000000E+00 -0.00000000000E+00 -0.45593999997E+02  0.45594000000E+02  0.51100000000E-03 0. -1.
    9900012    2    1    2    0    0  0.27148919641E+02 -0.16672094983E+02  0.13030739378E+01  0.59301943636E+02  0.49999999285E+02 0.  0.
        -12    1    1    2    0    0 -0.27148919641E+02  0.16672094983E+02 -0.13030739378E+01  0.31886056364E+02  0.00000000000E+00 0.  1.
         11    1    3    3    0    0  0.62289386298E+01 -0.21594835578E+01 -0.15727838351E+01  0.67776614657E+01  0.51100000000E-03 0. -1.
        -11    1    3    3    0    0  0.22183462856E+02 -0.16462588017E+02  0.20718590805E+02  0.34530896798E+02  0.51100000000E-03 0.  1.
         12    1    3    3    0    0 -0.12634818449E+01  0.19499765915E+01 -0.17842733032E+02  0.17993385372E+02  0.00000000000E+00 0. -1.
</event>
<event>
 7    1  0.1215217E-011  0.5930198E+02  0.7816164E-02  0.1266605E+00
        -11   -1    0    0    0    0  0.00000000000E+00  0.00000000000E+00  0.45593999997E+02  0.45594000000E+02  0.51100000000E-03 0.  1.
         11   -1    0    0    0    0 -0.00000000000E+00 -0.00000000000E+00 -0.45593999997E+02  0.45594000000E+02  0.51100000000E-03 0. -1.
    9900012    2    1    2    0    0  0.33125901050E+01 -0.20782695325E+02 -0.23954641816E+02  0.59301975747E+02  0.50000057848E+02 0.  0.
        -12    1    1    2    0    0 -0.33125901050E+01  0.20782695325E+02  0.23954641816E+02  0.31886024253E+02  0.00000000000E+00 0.  1.
         11    1    3    3    0    0  0.11851033386E+02  0.84131160543E+01 -0.51609748789E+00  0.14542828849E+02  0.51100000000E-03 0. -1.
        -11    1    3    3    0    0  0.26874138917E+01 -0.92975147414E+01  0.26957696932E+01  0.10046549074E+02  0.51100000000E-03 0.  1.
        -12    1    3    3    0    0 -0.11225857173E+02 -0.19898296638E+02 -0.26134314021E+02  0.34712597824E+02  0.00000000000E+00 0.  1.
</event>
<event>
 7    1  0.1215217E-011  0.5930194E+02  0.7816164E-02  0.1266605E+00
        -11   -1    0    0    0    0  0.00000000000E+00  0.00000000000E+00  0.45593999997E+02  0.45594000000E+02  0.51100000000E-03 0.  1.
         11   -1    0    0    0    0 -0.00000000000E+00 -0.00000000000E+00 -0.45593999997E+02  0.45594000000E+02  0.51100000000E-03 0. -1.
    9900012    2    1    2    0    0 -0.12413065047E+02 -0.27349261329E+02 -0.10707680583E+02  0.59301941878E+02  0.49999996079E+02 0.  0.
        -12    1    1    2    0    0  0.12413065047E+02  0.27349261329E+02  0.10707680583E+02  0.31886058122E+02  0.00000000000E+00 0.  1.
         11    1    3    3    0    0 -0.12319406320E+02  0.24045326835E+01 -0.76144881380E-01  0.12552105314E+02  0.51100000000E-03 0. -1.
        -11    1    3    3    0    0 -0.16483655633E+02 -0.85742737845E+01 -0.24123732118E+01  0.18736291488E+02  0.51100000000E-03 0.  1.
         12    1    3    3    0    0  0.16389996906E+02 -0.21179520228E+02 -0.82191624895E+01  0.28013545076E+02  0.00000000000E+00 0. -1.
</event>
<event>
 7    1  0.1215217E-011  0.5930196E+02  0.7816164E-02  0.1266605E+00
        -11   -1    0    0    0    0  0.00000000000E+00  0.00000000000E+00  0.45593999997E+02  0.45594000000E+02  0.51100000000E-03 0.  1.
         11   -1    0    0    0    0 -0.00000000000E+00 -0.00000000000E+00 -0.45593999997E+02  0.45594000000E+02  0.51100000000E-03 0. -1.
    9900012    2    1    2    0    0  0.75916650294E+01  0.76721816591E+01 -0.30003729844E+02  0.59301959890E+02  0.50000028929E+02 0.  0.
        -12    1    1    2    0    0 -0.75916650294E+01 -0.76721816591E+01  0.30003729844E+02  0.31886040110E+02  0.00000000000E+00 0.  1.
         11    1    3    3    0    0  0.81260122259E+01 -0.88476702796E+01 -0.70983120389E+00  0.12034002022E+02  0.51100000000E-03 0. -1.
        -11    1    3    3    0    0  0.32341772875E+01  0.98617893582E+01  0.54286149479E+01  0.11712585222E+02  0.51100000000E-03 0.  1.
         12    1    3    3    0    0 -0.37685244840E+01  0.66580625805E+01 -0.34722513588E+02  0.35555372646E+02  0.00000000000E+00 0. -1.
</event>
<event>
 7    1  0.1215217E-011  0.5930193E+02  0.7816164E-02  0.1266605E+00
        -11   -1    0    0    0    0  0.00000000000E+00  0.00000000000E+00  0.45593999997E+02  0.45594000000E+02  0.51100000000E-03 0.  1.
         11   -1    0    0    0    0 -0.00000000000E+00 -0.00000000000E+00 -0.45593999997E+02  0.45594000000E+02  0.51100000000E-03 0. -1.
    9900012    2    1    2    0    0  0.10035307124E+02 -0.15604404044E+02 -0.25932919970E+02  0.59301934817E+02  0.49999983203E+02 0.  0.
        -12    1    1    2    0    0 -0.10035307124E+02  0.15604404044E+02  0.25932919970E+02  0.31886065183E+02  0.00000000000E+00 0.  1.
         11    1    3    3    0    0  0.15540879459E+02 -0.65916449944E+01 -0.96420277883E+01  0.19440612599E+02  0.51100000000E-03 0. -1.
        -11    1    3    3    0    0  0.65520344900E+01  0.60534816690E+01  0.57141179515E+01  0.10593627353E+02  0.51100000000E-03 0.  1.
        -12    1    3    3    0    0 -0.12057606825E+02 -0.15066240719E+02 -0.22005010134E+02  0.29267694865E+02  0.00000000000E+00 0.  1.
</event>
<event>
 7    1  0.1215217E-011  0.5930195E+02  0.7816164E-02  0.1266605E+00
        -11   -1    0    0    0    0  0.00000000000E+00  0.00000000000E+00  0.45593999997E+02  0.45594000000E+02  0.51100000000E-03 0. -1.
         11   -1    0    0    0    0 -0.00000000000E+00 -0.00000000000E+00 -0.45593999997E+02  0.45594000000E+02  0.51100000000E-03 0.  1.
    9900012    2    1    2    0    0  0.11810659688E+02 -0.29228008834E+02 -0.47908231707E+01  0.59301950240E+02  0.50000011330E+02 0.  0.
        -12    1    1    2    0    0 -0.11810659688E+02  0.29228008834E+02  0.47908231707E+01  0.31886049760E+02  0.00000000000E+00 0.  1.
         11    1    3    3    0    0 -0.21641984244E+01 -0.66822835478E+00  0.27812565516E+01  0.35868749938E+01  0.51100000000E-03 0. -1.
        -11    1    3    3    0    0 -0.60607286002E+01 -0.61146349453E+01 -0.21053677866E+02  0.22745956643E+02  0.51100000000E-03 0.  1.
         12    1    3    3    0    0  0.20035586713E+02 -0.22445145533E+02  0.13481598144E+02  0.32969118603E+02  0.00000000000E+00 0. -1.
</event>
<event>
 7    1  0.1215217E-011  0.5930197E+02  0.7816164E-02  0.1266605E+00
        -11   -1    0    0    0    0  0.00000000000E+00  0.00000000000E+00  0.45593999997E+02  0.45594000000E+02  0.51100000000E-03 0.  1.
         11   -1    0    0    0    0 -0.00000000000E+00 -0.00000000000E+00 -0.45593999997E+02  0.45594000000E+02  0.51100000000E-03 0. -1.
    9900012    2    1    2    0    0 -0.16970637727E+02 -0.18248520280E+02 -0.19892414275E+02  0.59301965707E+02  0.50000039537E+02 0.  0.
        -12    1    1    2    0    0  0.16970637727E+02  0.18248520280E+02  0.19892414275E+02  0.31886034293E+02  0.00000000000E+00 0.  1.
         11    1    3    3    0    0 -0.47081863684E+01 -0.16256989675E+02 -0.54601785908E+01  0.17783989504E+02  0.51100000000E-03 0. -1.
        -11    1    3    3    0    0  0.78301657998E+00  0.15494383180E+01  0.11842980259E+02  0.11969547015E+02  0.51100000000E-03 0.  1.
         12    1    3    3    0    0 -0.13045467939E+02 -0.35409689233E+01 -0.26275215943E+02  0.29548429188E+02  0.00000000000E+00 0. -1.
</event>
<event>
 7    1  0.1215217E-011  0.5930196E+02  0.7816164E-02  0.1266605E+00
        -11   -1    0    0    0    0  0.00000000000E+00  0.00000000000E+00  0.45593999997E+02  0.45594000000E+02  0.51100000000E-03 0.  1.
         11   -1    0    0    0    0 -0.00000000000E+00 -0.00000000000E+00 -0.45593999997E+02  0.45594000000E+02  0.51100000000E-03 0. -1.
    9900012    2    1    2    0    0  0.60918411264E+01 -0.22579671101E+01 -0.31217154039E+02  0.59301958382E+02  0.50000026178E+02 0.  0.
        -12    1    1    2    0    0 -0.60918411264E+01  0.22579671101E+01  0.31217154039E+02  0.31886041618E+02  0.00000000000E+00 0.  1.
         11    1    3    3    0    0 -0.15473217455E+02  0.10203340387E+02 -0.25638743141E+02  0.31636589000E+02  0.51100000000E-03 0. -1.
        -11    1    3    3    0    0  0.11395870622E+01 -0.17133084979E+01  0.24762153884E+01  0.32195850031E+01  0.51100000000E-03 0.  1.
        -12    1    3    3    0    0  0.20425471519E+02 -0.10747999000E+02 -0.80546262868E+01  0.24445784379E+02  0.00000000000E+00 0.  1.
</event>
<event>
 7    1  0.1215217E-011  0.5930196E+02  0.7816164E-02  0.1266605E+00
        -11   -1    0    0    0    0  0.00000000000E+00  0.00000000000E+00  0.45593999997E+02  0.45594000000E+02  0.51100000000E-03 0. -1.
         11   -1    0    0    0    0 -0.00000000000E+00 -0.00000000000E+00 -0.45593999997E+02  0.45594000000E+02  0.51100000000E-03 0.  1.
    9900012    2    1    2    0    0  0.31717421218E+02  0.23811794096E+01  0.22483225371E+01  0.59301956371E+02  0.50000022511E+02 0.  0.
        -12    1    1    2    0    0 -0.31717421218E+02 -0.23811794096E+01 -0.22483225371E+01  0.31886043629E+02  0.00000000000E+00 0.  1.
         11    1    3    3    0    0  0.23639845505E+02  0.57473042078E+01  0.10816527460E+02  0.26624632725E+02  0.51100000000E-03 0. -1.
        -11    1    3    3    0    0  0.13614547021E+02 -0.11138351488E+02  0.28248906809E+01  0.17815688930E+02  0.51100000000E-03 0.  1.
         12    1    3    3    0    0 -0.55369713078E+01  0.77722266897E+01 -0.11393095604E+02  0.14861634716E+02  0.00000000000E+00 0. -1.
</event>
<event>
 7    1  0.1215217E-011  0.5930197E+02  0.7816164E-02  0.1266605E+00
        -11   -1    0    0    0    0  0.00000000000E+00  0.00000000000E+00  0.45593999997E+02  0.45594000000E+02  0.51100000000E-03 0. -1.
         11   -1    0    0    0    0 -0.00000000000E+00 -0.00000000000E+00 -0.45593999997E+02  0.45594000000E+02  0.51100000000E-03 0.  1.
    9900012    2    1    2    0    0 -0.25245276844E+02 -0.40656733027E+01  0.19049026502E+02  0.59301966803E+02  0.50000041537E+02 0.  0.
        -12    1    1    2    0    0  0.25245276844E+02  0.40656733027E+01 -0.19049026502E+02  0.31886033197E+02  0.00000000000E+00 0.  1.
         11    1    3    3    0    0 -0.18503027306E+02  0.14213542976E+02  0.14498681923E+02  0.27469958158E+02  0.51100000000E-03 0. -1.
        -11    1    3    3    0    0 -0.13484263167E+01 -0.11388926908E+02  0.14561637303E+02  0.18535565566E+02  0.51100000000E-03 0.  1.
        -12    1    3    3    0    0 -0.53938232214E+01 -0.68902893707E+01 -0.10011292724E+02  0.13296443080E+02  0.00000000000E+00 0.  1.
</event>
<event>
 7    1  0.1215217E-011  0.5930199E+02  0.7816164E-02  0.1266605E+00
        -11   -1    0    0    0    0  0.00000000000E+00  0.00000000000E+00  0.45593999997E+02  0.45594000000E+02  0.51100000000E-03 0.  1.
         11   -1    0    0    0    0 -0.00000000000E+00 -0.00000000000E+00 -0.45593999997E+02  0.45594000000E+02  0.51100000000E-03 0. -1.
    9900012    2    1    2    0    0  0.15601915110E+02 -0.83921112765E+01 -0.26511703120E+02  0.59301989132E+02  0.50000082259E+02 0.  0.
        -12    1    1    2    0    0 -0.15601915110E+02  0.83921112765E+01  0.26511703120E+02  0.31886010868E+02  0.00000000000E+00 0.  1.
         11    1    3    3    0    0  0.45661644417E+01 -0.36207972612E+01 -0.31856984492E+01  0.66414385027E+01  0.51100000000E-03 0. -1.
        -11    1    3    3    0    0  0.19471239292E+02  0.15738021003E+02 -0.12354601923E+02  0.27918643477E+02  0.51100000000E-03 0.  1.
         12    1    3    3    0    0 -0.84354886245E+01 -0.20509335019E+02 -0.10971402748E+02  0.24741907152E+02  0.00000000000E+00 0. -1.
</event>
<event>
 7    1  0.1215217E-011  0.5930197E+02  0.7816164E-02  0.1266605E+00
        -11   -1    0    0    0    0  0.00000000000E+00  0.00000000000E+00  0.45593999997E+02  0.45594000000E+02  0.51100000000E-03 0.  1.
         11   -1    0    0    0    0 -0.00000000000E+00 -0.00000000000E+00 -0.45593999997E+02  0.45594000000E+02  0.51100000000E-03 0. -1.
    9900012    2    1    2    0    0 -0.16792636395E+02  0.17886741640E+02 -0.20366415028E+02  0.59301968188E+02  0.50000044063E+02 0.  0.
        -12    1    1    2    0    0  0.16792636395E+02 -0.17886741640E+02  0.20366415028E+02  0.31886031812E+02  0.00000000000E+00 0.  1.
         11    1    3    3    0    0 -0.13656200984E+01  0.77154457581E+01 -0.19456740224E+02  0.20975170128E+02  0.51100000000E-03 0. -1.
        -11    1    3    3    0    0  0.14872121104E+01 -0.98460941730E+01  0.54610305387E+01  0.11356946118E+02  0.51100000000E-03 0.  1.
        -12    1    3    3    0    0 -0.16914228407E+02  0.20017390055E+02 -0.63707053435E+01  0.26969851942E+02  0.00000000000E+00 0.  1.
</event>
<event>
 7    1  0.1215217E-011  0.5930194E+02  0.7816164E-02  0.1266605E+00
        -11   -1    0    0    0    0  0.00000000000E+00  0.00000000000E+00  0.45593999997E+02  0.45594000000E+02  0.51100000000E-03 0. -1.
         11   -1    0    0    0    0 -0.00000000000E+00 -0.00000000000E+00 -0.45593999997E+02  0.45594000000E+02  0.51100000000E-03 0.  1.
    9900012    2    1    2    0    0 -0.20562724856E+02 -0.23087190801E+02  0.78023402420E+01  0.59301944336E+02  0.50000000562E+02 0.  0.
        -12    1    1    2    0    0  0.20562724856E+02  0.23087190801E+02 -0.78023402420E+01  0.31886055664E+02  0.00000000000E+00 0.  1.
         11    1    3    3    0    0  0.23955421665E+00 -0.46196290074E+01 -0.89977300967E+01  0.10117188619E+02  0.51100000000E-03 0.  1.
        -11    1    3    3    0    0 -0.13084529058E+02 -0.62431878714E+00 -0.97132282570E+01  0.16307712226E+02  0.51100000000E-03 0. -1.
         12    1    3    3    0    0 -0.77177500147E+01 -0.17843243006E+02  0.26513298596E+02  0.32877043491E+02  0.00000000000E+00 0. -1.
</event>
<event>
 7    1  0.1215217E-011  0.5930195E+02  0.7816164E-02  0.1266605E+00
        -11   -1    0    0    0    0  0.00000000000E+00  0.00000000000E+00  0.45593999997E+02  0.45594000000E+02  0.51100000000E-03 0. -1.
         11   -1    0    0    0    0 -0.00000000000E+00 -0.00000000000E+00 -0.45593999997E+02  0.45594000000E+02  0.51100000000E-03 0.  1.
    9900012    2    1    2    0    0 -0.20466021624E+02 -0.22570653620E+02  0.94035913415E+01  0.59301953270E+02  0.50000016855E+02 0.  0.
        -12    1    1    2    0    0  0.20466021624E+02  0.22570653620E+02 -0.94035913415E+01  0.31886046730E+02  0.00000000000E+00 0.  1.
         11    1    3    3    0    0 -0.94720013441E+01 -0.58338762520E+00  0.46328485240E+01  0.10560418377E+02  0.51100000000E-03 0. -1.
        -11    1    3    3    0    0 -0.28986837602E+01 -0.17872860348E+02 -0.17196578031E+02  0.24971259496E+02  0.51100000000E-03 0.  1.
         12    1    3    3    0    0 -0.80953365201E+01 -0.41144056467E+01  0.21967320848E+02  0.23770275397E+02  0.00000000000E+00 0. -1.
</event>
<event>
 7    1  0.1215217E-011  0.5930197E+02  0.7816164E-02  0.1266605E+00
        -11   -1    0    0    0    0  0.00000000000E+00  0.00000000000E+00  0.45593999997E+02  0.45594000000E+02  0.51100000000E-03 0.  1.
         11   -1    0    0    0    0 -0.00000000000E+00 -0.00000000000E+00 -0.45593999997E+02  0.45594000000E+02  0.51100000000E-03 0. -1.
    9900012    2    1    2    0    0 -0.42879378451E+01 -0.11481221164E+02 -0.29436615462E+02  0.59301965749E+02  0.50000039615E+02 0.  0.
        -12    1    1    2    0    0  0.42879378451E+01  0.11481221164E+02  0.29436615462E+02  0.31886034251E+02  0.00000000000E+00 0.  1.
         11    1    3    3    0    0 -0.12887484185E+01 -0.98541406053E+01 -0.93924568543E+01  0.13674180252E+02  0.51100000000E-03 0. -1.
        -11    1    3    3    0    0  0.15265646659E+02  0.71261580475E+01 -0.18933144961E+02  0.25343363526E+02  0.51100000000E-03 0.  1.
         12    1    3    3    0    0 -0.18264836086E+02 -0.87532386064E+01 -0.11110136466E+01  0.20284421970E+02  0.00000000000E+00 0. -1.
</event>
<event>
 7    1  0.1215217E-011  0.5930195E+02  0.7816164E-02  0.1266605E+00
        -11   -1    0    0    0    0  0.00000000000E+00  0.00000000000E+00  0.45593999997E+02  0.45594000000E+02  0.51100000000E-03 0.  1.
         11   -1    0    0    0    0 -0.00000000000E+00 -0.00000000000E+00 -0.45593999997E+02  0.45594000000E+02  0.51100000000E-03 0. -1.
    9900012    2    1    2    0    0  0.11393578195E+02  0.20452267546E+02 -0.21647425087E+02  0.59301954702E+02  0.50000019467E+02 0.  0.
        -12    1    1    2    0    0 -0.11393578195E+02 -0.20452267546E+02  0.21647425087E+02  0.31886045298E+02  0.00000000000E+00 0.  1.
         11    1    3    3    0    0 -0.14572489875E+02  0.11075441657E+02 -0.14106234918E+02  0.23108628970E+02  0.51100000000E-03 0. -1.
        -11    1    3    3    0    0  0.71913097355E+01 -0.61547419017E+01 -0.70837122030E+01  0.11822637710E+02  0.51100000000E-03 0.  1.
        -12    1    3    3    0    0  0.18774758335E+02  0.15531567791E+02 -0.45747796564E+00  0.24370688022E+02  0.00000000000E+00 0.  1.
</event>
<event>
 7    1  0.1215217E-011  0.5930194E+02  0.7816164E-02  0.1266605E+00
        -11   -1    0    0    0    0  0.00000000000E+00  0.00000000000E+00  0.45593999997E+02  0.45594000000E+02  0.51100000000E-03 0.  1.
         11   -1    0    0    0    0 -0.00000000000E+00 -0.00000000000E+00 -0.45593999997E+02  0.45594000000E+02  0.51100000000E-03 0. -1.
    9900012    2    1    2    0    0  0.12260708810E+02 -0.57835340330E+01 -0.28860812609E+02  0.59301941121E+02  0.49999994698E+02 0.  0.
        -12    1    1    2    0    0 -0.12260708810E+02  0.57835340330E+01  0.28860812609E+02  0.31886058879E+02  0.00000000000E+00 0.  1.
         11    1    3    3    0    0 -0.60428505491E+01 -0.75511273697E+01 -0.12532385292E+02  0.15830232111E+02  0.51100000000E-03 0. -1.
        -11    1    3    3    0    0 -0.78372462394E+00 -0.14453087341E+02 -0.19926296671E+01  0.14610836089E+02  0.51100000000E-03 0.  1.
         12    1    3    3    0    0  0.19087283983E+02  0.16220680678E+02 -0.14335797649E+02  0.28860872920E+02  0.00000000000E+00 0. -1.
</event>
<event>
 7    1  0.1215217E-011  0.5930195E+02  0.7816164E-02  0.1266605E+00
        -11   -1    0    0    0    0  0.00000000000E+00  0.00000000000E+00  0.45593999997E+02  0.45594000000E+02  0.51100000000E-03 0.  1.
         11   -1    0    0    0    0 -0.00000000000E+00 -0.00000000000E+00 -0.45593999997E+02  0.45594000000E+02  0.51100000000E-03 0. -1.
    9900012    2    1    2    0    0 -0.10134027380E+02  0.11969245524E+02 -0.27762547473E+02  0.59301946755E+02  0.50000004974E+02 0.  0.
        -12    1    1    2    0    0  0.10134027380E+02 -0.11969245524E+02  0.27762547473E+02  0.31886053245E+02  0.00000000000E+00 0.  1.
         11    1    3    3    0    0 -0.28804500227E+01 -0.30726625358E+01 -0.20156705778E+02  0.20592013876E+02  0.51100000000E-03 0. -1.
        -11    1    3    3    0    0  0.95707252991E+01  0.15557383770E+02 -0.11298299258E+02  0.21477489120E+02  0.51100000000E-03 0.  1.
         12    1    3    3    0    0 -0.16824302656E+02 -0.51547570958E+00  0.36924575629E+01  0.17232443760E+02  0.00000000000E+00 0. -1.
</event>
<event>
 7    1  0.1215217E-011  0.5930195E+02  0.7816164E-02  0.1266605E+00
        -11   -1    0    0    0    0  0.00000000000E+00  0.00000000000E+00  0.45593999997E+02  0.45594000000E+02  0.51100000000E-03 0.  1.
         11   -1    0    0    0    0 -0.00000000000E+00 -0.00000000000E+00 -0.45593999997E+02  0.45594000000E+02  0.51100000000E-03 0. -1.
    9900012    2    1    2    0    0 -0.12532211425E+02  0.14240235903E+02 -0.25629660763E+02  0.59301950502E+02  0.50000011807E+02 0.  0.
        -12    1    1    2    0    0  0.12532211425E+02 -0.14240235903E+02  0.25629660763E+02  0.31886049498E+02  0.00000000000E+00 0.  1.
         11    1    3    3    0    0 -0.18801705681E+02 -0.80652465431E+00 -0.12118941050E+02  0.22383550902E+02  0.51100000000E-03 0. -1.
        -11    1    3    3    0    0 -0.40902453375E+01 -0.67585350000E+01 -0.96488751496E+01  0.12470312513E+02  0.51100000000E-03 0.  1.
         12    1    3    3    0    0  0.10359739594E+02  0.21805295557E+02 -0.38618445640E+01  0.24448087087E+02  0.00000000000E+00 0. -1.
</event>
<event>
 7    1  0.1215217E-011  0.5930193E+02  0.7816164E-02  0.1266605E+00
        -11   -1    0    0    0    0  0.00000000000E+00  0.00000000000E+00  0.45593999997E+02  0.45594000000E+02  0.51100000000E-03 0.  1.
         11   -1    0    0    0    0 -0.00000000000E+00 -0.00000000000E+00 -0.45593999997E+02  0.45594000000E+02  0.51100000000E-03 0. -1.
    9900012    2    1    2    0    0 -0.63126370518E+01  0.11788946219E+01 -0.31232711020E+02  0.59301930679E+02  0.49999975655E+02 0.  0.
        -12    1    1    2    0    0  0.63126370518E+01 -0.11788946219E+01  0.31232711020E+02  0.31886069321E+02  0.00000000000E+00 0.  1.
         11    1    3    3    0    0 -0.34545679933E+01  0.12088037119E+02 -0.15244807130E+02  0.19760031025E+02  0.51100000000E-03 0. -1.
        -11    1    3    3    0    0 -0.18511138130E+02 -0.42541189378E+01 -0.65593860632E+01  0.20094409884E+02  0.51100000000E-03 0.  1.
        -12    1    3    3    0    0  0.15653069071E+02 -0.66550235598E+01 -0.94285178265E+01  0.19447489770E+02  0.00000000000E+00 0.  1.
</event>
<event>
 7    1  0.1215217E-011  0.5930195E+02  0.7816164E-02  0.1266605E+00
        -11   -1    0    0    0    0  0.00000000000E+00  0.00000000000E+00  0.45593999997E+02  0.45594000000E+02  0.51100000000E-03 0. -1.
         11   -1    0    0    0    0 -0.00000000000E+00 -0.00000000000E+00 -0.45593999997E+02  0.45594000000E+02  0.51100000000E-03 0.  1.
    9900012    2    1    2    0    0  0.14057858267E+02 -0.28374979810E+02 -0.37359779361E+01  0.59301946789E+02  0.50000005035E+02 0.  0.
        -12    1    1    2    0    0 -0.14057858267E+02  0.28374979810E+02  0.37359779361E+01  0.31886053211E+02  0.00000000000E+00 0.  1.
         11    1    3    3    0    0  0.62175150363E+00  0.57159797642E+01  0.82756900621E+00  0.58089474363E+01  0.51100000000E-03 0. -1.
        -11    1    3    3    0    0  0.22595459640E+02 -0.14343550084E+02 -0.13483335057E+02  0.29968192303E+02  0.51100000000E-03 0.  1.
        -12    1    3    3    0    0 -0.91593528773E+01 -0.19747409490E+02  0.89197881151E+01  0.23524807049E+02  0.00000000000E+00 0.  1.
</event>
<event>
 7    1  0.1215217E-011  0.5930197E+02  0.7816164E-02  0.1266605E+00
        -11   -1    0    0    0    0  0.00000000000E+00  0.00000000000E+00  0.45593999997E+02  0.45594000000E+02  0.51100000000E-03 0.  1.
         11   -1    0    0    0    0 -0.00000000000E+00 -0.00000000000E+00 -0.45593999997E+02  0.45594000000E+02  0.51100000000E-03 0. -1.
    9900012    2    1    2    0    0 -0.29728472453E+02  0.94647643127E+01  0.65844402101E+01  0.59301973425E+02  0.50000053614E+02 0.  0.
        -12    1    1    2    0    0  0.29728472453E+02 -0.94647643127E+01 -0.65844402101E+01  0.31886026575E+02  0.00000000000E+00 0.  1.
         11    1    3    3    0    0  0.32128131163E+01  0.58977066545E+01  0.50638810773E+01  0.84111832538E+01  0.51100000000E-03 0. -1.
        -11    1    3    3    0    0  0.66084894813E+01 -0.82886195164E+00  0.81752654846E+01  0.10544861847E+02  0.51100000000E-03 0.  1.
         12    1    3    3    0    0 -0.39549775050E+02  0.43959196098E+01 -0.66547063517E+01  0.40345928325E+02  0.00000000000E+00 0. -1.
</event>
<event>
 7    1  0.1215217E-011  0.5930195E+02  0.7816164E-02  0.1266605E+00
        -11   -1    0    0    0    0  0.00000000000E+00  0.00000000000E+00  0.45593999997E+02  0.45594000000E+02  0.51100000000E-03 0. -1.
         11   -1    0    0    0    0 -0.00000000000E+00 -0.00000000000E+00 -0.45593999997E+02  0.45594000000E+02  0.51100000000E-03 0.  1.
    9900012    2    1    2    0    0  0.22535933124E+02 -0.67195849238E+01  0.21533674601E+02  0.59301949051E+02  0.50000009161E+02 0.  0.
        -12    1    1    2    0    0 -0.22535933124E+02  0.67195849238E+01 -0.21533674601E+02  0.31886050949E+02  0.00000000000E+00 0.  1.
         11    1    3    3    0    0  0.10284780929E+02 -0.80648225267E+00  0.17403488004E+01  0.10462119604E+02  0.51100000000E-03 0. -1.
        -11    1    3    3    0    0  0.90858152192E+01 -0.24085047222E+02  0.80410391763E+01  0.26968497347E+02  0.51100000000E-03 0.  1.
         12    1    3    3    0    0  0.31653369749E+01  0.18171944551E+02  0.11752286624E+02  0.21871332100E+02  0.00000000000E+00 0. -1.
</event>
<event>
 7    1  0.1215217E-011  0.5930188E+02  0.7816164E-02  0.1266605E+00
        -11   -1    0    0    0    0  0.00000000000E+00  0.00000000000E+00  0.45593999997E+02  0.45594000000E+02  0.51100000000E-03 0. -1.
         11   -1    0    0    0    0 -0.00000000000E+00 -0.00000000000E+00 -0.45593999997E+02  0.45594000000E+02  0.51100000000E-03 0.  1.
    9900012    2    1    2    0    0 -0.73644358793E+01  0.28168869192E+02  0.13000182574E+02  0.59301876775E+02  0.49999877347E+02 0.  0.
        -12    1    1    2    0    0  0.73644358793E+01 -0.28168869192E+02 -0.13000182574E+02  0.31886123225E+02  0.00000000000E+00 0.  1.
         11    1    3    3    0    0  0.19389036457E+02  0.19775927456E+02  0.74210561460E+01  0.28672183664E+02  0.51100000000E-03 0. -1.
        -11    1    3    3    0    0 -0.80192123940E+01  0.71719693802E+00 -0.30662438224E+01  0.86153346022E+01  0.51100000000E-03 0.  1.
        -12    1    3    3    0    0 -0.18734259942E+02  0.76757447986E+01  0.86453702503E+01  0.22014358509E+02  0.00000000000E+00 0.  1.
</event>
<event>
 7    1  0.1215217E-011  0.5930196E+02  0.7816164E-02  0.1266605E+00
        -11   -1    0    0    0    0  0.00000000000E+00  0.00000000000E+00  0.45593999997E+02  0.45594000000E+02  0.51100000000E-03 0. -1.
         11   -1    0    0    0    0 -0.00000000000E+00 -0.00000000000E+00 -0.45593999997E+02  0.45594000000E+02  0.51100000000E-03 0.  1.
    9900012    2    1    2    0    0 -0.31812313972E+02  0.19478363828E+01 -0.94973832383E+00  0.59301962465E+02  0.50000033625E+02 0.  0.
        -12    1    1    2    0    0  0.31812313972E+02 -0.19478363828E+01  0.94973832383E+00  0.31886037535E+02  0.00000000000E+00 0.  1.
         11    1    3    3    0    0 -0.13822098854E+02  0.89334331907E+01  0.12803401046E+02  0.20851468148E+02  0.51100000000E-03 0. -1.
        -11    1    3    3    0    0 -0.15110328652E+02  0.48352261368E+01  0.45209920677E+01  0.16496690981E+02  0.51100000000E-03 0.  1.
        -12    1    3    3    0    0 -0.28798864657E+01 -0.11820822945E+02 -0.18274131438E+02  0.21953803337E+02  0.00000000000E+00 0.  1.
</event>
<event>
 7    1  0.1215217E-011  0.5930166E+02  0.7816164E-02  0.1266606E+00
        -11   -1    0    0    0    0  0.00000000000E+00  0.00000000000E+00  0.45593999997E+02  0.45594000000E+02  0.51100000000E-03 0. -1.
         11   -1    0    0    0    0 -0.00000000000E+00 -0.00000000000E+00 -0.45593999997E+02  0.45594000000E+02  0.51100000000E-03 0.  1.
    9900012    2    1    2    0    0 -0.16989431904E+02 -0.11080815272E+02  0.24603120477E+02  0.59301658085E+02  0.49999478507E+02 0.  0.
        -12    1    1    2    0    0  0.16989431904E+02  0.11080815272E+02 -0.24603120477E+02  0.31886341915E+02  0.00000000000E+00 0.  1.
         11    1    3    3    0    0  0.67163394409E+01 -0.26398827229E+01  0.30226465678E+01  0.78239752563E+01  0.51100000000E-03 0. -1.
        -11    1    3    3    0    0  0.85377074432E+01  0.98071140018E+00 -0.37793163081E+01  0.93881561158E+01  0.51100000000E-03 0.  1.
        -12    1    3    3    0    0 -0.32243478789E+02 -0.94216439490E+01  0.25359790217E+02  0.42089526713E+02  0.00000000000E+00 0.  1.
</event>
<event>
 7    1  0.1215217E-011  0.5930183E+02  0.7816164E-02  0.1266605E+00
        -11   -1    0    0    0    0  0.00000000000E+00  0.00000000000E+00  0.45593999997E+02  0.45594000000E+02  0.51100000000E-03 0. -1.
         11   -1    0    0    0    0 -0.00000000000E+00 -0.00000000000E+00 -0.45593999997E+02  0.45594000000E+02  0.51100000000E-03 0.  1.
    9900012    2    1    2    0    0  0.33317074692E+01  0.24868387215E+02 -0.19677160419E+02  0.59301833729E+02  0.49999798841E+02 0.  0.
        -12    1    1    2    0    0 -0.33317074692E+01 -0.24868387215E+02  0.19677160419E+02  0.31886166271E+02  0.00000000000E+00 0.  1.
         11    1    3    3    0    0  0.33479384286E+01  0.32836624198E+01 -0.13577040337E+02  0.14364092564E+02  0.51100000000E-03 0. -1.
        -11    1    3    3    0    0  0.13198496591E+02  0.15199933819E+02 -0.17246820338E+02  0.26508321569E+02  0.51100000000E-03 0.  1.
         12    1    3    3    0    0 -0.13214727551E+02  0.63847909761E+01  0.11146700256E+02  0.18429419596E+02  0.00000000000E+00 0. -1.
</event>
<event>
 7    1  0.1215217E-011  0.5930193E+02  0.7816164E-02  0.1266605E+00
        -11   -1    0    0    0    0  0.00000000000E+00  0.00000000000E+00  0.45593999997E+02  0.45594000000E+02  0.51100000000E-03 0.  1.
         11   -1    0    0    0    0 -0.00000000000E+00 -0.00000000000E+00 -0.45593999997E+02  0.45594000000E+02  0.51100000000E-03 0. -1.
    9900012    2    1    2    0    0 -0.15306740121E+02 -0.51528403297E+01 -0.27493150837E+02  0.59301930949E+02  0.49999976147E+02 0.  0.
        -12    1    1    2    0    0  0.15306740121E+02  0.51528403297E+01  0.27493150837E+02  0.31886069051E+02  0.00000000000E+00 0.  1.
         11    1    3    3    0    0  0.45230669303E+01  0.19912040563E+01 -0.51987830135E+01  0.71728915461E+01  0.51100000000E-03 0. -1.
        -11    1    3    3    0    0  0.82628417330E+01  0.10817595252E+02 -0.45174846241E+01  0.14342335518E+02  0.51100000000E-03 0.  1.
        -12    1    3    3    0    0 -0.28092648784E+02 -0.17961639638E+02 -0.17776883199E+02  0.37786703884E+02  0.00000000000E+00 0.  1.
</event>
<event>
 7    1  0.1215217E-011  0.5930194E+02  0.7816164E-02  0.1266605E+00
        -11   -1    0    0    0    0  0.00000000000E+00  0.00000000000E+00  0.45593999997E+02  0.45594000000E+02  0.51100000000E-03 0. -1.
         11   -1    0    0    0    0 -0.00000000000E+00 -0.00000000000E+00 -0.45593999997E+02  0.45594000000E+02  0.51100000000E-03 0.  1.
    9900012    2    1    2    0    0  0.25347490530E+02 -0.15238736759E+02 -0.11916652413E+02  0.59301937545E+02  0.49999988176E+02 0.  0.
        -12    1    1    2    0    0 -0.25347490530E+02  0.15238736759E+02  0.11916652413E+02  0.31886062455E+02  0.00000000000E+00 0.  1.
         11    1    3    3    0    0  0.11731588039E+01  0.32880780253E+01  0.12793058542E+02  0.13260848608E+02  0.51100000000E-03 0. -1.
        -11    1    3    3    0    0  0.57981345184E+01  0.15200965408E+01  0.34314945208E+01  0.69068236038E+01  0.51100000000E-03 0.  1.
        -12    1    3    3    0    0  0.18376197208E+02 -0.20046911325E+02 -0.28141205476E+02  0.39134265333E+02  0.00000000000E+00 0.  1.
</event>
<event>
 7    1  0.1215217E-011  0.5930179E+02  0.7816164E-02  0.1266605E+00
        -11   -1    0    0    0    0  0.00000000000E+00  0.00000000000E+00  0.45593999997E+02  0.45594000000E+02  0.51100000000E-03 0. -1.
         11   -1    0    0    0    0 -0.00000000000E+00 -0.00000000000E+00 -0.45593999997E+02  0.45594000000E+02  0.51100000000E-03 0.  1.
    9900012    2    1    2    0    0 -0.14600031914E+02  0.13638051025E+02  0.24851016273E+02  0.59301790168E+02  0.49999719396E+02 0.  0.
        -12    1    1    2    0    0  0.14600031914E+02 -0.13638051025E+02 -0.24851016273E+02  0.31886209832E+02  0.00000000000E+00 0.  1.
         11    1    3    3    0    0  0.39296587090E+01  0.13795840688E+02  0.59647133546E+01  0.15535290262E+02  0.51100000000E-03 0. -1.
        -11    1    3    3    0    0 -0.19716712930E+02 -0.76283811379E+01 -0.23043763865E+01  0.21266196612E+02  0.51100000000E-03 0.  1.
         12    1    3    3    0    0  0.11870223071E+01  0.74705914746E+01  0.21190679305E+02  0.22500303294E+02  0.00000000000E+00 0. -1.
</event>
<event>
 7    1  0.1215217E-011  0.5930190E+02  0.7816164E-02  0.1266605E+00
        -11   -1    0    0    0    0  0.00000000000E+00  0.00000000000E+00  0.45593999997E+02  0.45594000000E+02  0.51100000000E-03 0.  1.
         11   -1    0    0    0    0 -0.00000000000E+00 -0.00000000000E+00 -0.45593999997E+02  0.45594000000E+02  0.51100000000E-03 0. -1.
    9900012    2    1    2    0    0 -0.13554834733E+02 -0.11523314384E+02 -0.26461354538E+02  0.59301896396E+02  0.49999913132E+02 0.  0.
        -12    1    1    2    0    0  0.13554834733E+02  0.11523314384E+02  0.26461354538E+02  0.31886103604E+02  0.00000000000E+00 0.  1.
         11    1    3    3    0    0  0.81365282458E+01  0.14050230032E+01 -0.80771740673E+01  0.11550667630E+02  0.51100000000E-03 0. -1.
        -11    1    3    3    0    0 -0.10355983233E+01  0.10926639292E+02  0.48237207845E+00  0.10986200125E+02  0.51100000000E-03 0.  1.
         12    1    3    3    0    0 -0.20655764656E+02 -0.23854976679E+02 -0.18866552549E+02  0.36765028641E+02  0.00000000000E+00 0. -1.
</event>
<event>
 7    1  0.1215217E-011  0.5930195E+02  0.7816164E-02  0.1266605E+00
        -11   -1    0    0    0    0  0.00000000000E+00  0.00000000000E+00  0.45593999997E+02  0.45594000000E+02  0.51100000000E-03 0. -1.
         11   -1    0    0    0    0 -0.00000000000E+00 -0.00000000000E+00 -0.45593999997E+02  0.45594000000E+02  0.51100000000E-03 0.  1.
    9900012    2    1    2    0    0 -0.14018087546E+02  0.27721760963E+02  0.71914927395E+01  0.59301946980E+02  0.50000005385E+02 0.  0.
        -12    1    1    2    0    0  0.14018087546E+02 -0.27721760963E+02 -0.71914927395E+01  0.31886053020E+02  0.00000000000E+00 0.  1.
         11    1    3    3    0    0 -0.12590855574E+01  0.91359657617E+01  0.46102062277E+01  0.10310439785E+02  0.51100000000E-03 0. -1.
        -11    1    3    3    0    0  0.11778331232E+01  0.61891521465E+01 -0.19263056569E+02  0.20267171579E+02  0.51100000000E-03 0.  1.
         12    1    3    3    0    0 -0.13936835112E+02  0.12396643055E+02  0.21844343081E+02  0.28724335616E+02  0.00000000000E+00 0. -1.
</event>
<event>
 7    1  0.1215217E-011  0.5930198E+02  0.7816164E-02  0.1266605E+00
        -11   -1    0    0    0    0  0.00000000000E+00  0.00000000000E+00  0.45593999997E+02  0.45594000000E+02  0.51100000000E-03 0.  1.
         11   -1    0    0    0    0 -0.00000000000E+00 -0.00000000000E+00 -0.45593999997E+02  0.45594000000E+02  0.51100000000E-03 0. -1.
    9900012    2    1    2    0    0 -0.29473410468E+00 -0.31879676521E+02  0.56376984109E+00  0.59301976734E+02  0.50000059649E+02 0.  0.
        -12    1    1    2    0    0  0.29473410468E+00  0.31879676521E+02 -0.56376984109E+00  0.31886023266E+02  0.00000000000E+00 0.  1.
         11    1    3    3    0    0  0.44194095179E+01 -0.48202244410E+01  0.51111588596E-01  0.65397520446E+01  0.51100000000E-03 0. -1.
        -11    1    3    3    0    0 -0.12681330967E+00 -0.20387021070E+02  0.21883536270E+02  0.29908792514E+02  0.51100000000E-03 0.  1.
        -12    1    3    3    0    0 -0.45873303129E+01 -0.66724310097E+01 -0.21370878017E+02  0.22853432176E+02  0.00000000000E+00 0.  1.
</event>
<event>
 7    1  0.1215217E-011  0.5930194E+02  0.7816164E-02  0.1266605E+00
        -11   -1    0    0    0    0  0.00000000000E+00  0.00000000000E+00  0.45593999997E+02  0.45594000000E+02  0.51100000000E-03 0.  1.
         11   -1    0    0    0    0 -0.00000000000E+00 -0.00000000000E+00 -0.45593999997E+02  0.45594000000E+02  0.51100000000E-03 0. -1.
    9900012    2    1    2    0    0 -0.16345810226E+00  0.15380897286E+02 -0.27930669609E+02  0.59301936827E+02  0.49999986867E+02 0.  0.
        -12    1    1    2    0    0  0.16345810226E+00 -0.15380897286E+02  0.27930669609E+02  0.31886063173E+02  0.00000000000E+00 0.  1.
         11    1    3    3    0    0 -0.87306068653E+01  0.10138906284E+02 -0.25190242627E+02  0.28523135184E+02  0.51100000000E-03 0. -1.
        -11    1    3    3    0    0  0.17618574285E+02  0.37716674243E+01 -0.85290761346E+01  0.19934512158E+02  0.51100000000E-03 0.  1.
         12    1    3    3    0    0 -0.90514255225E+01  0.14703235772E+01  0.57886491525E+01  0.10844289484E+02  0.00000000000E+00 0. -1.
</event>
<event>
 7    1  0.1215217E-011  0.5930193E+02  0.7816164E-02  0.1266605E+00
        -11   -1    0    0    0    0  0.00000000000E+00  0.00000000000E+00  0.45593999997E+02  0.45594000000E+02  0.51100000000E-03 0. -1.
         11   -1    0    0    0    0 -0.00000000000E+00 -0.00000000000E+00 -0.45593999997E+02  0.45594000000E+02  0.51100000000E-03 0.  1.
    9900012    2    1    2    0    0 -0.97812490023E+01  0.19869403386E+02 -0.22940259475E+02  0.59301928938E+02  0.49999972480E+02 0.  0.
        -12    1    1    2    0    0  0.97812490023E+01 -0.19869403386E+02  0.22940259475E+02  0.31886071062E+02  0.00000000000E+00 0.  1.
         11    1    3    3    0    0 -0.11486782205E+02  0.20640086409E+02 -0.32560819705E+02  0.40226437980E+02  0.51100000000E-03 0. -1.
        -11    1    3    3    0    0  0.30082192042E+01 -0.26289430817E+01 -0.37705594244E+01  0.54934363692E+01  0.51100000000E-03 0.  1.
        -12    1    3    3    0    0 -0.13026860020E+01  0.18582600587E+01  0.13391119655E+02  0.13582054589E+02  0.00000000000E+00 0.  1.
</event>
<event>
 7    1  0.1215217E-011  0.5930195E+02  0.7816164E-02  0.1266605E+00
        -11   -1    0    0    0    0  0.00000000000E+00  0.00000000000E+00  0.45593999997E+02  0.45594000000E+02  0.51100000000E-03 0. -1.
         11   -1    0    0    0    0 -0.00000000000E+00 -0.00000000000E+00 -0.45593999997E+02  0.45594000000E+02  0.51100000000E-03 0.  1.
    9900012    2    1    2    0    0 -0.17217860004E+02 -0.24339172525E+02  0.11307960279E+02  0.59301953083E+02  0.50000016515E+02 0.  0.
        -12    1    1    2    0    0  0.17217860004E+02  0.24339172525E+02 -0.11307960279E+02  0.31886046917E+02  0.00000000000E+00 0.  1.
         11    1    3    3    0    0 -0.15044594366E+02 -0.28410198700E+01  0.16302717997E+02  0.22364924053E+02  0.51100000000E-03 0. -1.
        -11    1    3    3    0    0 -0.99623736173E+01 -0.10828191413E+02  0.93520919426E+01  0.17434455579E+02  0.51100000000E-03 0.  1.
        -12    1    3    3    0    0  0.77891079795E+01 -0.10669961242E+02 -0.14346849661E+02  0.19502573451E+02  0.00000000000E+00 0.  1.
</event>
<event>
 7    1  0.1215217E-011  0.5930195E+02  0.7816164E-02  0.1266605E+00
        -11   -1    0    0    0    0  0.00000000000E+00  0.00000000000E+00  0.45593999997E+02  0.45594000000E+02  0.51100000000E-03 0. -1.
         11   -1    0    0    0    0 -0.00000000000E+00 -0.00000000000E+00 -0.45593999997E+02  0.45594000000E+02  0.51100000000E-03 0.  1.
    9900012    2    1    2    0    0 -0.23087878014E+02  0.17485446251E+02 -0.13339005932E+02  0.59301952565E+02  0.50000015570E+02 0.  0.
        -12    1    1    2    0    0  0.23087878014E+02 -0.17485446251E+02  0.13339005932E+02  0.31886047435E+02  0.00000000000E+00 0.  1.
         11    1    3    3    0    0 -0.83496534792E+01  0.87975643450E+01 -0.20620416625E+02  0.23923115049E+02  0.51100000000E-03 0. -1.
        -11    1    3    3    0    0 -0.88316137097E+00 -0.72633570396E+01 -0.67994031552E+01  0.99884039275E+01  0.51100000000E-03 0.  1.
         12    1    3    3    0    0 -0.13855063164E+02  0.15951238945E+02  0.14080813848E+02  0.25390433588E+02  0.00000000000E+00 0. -1.
</event>
<event>
 7    1  0.1215217E-011  0.5930200E+02  0.7816164E-02  0.1266605E+00
        -11   -1    0    0    0    0  0.00000000000E+00  0.00000000000E+00  0.45593999997E+02  0.45594000000E+02  0.51100000000E-03 0. -1.
         11   -1    0    0    0    0 -0.00000000000E+00 -0.00000000000E+00 -0.45593999997E+02  0.45594000000E+02  0.51100000000E-03 0.  1.
    9900012    2    1    2    0    0 -0.88588023738E+01  0.28767240912E+02 -0.10520659365E+02  0.59302003032E+02  0.50000107609E+02 0.  0.
        -12    1    1    2    0    0  0.88588023738E+01 -0.28767240912E+02  0.10520659365E+02  0.31885996968E+02  0.00000000000E+00 0.  1.
         11    1    3    3    0    0 -0.91733770820E+01  0.15611813314E+02 -0.18736134400E+02  0.26056137368E+02  0.51100000000E-03 0. -1.
        -11    1    3    3    0    0 -0.66649744389E+01  0.12983410074E+01  0.16039805928E+02  0.17417891609E+02  0.51100000000E-03 0.  1.
         12    1    3    3    0    0  0.69795491471E+01  0.11857086591E+02 -0.78243308930E+01  0.15827974054E+02  0.00000000000E+00 0. -1.
</event>
<event>
 7    1  0.1215217E-011  0.5930189E+02  0.7816164E-02  0.1266605E+00
        -11   -1    0    0    0    0  0.00000000000E+00  0.00000000000E+00  0.45593999997E+02  0.45594000000E+02  0.51100000000E-03 0.  1.
         11   -1    0    0    0    0 -0.00000000000E+00 -0.00000000000E+00 -0.45593999997E+02  0.45594000000E+02  0.51100000000E-03 0. -1.
    9900012    2    1    2    0    0 -0.24131493990E+02  0.19004037501E+02 -0.85581285797E+01  0.59301890041E+02  0.49999901541E+02 0.  0.
        -12    1    1    2    0    0  0.24131493990E+02 -0.19004037501E+02  0.85581285797E+01  0.31886109959E+02  0.00000000000E+00 0.  1.
         11    1    3    3    0    0 -0.11840323595E+02 -0.90383619030E+00 -0.20173486634E+02  0.23408967212E+02  0.51100000000E-03 0. -1.
        -11    1    3    3    0    0 -0.30248945348E+01  0.20821670031E+01 -0.73807504844E+01  0.82438391754E+01  0.51100000000E-03 0.  1.
        -12    1    3    3    0    0 -0.92662758606E+01  0.17825706688E+02  0.18996108539E+02  0.27649083653E+02  0.00000000000E+00 0.  1.
</event>
<event>
 7    1  0.1215217E-011  0.5930198E+02  0.7816164E-02  0.1266605E+00
        -11   -1    0    0    0    0  0.00000000000E+00  0.00000000000E+00  0.45593999997E+02  0.45594000000E+02  0.51100000000E-03 0.  1.
         11   -1    0    0    0    0 -0.00000000000E+00 -0.00000000000E+00 -0.45593999997E+02  0.45594000000E+02  0.51100000000E-03 0. -1.
    9900012    2    1    2    0    0 -0.21382730723E+01 -0.23657845042E+02 -0.21270926864E+02  0.59301981537E+02  0.50000068408E+02 0.  0.
        -12    1    1    2    0    0  0.21382730723E+01  0.23657845042E+02  0.21270926864E+02  0.31886018463E+02  0.00000000000E+00 0.  1.
         11    1    3    3    0    0  0.60144490031E+01 -0.10818025138E+02  0.25418370173E+01  0.12635830023E+02  0.51100000000E-03 0. -1.
        -11    1    3    3    0    0  0.22421687085E+01 -0.13568629366E+02  0.60596262605E+01  0.15028442836E+02  0.51100000000E-03 0.  1.
         12    1    3    3    0    0 -0.10394890784E+02  0.72880946136E+00 -0.29872390141E+02  0.31637708678E+02  0.00000000000E+00 0. -1.
</event>
<event>
 7    1  0.1215217E-011  0.5930191E+02  0.7816164E-02  0.1266605E+00
        -11   -1    0    0    0    0  0.00000000000E+00  0.00000000000E+00  0.45593999997E+02  0.45594000000E+02  0.51100000000E-03 0.  1.
         11   -1    0    0    0    0 -0.00000000000E+00 -0.00000000000E+00 -0.45593999997E+02  0.45594000000E+02  0.51100000000E-03 0. -1.
    9900012    2    1    2    0    0 -0.55912433375E+01 -0.13764351917E+02 -0.28213533503E+02  0.59301908071E+02  0.49999934424E+02 0.  0.
        -12    1    1    2    0    0  0.55912433375E+01  0.13764351917E+02  0.28213533503E+02  0.31886091929E+02  0.00000000000E+00 0.  1.
         11    1    3    3    0    0 -0.74983014467E+01 -0.18643026258E+00 -0.69789614971E+01  0.10245251811E+02  0.51100000000E-03 0. -1.
        -11    1    3    3    0    0 -0.18171994052E+02 -0.15425437179E+02 -0.13944129045E+02  0.27615289516E+02  0.51100000000E-03 0.  1.
         12    1    3    3    0    0  0.20079052161E+02  0.18475155239E+01 -0.72904429605E+01  0.21441366744E+02  0.00000000000E+00 0. -1.
</event>
<event>
 7    1  0.1215217E-011  0.5930194E+02  0.7816164E-02  0.1266605E+00
        -11   -1    0    0    0    0  0.00000000000E+00  0.00000000000E+00  0.45593999997E+02  0.45594000000E+02  0.51100000000E-03 0.  1.
         11   -1    0    0    0    0 -0.00000000000E+00 -0.00000000000E+00 -0.45593999997E+02  0.45594000000E+02  0.51100000000E-03 0. -1.
    9900012    2    1    2    0    0  0.17288357531E+02  0.24618118705E+02 -0.10572685877E+02  0.59301940956E+02  0.49999994398E+02 0.  0.
        -12    1    1    2    0    0 -0.17288357531E+02 -0.24618118705E+02  0.10572685877E+02  0.31886059044E+02  0.00000000000E+00 0.  1.
         11    1    3    3    0    0 -0.87710031058E+01  0.10586287806E+02 -0.39293483631E+01  0.14298243382E+02  0.51100000000E-03 0. -1.
        -11    1    3    3    0    0  0.21187467723E+01  0.18156547951E+02 -0.93989882499E+01  0.20554568878E+02  0.51100000000E-03 0.  1.
        -12    1    3    3    0    0  0.23940613865E+02 -0.41247170523E+01  0.27556507361E+01  0.24449128695E+02  0.00000000000E+00 0.  1.
</event>
<event>
 7    1  0.1215217E-011  0.5930196E+02  0.7816164E-02  0.1266605E+00
        -11   -1    0    0    0    0  0.00000000000E+00  0.00000000000E+00  0.45593999997E+02  0.45594000000E+02  0.51100000000E-03 0.  1.
         11   -1    0    0    0    0 -0.00000000000E+00 -0.00000000000E+00 -0.45593999997E+02  0.45594000000E+02  0.51100000000E-03 0. -1.
    9900012    2    1    2    0    0  0.24246831594E+02 -0.41444019489E+01  0.20288784051E+02  0.59301958099E+02  0.50000025662E+02 0.  0.
        -12    1    1    2    0    0 -0.24246831594E+02  0.41444019489E+01 -0.20288784051E+02  0.31886041901E+02  0.00000000000E+00 0.  1.
         11    1    3    3    0    0  0.17698438852E+02 -0.14298178481E+00 -0.99570044047E+00  0.17727002037E+02  0.51100000000E-03 0. -1.
        -11    1    3    3    0    0  0.27354089556E+01  0.15189512620E+02  0.13542165639E+02  0.20532754473E+02  0.51100000000E-03 0.  1.
         12    1    3    3    0    0  0.38129837864E+01 -0.19190932784E+02  0.77423188529E+01  0.21042201589E+02  0.00000000000E+00 0. -1.
</event>
<event>
 7    1  0.1215217E-011  0.5930197E+02  0.7816164E-02  0.1266605E+00
        -11   -1    0    0    0    0  0.00000000000E+00  0.00000000000E+00  0.45593999997E+02  0.45594000000E+02  0.51100000000E-03 0.  1.
         11   -1    0    0    0    0 -0.00000000000E+00 -0.00000000000E+00 -0.45593999997E+02  0.45594000000E+02  0.51100000000E-03 0. -1.
    9900012    2    1    2    0    0  0.82771133476E+01  0.15571106400E+00 -0.30792600178E+02  0.59301967368E+02  0.50000042567E+02 0.  0.
        -12    1    1    2    0    0 -0.82771133476E+01 -0.15571106400E+00  0.30792600178E+02  0.31886032632E+02  0.00000000000E+00 0.  1.
         11    1    3    3    0    0 -0.92383612220E+01 -0.21406466568E+01 -0.17159166188E+02  0.19605271503E+02  0.51100000000E-03 0. -1.
        -11    1    3    3    0    0 -0.70796312308E+01 -0.12180951518E+01  0.49042198086E+01  0.86980633681E+01  0.51100000000E-03 0.  1.
        -12    1    3    3    0    0  0.24595105800E+02  0.35144528726E+01 -0.18537653799E+02  0.30998632497E+02  0.00000000000E+00 0.  1.
</event>
<event>
 7    1  0.1215217E-011  0.5930193E+02  0.7816164E-02  0.1266605E+00
        -11   -1    0    0    0    0  0.00000000000E+00  0.00000000000E+00  0.45593999997E+02  0.45594000000E+02  0.51100000000E-03 0.  1.
         11   -1    0    0    0    0 -0.00000000000E+00 -0.00000000000E+00 -0.45593999997E+02  0.45594000000E+02  0.51100000000E-03 0. -1.
    9900012    2    1    2    0    0 -0.54142990740E+01 -0.12050759092E+02 -0.29020437613E+02  0.59301933632E+02  0.49999981041E+02 0.  0.
        -12    1    1    2    0    0  0.54142990740E+01  0.12050759092E+02  0.29020437613E+02  0.31886066368E+02  0.00000000000E+00 0.  1.
         11    1    3    3    0    0  0.58482455363E+00  0.68551572486E+01 -0.39984544942E+00  0.68916672370E+01  0.51100000000E-03 0. -1.
        -11    1    3    3    0    0  0.47099318831E+01  0.10669608546E+02 -0.35635240115E+01  0.12195192025E+02  0.51100000000E-03 0.  1.
         12    1    3    3    0    0 -0.10709055511E+02 -0.29575524887E+02 -0.25057068152E+02  0.40215074371E+02  0.00000000000E+00 0. -1.
</event>
<event>
 7    1  0.1215217E-011  0.5930194E+02  0.7816164E-02  0.1266605E+00
        -11   -1    0    0    0    0  0.00000000000E+00  0.00000000000E+00  0.45593999997E+02  0.45594000000E+02  0.51100000000E-03 0.  1.
         11   -1    0    0    0    0 -0.00000000000E+00 -0.00000000000E+00 -0.45593999997E+02  0.45594000000E+02  0.51100000000E-03 0. -1.
    9900012    2    1    2    0    0 -0.21091913986E+02 -0.83161113360E+01 -0.22420844514E+02  0.59301940160E+02  0.49999992947E+02 0.  0.
        -12    1    1    2    0    0  0.21091913986E+02  0.83161113360E+01  0.22420844514E+02  0.31886059840E+02  0.00000000000E+00 0.  1.
         11    1    3    3    0    0 -0.62989750764E+01 -0.15937498408E+00  0.60687523588E+01  0.87482708493E+01  0.51100000000E-03 0.  1.
        -11    1    3    3    0    0 -0.18306061928E+02  0.97006059808E+01 -0.58929597601E+01  0.21539281202E+02  0.51100000000E-03 0. -1.
        -12    1    3    3    0    0  0.35131230179E+01 -0.17857342333E+02 -0.22596637113E+02  0.29014388109E+02  0.00000000000E+00 0.  1.
</event>
<event>
 7    1  0.1215217E-011  0.5930195E+02  0.7816164E-02  0.1266605E+00
        -11   -1    0    0    0    0  0.00000000000E+00  0.00000000000E+00  0.45593999997E+02  0.45594000000E+02  0.51100000000E-03 0. -1.
         11   -1    0    0    0    0 -0.00000000000E+00 -0.00000000000E+00 -0.45593999997E+02  0.45594000000E+02  0.51100000000E-03 0.  1.
    9900012    2    1    2    0    0  0.52392831144E+01  0.23927099841E+02  0.20414797420E+02  0.59301950573E+02  0.50000011937E+02 0.  0.
        -12    1    1    2    0    0 -0.52392831144E+01 -0.23927099841E+02 -0.20414797420E+02  0.31886049427E+02  0.00000000000E+00 0.  1.
         11    1    3    3    0    0  0.89203467167E+01  0.51606913053E+01  0.22616191804E+02  0.24853519917E+02  0.51100000000E-03 0. -1.
        -11    1    3    3    0    0 -0.51440900473E+01  0.25735382855E+02  0.17535279698E+01  0.26302974237E+02  0.51100000000E-03 0.  1.
         12    1    3    3    0    0  0.14630264451E+01 -0.69689743199E+01 -0.39549223534E+01  0.81454564189E+01  0.00000000000E+00 0. -1.
</event>
<event>
 7    1  0.1215217E-011  0.5930197E+02  0.7816164E-02  0.1266605E+00
        -11   -1    0    0    0    0  0.00000000000E+00  0.00000000000E+00  0.45593999997E+02  0.45594000000E+02  0.51100000000E-03 0. -1.
         11   -1    0    0    0    0 -0.00000000000E+00 -0.00000000000E+00 -0.45593999997E+02  0.45594000000E+02  0.51100000000E-03 0.  1.
    9900012    2    1    2    0    0  0.26678931773E+02  0.16295940836E+02 -0.62766130325E+01  0.59301969212E+02  0.50000045929E+02 0.  0.
        -12    1    1    2    0    0 -0.26678931773E+02 -0.16295940836E+02  0.62766130325E+01  0.31886030788E+02  0.00000000000E+00 0.  1.
         11    1    3    3    0    0  0.28911468779E+02  0.13895260284E+02  0.30941346844E+01  0.32226153277E+02  0.51100000000E-03 0. -1.
        -11    1    3    3    0    0  0.60080093068E+00  0.13091537638E+02 -0.92042872557E+01  0.16014625304E+02  0.51100000000E-03 0.  1.
         12    1    3    3    0    0 -0.28333379368E+01 -0.10690857085E+02 -0.16646046122E+00  0.11061190631E+02  0.00000000000E+00 0. -1.
</event>
<event>
 7    1  0.1215217E-011  0.5930196E+02  0.7816164E-02  0.1266605E+00
        -11   -1    0    0    0    0  0.00000000000E+00  0.00000000000E+00  0.45593999997E+02  0.45594000000E+02  0.51100000000E-03 0.  1.
         11   -1    0    0    0    0 -0.00000000000E+00 -0.00000000000E+00 -0.45593999997E+02  0.45594000000E+02  0.51100000000E-03 0. -1.
    9900012    2    1    2    0    0  0.11855801963E+02  0.26868170166E+02 -0.12420171128E+02  0.59301964513E+02  0.50000037360E+02 0.  0.
        -12    1    1    2    0    0 -0.11855801963E+02 -0.26868170166E+02  0.12420171128E+02  0.31886035487E+02  0.00000000000E+00 0.  1.
         11    1    3    3    0    0  0.22880800783E+01  0.25037865295E+02 -0.13560080575E+02  0.28565815137E+02  0.51100000000E-03 0. -1.
        -11    1    3    3    0    0 -0.81897151914E+01  0.63032274065E+01 -0.49220135951E+01  0.11446760622E+02  0.51100000000E-03 0.  1.
        -12    1    3    3    0    0  0.17757437076E+02 -0.44729225354E+01  0.60619230423E+01  0.19289388754E+02  0.00000000000E+00 0.  1.
</event>
<event>
 7    1  0.1215217E-011  0.5930194E+02  0.7816164E-02  0.1266605E+00
        -11   -1    0    0    0    0  0.00000000000E+00  0.00000000000E+00  0.45593999997E+02  0.45594000000E+02  0.51100000000E-03 0.  1.
         11   -1    0    0    0    0 -0.00000000000E+00 -0.00000000000E+00 -0.45593999997E+02  0.45594000000E+02  0.51100000000E-03 0. -1.
    9900012    2    1    2    0    0  0.55142941554E+01  0.85532730770E+01 -0.30218448608E+02  0.59301944166E+02  0.50000000253E+02 0.  0.
        -12    1    1    2    0    0 -0.55142941554E+01 -0.85532730770E+01  0.30218448608E+02  0.31886055834E+02  0.00000000000E+00 0.  1.
         11    1    3    3    0    0 -0.49466574561E+01 -0.67032230259E+01 -0.10324463547E+02  0.13266392378E+02  0.51100000000E-03 0. -1.
        -11    1    3    3    0    0 -0.87796396600E+01 -0.73262360745E+01 -0.27142918103E+01  0.11752582179E+02  0.51100000000E-03 0.  1.
         12    1    3    3    0    0  0.19240591271E+02  0.22582732177E+02 -0.17179693250E+02  0.34282969610E+02  0.00000000000E+00 0. -1.
</event>
<event>
 7    1  0.1215217E-011  0.5930195E+02  0.7816164E-02  0.1266605E+00
        -11   -1    0    0    0    0  0.00000000000E+00  0.00000000000E+00  0.45593999997E+02  0.45594000000E+02  0.51100000000E-03 0.  1.
         11   -1    0    0    0    0 -0.00000000000E+00 -0.00000000000E+00 -0.45593999997E+02  0.45594000000E+02  0.51100000000E-03 0. -1.
    9900012    2    1    2    0    0 -0.62027220075E+01 -0.19948956473E+02 -0.24089111010E+02  0.59301954558E+02  0.50000019205E+02 0.  0.
        -12    1    1    2    0    0  0.62027220075E+01  0.19948956473E+02  0.24089111010E+02  0.31886045442E+02  0.00000000000E+00 0.  1.
         11    1    3    3    0    0 -0.13306235981E+02 -0.10636968831E+02 -0.13600675168E+02  0.21798609754E+02  0.51100000000E-03 0. -1.
        -11    1    3    3    0    0  0.15475629498E+02  0.70070660984E+01 -0.86686935123E+01  0.19071977641E+02  0.51100000000E-03 0.  1.
         12    1    3    3    0    0 -0.83721155245E+01 -0.16319053741E+02 -0.18197423295E+01  0.18431367163E+02  0.00000000000E+00 0. -1.
</event>
<event>
 7    1  0.1215217E-011  0.5930197E+02  0.7816164E-02  0.1266605E+00
        -11   -1    0    0    0    0  0.00000000000E+00  0.00000000000E+00  0.45593999997E+02  0.45594000000E+02  0.51100000000E-03 0. -1.
         11   -1    0    0    0    0 -0.00000000000E+00 -0.00000000000E+00 -0.45593999997E+02  0.45594000000E+02  0.51100000000E-03 0.  1.
    9900012    2    1    2    0    0  0.31326133491E+02 -0.34038024349E+01  0.48792125174E+01  0.59301965042E+02  0.50000038326E+02 0.  0.
        -12    1    1    2    0    0 -0.31326133491E+02  0.34038024349E+01 -0.48792125174E+01  0.31886034958E+02  0.00000000000E+00 0.  1.
         11    1    3    3    0    0 -0.16689428074E+01  0.96467995130E+01  0.18778683750E+02  0.21177466199E+02  0.51100000000E-03 0.  1.
        -11    1    3    3    0    0  0.12429853447E+02 -0.53134947399E+01 -0.57347125247E+01  0.14684052951E+02  0.51100000000E-03 0. -1.
        -12    1    3    3    0    0  0.20565222851E+02 -0.77371072080E+01 -0.81647587082E+01  0.23440445892E+02  0.00000000000E+00 0.  1.
</event>
<event>
 7    1  0.1215217E-011  0.5930192E+02  0.7816164E-02  0.1266605E+00
        -11   -1    0    0    0    0  0.00000000000E+00  0.00000000000E+00  0.45593999997E+02  0.45594000000E+02  0.51100000000E-03 0. -1.
         11   -1    0    0    0    0 -0.00000000000E+00 -0.00000000000E+00 -0.45593999997E+02  0.45594000000E+02  0.51100000000E-03 0.  1.
    9900012    2    1    2    0    0 -0.23211065136E+02 -0.47839149925E+01 -0.21332664929E+02  0.59301921841E+02  0.49999959537E+02 0.  0.
        -12    1    1    2    0    0  0.23211065136E+02  0.47839149925E+01  0.21332664929E+02  0.31886078159E+02  0.00000000000E+00 0.  1.
         11    1    3    3    0    0 -0.16041692288E+02 -0.56418500459E+00  0.17481734917E+01  0.16146526159E+02  0.51100000000E-03 0. -1.
        -11    1    3    3    0    0 -0.67283951509E+01  0.12003772841E+02 -0.23143804572E+02  0.26925778616E+02  0.51100000000E-03 0.  1.
         12    1    3    3    0    0 -0.44097769642E+00 -0.16223502829E+02  0.62966151324E-01  0.16229617066E+02  0.00000000000E+00 0. -1.
</event>
<event>
 7    1  0.1215217E-011  0.5930195E+02  0.7816164E-02  0.1266605E+00
        -11   -1    0    0    0    0  0.00000000000E+00  0.00000000000E+00  0.45593999997E+02  0.45594000000E+02  0.51100000000E-03 0.  1.
         11   -1    0    0    0    0 -0.00000000000E+00 -0.00000000000E+00 -0.45593999997E+02  0.45594000000E+02  0.51100000000E-03 0. -1.
    9900012    2    1    2    0    0  0.18668263936E+02 -0.91254696052E+01 -0.24185573304E+02  0.59301949289E+02  0.50000009595E+02 0.  0.
        -12    1    1    2    0    0 -0.18668263936E+02  0.91254696052E+01  0.24185573304E+02  0.31886050711E+02  0.00000000000E+00 0.  1.
         11    1    3    3    0    0 -0.54230779705E+01 -0.66476083641E+01 -0.87278662744E+01  0.12238305504E+02  0.51100000000E-03 0.  1.
        -11    1    3    3    0    0  0.10337361745E+02 -0.34186797769E+01 -0.26981469189E+02  0.29095499637E+02  0.51100000000E-03 0. -1.
         12    1    3    3    0    0  0.13753980162E+02  0.94081853585E+00  0.11523762160E+02  0.17968144148E+02  0.00000000000E+00 0. -1.
</event>
<event>
 7    1  0.1215217E-011  0.5930194E+02  0.7816164E-02  0.1266605E+00
        -11   -1    0    0    0    0  0.00000000000E+00  0.00000000000E+00  0.45593999997E+02  0.45594000000E+02  0.51100000000E-03 0.  1.
         11   -1    0    0    0    0 -0.00000000000E+00 -0.00000000000E+00 -0.45593999997E+02  0.45594000000E+02  0.51100000000E-03 0. -1.
    9900012    2    1    2    0    0 -0.64357403463E+01 -0.77946354787E+01 -0.30241461852E+02  0.59301935473E+02  0.49999984399E+02 0.  0.
        -12    1    1    2    0    0  0.64357403463E+01  0.77946354787E+01  0.30241461852E+02  0.31886064527E+02  0.00000000000E+00 0.  1.
         11    1    3    3    0    0 -0.20377161823E+02 -0.14445702567E+02 -0.25954886865E+02  0.36021704555E+02  0.51100000000E-03 0. -1.
        -11    1    3    3    0    0  0.73172482007E+00 -0.21095668770E+01  0.45964698197E+01  0.51101104377E+01  0.51100000000E-03 0.  1.
        -12    1    3    3    0    0  0.13209696656E+02  0.87606339657E+01 -0.88830448071E+01  0.18170120481E+02  0.00000000000E+00 0.  1.
</event>
<event>
 7    1  0.1215217E-011  0.5930195E+02  0.7816164E-02  0.1266605E+00
        -11   -1    0    0    0    0  0.00000000000E+00  0.00000000000E+00  0.45593999997E+02  0.45594000000E+02  0.51100000000E-03 0.  1.
         11   -1    0    0    0    0 -0.00000000000E+00 -0.00000000000E+00 -0.45593999997E+02  0.45594000000E+02  0.51100000000E-03 0. -1.
    9900012    2    1    2    0    0 -0.13807946848E+02 -0.28416144402E+02 -0.43108415109E+01  0.59301952685E+02  0.50000015790E+02 0.  0.
        -12    1    1    2    0    0  0.13807946848E+02  0.28416144402E+02  0.43108415109E+01  0.31886047315E+02  0.00000000000E+00 0.  1.
         11    1    3    3    0    0  0.15352073123E+02 -0.99642565649E+01 -0.50365659660E+01  0.18982611913E+02  0.51100000000E-03 0. -1.
        -11    1    3    3    0    0 -0.65031310522E+01  0.46142032324E+01  0.43603124314E+00  0.79857190321E+01  0.51100000000E-03 0.  1.
        -12    1    3    3    0    0 -0.22656888918E+02 -0.23066091069E+02  0.28969321193E+00  0.32333621740E+02  0.00000000000E+00 0.  1.
</event>
<event>
 7    1  0.1215217E-011  0.5930197E+02  0.7816164E-02  0.1266605E+00
        -11   -1    0    0    0    0  0.00000000000E+00  0.00000000000E+00  0.45593999997E+02  0.45594000000E+02  0.51100000000E-03 0.  1.
         11   -1    0    0    0    0 -0.00000000000E+00 -0.00000000000E+00 -0.45593999997E+02  0.45594000000E+02  0.51100000000E-03 0. -1.
    9900012    2    1    2    0    0 -0.28990509947E+02  0.93298106755E+01  0.94458441648E+01  0.59301968478E+02  0.50000044591E+02 0.  0.
        -12    1    1    2    0    0  0.28990509947E+02 -0.93298106755E+01 -0.94458441648E+01  0.31886031522E+02  0.00000000000E+00 0.  1.
         11    1    3    3    0    0 -0.15768243724E+02  0.13825959861E+02 -0.92924045478E+01  0.22937817219E+02  0.51100000000E-03 0. -1.
        -11    1    3    3    0    0 -0.37206678223E+01  0.60435491040E+01 -0.50183968790E+01  0.86920746841E+01  0.51100000000E-03 0.  1.
        -12    1    3    3    0    0 -0.95015984008E+01 -0.10539698290E+02  0.23756645592E+02  0.27672076575E+02  0.00000000000E+00 0.  1.
</event>
<event>
 7    1  0.1215217E-011  0.5930192E+02  0.7816164E-02  0.1266605E+00
        -11   -1    0    0    0    0  0.00000000000E+00  0.00000000000E+00  0.45593999997E+02  0.45594000000E+02  0.51100000000E-03 0.  1.
         11   -1    0    0    0    0 -0.00000000000E+00 -0.00000000000E+00 -0.45593999997E+02  0.45594000000E+02  0.51100000000E-03 0. -1.
    9900012    2    1    2    0    0 -0.17190338807E+02  0.26052959124E+02  0.65159430606E+01  0.59301922452E+02  0.49999960652E+02 0.  0.
        -12    1    1    2    0    0  0.17190338807E+02 -0.26052959124E+02 -0.65159430606E+01  0.31886077548E+02  0.00000000000E+00 0.  1.
         11    1    3    3    0    0 -0.17070096549E+02  0.36470762912E+02 -0.14024424485E+01  0.40292326672E+02  0.51100000000E-03 0. -1.
        -11    1    3    3    0    0 -0.30286050099E+01  0.11722383950E+01  0.61164200811E+01  0.69251127088E+01  0.51100000000E-03 0.  1.
        -12    1    3    3    0    0  0.29083627514E+01 -0.11590042183E+02  0.18019654281E+01  0.12084483072E+02  0.00000000000E+00 0.  1.
</event>
<event>
 7    1  0.1215217E-011  0.5930196E+02  0.7816164E-02  0.1266605E+00
        -11   -1    0    0    0    0  0.00000000000E+00  0.00000000000E+00  0.45593999997E+02  0.45594000000E+02  0.51100000000E-03 0.  1.
         11   -1    0    0    0    0 -0.00000000000E+00 -0.00000000000E+00 -0.45593999997E+02  0.45594000000E+02  0.51100000000E-03 0. -1.
    9900012    2    1    2    0    0 -0.33718770041E-01  0.26934502585E+02 -0.17066078286E+02  0.59301959253E+02  0.50000027767E+02 0.  0.
        -12    1    1    2    0    0  0.33718770041E-01 -0.26934502585E+02  0.17066078286E+02  0.31886040747E+02  0.00000000000E+00 0.  1.
         11    1    3    3    0    0  0.34313592014E+01  0.12627551784E+00 -0.89509541763E+01  0.95869574111E+01  0.51100000000E-03 0. -1.
        -11    1    3    3    0    0 -0.10544803311E+02  0.27636947348E+02 -0.20105227381E+02  0.35766099926E+02  0.51100000000E-03 0.  1.
        -12    1    3    3    0    0  0.70797253398E+01 -0.82872028013E+00  0.11990103272E+02  0.13948901916E+02  0.00000000000E+00 0.  1.
</event>
<event>
 7    1  0.1215217E-011  0.5930196E+02  0.7816164E-02  0.1266605E+00
        -11   -1    0    0    0    0  0.00000000000E+00  0.00000000000E+00  0.45593999997E+02  0.45594000000E+02  0.51100000000E-03 0. -1.
         11   -1    0    0    0    0 -0.00000000000E+00 -0.00000000000E+00 -0.45593999997E+02  0.45594000000E+02  0.51100000000E-03 0.  1.
    9900012    2    1    2    0    0  0.92428398862E+01  0.19005854730E+02  0.23876075663E+02  0.59301959289E+02  0.50000027833E+02 0.  0.
        -12    1    1    2    0    0 -0.92428398862E+01 -0.19005854730E+02 -0.23876075663E+02  0.31886040711E+02  0.00000000000E+00 0.  1.
         11    1    3    3    0    0  0.56543473647E+01  0.91336278486E+00  0.73896531099E+01  0.93494838918E+01  0.51100000000E-03 0. -1.
        -11    1    3    3    0    0  0.13596633780E+02  0.13191737182E+02  0.28079193355E+02  0.33872281880E+02  0.51100000000E-03 0.  1.
        -12    1    3    3    0    0 -0.10008141259E+02  0.49007547628E+01 -0.11592770802E+02  0.16080193518E+02  0.00000000000E+00 0.  1.
</event>
<event>
 7    1  0.1215217E-011  0.5930195E+02  0.7816164E-02  0.1266605E+00
        -11   -1    0    0    0    0  0.00000000000E+00  0.00000000000E+00  0.45593999997E+02  0.45594000000E+02  0.51100000000E-03 0. -1.
         11   -1    0    0    0    0 -0.00000000000E+00 -0.00000000000E+00 -0.45593999997E+02  0.45594000000E+02  0.51100000000E-03 0.  1.
    9900012    2    1    2    0    0  0.14722474639E+01 -0.65367479529E+01  0.31174081030E+02  0.59301954236E+02  0.50000018617E+02 0.  0.
        -12    1    1    2    0    0 -0.14722474639E+01  0.65367479529E+01 -0.31174081030E+02  0.31886045764E+02  0.00000000000E+00 0.  1.
         11    1    3    3    0    0 -0.27055481704E+01 -0.19832163514E+02  0.83893196786E+01  0.21702888874E+02  0.51100000000E-03 0. -1.
        -11    1    3    3    0    0 -0.42461494035E+01  0.28149889739E+01 -0.47443998691E+01  0.69615571576E+01  0.51100000000E-03 0.  1.
         12    1    3    3    0    0  0.84239450378E+01  0.10480426587E+02  0.27529161221E+02  0.30637508204E+02  0.00000000000E+00 0. -1.
</event>
<event>
 7    1  0.1215217E-011  0.5930194E+02  0.7816164E-02  0.1266605E+00
        -11   -1    0    0    0    0  0.00000000000E+00  0.00000000000E+00  0.45593999997E+02  0.45594000000E+02  0.51100000000E-03 0.  1.
         11   -1    0    0    0    0 -0.00000000000E+00 -0.00000000000E+00 -0.45593999997E+02  0.45594000000E+02  0.51100000000E-03 0. -1.
    9900012    2    1    2    0    0  0.17939600076E+02 -0.11993275245E+02  0.23474510856E+02  0.59301944084E+02  0.50000000102E+02 0.  0.
        -12    1    1    2    0    0 -0.17939600076E+02  0.11993275245E+02 -0.23474510856E+02  0.31886055916E+02  0.00000000000E+00 0.  1.
         11    1    3    3    0    0  0.81345603239E+01 -0.14526167365E+02  0.63157197312E+01  0.17806429344E+02  0.51100000000E-03 0. -1.
        -11    1    3    3    0    0 -0.11701256415E+02 -0.76106834439E+01  0.53782450491E+01  0.14958857719E+02  0.51100000000E-03 0.  1.
         12    1    3    3    0    0  0.21506296167E+02  0.10143575564E+02  0.11780546076E+02  0.26536657021E+02  0.00000000000E+00 0. -1.
</event>
<event>
 7    1  0.1215217E-011  0.5930194E+02  0.7816164E-02  0.1266605E+00
        -11   -1    0    0    0    0  0.00000000000E+00  0.00000000000E+00  0.45593999997E+02  0.45594000000E+02  0.51100000000E-03 0. -1.
         11   -1    0    0    0    0 -0.00000000000E+00 -0.00000000000E+00 -0.45593999997E+02  0.45594000000E+02  0.51100000000E-03 0.  1.
    9900012    2    1    2    0    0  0.90467671558E+01 -0.23556283443E+02  0.19493034416E+02  0.59301939153E+02  0.49999991109E+02 0.  0.
        -12    1    1    2    0    0 -0.90467671558E+01  0.23556283443E+02 -0.19493034416E+02  0.31886060847E+02  0.00000000000E+00 0.  1.
         11    1    3    3    0    0  0.10187362919E+02 -0.10360617433E+02  0.28858488087E+02  0.32310015348E+02  0.51100000000E-03 0. -1.
        -11    1    3    3    0    0 -0.18389154244E+01 -0.68592398905E+00  0.64919007865E+01  0.67820998032E+01  0.51100000000E-03 0.  1.
        -12    1    3    3    0    0  0.69831966137E+00 -0.12509742021E+02 -0.15857354458E+02  0.20209824002E+02  0.00000000000E+00 0.  1.
</event>
<event>
 7    1  0.1215217E-011  0.5930194E+02  0.7816164E-02  0.1266605E+00
        -11   -1    0    0    0    0  0.00000000000E+00  0.00000000000E+00  0.45593999997E+02  0.45594000000E+02  0.51100000000E-03 0.  1.
         11   -1    0    0    0    0 -0.00000000000E+00 -0.00000000000E+00 -0.45593999997E+02  0.45594000000E+02  0.51100000000E-03 0. -1.
    9900012    2    1    2    0    0  0.15813219162E+01 -0.12813456680E+02 -0.29155369445E+02  0.59301940058E+02  0.49999992761E+02 0.  0.
        -12    1    1    2    0    0 -0.15813219162E+01  0.12813456680E+02  0.29155369445E+02  0.31886059942E+02  0.00000000000E+00 0.  1.
         11    1    3    3    0    0  0.74219423471E+01 -0.11704411218E+02 -0.28126958647E+02  0.31356088295E+02  0.51100000000E-03 0. -1.
        -11    1    3    3    0    0 -0.89303315977E+01 -0.91599606055E+01 -0.94404818045E+01  0.15899006186E+02  0.51100000000E-03 0.  1.
        -12    1    3    3    0    0  0.30897111668E+01  0.80509151433E+01  0.84120710065E+01  0.12046845577E+02  0.00000000000E+00 0.  1.
</event>
<event>
 7    1  0.1215217E-011  0.5930194E+02  0.7816164E-02  0.1266605E+00
        -11   -1    0    0    0    0  0.00000000000E+00  0.00000000000E+00  0.45593999997E+02  0.45594000000E+02  0.51100000000E-03 0.  1.
         11   -1    0    0    0    0 -0.00000000000E+00 -0.00000000000E+00 -0.45593999997E+02  0.45594000000E+02  0.51100000000E-03 0. -1.
    9900012    2    1    2    0    0  0.16066001589E+02  0.23430982826E+02 -0.14477342090E+02  0.59301940393E+02  0.49999993371E+02 0.  0.
        -12    1    1    2    0    0 -0.16066001589E+02 -0.23430982826E+02  0.14477342090E+02  0.31886059607E+02  0.00000000000E+00 0.  1.
         11    1    3    3    0    0  0.19568335252E+02 -0.57630357451E+01 -0.15571334246E+02  0.25663179382E+02  0.51100000000E-03 0. -1.
        -11    1    3    3    0    0  0.38703000848E+01  0.38338088497E+01 -0.39786284440E+01  0.67458726344E+01  0.51100000000E-03 0.  1.
        -12    1    3    3    0    0 -0.73726337474E+01  0.25360209722E+02  0.50726205998E+01  0.26892888377E+02  0.00000000000E+00 0.  1.
</event>
<event>
 7    1  0.1215217E-011  0.5930195E+02  0.7816164E-02  0.1266605E+00
        -11   -1    0    0    0    0  0.00000000000E+00  0.00000000000E+00  0.45593999997E+02  0.45594000000E+02  0.51100000000E-03 0.  1.
         11   -1    0    0    0    0 -0.00000000000E+00 -0.00000000000E+00 -0.45593999997E+02  0.45594000000E+02  0.51100000000E-03 0. -1.
    9900012    2    1    2    0    0  0.87193993066E+01 -0.26545594238E+02  0.15363072227E+02  0.59301945275E+02  0.50000002274E+02 0.  0.
        -12    1    1    2    0    0 -0.87193993066E+01  0.26545594238E+02 -0.15363072227E+02  0.31886054725E+02  0.00000000000E+00 0.  1.
         11    1    3    3    0    0 -0.40948916574E+01  0.50553267346E+01  0.10303209091E+02  0.12185260929E+02  0.51100000000E-03 0.  1.
        -11    1    3    3    0    0 -0.20026797829E+01  0.60115028482E+01  0.16488517946E+01  0.65473357413E+01  0.51100000000E-03 0. -1.
         12    1    3    3    0    0  0.14816970747E+02 -0.37612423821E+02  0.34110113409E+01  0.40569348604E+02  0.00000000000E+00 0. -1.
</event>
