<event>
 8    1  0.1338956E-013  0.9118800E+02  0.7816164E-02  0.1184000E+00
        -11   -1    0    0    0    0  0.00000000000E+00  0.00000000000E+00  0.45593999997E+02  0.45594000000E+02  0.51100000000E-03 0. -1.
         11   -1    0    0    0    0 -0.00000000000E+00 -0.00000000000E+00 -0.45593999997E+02  0.45594000000E+02  0.51100000000E-03 0.  1.
         23    2    1    2    0    0  0.00000000000E+00 -0.17763568394E-14  0.00000000000E+00  0.91188000000E+02  0.91188000000E+02 0.  0.
    9900012    2    3    3    0    0  0.87519371620E+01 -0.13688003962E+02  0.37272077183E+02  0.50528860878E+02  0.30000003126E+02 0.  0.
        -12    1    3    3    0    0 -0.87519371620E+01  0.13688003962E+02 -0.37272077183E+02  0.40659139122E+02  0.00000000000E+00 0.  1.
         11    1    4    4    0    0 -0.24936540232E+01 -0.39663849544E+01 -0.12606599377E+01  0.48517815011E+01  0.51100000000E-03 0.  1.
        -11    1    4    4    0    0 -0.30291457991E+01 -0.12505144102E+01 -0.44964568086E+00  0.33078228583E+01  0.51100000000E-03 0. -1.
         12    1    4    4    0    0  0.14274736984E+02 -0.84711045977E+01  0.38982382802E+02  0.42369256519E+02  0.00000000000E+00 0. -1.
</event>
<event>
 8    1  0.1338956E-013  0.9118800E+02  0.7816164E-02  0.1184000E+00
        -11   -1    0    0    0    0  0.00000000000E+00  0.00000000000E+00  0.45593999997E+02  0.45594000000E+02  0.51100000000E-03 0. -1.
         11   -1    0    0    0    0 -0.00000000000E+00 -0.00000000000E+00 -0.45593999997E+02  0.45594000000E+02  0.51100000000E-03 0.  1.
         23    2    1    2    0    0  0.00000000000E+00  0.00000000000E+00  0.00000000000E+00  0.91188000000E+02  0.91188000000E+02 0.  0.
    9900012    2    3    3    0    0 -0.24270771379E+02  0.28497473895E+02 -0.15874196366E+02  0.50528850083E+02  0.29999970311E+02 0.  0.
         12    1    3    3    0    0  0.24270771379E+02 -0.28497473895E+02  0.15874196366E+02  0.40659149917E+02  0.00000000000E+00 0. -1.
         11    1    4    4    0    0 -0.73212719641E+01  0.20169369325E+02  0.16777086458E+01  0.21522527470E+02  0.51100000000E-03 0. -1.
        -11    1    4    4    0    0 -0.25705972915E+01  0.46620742405E-01  0.20758836408E+01  0.33044571536E+01  0.51100000000E-03 0.  1.
        -12    1    4    4    0    0 -0.14378902124E+02  0.82814838271E+01 -0.19627788653E+02  0.25701865459E+02  0.00000000000E+00 0.  1.
</event>
<event>
 8    1  0.1338956E-013  0.9118800E+02  0.7816164E-02  0.1184000E+00
        -11   -1    0    0    0    0  0.00000000000E+00  0.00000000000E+00  0.45593999997E+02  0.45594000000E+02  0.51100000000E-03 0. -1.
         11   -1    0    0    0    0 -0.00000000000E+00 -0.00000000000E+00 -0.45593999997E+02  0.45594000000E+02  0.51100000000E-03 0.  1.
         23    2    1    2    0    0  0.00000000000E+00 -0.17763568394E-14  0.14210854715E-13  0.91188000000E+02  0.91188000000E+02 0.  0.
    9900012    2    3    3    0    0 -0.58870054495E+01 -0.96533226094E+01  0.39055377687E+02  0.50528855926E+02  0.29999988071E+02 0.  0.
        -12    1    3    3    0    0  0.58870054495E+01  0.96533226094E+01 -0.39055377687E+02  0.40659144074E+02  0.00000000000E+00 0.  1.
         11    1    4    4    0    0 -0.52054051307E+01 -0.46518244386E+00  0.22122981117E+02  0.22731892378E+02  0.51100000000E-03 0. -1.
        -11    1    4    4    0    0 -0.29591115519E+01 -0.63236113946E+01  0.21115030633E+02  0.22239355232E+02  0.51100000000E-03 0.  1.
        -12    1    4    4    0    0  0.22775112331E+01 -0.28645287710E+01 -0.41826340626E+01  0.55576083163E+01  0.00000000000E+00 0.  1.
</event>
<event>
 8    1  0.1338956E-013  0.9118800E+02  0.7816164E-02  0.1184000E+00
        -11   -1    0    0    0    0  0.00000000000E+00  0.00000000000E+00  0.45593999997E+02  0.45594000000E+02  0.51100000000E-03 0. -1.
         11   -1    0    0    0    0 -0.00000000000E+00 -0.00000000000E+00 -0.45593999997E+02  0.45594000000E+02  0.51100000000E-03 0.  1.
         23    2    1    2    0    0  0.00000000000E+00  0.00000000000E+00  0.00000000000E+00  0.91188000000E+02  0.91188000000E+02 0.  0.
    9900012    2    3    3    0    0 -0.35941172795E+02  0.93536657738E+01  0.16550114776E+02  0.50528864933E+02  0.30000015451E+02 0.  0.
        -12    1    3    3    0    0  0.35941172795E+02 -0.93536657738E+01 -0.16550114776E+02  0.40659135067E+02  0.00000000000E+00 0.  1.
         11    1    4    4    0    0 -0.44186610554E+01  0.60165477824E+01  0.33693041641E+01  0.81899709128E+01  0.51100000000E-03 0. -1.
        -11    1    4    4    0    0 -0.22751165981E+02  0.13761288760E+02  0.80481037535E+01  0.27780579477E+02  0.51100000000E-03 0.  1.
        -12    1    4    4    0    0 -0.87713457591E+01 -0.10424170769E+02  0.51327068581E+01  0.14558314543E+02  0.00000000000E+00 0.  1.
</event>
<event>
 8    1  0.1338956E-013  0.9118800E+02  0.7816164E-02  0.1184000E+00
        -11   -1    0    0    0    0  0.00000000000E+00  0.00000000000E+00  0.45593999997E+02  0.45594000000E+02  0.51100000000E-03 0. -1.
         11   -1    0    0    0    0 -0.00000000000E+00 -0.00000000000E+00 -0.45593999997E+02  0.45594000000E+02  0.51100000000E-03 0.  1.
         23    2    1    2    0    0  0.00000000000E+00  0.00000000000E+00  0.00000000000E+00  0.91188000000E+02  0.91188000000E+02 0.  0.
    9900012    2    3    3    0    0  0.19251815545E+02 -0.13519997053E+02  0.33162317740E+02  0.50528904585E+02  0.30000135976E+02 0.  0.
        -12    1    3    3    0    0 -0.19251815545E+02  0.13519997053E+02 -0.33162317740E+02  0.40659095415E+02  0.00000000000E+00 0.  1.
         11    1    4    4    0    0  0.15136255600E+02  0.34695029943E+00  0.20609141503E+02  0.25572706580E+02  0.51100000000E-03 0.  1.
        -11    1    4    4    0    0  0.98297456590E+01 -0.11691743336E+02  0.74630799754E+01  0.17000538960E+02  0.51100000000E-03 0. -1.
        -12    1    4    4    0    0 -0.57141857134E+01 -0.21752040158E+01  0.50900962617E+01  0.79556590444E+01  0.00000000000E+00 0.  1.
</event>
<event>
 8    1  0.1338956E-013  0.9118800E+02  0.7816164E-02  0.1184000E+00
        -11   -1    0    0    0    0  0.00000000000E+00  0.00000000000E+00  0.45593999997E+02  0.45594000000E+02  0.51100000000E-03 0. -1.
         11   -1    0    0    0    0 -0.00000000000E+00 -0.00000000000E+00 -0.45593999997E+02  0.45594000000E+02  0.51100000000E-03 0.  1.
         23    2    1    2    0    0 -0.35527136788E-14 -0.17763568394E-14 -0.71054273576E-14  0.91188000000E+02  0.91188000000E+02 0.  0.
    9900012    2    3    3    0    0  0.16161616227E+02  0.10957439809E+02  0.35663741124E+02  0.50528858873E+02  0.29999997030E+02 0.  0.
        -12    1    3    3    0    0 -0.16161616227E+02 -0.10957439809E+02 -0.35663741124E+02  0.40659141127E+02  0.00000000000E+00 0.  1.
         11    1    4    4    0    0  0.12384222007E+01  0.14273265418E+01  0.22803870232E+02  0.22882033310E+02  0.51100000000E-03 0. -1.
        -11    1    4    4    0    0  0.31016734727E+01  0.31935584453E+01  0.13503773068E+02  0.14218687746E+02  0.51100000000E-03 0.  1.
        -12    1    4    4    0    0  0.11821520554E+02  0.63365548219E+01 -0.64390217601E+00  0.13428137817E+02  0.00000000000E+00 0.  1.
</event>
<event>
 8    1  0.1338956E-013  0.9118800E+02  0.7816164E-02  0.1184000E+00
        -11   -1    0    0    0    0  0.00000000000E+00  0.00000000000E+00  0.45593999997E+02  0.45594000000E+02  0.51100000000E-03 0. -1.
         11   -1    0    0    0    0 -0.00000000000E+00 -0.00000000000E+00 -0.45593999997E+02  0.45594000000E+02  0.51100000000E-03 0.  1.
         23    2    1    2    0    0  0.00000000000E+00  0.14432899320E-14  0.00000000000E+00  0.91188000000E+02  0.91188000000E+02 0.  0.
    9900012    2    3    3    0    0 -0.21880594432E+02 -0.17267269485E+00 -0.34269161681E+02  0.50528859935E+02  0.30000000257E+02 0.  0.
         12    1    3    3    0    0  0.21880594432E+02  0.17267269485E+00  0.34269161681E+02  0.40659140065E+02  0.00000000000E+00 0. -1.
         11    1    4    4    0    0 -0.88033041927E+01  0.45082332007E+01 -0.15595573794E+02  0.18467383505E+02  0.51100000000E-03 0. -1.
        -11    1    4    4    0    0 -0.83307755944E+01  0.42361291996E+01 -0.19802304685E+02  0.21896983438E+02  0.51100000000E-03 0.  1.
        -12    1    4    4    0    0 -0.47465146446E+01 -0.89170350952E+01  0.11287167981E+01  0.10164492991E+02  0.00000000000E+00 0.  1.
</event>
<event>
 8    1  0.1338956E-013  0.9118800E+02  0.7816164E-02  0.1184000E+00
        -11   -1    0    0    0    0  0.00000000000E+00  0.00000000000E+00  0.45593999997E+02  0.45594000000E+02  0.51100000000E-03 0. -1.
         11   -1    0    0    0    0 -0.00000000000E+00 -0.00000000000E+00 -0.45593999997E+02  0.45594000000E+02  0.51100000000E-03 0.  1.
         23    2    1    2    0    0  0.00000000000E+00  0.71054273576E-14  0.00000000000E+00  0.91188000000E+02  0.91188000000E+02 0.  0.
    9900012    2    3    3    0    0 -0.27837143620E+01  0.40034003882E+02  0.65341534872E+01  0.50528859647E+02  0.29999999383E+02 0.  0.
        -12    1    3    3    0    0  0.27837143620E+01 -0.40034003882E+02 -0.65341534872E+01  0.40659140353E+02  0.00000000000E+00 0.  1.
         11    1    4    4    0    0 -0.11907174692E+01  0.13066408197E+02 -0.86407400044E+01  0.15710226585E+02  0.51100000000E-03 0. -1.
        -11    1    4    4    0    0  0.19996440704E+01 -0.49829018645E+00 -0.14435457413E+01  0.25160870587E+01  0.51100000000E-03 0.  1.
         12    1    4    4    0    0 -0.35926409633E+01  0.27465885871E+02  0.16618439233E+02  0.32302546004E+02  0.00000000000E+00 0. -1.
</event>
<event>
 8    1  0.1338956E-013  0.9118800E+02  0.7816164E-02  0.1184000E+00
        -11   -1    0    0    0    0  0.00000000000E+00  0.00000000000E+00  0.45593999997E+02  0.45594000000E+02  0.51100000000E-03 0. -1.
         11   -1    0    0    0    0 -0.00000000000E+00 -0.00000000000E+00 -0.45593999997E+02  0.45594000000E+02  0.51100000000E-03 0.  1.
         23    2    1    2    0    0  0.35527136788E-14  0.00000000000E+00  0.00000000000E+00  0.91188000000E+02  0.91188000000E+02 0.  0.
    9900012    2    3    3    0    0 -0.20657082522E+02 -0.24286914421E+02  0.25230814537E+02  0.50528889427E+02  0.30000089903E+02 0.  0.
        -12    1    3    3    0    0  0.20657082522E+02  0.24286914421E+02 -0.25230814537E+02  0.40659110573E+02  0.00000000000E+00 0.  1.
         11    1    4    4    0    0 -0.58751079673E+01 -0.13372393021E+02  0.16781795365E+02  0.22247841349E+02  0.51100000000E-03 0. -1.
        -11    1    4    4    0    0  0.49031561880E+01 -0.12573435977E+01  0.14762711886E+01  0.52726872095E+01  0.51100000000E-03 0.  1.
        -12    1    4    4    0    0 -0.19685130742E+02 -0.96571778024E+01  0.69727479828E+01  0.23008360869E+02  0.00000000000E+00 0.  1.
</event>
<event>
 8    1  0.1338956E-013  0.9118800E+02  0.7816164E-02  0.1184000E+00
        -11   -1    0    0    0    0  0.00000000000E+00  0.00000000000E+00  0.45593999997E+02  0.45594000000E+02  0.51100000000E-03 0. -1.
         11   -1    0    0    0    0 -0.00000000000E+00 -0.00000000000E+00 -0.45593999997E+02  0.45594000000E+02  0.51100000000E-03 0.  1.
         23    2    1    2    0    0 -0.44408920985E-15  0.35527136788E-14  0.71054273576E-14  0.91188000000E+02  0.91188000000E+02 0.  0.
    9900012    2    3    3    0    0  0.20900643415E+01 -0.24934522346E+02 -0.32047874778E+02  0.50528867553E+02  0.30000023413E+02 0.  0.
         12    1    3    3    0    0 -0.20900643415E+01  0.24934522346E+02  0.32047874778E+02  0.40659132447E+02  0.00000000000E+00 0. -1.
         11    1    4    4    0    0  0.48306812279E+01 -0.14010438145E+02 -0.16369628341E+01  0.14909980071E+02  0.51100000000E-03 0. -1.
        -11    1    4    4    0    0 -0.48652382596E+01  0.18290937455E+00 -0.24344977388E+01  0.54434160840E+01  0.51100000000E-03 0.  1.
         12    1    4    4    0    0  0.21246213732E+01 -0.11106993575E+02 -0.27976414205E+02  0.30175471397E+02  0.00000000000E+00 0. -1.
</event>
<event>
 8    1  0.1338956E-013  0.9118800E+02  0.7816164E-02  0.1184000E+00
        -11   -1    0    0    0    0  0.00000000000E+00  0.00000000000E+00  0.45593999997E+02  0.45594000000E+02  0.51100000000E-03 0. -1.
         11   -1    0    0    0    0 -0.00000000000E+00 -0.00000000000E+00 -0.45593999997E+02  0.45594000000E+02  0.51100000000E-03 0.  1.
         23    2    1    2    0    0  0.00000000000E+00  0.17763568394E-14  0.00000000000E+00  0.91188000000E+02  0.91188000000E+02 0.  0.
    9900012    2    3    3    0    0 -0.38876229827E+02 -0.71723954245E+01 -0.95058769803E+01  0.50528853442E+02  0.29999980522E+02 0.  0.
         12    1    3    3    0    0  0.38876229827E+02  0.71723954245E+01  0.95058769803E+01  0.40659146558E+02  0.00000000000E+00 0. -1.
         11    1    4    4    0    0 -0.12853596869E+02  0.39762389565E+01  0.15566240994E+01  0.13544316430E+02  0.51100000000E-03 0. -1.
        -11    1    4    4    0    0 -0.10085509179E+01 -0.95396451873E+01 -0.62827040730E+01  0.11467099720E+02  0.51100000000E-03 0.  1.
         12    1    4    4    0    0 -0.25014082040E+02 -0.16089891937E+01 -0.47797970067E+01  0.25517437292E+02  0.00000000000E+00 0. -1.
</event>
<event>
 8    1  0.1338956E-013  0.9118800E+02  0.7816164E-02  0.1184000E+00
        -11   -1    0    0    0    0  0.00000000000E+00  0.00000000000E+00  0.45593999997E+02  0.45594000000E+02  0.51100000000E-03 0. -1.
         11   -1    0    0    0    0 -0.00000000000E+00 -0.00000000000E+00 -0.45593999997E+02  0.45594000000E+02  0.51100000000E-03 0.  1.
         23    2    1    2    0    0  0.00000000000E+00  0.00000000000E+00  0.00000000000E+00  0.91188000000E+02  0.91188000000E+02 0.  0.
    9900012    2    3    3    0    0 -0.17696646395E+02 -0.16346600820E+02 -0.32753370372E+02  0.50528856837E+02  0.29999990842E+02 0.  0.
         12    1    3    3    0    0  0.17696646395E+02  0.16346600820E+02  0.32753370372E+02  0.40659143163E+02  0.00000000000E+00 0. -1.
         11    1    4    4    0    0 -0.61470014370E+01 -0.68918466394E+01 -0.33176830668E+01  0.98127568990E+01  0.51100000000E-03 0. -1.
        -11    1    4    4    0    0 -0.28020344890E+01 -0.16500917280E+02 -0.15447436334E+02  0.22776192787E+02  0.51100000000E-03 0.  1.
        -12    1    4    4    0    0 -0.87476104689E+01  0.70461630989E+01 -0.13988250972E+02  0.17939907151E+02  0.00000000000E+00 0.  1.
</event>
<event>
 8    1  0.1338956E-013  0.9118800E+02  0.7816164E-02  0.1184000E+00
        -11   -1    0    0    0    0  0.00000000000E+00  0.00000000000E+00  0.45593999997E+02  0.45594000000E+02  0.51100000000E-03 0. -1.
         11   -1    0    0    0    0 -0.00000000000E+00 -0.00000000000E+00 -0.45593999997E+02  0.45594000000E+02  0.51100000000E-03 0.  1.
         23    2    1    2    0    0  0.00000000000E+00  0.00000000000E+00  0.00000000000E+00  0.91188000000E+02  0.91188000000E+02 0.  0.
    9900012    2    3    3    0    0 -0.33537998006E+02  0.14160634507E+02  0.18106470943E+02  0.50528866095E+02  0.30000018982E+02 0.  0.
        -12    1    3    3    0    0  0.33537998006E+02 -0.14160634507E+02 -0.18106470943E+02  0.40659133905E+02  0.00000000000E+00 0.  1.
         11    1    4    4    0    0 -0.87276856341E+01  0.86715441138E+01  0.82542508698E+01  0.14815560453E+02  0.51100000000E-03 0. -1.
        -11    1    4    4    0    0 -0.14632529825E+02  0.12793705233E+02  0.12226542812E+02  0.22962538450E+02  0.51100000000E-03 0.  1.
        -12    1    4    4    0    0 -0.10177782547E+02 -0.73046148394E+01 -0.23743227387E+01  0.12750767192E+02  0.00000000000E+00 0.  1.
</event>
<event>
 8    1  0.1338956E-013  0.9118800E+02  0.7816164E-02  0.1184000E+00
        -11   -1    0    0    0    0  0.00000000000E+00  0.00000000000E+00  0.45593999997E+02  0.45594000000E+02  0.51100000000E-03 0. -1.
         11   -1    0    0    0    0 -0.00000000000E+00 -0.00000000000E+00 -0.45593999997E+02  0.45594000000E+02  0.51100000000E-03 0.  1.
         23    2    1    2    0    0  0.00000000000E+00  0.15126788711E-14 -0.71054273576E-14  0.91188000000E+02  0.91188000000E+02 0.  0.
    9900012    2    3    3    0    0  0.12597258929E+02 -0.67739909965E-01  0.38658371183E+02  0.50528865924E+02  0.30000018464E+02 0.  0.
        -12    1    3    3    0    0 -0.12597258929E+02  0.67739909965E-01 -0.38658371183E+02  0.40659134076E+02  0.00000000000E+00 0.  1.
         11    1    4    4    0    0 -0.37446170781E+00 -0.54396598702E+01  0.19781885033E+02  0.20519578377E+02  0.51100000000E-03 0. -1.
        -11    1    4    4    0    0  0.23425881409E+01 -0.67677785957E+01  0.65347813648E+01  0.96950458516E+01  0.51100000000E-03 0.  1.
         12    1    4    4    0    0  0.10629132496E+02  0.12139698556E+02  0.12341704786E+02  0.20314241695E+02  0.00000000000E+00 0. -1.
</event>
<event>
 8    1  0.1338956E-013  0.9118800E+02  0.7816164E-02  0.1184000E+00
        -11   -1    0    0    0    0  0.00000000000E+00  0.00000000000E+00  0.45593999997E+02  0.45594000000E+02  0.51100000000E-03 0. -1.
         11   -1    0    0    0    0 -0.00000000000E+00 -0.00000000000E+00 -0.45593999997E+02  0.45594000000E+02  0.51100000000E-03 0.  1.
         23    2    1    2    0    0  0.00000000000E+00 -0.35527136788E-14  0.00000000000E+00  0.91188000000E+02  0.91188000000E+02 0.  0.
    9900012    2    3    3    0    0  0.62877418348E+01 -0.23501351852E+02  0.32577843982E+02  0.50528866281E+02  0.30000019547E+02 0.  0.
        -12    1    3    3    0    0 -0.62877418348E+01  0.23501351852E+02 -0.32577843982E+02  0.40659133719E+02  0.00000000000E+00 0.  1.
         11    1    4    4    0    0 -0.55861704974E+00 -0.89808217302E+01 -0.93803687883E-01  0.89986671986E+01  0.51100000000E-03 0. -1.
        -11    1    4    4    0    0  0.25215850972E+01 -0.11958543875E+02  0.46738258791E+01  0.13084716719E+02  0.51100000000E-03 0.  1.
         12    1    4    4    0    0  0.43247737874E+01 -0.25619862471E+01  0.27997821791E+02  0.28445482363E+02  0.00000000000E+00 0. -1.
</event>
<event>
 8    1  0.1338956E-013  0.9118800E+02  0.7816164E-02  0.1184000E+00
        -11   -1    0    0    0    0  0.00000000000E+00  0.00000000000E+00  0.45593999997E+02  0.45594000000E+02  0.51100000000E-03 0. -1.
         11   -1    0    0    0    0 -0.00000000000E+00 -0.00000000000E+00 -0.45593999997E+02  0.45594000000E+02  0.51100000000E-03 0.  1.
         23    2    1    2    0    0 -0.35527136788E-14  0.35527136788E-14 -0.35527136788E-14  0.91188000000E+02  0.91188000000E+02 0.  0.
    9900012    2    3    3    0    0  0.18352067776E+02 -0.31804172341E+02  0.17460237577E+02  0.50528884587E+02  0.30000075190E+02 0.  0.
        -12    1    3    3    0    0 -0.18352067776E+02  0.31804172341E+02 -0.17460237577E+02  0.40659115413E+02  0.00000000000E+00 0.  1.
         11    1    4    4    0    0  0.98971208941E+01 -0.53732166673E+01 -0.36472178793E+01  0.11837510628E+02  0.51100000000E-03 0. -1.
        -11    1    4    4    0    0  0.98758915702E+01 -0.54095994136E+01  0.87964839293E+01  0.14288986315E+02  0.51100000000E-03 0.  1.
        -12    1    4    4    0    0 -0.14209446884E+01 -0.21021356260E+02  0.12310971527E+02  0.24402387644E+02  0.00000000000E+00 0.  1.
</event>
<event>
 8    1  0.1338956E-013  0.9118800E+02  0.7816164E-02  0.1184000E+00
        -11   -1    0    0    0    0  0.00000000000E+00  0.00000000000E+00  0.45593999997E+02  0.45594000000E+02  0.51100000000E-03 0. -1.
         11   -1    0    0    0    0 -0.00000000000E+00 -0.00000000000E+00 -0.45593999997E+02  0.45594000000E+02  0.51100000000E-03 0.  1.
         23    2    1    2    0    0  0.00000000000E+00  0.00000000000E+00  0.00000000000E+00  0.91188000000E+02  0.91188000000E+02 0.  0.
    9900012    2    3    3    0    0 -0.34067694449E+02  0.66909622643E+01 -0.21161008314E+02  0.50528867521E+02  0.30000023318E+02 0.  0.
         12    1    3    3    0    0  0.34067694449E+02 -0.66909622643E+01  0.21161008314E+02  0.40659132479E+02  0.00000000000E+00 0. -1.
         11    1    4    4    0    0 -0.30787744221E+01 -0.31234560636E+01 -0.67542532793E+01  0.80532457646E+01  0.51100000000E-03 0.  1.
        -11    1    4    4    0    0 -0.13154861055E+02  0.91418235950E+01  0.43352669496E+01  0.16595717755E+02  0.51100000000E-03 0. -1.
         12    1    4    4    0    0 -0.17834058971E+02  0.67259473289E+00 -0.18742021984E+02  0.25879904001E+02  0.00000000000E+00 0. -1.
</event>
<event>
 8    1  0.1338956E-013  0.9118800E+02  0.7816164E-02  0.1184000E+00
        -11   -1    0    0    0    0  0.00000000000E+00  0.00000000000E+00  0.45593999997E+02  0.45594000000E+02  0.51100000000E-03 0. -1.
         11   -1    0    0    0    0 -0.00000000000E+00 -0.00000000000E+00 -0.45593999997E+02  0.45594000000E+02  0.51100000000E-03 0.  1.
         23    2    1    2    0    0  0.00000000000E+00 -0.44408920985E-15  0.00000000000E+00  0.91188000000E+02  0.91188000000E+02 0.  0.
    9900012    2    3    3    0    0 -0.35255051253E+02 -0.10161154333E+01 -0.20229044708E+02  0.50528863521E+02  0.30000011160E+02 0.  0.
         12    1    3    3    0    0  0.35255051253E+02  0.10161154333E+01  0.20229044708E+02  0.40659136479E+02  0.00000000000E+00 0. -1.
         11    1    4    4    0    0 -0.23646476105E+01  0.65069065327E+01 -0.38786492208E+00  0.69341063163E+01  0.51100000000E-03 0. -1.
        -11    1    4    4    0    0 -0.12391509841E+02 -0.82269627748E+01  0.26001011049E+00  0.14876156700E+02  0.51100000000E-03 0.  1.
        -12    1    4    4    0    0 -0.20498893801E+02  0.70394080877E+00 -0.20101189896E+02  0.28718600505E+02  0.00000000000E+00 0.  1.
</event>
<event>
 8    1  0.1338956E-013  0.9118800E+02  0.7816164E-02  0.1184000E+00
        -11   -1    0    0    0    0  0.00000000000E+00  0.00000000000E+00  0.45593999997E+02  0.45594000000E+02  0.51100000000E-03 0. -1.
         11   -1    0    0    0    0 -0.00000000000E+00 -0.00000000000E+00 -0.45593999997E+02  0.45594000000E+02  0.51100000000E-03 0.  1.
         23    2    1    2    0    0  0.00000000000E+00  0.00000000000E+00  0.00000000000E+00  0.91188000000E+02  0.91188000000E+02 0.  0.
    9900012    2    3    3    0    0  0.16138530093E+02  0.32678972894E+02 -0.18022166330E+02  0.50528857090E+02  0.29999991610E+02 0.  0.
         12    1    3    3    0    0 -0.16138530093E+02 -0.32678972894E+02  0.18022166330E+02  0.40659142910E+02  0.00000000000E+00 0. -1.
         11    1    4    4    0    0 -0.16959118990E+01  0.43269244640E+00  0.12801801530E+01  0.21684559962E+01  0.51100000000E-03 0. -1.
        -11    1    4    4    0    0 -0.90142182074E+00  0.92916169689E+01  0.44911072925E+01  0.10359379912E+02  0.51100000000E-03 0.  1.
        -12    1    4    4    0    0  0.18735863813E+02  0.22954663479E+02 -0.23793453776E+02  0.38001021181E+02  0.00000000000E+00 0.  1.
</event>
<event>
 8    1  0.1338956E-013  0.9118800E+02  0.7816164E-02  0.1184000E+00
        -11   -1    0    0    0    0  0.00000000000E+00  0.00000000000E+00  0.45593999997E+02  0.45594000000E+02  0.51100000000E-03 0. -1.
         11   -1    0    0    0    0 -0.00000000000E+00 -0.00000000000E+00 -0.45593999997E+02  0.45594000000E+02  0.51100000000E-03 0.  1.
         23    2    1    2    0    0  0.88817841970E-15  0.00000000000E+00  0.00000000000E+00  0.91188000000E+02  0.91188000000E+02 0.  0.
    9900012    2    3    3    0    0  0.14737706058E+01 -0.13503862349E+02  0.38322829939E+02  0.50528860896E+02  0.30000003181E+02 0.  0.
        -12    1    3    3    0    0 -0.14737706058E+01  0.13503862349E+02 -0.38322829939E+02  0.40659139104E+02  0.00000000000E+00 0.  1.
         11    1    4    4    0    0  0.22328075036E+01 -0.11837133184E+02  0.73065481069E+01  0.14088605214E+02  0.51100000000E-03 0. -1.
        -11    1    4    4    0    0  0.65463977972E+01 -0.71934726315E+01  0.13077697644E+02  0.16298084199E+02  0.51100000000E-03 0.  1.
         12    1    4    4    0    0 -0.73054346950E+01  0.55267434670E+01  0.17938584188E+02  0.20142171484E+02  0.00000000000E+00 0. -1.
</event>
<event>
 8    1  0.1338956E-013  0.9118800E+02  0.7816164E-02  0.1184000E+00
        -11   -1    0    0    0    0  0.00000000000E+00  0.00000000000E+00  0.45593999997E+02  0.45594000000E+02  0.51100000000E-03 0. -1.
         11   -1    0    0    0    0 -0.00000000000E+00 -0.00000000000E+00 -0.45593999997E+02  0.45594000000E+02  0.51100000000E-03 0.  1.
         23    2    1    2    0    0  0.00000000000E+00  0.00000000000E+00  0.00000000000E+00  0.91188000000E+02  0.91188000000E+02 0.  0.
    9900012    2    3    3    0    0  0.24186508840E+02 -0.14036879572E+02  0.29515144878E+02  0.50528868490E+02  0.30000026262E+02 0.  0.
        -12    1    3    3    0    0 -0.24186508840E+02  0.14036879572E+02 -0.29515144878E+02  0.40659131510E+02  0.00000000000E+00 0.  1.
         11    1    4    4    0    0  0.17777547520E+02 -0.12620011154E+02  0.19561697096E+02  0.29291054452E+02  0.51100000000E-03 0. -1.
        -11    1    4    4    0    0  0.31590992238E+01 -0.13199202141E+01 -0.49306279762E+01  0.60027651776E+01  0.51100000000E-03 0.  1.
         12    1    4    4    0    0  0.32498620962E+01 -0.96948203793E-01  0.14884075758E+02  0.15235048861E+02  0.00000000000E+00 0. -1.
</event>
<event>
 8    1  0.2260996E-013  0.9118800E+02  0.7816164E-02  0.1184000E+00
        -11   -1    0    0    0    0  0.00000000000E+00  0.00000000000E+00  0.45593999997E+02  0.45594000000E+02  0.51100000000E-03 0. -1.
         11   -1    0    0    0    0 -0.00000000000E+00 -0.00000000000E+00 -0.45593999997E+02  0.45594000000E+02  0.51100000000E-03 0.  1.
         23    2    1    2    0    0  0.00000000000E+00  0.17763568394E-14  0.71054273576E-14  0.91188000000E+02  0.91188000000E+02 0.  0.
    9900012    2    3    3    0    0  0.21980284837E+02 -0.13259623872E+02 -0.31531178989E+02  0.50528858406E+02  0.29999995612E+02 0.  0.
         12    1    3    3    0    0 -0.21980284837E+02  0.13259623872E+02  0.31531178989E+02  0.40659141594E+02  0.00000000000E+00 0. -1.
         11    1    4    4    0    0  0.30289668129E+01 -0.22807409017E+01 -0.10634709659E+02  0.11290414908E+02  0.51100000000E-03 0. -1.
        -11    1    4    4    0    0  0.19673363998E+02 -0.11899490249E+02 -0.25589671178E+02  0.34401604475E+02  0.51100000000E-03 0.  1.
         12    1    4    4    0    0 -0.72204597388E+00  0.92060727835E+00  0.46932018482E+01  0.48368390233E+01  0.00000000000E+00 0. -1.
</event>
<event>
 8    1  0.1338956E-013  0.9118800E+02  0.7816164E-02  0.1184000E+00
        -11   -1    0    0    0    0  0.00000000000E+00  0.00000000000E+00  0.45593999997E+02  0.45594000000E+02  0.51100000000E-03 0. -1.
         11   -1    0    0    0    0 -0.00000000000E+00 -0.00000000000E+00 -0.45593999997E+02  0.45594000000E+02  0.51100000000E-03 0.  1.
         23    2    1    2    0    0  0.35527136788E-14 -0.35527136788E-14 -0.88817841970E-15  0.91188000000E+02  0.91188000000E+02 0.  0.
    9900012    2    3    3    0    0 -0.28609979624E+02  0.28088444993E+02  0.67580858746E+01  0.50528887849E+02  0.30000085105E+02 0.  0.
        -12    1    3    3    0    0  0.28609979624E+02 -0.28088444993E+02 -0.67580858746E+01  0.40659112151E+02  0.00000000000E+00 0.  1.
         11    1    4    4    0    0 -0.83109413734E+01  0.10365872291E+01 -0.54548725389E+00  0.83930814485E+01  0.51100000000E-03 0. -1.
        -11    1    4    4    0    0 -0.25950431113E+01 -0.57820306358E+00 -0.61265098404E+01  0.66785245839E+01  0.51100000000E-03 0.  1.
         12    1    4    4    0    0 -0.17703995140E+02  0.27630060828E+02  0.13430082969E+02  0.35457281816E+02  0.00000000000E+00 0. -1.
</event>
<event>
 8    1  0.1338956E-013  0.9118800E+02  0.7816164E-02  0.1184000E+00
        -11   -1    0    0    0    0  0.00000000000E+00  0.00000000000E+00  0.45593999997E+02  0.45594000000E+02  0.51100000000E-03 0. -1.
         11   -1    0    0    0    0 -0.00000000000E+00 -0.00000000000E+00 -0.45593999997E+02  0.45594000000E+02  0.51100000000E-03 0.  1.
         23    2    1    2    0    0  0.31086244690E-14  0.35527136788E-14 -0.71054273576E-14  0.91188000000E+02  0.91188000000E+02 0.  0.
    9900012    2    3    3    0    0 -0.31793048398E+01 -0.20200868989E+02  0.35142289549E+02  0.50528885377E+02  0.30000077593E+02 0.  0.
        -12    1    3    3    0    0  0.31793048398E+01  0.20200868989E+02 -0.35142289549E+02  0.40659114623E+02  0.00000000000E+00 0.  1.
         11    1    4    4    0    0 -0.11823016143E+02 -0.91927531676E+01  0.14538193599E+02  0.20872218255E+02  0.51100000000E-03 0. -1.
        -11    1    4    4    0    0 -0.20624436268E+01 -0.43185803793E+01  0.15179913345E+02  0.15916456253E+02  0.51100000000E-03 0.  1.
        -12    1    4    4    0    0  0.10706154930E+02 -0.66895354424E+01  0.54241826037E+01  0.13740210869E+02  0.00000000000E+00 0.  1.
</event>
<event>
 8    1  0.1338956E-013  0.9118800E+02  0.7816164E-02  0.1184000E+00
        -11   -1    0    0    0    0  0.00000000000E+00  0.00000000000E+00  0.45593999997E+02  0.45594000000E+02  0.51100000000E-03 0. -1.
         11   -1    0    0    0    0 -0.00000000000E+00 -0.00000000000E+00 -0.45593999997E+02  0.45594000000E+02  0.51100000000E-03 0.  1.
         23    2    1    2    0    0  0.00000000000E+00  0.00000000000E+00  0.35527136788E-14  0.91188000000E+02  0.91188000000E+02 0.  0.
    9900012    2    3    3    0    0 -0.16205261044E+02  0.27722511136E+02 -0.24940255958E+02  0.50528874623E+02  0.30000044904E+02 0.  0.
         12    1    3    3    0    0  0.16205261044E+02 -0.27722511136E+02  0.24940255958E+02  0.40659125377E+02  0.00000000000E+00 0. -1.
         11    1    4    4    0    0 -0.36376134861E+00  0.11002537759E+02  0.10860450154E+01  0.11061991389E+02  0.51100000000E-03 0. -1.
        -11    1    4    4    0    0 -0.16262847836E+02  0.20304263271E+02 -0.23545282552E+02  0.35087371765E+02  0.51100000000E-03 0.  1.
        -12    1    4    4    0    0  0.42134814009E+00 -0.35842898938E+01 -0.24810184211E+01  0.43795114686E+01  0.00000000000E+00 0.  1.
</event>
<event>
 8    1  0.1338956E-013  0.9118800E+02  0.7816164E-02  0.1184000E+00
        -11   -1    0    0    0    0  0.00000000000E+00  0.00000000000E+00  0.45593999997E+02  0.45594000000E+02  0.51100000000E-03 0. -1.
         11   -1    0    0    0    0 -0.00000000000E+00 -0.00000000000E+00 -0.45593999997E+02  0.45594000000E+02  0.51100000000E-03 0.  1.
         23    2    1    2    0    0  0.17763568394E-14  0.00000000000E+00  0.00000000000E+00  0.91188000000E+02  0.91188000000E+02 0.  0.
    9900012    2    3    3    0    0 -0.11505215128E+02 -0.20414982316E+02 -0.33226865954E+02  0.50528854667E+02  0.29999984245E+02 0.  0.
         12    1    3    3    0    0  0.11505215128E+02  0.20414982316E+02  0.33226865954E+02  0.40659145333E+02  0.00000000000E+00 0. -1.
         11    1    4    4    0    0 -0.51537855726E+01 -0.13826593672E+02 -0.72724223575E+01  0.16450663376E+02  0.51100000000E-03 0. -1.
        -11    1    4    4    0    0 -0.12195420273E+02  0.49155382329E+00 -0.10488404321E+02  0.16092747629E+02  0.51100000000E-03 0.  1.
         12    1    4    4    0    0  0.58439907171E+01 -0.70799424676E+01 -0.15466039276E+02  0.17985443662E+02  0.00000000000E+00 0. -1.
</event>
<event>
 8    1  0.1338956E-013  0.9118800E+02  0.7816164E-02  0.1184000E+00
        -11   -1    0    0    0    0  0.00000000000E+00  0.00000000000E+00  0.45593999997E+02  0.45594000000E+02  0.51100000000E-03 0. -1.
         11   -1    0    0    0    0 -0.00000000000E+00 -0.00000000000E+00 -0.45593999997E+02  0.45594000000E+02  0.51100000000E-03 0.  1.
         23    2    1    2    0    0  0.00000000000E+00 -0.35527136788E-14  0.35527136788E-14  0.91188000000E+02  0.91188000000E+02 0.  0.
    9900012    2    3    3    0    0 -0.13654100621E+02  0.21617066199E+02  0.31613804760E+02  0.50528872289E+02  0.30000037809E+02 0.  0.
        -12    1    3    3    0    0  0.13654100621E+02 -0.21617066199E+02 -0.31613804760E+02  0.40659127711E+02  0.00000000000E+00 0.  1.
         11    1    4    4    0    0 -0.34954658208E+00  0.12121373740E+02  0.97992125397E+01  0.15590845096E+02  0.51100000000E-03 0. -1.
        -11    1    4    4    0    0 -0.82004038702E+01  0.79300439247E+01 -0.10524601699E+01  0.11455998121E+02  0.51100000000E-03 0.  1.
        -12    1    4    4    0    0 -0.51041501691E+01  0.15656485344E+01  0.22867052391E+02  0.23482029071E+02  0.00000000000E+00 0.  1.
</event>
<event>
 8    1  0.1338956E-013  0.9118800E+02  0.7816164E-02  0.1184000E+00
        -11   -1    0    0    0    0  0.00000000000E+00  0.00000000000E+00  0.45593999997E+02  0.45594000000E+02  0.51100000000E-03 0. -1.
         11   -1    0    0    0    0 -0.00000000000E+00 -0.00000000000E+00 -0.45593999997E+02  0.45594000000E+02  0.51100000000E-03 0.  1.
         23    2    1    2    0    0  0.35527136788E-14  0.88817841970E-15  0.00000000000E+00  0.91188000000E+02  0.91188000000E+02 0.  0.
    9900012    2    3    3    0    0 -0.19972750149E+02  0.69731371803E+01  0.34722196595E+02  0.50528851866E+02  0.29999975732E+02 0.  0.
        -12    1    3    3    0    0  0.19972750149E+02 -0.69731371803E+01 -0.34722196595E+02  0.40659148134E+02  0.00000000000E+00 0.  1.
         11    1    4    4    0    0 -0.30803226564E+01 -0.23835188880E+01  0.53253858908E+01  0.65976727037E+01  0.51100000000E-03 0. -1.
        -11    1    4    4    0    0 -0.14546273172E+02 -0.34132095818E+01  0.40946867968E+01  0.15492273012E+02  0.51100000000E-03 0.  1.
         12    1    4    4    0    0 -0.23461543197E+01  0.12769865650E+02  0.25302123907E+02  0.28438906150E+02  0.00000000000E+00 0. -1.
</event>
<event>
 8    1  0.1338956E-013  0.9118800E+02  0.7816164E-02  0.1184000E+00
        -11   -1    0    0    0    0  0.00000000000E+00  0.00000000000E+00  0.45593999997E+02  0.45594000000E+02  0.51100000000E-03 0. -1.
         11   -1    0    0    0    0 -0.00000000000E+00 -0.00000000000E+00 -0.45593999997E+02  0.45594000000E+02  0.51100000000E-03 0.  1.
         23    2    1    2    0    0  0.71054273576E-14  0.00000000000E+00  0.00000000000E+00  0.91188000000E+02  0.91188000000E+02 0.  0.
    9900012    2    3    3    0    0 -0.32919633247E+02 -0.12511583480E+02 -0.20320535403E+02  0.50528854247E+02  0.29999982969E+02 0.  0.
         12    1    3    3    0    0  0.32919633247E+02  0.12511583480E+02  0.20320535403E+02  0.40659145753E+02  0.00000000000E+00 0. -1.
         11    1    4    4    0    0  0.35058848251E+01  0.48429722964E+00 -0.74359018323E+01  0.82351932906E+01  0.51100000000E-03 0. -1.
        -11    1    4    4    0    0 -0.14511648360E+02  0.43979750834E+00 -0.35460774568E+01  0.14945100387E+02  0.51100000000E-03 0.  1.
        -12    1    4    4    0    0 -0.21913869712E+02 -0.13435678218E+02 -0.93385561141E+01  0.27348560569E+02  0.00000000000E+00 0.  1.
</event>
<event>
 8    1  0.1338956E-013  0.9118800E+02  0.7816164E-02  0.1184000E+00
        -11   -1    0    0    0    0  0.00000000000E+00  0.00000000000E+00  0.45593999997E+02  0.45594000000E+02  0.51100000000E-03 0. -1.
         11   -1    0    0    0    0 -0.00000000000E+00 -0.00000000000E+00 -0.45593999997E+02  0.45594000000E+02  0.51100000000E-03 0.  1.
         23    2    1    2    0    0  0.88817841970E-15  0.00000000000E+00  0.35527136788E-14  0.91188000000E+02  0.91188000000E+02 0.  0.
    9900012    2    3    3    0    0  0.37633713523E+01  0.34440768373E+02 -0.21279927820E+02  0.50528870422E+02  0.30000032133E+02 0.  0.
         12    1    3    3    0    0 -0.37633713523E+01 -0.34440768373E+02  0.21279927820E+02  0.40659129578E+02  0.00000000000E+00 0. -1.
         11    1    4    4    0    0  0.29235628678E+01  0.19654999406E+02 -0.28580499899E+01  0.20075723436E+02  0.51100000000E-03 0. -1.
        -11    1    4    4    0    0  0.81991369587E+01  0.69580825347E+01 -0.21691315656E+01  0.10970227502E+02  0.51100000000E-03 0.  1.
         12    1    4    4    0    0 -0.73593284742E+01  0.78276864329E+01 -0.16252746264E+02  0.19482919484E+02  0.00000000000E+00 0. -1.
</event>
<event>
 8    1  0.1338956E-013  0.9118800E+02  0.7816164E-02  0.1184000E+00
        -11   -1    0    0    0    0  0.00000000000E+00  0.00000000000E+00  0.45593999997E+02  0.45594000000E+02  0.51100000000E-03 0. -1.
         11   -1    0    0    0    0 -0.00000000000E+00 -0.00000000000E+00 -0.45593999997E+02  0.45594000000E+02  0.51100000000E-03 0.  1.
         23    2    1    2    0    0  0.00000000000E+00  0.00000000000E+00  0.00000000000E+00  0.91188000000E+02  0.91188000000E+02 0.  0.
    9900012    2    3    3    0    0 -0.72793011574E+01 -0.15480735274E+02  0.36885284383E+02  0.50528860880E+02  0.30000003130E+02 0.  0.
        -12    1    3    3    0    0  0.72793011574E+01  0.15480735274E+02 -0.36885284383E+02  0.40659139120E+02  0.00000000000E+00 0.  1.
         11    1    4    4    0    0 -0.30761751502E+01  0.12170500577E+01 -0.18816851499E+01  0.38058906530E+01  0.51100000000E-03 0. -1.
        -11    1    4    4    0    0 -0.28736081072E+01 -0.29303327069E+01 -0.13245065459E+01  0.43126315839E+01  0.51100000000E-03 0.  1.
         12    1    4    4    0    0 -0.13295178999E+01 -0.13767452625E+02  0.40091476079E+02  0.42410338643E+02  0.00000000000E+00 0. -1.
</event>
<event>
 8    1  0.1338956E-013  0.9118800E+02  0.7816164E-02  0.1184000E+00
        -11   -1    0    0    0    0  0.00000000000E+00  0.00000000000E+00  0.45593999997E+02  0.45594000000E+02  0.51100000000E-03 0. -1.
         11   -1    0    0    0    0 -0.00000000000E+00 -0.00000000000E+00 -0.45593999997E+02  0.45594000000E+02  0.51100000000E-03 0.  1.
         23    2    1    2    0    0  0.00000000000E+00  0.00000000000E+00  0.00000000000E+00  0.91188000000E+02  0.91188000000E+02 0.  0.
    9900012    2    3    3    0    0  0.31303655795E+02 -0.14946502275E+02 -0.21209632892E+02  0.50528864203E+02  0.30000013232E+02 0.  0.
         12    1    3    3    0    0 -0.31303655795E+02  0.14946502275E+02  0.21209632892E+02  0.40659135797E+02  0.00000000000E+00 0. -1.
         11    1    4    4    0    0  0.80332637546E+01  0.24949241498E+01 -0.11106941379E+01  0.84847872568E+01  0.51100000000E-03 0. -1.
        -11    1    4    4    0    0  0.19756184394E+02 -0.14974595516E+01 -0.15281683195E+02  0.25021571663E+02  0.51100000000E-03 0.  1.
         12    1    4    4    0    0  0.35142076458E+01 -0.15943966873E+02 -0.48172555583E+01  0.17022505284E+02  0.00000000000E+00 0. -1.
</event>
<event>
 8    1  0.1338956E-013  0.9118800E+02  0.7816164E-02  0.1184000E+00
        -11   -1    0    0    0    0  0.00000000000E+00  0.00000000000E+00  0.45593999997E+02  0.45594000000E+02  0.51100000000E-03 0. -1.
         11   -1    0    0    0    0 -0.00000000000E+00 -0.00000000000E+00 -0.45593999997E+02  0.45594000000E+02  0.51100000000E-03 0.  1.
         23    2    1    2    0    0  0.88817841970E-15  0.22204460493E-15  0.71054273576E-14  0.91188000000E+02  0.91188000000E+02 0.  0.
    9900012    2    3    3    0    0 -0.57216589037E+01  0.14672366555E+01  0.40227796465E+02  0.50528858685E+02  0.29999996460E+02 0.  0.
        -12    1    3    3    0    0  0.57216589037E+01 -0.14672366555E+01 -0.40227796465E+02  0.40659141315E+02  0.00000000000E+00 0.  1.
         11    1    4    4    0    0 -0.13485197662E+02 -0.22585611247E+01  0.21311977827E+02  0.25320980500E+02  0.51100000000E-03 0. -1.
        -11    1    4    4    0    0 -0.34561868149E+01 -0.24676357359E+00  0.83998743844E+00  0.35653469282E+01  0.51100000000E-03 0.  1.
        -12    1    4    4    0    0  0.11219725573E+02  0.39725613538E+01  0.18075831200E+02  0.21642531257E+02  0.00000000000E+00 0.  1.
</event>
<event>
 8    1  0.1338956E-013  0.9118800E+02  0.7816164E-02  0.1184000E+00
        -11   -1    0    0    0    0  0.00000000000E+00  0.00000000000E+00  0.45593999997E+02  0.45594000000E+02  0.51100000000E-03 0.  1.
         11   -1    0    0    0    0 -0.00000000000E+00 -0.00000000000E+00 -0.45593999997E+02  0.45594000000E+02  0.51100000000E-03 0. -1.
         23    2    1    2    0    0  0.35527136788E-14  0.00000000000E+00  0.00000000000E+00  0.91188000000E+02  0.91188000000E+02 0.  0.
    9900012    2    3    3    0    0 -0.25590072063E+02 -0.18225653007E+02 -0.25809671731E+02  0.50528863627E+02  0.30000011481E+02 0.  0.
         12    1    3    3    0    0  0.25590072063E+02  0.18225653007E+02  0.25809671731E+02  0.40659136373E+02  0.00000000000E+00 0. -1.
         11    1    4    4    0    0  0.29663667847E+01 -0.23624310696E+01 -0.60865297871E+01  0.71712103282E+01  0.51100000000E-03 0. -1.
        -11    1    4    4    0    0 -0.18277221639E+02 -0.13057179136E+02 -0.18356174799E+01  0.22536997352E+02  0.51100000000E-03 0.  1.
         12    1    4    4    0    0 -0.10279217209E+02 -0.28060428010E+01 -0.17887524464E+02  0.20820655947E+02  0.00000000000E+00 0. -1.
</event>
<event>
 8    1  0.1338956E-013  0.9118800E+02  0.7816164E-02  0.1184000E+00
        -11   -1    0    0    0    0  0.00000000000E+00  0.00000000000E+00  0.45593999997E+02  0.45594000000E+02  0.51100000000E-03 0. -1.
         11   -1    0    0    0    0 -0.00000000000E+00 -0.00000000000E+00 -0.45593999997E+02  0.45594000000E+02  0.51100000000E-03 0.  1.
         23    2    1    2    0    0  0.00000000000E+00  0.00000000000E+00  0.00000000000E+00  0.91188000000E+02  0.91188000000E+02 0.  0.
    9900012    2    3    3    0    0 -0.52653570115E+01  0.77737774393E+01 -0.39560208498E+02  0.50528859619E+02  0.29999999297E+02 0.  0.
         12    1    3    3    0    0  0.52653570115E+01 -0.77737774393E+01  0.39560208498E+02  0.40659140381E+02  0.00000000000E+00 0. -1.
         11    1    4    4    0    0 -0.10247602972E+02  0.62637027361E+00 -0.18172362974E+02  0.20872002365E+02  0.51100000000E-03 0. -1.
        -11    1    4    4    0    0  0.61977121494E+01 -0.43848167170E+01 -0.13944972904E+02  0.15877673731E+02  0.51100000000E-03 0.  1.
         12    1    4    4    0    0 -0.12154661888E+01  0.11532223883E+02 -0.74428726199E+01  0.13779183523E+02  0.00000000000E+00 0. -1.
</event>
<event>
 8    1  0.1338956E-013  0.9118800E+02  0.7816164E-02  0.1184000E+00
        -11   -1    0    0    0    0  0.00000000000E+00  0.00000000000E+00  0.45593999997E+02  0.45594000000E+02  0.51100000000E-03 0. -1.
         11   -1    0    0    0    0 -0.00000000000E+00 -0.00000000000E+00 -0.45593999997E+02  0.45594000000E+02  0.51100000000E-03 0.  1.
         23    2    1    2    0    0  0.71054273576E-14  0.00000000000E+00  0.00000000000E+00  0.91188000000E+02  0.91188000000E+02 0.  0.
    9900012    2    3    3    0    0  0.18812120083E+02  0.29256961583E+01 -0.35926456517E+02  0.50528857880E+02  0.29999994013E+02 0.  0.
         12    1    3    3    0    0 -0.18812120083E+02 -0.29256961583E+01  0.35926456517E+02  0.40659142120E+02  0.00000000000E+00 0. -1.
         11    1    4    4    0    0  0.88969507743E+01  0.17567850704E+00 -0.76228232340E+01  0.11717253532E+02  0.51100000000E-03 0. -1.
        -11    1    4    4    0    0  0.14868201016E+02 -0.50159162558E+01 -0.23927854648E+02  0.28614070764E+02  0.51100000000E-03 0.  1.
         12    1    4    4    0    0 -0.49530317074E+01  0.77659339070E+01 -0.43757786351E+01  0.10197533584E+02  0.00000000000E+00 0. -1.
</event>
<event>
 8    1  0.1338956E-013  0.9118800E+02  0.7816164E-02  0.1184000E+00
        -11   -1    0    0    0    0  0.00000000000E+00  0.00000000000E+00  0.45593999997E+02  0.45594000000E+02  0.51100000000E-03 0. -1.
         11   -1    0    0    0    0 -0.00000000000E+00 -0.00000000000E+00 -0.45593999997E+02  0.45594000000E+02  0.51100000000E-03 0.  1.
         23    2    1    2    0    0  0.00000000000E+00  0.00000000000E+00  0.71054273576E-14  0.91188000000E+02  0.91188000000E+02 0.  0.
    9900012    2    3    3    0    0  0.15211392351E+02  0.34635890686E+01 -0.37547076899E+02  0.50528857238E+02  0.29999992061E+02 0.  0.
         12    1    3    3    0    0 -0.15211392351E+02 -0.34635890686E+01  0.37547076899E+02  0.40659142762E+02  0.00000000000E+00 0. -1.
         11    1    4    4    0    0 -0.23058438266E+01  0.49107832791E+01 -0.10135772668E+02  0.11496373168E+02  0.51100000000E-03 0. -1.
        -11    1    4    4    0    0  0.42632732854E+01  0.16930098287E+01 -0.24727933703E+02  0.25149800931E+02  0.51100000000E-03 0.  1.
        -12    1    4    4    0    0  0.13253962892E+02 -0.31402040392E+01 -0.26833705273E+01  0.13882683139E+02  0.00000000000E+00 0.  1.
</event>
<event>
 8    1  0.1338956E-013  0.9118800E+02  0.7816164E-02  0.1184000E+00
        -11   -1    0    0    0    0  0.00000000000E+00  0.00000000000E+00  0.45593999997E+02  0.45594000000E+02  0.51100000000E-03 0. -1.
         11   -1    0    0    0    0 -0.00000000000E+00 -0.00000000000E+00 -0.45593999997E+02  0.45594000000E+02  0.51100000000E-03 0.  1.
         23    2    1    2    0    0  0.00000000000E+00 -0.88817841970E-15  0.00000000000E+00  0.91188000000E+02  0.91188000000E+02 0.  0.
    9900012    2    3    3    0    0 -0.24654568220E+01 -0.45270791404E+01 -0.40331040623E+02  0.50528858830E+02  0.29999996901E+02 0.  0.
         12    1    3    3    0    0  0.24654568220E+01  0.45270791404E+01  0.40331040623E+02  0.40659141170E+02  0.00000000000E+00 0. -1.
         11    1    4    4    0    0  0.86555387624E+01 -0.45741411382E+01 -0.29427856248E+02  0.31013542881E+02  0.51100000000E-03 0. -1.
        -11    1    4    4    0    0 -0.83845888127E+00 -0.32659497049E+01 -0.74437726175E+01  0.81718536338E+01  0.51100000000E-03 0.  1.
        -12    1    4    4    0    0 -0.10282536703E+02  0.33130117027E+01 -0.34594117577E+01  0.11343462315E+02  0.00000000000E+00 0.  1.
</event>
<event>
 8    1  0.1338956E-013  0.9118800E+02  0.7816164E-02  0.1184000E+00
        -11   -1    0    0    0    0  0.00000000000E+00  0.00000000000E+00  0.45593999997E+02  0.45594000000E+02  0.51100000000E-03 0. -1.
         11   -1    0    0    0    0 -0.00000000000E+00 -0.00000000000E+00 -0.45593999997E+02  0.45594000000E+02  0.51100000000E-03 0.  1.
         23    2    1    2    0    0 -0.35527136788E-14 -0.35527136788E-14  0.35527136788E-14  0.91188000000E+02  0.91188000000E+02 0.  0.
    9900012    2    3    3    0    0  0.25849872768E+02  0.22146727937E+02 -0.22236729879E+02  0.50528860361E+02  0.30000001555E+02 0.  0.
         12    1    3    3    0    0 -0.25849872768E+02 -0.22146727937E+02  0.22236729879E+02  0.40659139639E+02  0.00000000000E+00 0. -1.
         11    1    4    4    0    0  0.31624671638E+00 -0.31926301681E+00  0.48791512526E+01  0.48998018395E+01  0.51100000000E-03 0. -1.
        -11    1    4    4    0    0 -0.12144221076E+01  0.40037229564E+01 -0.34881436509E+01  0.54471795416E+01  0.51100000000E-03 0.  1.
        -12    1    4    4    0    0  0.26748048159E+02  0.18462267997E+02 -0.23627737481E+02  0.40181878980E+02  0.00000000000E+00 0.  1.
</event>
<event>
 8    1  0.1338956E-013  0.9118800E+02  0.7816164E-02  0.1184000E+00
        -11   -1    0    0    0    0  0.00000000000E+00  0.00000000000E+00  0.45593999997E+02  0.45594000000E+02  0.51100000000E-03 0. -1.
         11   -1    0    0    0    0 -0.00000000000E+00 -0.00000000000E+00 -0.45593999997E+02  0.45594000000E+02  0.51100000000E-03 0.  1.
         23    2    1    2    0    0  0.00000000000E+00  0.00000000000E+00  0.71054273576E-14  0.91188000000E+02  0.91188000000E+02 0.  0.
    9900012    2    3    3    0    0  0.12861751516E+02  0.12779494064E+02  0.36392630879E+02  0.50528884136E+02  0.30000073819E+02 0.  0.
        -12    1    3    3    0    0 -0.12861751516E+02 -0.12779494064E+02 -0.36392630879E+02  0.40659115864E+02  0.00000000000E+00 0.  1.
         11    1    4    4    0    0  0.22530524390E+01  0.18523643313E+01  0.20462855293E+01  0.35629739878E+01  0.51100000000E-03 0.  1.
        -11    1    4    4    0    0 -0.36185471061E+01  0.29278945149E+01  0.29605945485E+02  0.29969625586E+02  0.51100000000E-03 0. -1.
         12    1    4    4    0    0  0.14227246183E+02  0.79992352182E+01  0.47403998639E+01  0.16996284562E+02  0.00000000000E+00 0. -1.
</event>
<event>
 8    1  0.1338956E-013  0.9118800E+02  0.7816164E-02  0.1184000E+00
        -11   -1    0    0    0    0  0.00000000000E+00  0.00000000000E+00  0.45593999997E+02  0.45594000000E+02  0.51100000000E-03 0. -1.
         11   -1    0    0    0    0 -0.00000000000E+00 -0.00000000000E+00 -0.45593999997E+02  0.45594000000E+02  0.51100000000E-03 0.  1.
         23    2    1    2    0    0 -0.88817841970E-15  0.00000000000E+00  0.35527136788E-14  0.91188000000E+02  0.91188000000E+02 0.  0.
    9900012    2    3    3    0    0 -0.75123867138E+01 -0.31799423839E+02  0.24197663137E+02  0.50528853281E+02  0.29999980032E+02 0.  0.
        -12    1    3    3    0    0  0.75123867138E+01  0.31799423839E+02 -0.24197663137E+02  0.40659146719E+02  0.00000000000E+00 0.  1.
         11    1    4    4    0    0 -0.34219283393E+01 -0.17278052693E+02  0.18782536743E+02  0.25749259896E+02  0.51100000000E-03 0. -1.
        -11    1    4    4    0    0 -0.15353613418E+01  0.24077187571E+01  0.70250374298E+01  0.75832443726E+01  0.51100000000E-03 0.  1.
        -12    1    4    4    0    0 -0.25550970327E+01 -0.16929089903E+02 -0.16099110361E+01  0.17196349012E+02  0.00000000000E+00 0.  1.
</event>
<event>
 8    1  0.1338956E-013  0.9118800E+02  0.7816164E-02  0.1184000E+00
        -11   -1    0    0    0    0  0.00000000000E+00  0.00000000000E+00  0.45593999997E+02  0.45594000000E+02  0.51100000000E-03 0. -1.
         11   -1    0    0    0    0 -0.00000000000E+00 -0.00000000000E+00 -0.45593999997E+02  0.45594000000E+02  0.51100000000E-03 0.  1.
         23    2    1    2    0    0 -0.35527136788E-14  0.35527136788E-14  0.35527136788E-14  0.91188000000E+02  0.91188000000E+02 0.  0.
    9900012    2    3    3    0    0 -0.25371582493E+02  0.25931846668E+02  0.18357241860E+02  0.50528853446E+02  0.29999980534E+02 0.  0.
        -12    1    3    3    0    0  0.25371582493E+02 -0.25931846668E+02 -0.18357241860E+02  0.40659146554E+02  0.00000000000E+00 0.  1.
         11    1    4    4    0    0  0.22974057566E+01 -0.46015003825E-01 -0.21910372475E+01  0.31750330821E+01  0.51100000000E-03 0.  1.
        -11    1    4    4    0    0 -0.14977857482E+02  0.25820200881E+02  0.12761533201E+02  0.32463452038E+02  0.51100000000E-03 0. -1.
         12    1    4    4    0    0 -0.12691130767E+02  0.15766079109E+00  0.77867459061E+01  0.14890368326E+02  0.00000000000E+00 0. -1.
</event>
<event>
 8    1  0.1338956E-013  0.9118800E+02  0.7816164E-02  0.1184000E+00
        -11   -1    0    0    0    0  0.00000000000E+00  0.00000000000E+00  0.45593999997E+02  0.45594000000E+02  0.51100000000E-03 0. -1.
         11   -1    0    0    0    0 -0.00000000000E+00 -0.00000000000E+00 -0.45593999997E+02  0.45594000000E+02  0.51100000000E-03 0.  1.
         23    2    1    2    0    0  0.00000000000E+00  0.00000000000E+00  0.00000000000E+00  0.91188000000E+02  0.91188000000E+02 0.  0.
    9900012    2    3    3    0    0  0.28441329877E+02 -0.20402883837E+02 -0.20687648505E+02  0.50528859395E+02  0.29999998618E+02 0.  0.
         12    1    3    3    0    0 -0.28441329877E+02  0.20402883837E+02  0.20687648505E+02  0.40659140605E+02  0.00000000000E+00 0. -1.
         11    1    4    4    0    0 -0.29191595782E+01 -0.51908314736E+01 -0.77279028187E+00  0.60052834330E+01  0.51100000000E-03 0. -1.
        -11    1    4    4    0    0  0.19607391514E+02 -0.16080628213E+02 -0.55776390650E+01  0.25964330600E+02  0.51100000000E-03 0.  1.
        -12    1    4    4    0    0  0.11753097942E+02  0.86857584973E+00 -0.14337219158E+02  0.18559245362E+02  0.00000000000E+00 0.  1.
</event>
<event>
 8    1  0.1338956E-013  0.9118800E+02  0.7816164E-02  0.1184000E+00
        -11   -1    0    0    0    0  0.00000000000E+00  0.00000000000E+00  0.45593999997E+02  0.45594000000E+02  0.51100000000E-03 0. -1.
         11   -1    0    0    0    0 -0.00000000000E+00 -0.00000000000E+00 -0.45593999997E+02  0.45594000000E+02  0.51100000000E-03 0.  1.
         23    2    1    2    0    0  0.88817841970E-15  0.00000000000E+00 -0.35527136788E-14  0.91188000000E+02  0.91188000000E+02 0.  0.
    9900012    2    3    3    0    0 -0.51061781287E+01  0.33806234917E+02 -0.22005332462E+02  0.50528816153E+02  0.29999867179E+02 0.  0.
         12    1    3    3    0    0  0.51061781287E+01 -0.33806234917E+02  0.22005332462E+02  0.40659183847E+02  0.00000000000E+00 0. -1.
         11    1    4    4    0    0  0.11197483420E+02  0.10674258689E+02 -0.13767374821E+02  0.20709032889E+02  0.51100000000E-03 0.  1.
        -11    1    4    4    0    0 -0.88320602504E+01  0.13931252626E+02 -0.69438825866E+01  0.17896999570E+02  0.51100000000E-03 0. -1.
        -12    1    4    4    0    0 -0.74716012980E+01  0.92007236020E+01 -0.12940750547E+01  0.11922783694E+02  0.00000000000E+00 0.  1.
</event>
<event>
 8    1  0.1338956E-013  0.9118800E+02  0.7816164E-02  0.1184000E+00
        -11   -1    0    0    0    0  0.00000000000E+00  0.00000000000E+00  0.45593999997E+02  0.45594000000E+02  0.51100000000E-03 0.  1.
         11   -1    0    0    0    0 -0.00000000000E+00 -0.00000000000E+00 -0.45593999997E+02  0.45594000000E+02  0.51100000000E-03 0. -1.
         23    2    1    2    0    0 -0.88817841970E-15  0.00000000000E+00 -0.66613381478E-15  0.91188000000E+02  0.91188000000E+02 0.  0.
    9900012    2    3    3    0    0 -0.59742728268E+01 -0.40195616353E+02  0.13366770643E+01  0.50528853238E+02  0.29999979903E+02 0.  0.
        -12    1    3    3    0    0  0.59742728268E+01  0.40195616353E+02 -0.13366770643E+01  0.40659146762E+02  0.00000000000E+00 0.  1.
         11    1    4    4    0    0 -0.61521652781E+01 -0.96649810830E+01 -0.32874205180E+01  0.11919233653E+02  0.51100000000E-03 0. -1.
        -11    1    4    4    0    0 -0.22694422238E+01 -0.63571786558E+01 -0.86112741976E+01  0.10941578133E+02  0.51100000000E-03 0.  1.
        -12    1    4    4    0    0  0.24473346751E+01 -0.24173456614E+02  0.13235371780E+02  0.27668041453E+02  0.00000000000E+00 0.  1.
</event>
<event>
 8    1  0.1338956E-013  0.9118800E+02  0.7816164E-02  0.1184000E+00
        -11   -1    0    0    0    0  0.00000000000E+00  0.00000000000E+00  0.45593999997E+02  0.45594000000E+02  0.51100000000E-03 0.  1.
         11   -1    0    0    0    0 -0.00000000000E+00 -0.00000000000E+00 -0.45593999997E+02  0.45594000000E+02  0.51100000000E-03 0. -1.
         23    2    1    2    0    0  0.00000000000E+00  0.00000000000E+00  0.00000000000E+00  0.91188000000E+02  0.91188000000E+02 0.  0.
    9900012    2    3    3    0    0 -0.28499536887E+02  0.28733313570E+02 -0.39165470276E+01  0.50528852787E+02  0.29999978530E+02 0.  0.
         12    1    3    3    0    0  0.28499536887E+02 -0.28733313570E+02  0.39165470276E+01  0.40659147213E+02  0.00000000000E+00 0. -1.
         11    1    4    4    0    0 -0.25688416799E+01  0.90840509913E+01  0.24441608901E+01  0.97515564249E+01  0.51100000000E-03 0. -1.
        -11    1    4    4    0    0 -0.71384118038E+01  0.20215798989E+02 -0.42745350832E+01  0.21861086485E+02  0.51100000000E-03 0.  1.
         12    1    4    4    0    0 -0.18792283403E+02 -0.56653641023E+00 -0.20861728345E+01  0.18916209877E+02  0.00000000000E+00 0. -1.
</event>
<event>
 8    1  0.1338956E-013  0.9118800E+02  0.7816164E-02  0.1184000E+00
        -11   -1    0    0    0    0  0.00000000000E+00  0.00000000000E+00  0.45593999997E+02  0.45594000000E+02  0.51100000000E-03 0. -1.
         11   -1    0    0    0    0 -0.00000000000E+00 -0.00000000000E+00 -0.45593999997E+02  0.45594000000E+02  0.51100000000E-03 0.  1.
         23    2    1    2    0    0  0.00000000000E+00  0.00000000000E+00  0.00000000000E+00  0.91188000000E+02  0.91188000000E+02 0.  0.
    9900012    2    3    3    0    0  0.22365747456E+02  0.20488965886E+02 -0.27076584615E+02  0.50528858141E+02  0.29999994804E+02 0.  0.
         12    1    3    3    0    0 -0.22365747456E+02 -0.20488965886E+02  0.27076584615E+02  0.40659141859E+02  0.00000000000E+00 0. -1.
         11    1    4    4    0    0  0.46969942068E+01 -0.47816325483E+01 -0.11661078373E+02  0.13450149199E+02  0.51100000000E-03 0. -1.
        -11    1    4    4    0    0  0.25773482756E+01  0.32964193598E+00 -0.58450156170E+01  0.63965299783E+01  0.51100000000E-03 0.  1.
         12    1    4    4    0    0  0.15091404974E+02  0.24940956498E+02 -0.95704906254E+01  0.30682178963E+02  0.00000000000E+00 0. -1.
</event>
<event>
 8    1  0.1338956E-013  0.9118800E+02  0.7816164E-02  0.1184000E+00
        -11   -1    0    0    0    0  0.00000000000E+00  0.00000000000E+00  0.45593999997E+02  0.45594000000E+02  0.51100000000E-03 0. -1.
         11   -1    0    0    0    0 -0.00000000000E+00 -0.00000000000E+00 -0.45593999997E+02  0.45594000000E+02  0.51100000000E-03 0.  1.
         23    2    1    2    0    0 -0.88817841970E-15 -0.17763568394E-14  0.00000000000E+00  0.91188000000E+02  0.91188000000E+02 0.  0.
    9900012    2    3    3    0    0  0.46195207389E+01  0.22865840477E+01 -0.40331084386E+02  0.50528870568E+02  0.30000032578E+02 0.  0.
         12    1    3    3    0    0 -0.46195207389E+01 -0.22865840477E+01  0.40331084386E+02  0.40659129432E+02  0.00000000000E+00 0. -1.
         11    1    4    4    0    0  0.30109686005E+01  0.50799046931E+01 -0.53754040009E+01  0.79853823977E+01  0.51100000000E-03 0. -1.
        -11    1    4    4    0    0  0.71470267321E+01  0.80336613573E+01 -0.23469082165E+02  0.25815063894E+02  0.51100000000E-03 0.  1.
        -12    1    4    4    0    0 -0.55384745937E+01 -0.10826982003E+02 -0.11486598220E+02  0.16728424277E+02  0.00000000000E+00 0.  1.
</event>
<event>
 8    1  0.1338956E-013  0.9118800E+02  0.7816164E-02  0.1184000E+00
        -11   -1    0    0    0    0  0.00000000000E+00  0.00000000000E+00  0.45593999997E+02  0.45594000000E+02  0.51100000000E-03 0. -1.
         11   -1    0    0    0    0 -0.00000000000E+00 -0.00000000000E+00 -0.45593999997E+02  0.45594000000E+02  0.51100000000E-03 0.  1.
         23    2    1    2    0    0  0.00000000000E+00  0.35527136788E-14  0.35527136788E-14  0.91188000000E+02  0.91188000000E+02 0.  0.
    9900012    2    3    3    0    0 -0.31108360680E+02  0.19176771717E+02 -0.17823844832E+02  0.50528829788E+02  0.29999908625E+02 0.  0.
         12    1    3    3    0    0  0.31108360680E+02 -0.19176771717E+02  0.17823844832E+02  0.40659170212E+02  0.00000000000E+00 0. -1.
         11    1    4    4    0    0  0.91550295622E+00  0.85160760814E+00  0.38230136299E+00  0.13074921699E+01  0.51100000000E-03 0. -1.
        -11    1    4    4    0    0 -0.23936231589E+02  0.15264353273E+02  0.73598890694E+00  0.28398685594E+02  0.51100000000E-03 0.  1.
        -12    1    4    4    0    0 -0.80876320477E+01  0.30608108353E+01 -0.18942135102E+02  0.20822652025E+02  0.00000000000E+00 0.  1.
</event>
<event>
 8    1  0.1338956E-013  0.9118800E+02  0.7816164E-02  0.1184000E+00
        -11   -1    0    0    0    0  0.00000000000E+00  0.00000000000E+00  0.45593999997E+02  0.45594000000E+02  0.51100000000E-03 0. -1.
         11   -1    0    0    0    0 -0.00000000000E+00 -0.00000000000E+00 -0.45593999997E+02  0.45594000000E+02  0.51100000000E-03 0.  1.
         23    2    1    2    0    0 -0.88817841970E-15 -0.35527136788E-14  0.00000000000E+00  0.91188000000E+02  0.91188000000E+02 0.  0.
    9900012    2    3    3    0    0 -0.76379353613E+01  0.20386291094E+02  0.34339872575E+02  0.50528858720E+02  0.29999996566E+02 0.  0.
        -12    1    3    3    0    0  0.76379353613E+01 -0.20386291094E+02 -0.34339872575E+02  0.40659141280E+02  0.00000000000E+00 0.  1.
         11    1    4    4    0    0 -0.13369107969E+01  0.11493687452E+02  0.10562917737E+02  0.15667399692E+02  0.51100000000E-03 0. -1.
        -11    1    4    4    0    0  0.33142045338E+01  0.54086385874E+01  0.23803773853E+02  0.24634467175E+02  0.51100000000E-03 0.  1.
         12    1    4    4    0    0 -0.96152290982E+01  0.34839650541E+01 -0.26819015315E-01  0.10226991853E+02  0.00000000000E+00 0. -1.
</event>
<event>
 8    1  0.1338956E-013  0.9118800E+02  0.7816164E-02  0.1184000E+00
        -11   -1    0    0    0    0  0.00000000000E+00  0.00000000000E+00  0.45593999997E+02  0.45594000000E+02  0.51100000000E-03 0. -1.
         11   -1    0    0    0    0 -0.00000000000E+00 -0.00000000000E+00 -0.45593999997E+02  0.45594000000E+02  0.51100000000E-03 0.  1.
         23    2    1    2    0    0 -0.17763568394E-14  0.17763568394E-14  0.00000000000E+00  0.91188000000E+02  0.91188000000E+02 0.  0.
    9900012    2    3    3    0    0 -0.13768483891E+02  0.80836993555E+01  0.37393157140E+02  0.50528861484E+02  0.30000004967E+02 0.  0.
        -12    1    3    3    0    0  0.13768483891E+02 -0.80836993555E+01 -0.37393157140E+02  0.40659138516E+02  0.00000000000E+00 0.  1.
         11    1    4    4    0    0  0.74390219966E+01  0.51815851059E+01  0.12628448628E+02  0.15545597045E+02  0.51100000000E-03 0. -1.
        -11    1    4    4    0    0  0.47357003475E-01 -0.24469486170E+01  0.45521307872E+01  0.51683358236E+01  0.51100000000E-03 0.  1.
         12    1    4    4    0    0 -0.21254862891E+02  0.53490628666E+01  0.20212577725E+02  0.29814928615E+02  0.00000000000E+00 0. -1.
</event>
<event>
 8    1  0.1338956E-013  0.9118800E+02  0.7816164E-02  0.1184000E+00
        -11   -1    0    0    0    0  0.00000000000E+00  0.00000000000E+00  0.45593999997E+02  0.45594000000E+02  0.51100000000E-03 0. -1.
         11   -1    0    0    0    0 -0.00000000000E+00 -0.00000000000E+00 -0.45593999997E+02  0.45594000000E+02  0.51100000000E-03 0.  1.
         23    2    1    2    0    0  0.00000000000E+00  0.00000000000E+00  0.35527136788E-14  0.91188000000E+02  0.91188000000E+02 0.  0.
    9900012    2    3    3    0    0 -0.20321156517E+02 -0.28008705748E+02 -0.21347802876E+02  0.50528859730E+02  0.29999999636E+02 0.  0.
         12    1    3    3    0    0  0.20321156517E+02  0.28008705748E+02  0.21347802876E+02  0.40659140270E+02  0.00000000000E+00 0. -1.
         11    1    4    4    0    0 -0.83030456812E+01 -0.32646976762E+01 -0.85317144696E+01  0.12344592766E+02  0.51100000000E-03 0. -1.
        -11    1    4    4    0    0 -0.14074503782E+02 -0.48515349132E+01 -0.10128535734E+02  0.18006006889E+02  0.51100000000E-03 0.  1.
         12    1    4    4    0    0  0.20563929458E+01 -0.19892473158E+02 -0.26875526720E+01  0.20178260075E+02  0.00000000000E+00 0. -1.
</event>
<event>
 8    1  0.1338956E-013  0.9118800E+02  0.7816164E-02  0.1184000E+00
        -11   -1    0    0    0    0  0.00000000000E+00  0.00000000000E+00  0.45593999997E+02  0.45594000000E+02  0.51100000000E-03 0. -1.
         11   -1    0    0    0    0 -0.00000000000E+00 -0.00000000000E+00 -0.45593999997E+02  0.45594000000E+02  0.51100000000E-03 0.  1.
         23    2    1    2    0    0 -0.17763568394E-14  0.00000000000E+00  0.00000000000E+00  0.91188000000E+02  0.91188000000E+02 0.  0.
    9900012    2    3    3    0    0  0.13493193390E+02 -0.10495368278E+02 -0.36891011432E+02  0.50528858990E+02  0.29999997387E+02 0.  0.
         12    1    3    3    0    0 -0.13493193390E+02  0.10495368278E+02  0.36891011432E+02  0.40659141010E+02  0.00000000000E+00 0. -1.
         11    1    4    4    0    0 -0.13650874841E+01  0.14700873890E+00  0.59579246952E+00  0.14966777664E+01  0.51100000000E-03 0. -1.
        -11    1    4    4    0    0 -0.65489173344E+01 -0.25444339985E+01 -0.16684862117E+02  0.18103786531E+02  0.51100000000E-03 0.  1.
         12    1    4    4    0    0  0.21407198209E+02 -0.80979430179E+01 -0.20801941785E+02  0.30928394693E+02  0.00000000000E+00 0. -1.
</event>
<event>
 8    1  0.1338956E-013  0.9118800E+02  0.7816164E-02  0.1184000E+00
        -11   -1    0    0    0    0  0.00000000000E+00  0.00000000000E+00  0.45593999997E+02  0.45594000000E+02  0.51100000000E-03 0. -1.
         11   -1    0    0    0    0 -0.00000000000E+00 -0.00000000000E+00 -0.45593999997E+02  0.45594000000E+02  0.51100000000E-03 0.  1.
         23    2    1    2    0    0  0.00000000000E+00 -0.35527136788E-14  0.35527136788E-14  0.91188000000E+02  0.91188000000E+02 0.  0.
    9900012    2    3    3    0    0  0.27692497886E+02 -0.21575643694E+02  0.20513000664E+02  0.50528855442E+02  0.29999986601E+02 0.  0.
        -12    1    3    3    0    0 -0.27692497886E+02  0.21575643694E+02 -0.20513000664E+02  0.40659144558E+02  0.00000000000E+00 0.  1.
         11    1    4    4    0    0  0.89665691147E+01 -0.23463744973E+00  0.12236222128E+02  0.15171669277E+02  0.51100000000E-03 0.  1.
        -11    1    4    4    0    0  0.13903264403E+02 -0.17135316822E+01  0.50446290775E+01  0.14889097846E+02  0.51100000000E-03 0. -1.
        -12    1    4    4    0    0  0.48226643679E+01 -0.19627474562E+02  0.32321494581E+01  0.20468088318E+02  0.00000000000E+00 0.  1.
</event>
<event>
 8    1  0.1338956E-013  0.9118800E+02  0.7816164E-02  0.1184000E+00
        -11   -1    0    0    0    0  0.00000000000E+00  0.00000000000E+00  0.45593999997E+02  0.45594000000E+02  0.51100000000E-03 0. -1.
         11   -1    0    0    0    0 -0.00000000000E+00 -0.00000000000E+00 -0.45593999997E+02  0.45594000000E+02  0.51100000000E-03 0.  1.
         23    2    1    2    0    0  0.00000000000E+00 -0.17763568394E-14  0.00000000000E+00  0.91188000000E+02  0.91188000000E+02 0.  0.
    9900012    2    3    3    0    0  0.13822411879E+02  0.15857293478E+02 -0.34794432257E+02  0.50528863970E+02  0.30000012524E+02 0.  0.
         12    1    3    3    0    0 -0.13822411879E+02 -0.15857293478E+02  0.34794432257E+02  0.40659136030E+02  0.00000000000E+00 0. -1.
         11    1    4    4    0    0  0.81340609137E+01  0.10504670466E+02 -0.23225299870E+02  0.26756786109E+02  0.51100000000E-03 0. -1.
        -11    1    4    4    0    0  0.67386537640E+01  0.10863248676E+02 -0.12732799352E+02  0.18042832537E+02  0.51100000000E-03 0.  1.
         12    1    4    4    0    0 -0.10503027989E+01 -0.55106256648E+01  0.11636669646E+01  0.57292453248E+01  0.00000000000E+00 0. -1.
</event>
<event>
 8    1  0.1338956E-013  0.9118800E+02  0.7816164E-02  0.1184000E+00
        -11   -1    0    0    0    0  0.00000000000E+00  0.00000000000E+00  0.45593999997E+02  0.45594000000E+02  0.51100000000E-03 0.  1.
         11   -1    0    0    0    0 -0.00000000000E+00 -0.00000000000E+00 -0.45593999997E+02  0.45594000000E+02  0.51100000000E-03 0. -1.
         23    2    1    2    0    0  0.00000000000E+00 -0.35527136788E-14 -0.44408920985E-15  0.91188000000E+02  0.91188000000E+02 0.  0.
    9900012    2    3    3    0    0 -0.30029412528E+02 -0.27268793415E+02 -0.27951584894E+01  0.50528860534E+02  0.30000002079E+02 0.  0.
         12    1    3    3    0    0  0.30029412528E+02  0.27268793415E+02  0.27951584894E+01  0.40659139466E+02  0.00000000000E+00 0. -1.
         11    1    4    4    0    0 -0.32458483920E+01 -0.49383031449E+01 -0.60814409785E+01  0.84797579194E+01  0.51100000000E-03 0.  1.
        -11    1    4    4    0    0  0.33124496495E+00 -0.10441238286E+02 -0.45931413041E+01  0.11411666288E+02  0.51100000000E-03 0. -1.
        -12    1    4    4    0    0 -0.27114809101E+02 -0.11889251985E+02  0.78794237933E+01  0.30637436327E+02  0.00000000000E+00 0.  1.
</event>
<event>
 8    1  0.1338956E-013  0.9118800E+02  0.7816164E-02  0.1184000E+00
        -11   -1    0    0    0    0  0.00000000000E+00  0.00000000000E+00  0.45593999997E+02  0.45594000000E+02  0.51100000000E-03 0. -1.
         11   -1    0    0    0    0 -0.00000000000E+00 -0.00000000000E+00 -0.45593999997E+02  0.45594000000E+02  0.51100000000E-03 0.  1.
         23    2    1    2    0    0 -0.88817841970E-15 -0.35527136788E-14  0.00000000000E+00  0.91188000000E+02  0.91188000000E+02 0.  0.
    9900012    2    3    3    0    0 -0.78700759337E+01 -0.27035523190E+02 -0.29331009009E+02  0.50528859590E+02  0.29999999210E+02 0.  0.
         12    1    3    3    0    0  0.78700759337E+01  0.27035523190E+02  0.29331009009E+02  0.40659140410E+02  0.00000000000E+00 0. -1.
         11    1    4    4    0    0 -0.10787403894E+02 -0.14323066753E+02 -0.12406530100E+02  0.21804593860E+02  0.51100000000E-03 0. -1.
        -11    1    4    4    0    0 -0.29806953612E+01 -0.13552038647E+02 -0.17940807005E+02  0.22680715434E+02  0.51100000000E-03 0.  1.
         12    1    4    4    0    0  0.58980233220E+01  0.83958220979E+00  0.10163280959E+01  0.60435502970E+01  0.00000000000E+00 0. -1.
</event>
<event>
 8    1  0.1338956E-013  0.9118800E+02  0.7816164E-02  0.1184000E+00
        -11   -1    0    0    0    0  0.00000000000E+00  0.00000000000E+00  0.45593999997E+02  0.45594000000E+02  0.51100000000E-03 0. -1.
         11   -1    0    0    0    0 -0.00000000000E+00 -0.00000000000E+00 -0.45593999997E+02  0.45594000000E+02  0.51100000000E-03 0.  1.
         23    2    1    2    0    0  0.00000000000E+00 -0.88817841970E-15  0.00000000000E+00  0.91188000000E+02  0.91188000000E+02 0.  0.
    9900012    2    3    3    0    0 -0.14849960540E+02 -0.41876027445E+01 -0.37617922702E+02  0.50528862611E+02  0.30000008393E+02 0.  0.
         12    1    3    3    0    0  0.14849960540E+02  0.41876027445E+01  0.37617922702E+02  0.40659137389E+02  0.00000000000E+00 0. -1.
         11    1    4    4    0    0  0.29669862931E+01  0.15798665516E+01 -0.32465174965E+01  0.46732068326E+01  0.51100000000E-03 0. -1.
        -11    1    4    4    0    0 -0.31449485124E+01 -0.61951156075E+01  0.14908202581E+01  0.71058218271E+01  0.51100000000E-03 0.  1.
        -12    1    4    4    0    0 -0.14671998320E+02  0.42764631137E+00 -0.35862225463E+02  0.38749833952E+02  0.00000000000E+00 0.  1.
</event>
<event>
 8    1  0.1338956E-013  0.9118800E+02  0.7816164E-02  0.1184000E+00
        -11   -1    0    0    0    0  0.00000000000E+00  0.00000000000E+00  0.45593999997E+02  0.45594000000E+02  0.51100000000E-03 0. -1.
         11   -1    0    0    0    0 -0.00000000000E+00 -0.00000000000E+00 -0.45593999997E+02  0.45594000000E+02  0.51100000000E-03 0.  1.
         23    2    1    2    0    0 -0.17763568394E-14  0.00000000000E+00  0.00000000000E+00  0.91188000000E+02  0.91188000000E+02 0.  0.
    9900012    2    3    3    0    0 -0.42982873338E+01  0.21924569560E+02 -0.33970613702E+02  0.50528872861E+02  0.30000039548E+02 0.  0.
         12    1    3    3    0    0  0.42982873338E+01 -0.21924569560E+02  0.33970613702E+02  0.40659127139E+02  0.00000000000E+00 0. -1.
         11    1    4    4    0    0 -0.57242771928E+01  0.72267307018E+01 -0.68737995243E+01  0.11499656785E+02  0.51100000000E-03 0. -1.
        -11    1    4    4    0    0 -0.10961115565E+02  0.40648638412E+01 -0.99182938541E+01  0.15331070599E+02  0.51100000000E-03 0.  1.
         12    1    4    4    0    0  0.12387105424E+02  0.10632975017E+02 -0.17178520324E+02  0.23698145476E+02  0.00000000000E+00 0. -1.
</event>
<event>
 8    1  0.1338956E-013  0.9118800E+02  0.7816164E-02  0.1184000E+00
        -11   -1    0    0    0    0  0.00000000000E+00  0.00000000000E+00  0.45593999997E+02  0.45594000000E+02  0.51100000000E-03 0. -1.
         11   -1    0    0    0    0 -0.00000000000E+00 -0.00000000000E+00 -0.45593999997E+02  0.45594000000E+02  0.51100000000E-03 0.  1.
         23    2    1    2    0    0  0.00000000000E+00  0.35527136788E-14 -0.71054273576E-14  0.91188000000E+02  0.91188000000E+02 0.  0.
    9900012    2    3    3    0    0  0.11165201894E+02 -0.13711842900E+02 -0.36612688622E+02  0.50528864038E+02  0.30000012729E+02 0.  0.
         12    1    3    3    0    0 -0.11165201894E+02  0.13711842900E+02  0.36612688622E+02  0.40659135962E+02  0.00000000000E+00 0. -1.
         11    1    4    4    0    0  0.68308835399E+01 -0.16855966351E+02 -0.27675681685E+02  0.33116882832E+02  0.51100000000E-03 0. -1.
        -11    1    4    4    0    0  0.58305188899E+00 -0.49438191910E+01 -0.64660989070E+01  0.81603757900E+01  0.51100000000E-03 0.  1.
         12    1    4    4    0    0  0.37512664656E+01  0.80879426415E+01 -0.24709080302E+01  0.92516054154E+01  0.00000000000E+00 0. -1.
</event>
<event>
 8    1  0.1338956E-013  0.9118800E+02  0.7816164E-02  0.1184000E+00
        -11   -1    0    0    0    0  0.00000000000E+00  0.00000000000E+00  0.45593999997E+02  0.45594000000E+02  0.51100000000E-03 0. -1.
         11   -1    0    0    0    0 -0.00000000000E+00 -0.00000000000E+00 -0.45593999997E+02  0.45594000000E+02  0.51100000000E-03 0.  1.
         23    2    1    2    0    0  0.00000000000E+00  0.00000000000E+00  0.00000000000E+00  0.91188000000E+02  0.91188000000E+02 0.  0.
    9900012    2    3    3    0    0 -0.47981610203E+01  0.10083951695E+02 -0.39095511818E+02  0.50528837745E+02  0.29999932811E+02 0.  0.
         12    1    3    3    0    0  0.47981610203E+01 -0.10083951695E+02  0.39095511818E+02  0.40659162255E+02  0.00000000000E+00 0. -1.
         11    1    4    4    0    0 -0.69189488642E+01  0.23254415140E+01 -0.72817998072E+01  0.10310389921E+02  0.51100000000E-03 0. -1.
        -11    1    4    4    0    0  0.10505487008E+02  0.11183904335E+02 -0.17442360839E+02  0.23231033669E+02  0.51100000000E-03 0.  1.
         12    1    4    4    0    0 -0.83846991641E+01 -0.34253941546E+01 -0.14371351172E+02  0.16987414156E+02  0.00000000000E+00 0. -1.
</event>
<event>
 8    1  0.1338956E-013  0.9118800E+02  0.7816164E-02  0.1184000E+00
        -11   -1    0    0    0    0  0.00000000000E+00  0.00000000000E+00  0.45593999997E+02  0.45594000000E+02  0.51100000000E-03 0. -1.
         11   -1    0    0    0    0 -0.00000000000E+00 -0.00000000000E+00 -0.45593999997E+02  0.45594000000E+02  0.51100000000E-03 0.  1.
         23    2    1    2    0    0  0.00000000000E+00  0.00000000000E+00  0.00000000000E+00  0.91188000000E+02  0.91188000000E+02 0.  0.
    9900012    2    3    3    0    0  0.36517374515E+02  0.19862919625E+01  0.17767994831E+02  0.50528860344E+02  0.30000001502E+02 0.  0.
        -12    1    3    3    0    0 -0.36517374515E+02 -0.19862919625E+01 -0.17767994831E+02  0.40659139656E+02  0.00000000000E+00 0.  1.
         11    1    4    4    0    0  0.80627066494E+01  0.59084116769E+01  0.61132258125E+01  0.11717000348E+02  0.51100000000E-03 0. -1.
        -11    1    4    4    0    0  0.82869483458E+00  0.70276335450E+01  0.39848044936E+01  0.81211474242E+01  0.51100000000E-03 0.  1.
         12    1    4    4    0    0  0.27625973031E+02 -0.10949753259E+02  0.76699645246E+01  0.30690712572E+02  0.00000000000E+00 0. -1.
</event>
<event>
 8    1  0.1338956E-013  0.9118800E+02  0.7816164E-02  0.1184000E+00
        -11   -1    0    0    0    0  0.00000000000E+00  0.00000000000E+00  0.45593999997E+02  0.45594000000E+02  0.51100000000E-03 0. -1.
         11   -1    0    0    0    0 -0.00000000000E+00 -0.00000000000E+00 -0.45593999997E+02  0.45594000000E+02  0.51100000000E-03 0.  1.
         23    2    1    2    0    0  0.00000000000E+00  0.35527136788E-14  0.71054273576E-14  0.91188000000E+02  0.91188000000E+02 0.  0.
    9900012    2    3    3    0    0 -0.10726713460E+02  0.18950290990E+02  0.34336412909E+02  0.50528866196E+02  0.30000019290E+02 0.  0.
        -12    1    3    3    0    0  0.10726713460E+02 -0.18950290990E+02 -0.34336412909E+02  0.40659133804E+02  0.00000000000E+00 0.  1.
         11    1    4    4    0    0 -0.15337530282E+01  0.88985988034E+01  0.17225930527E+02  0.19449168152E+02  0.51100000000E-03 0. -1.
        -11    1    4    4    0    0 -0.15694122610E+02  0.10466374535E+02  0.15380625777E+02  0.24339558951E+02  0.51100000000E-03 0.  1.
        -12    1    4    4    0    0  0.65011621781E+01 -0.41468234864E+00  0.17298566046E+01  0.67401390927E+01  0.00000000000E+00 0.  1.
</event>
<event>
 8    1  0.1338956E-013  0.9118800E+02  0.7816164E-02  0.1184000E+00
        -11   -1    0    0    0    0  0.00000000000E+00  0.00000000000E+00  0.45593999997E+02  0.45594000000E+02  0.51100000000E-03 0.  1.
         11   -1    0    0    0    0 -0.00000000000E+00 -0.00000000000E+00 -0.45593999997E+02  0.45594000000E+02  0.51100000000E-03 0. -1.
         23    2    1    2    0    0 -0.71054273576E-14  0.00000000000E+00 -0.17763568394E-14  0.91188000000E+02  0.91188000000E+02 0.  0.
    9900012    2    3    3    0    0  0.34694613830E+02  0.18198097016E+02 -0.10875604782E+02  0.50528859045E+02  0.29999997553E+02 0.  0.
         12    1    3    3    0    0 -0.34694613830E+02 -0.18198097016E+02  0.10875604782E+02  0.40659140955E+02  0.00000000000E+00 0. -1.
         11    1    4    4    0    0  0.16831681573E+02  0.89090296328E+01 -0.13282875450E+02  0.23218765989E+02  0.51100000000E-03 0. -1.
        -11    1    4    4    0    0  0.18143439070E+02  0.25307017017E+00  0.11351292413E+01  0.18180675028E+02  0.51100000000E-03 0.  1.
        -12    1    4    4    0    0 -0.28050681339E+00  0.90359972132E+01  0.12721414273E+01  0.91294180275E+01  0.00000000000E+00 0.  1.
</event>
<event>
 8    1  0.1338956E-013  0.9118800E+02  0.7816164E-02  0.1184000E+00
        -11   -1    0    0    0    0  0.00000000000E+00  0.00000000000E+00  0.45593999997E+02  0.45594000000E+02  0.51100000000E-03 0. -1.
         11   -1    0    0    0    0 -0.00000000000E+00 -0.00000000000E+00 -0.45593999997E+02  0.45594000000E+02  0.51100000000E-03 0.  1.
         23    2    1    2    0    0 -0.22204460493E-15  0.00000000000E+00  0.00000000000E+00  0.91188000000E+02  0.91188000000E+02 0.  0.
    9900012    2    3    3    0    0 -0.90331294758E+00  0.11981309578E+02 -0.38843243195E+02  0.50528864551E+02  0.30000014291E+02 0.  0.
         12    1    3    3    0    0  0.90331294758E+00 -0.11981309578E+02  0.38843243195E+02  0.40659135449E+02  0.00000000000E+00 0. -1.
         11    1    4    4    0    0  0.29073913481E+01 -0.61947386432E+01 -0.34177248408E+01  0.76490884854E+01  0.51100000000E-03 0. -1.
        -11    1    4    4    0    0 -0.23799258137E+01 -0.24057628327E+01 -0.67832759591E+01  0.75805392080E+01  0.51100000000E-03 0.  1.
         12    1    4    4    0    0 -0.14307784820E+01  0.20581811054E+02 -0.28642242396E+02  0.35299236858E+02  0.00000000000E+00 0. -1.
</event>
<event>
 8    1  0.1338956E-013  0.9118800E+02  0.7816164E-02  0.1184000E+00
        -11   -1    0    0    0    0  0.00000000000E+00  0.00000000000E+00  0.45593999997E+02  0.45594000000E+02  0.51100000000E-03 0.  1.
         11   -1    0    0    0    0 -0.00000000000E+00 -0.00000000000E+00 -0.45593999997E+02  0.45594000000E+02  0.51100000000E-03 0. -1.
         23    2    1    2    0    0  0.00000000000E+00 -0.17763568394E-14  0.00000000000E+00  0.91188000000E+02  0.91188000000E+02 0.  0.
    9900012    2    3    3    0    0 -0.33128862031E+02 -0.12824013199E+02  0.19778493261E+02  0.50528860687E+02  0.30000002543E+02 0.  0.
        -12    1    3    3    0    0  0.33128862031E+02  0.12824013199E+02 -0.19778493261E+02  0.40659139313E+02  0.00000000000E+00 0.  1.
         11    1    4    4    0    0 -0.21294441377E+02 -0.15025566192E+02  0.31722236377E+00  0.26063796792E+02  0.51100000000E-03 0. -1.
        -11    1    4    4    0    0 -0.20494171301E+01 -0.28848612532E+01  0.29368718414E+01  0.45986684483E+01  0.51100000000E-03 0.  1.
        -12    1    4    4    0    0 -0.97850035245E+01  0.50864142460E+01  0.16524399056E+02  0.19866395446E+02  0.00000000000E+00 0.  1.
</event>
<event>
 8    1  0.1338956E-013  0.9118800E+02  0.7816164E-02  0.1184000E+00
        -11   -1    0    0    0    0  0.00000000000E+00  0.00000000000E+00  0.45593999997E+02  0.45594000000E+02  0.51100000000E-03 0. -1.
         11   -1    0    0    0    0 -0.00000000000E+00 -0.00000000000E+00 -0.45593999997E+02  0.45594000000E+02  0.51100000000E-03 0.  1.
         23    2    1    2    0    0  0.00000000000E+00  0.00000000000E+00  0.71054273576E-14  0.91188000000E+02  0.91188000000E+02 0.  0.
    9900012    2    3    3    0    0 -0.60208581568E+01  0.92953669127E+01 -0.39121734147E+02  0.50528872345E+02  0.30000037981E+02 0.  0.
         12    1    3    3    0    0  0.60208581568E+01 -0.92953669127E+01  0.39121734147E+02  0.40659127655E+02  0.00000000000E+00 0. -1.
         11    1    4    4    0    0  0.22461739300E+01  0.11200045033E+02 -0.16490267930E+02  0.20060290196E+02  0.51100000000E-03 0. -1.
        -11    1    4    4    0    0 -0.45092880242E+01  0.65185267860E+01 -0.18944087613E+02  0.20535416375E+02  0.51100000000E-03 0.  1.
         12    1    4    4    0    0 -0.37577440626E+01 -0.84232049066E+01 -0.36873786042E+01  0.99331657748E+01  0.00000000000E+00 0. -1.
</event>
<event>
 8    1  0.1338956E-013  0.9118800E+02  0.7816164E-02  0.1184000E+00
        -11   -1    0    0    0    0  0.00000000000E+00  0.00000000000E+00  0.45593999997E+02  0.45594000000E+02  0.51100000000E-03 0. -1.
         11   -1    0    0    0    0 -0.00000000000E+00 -0.00000000000E+00 -0.45593999997E+02  0.45594000000E+02  0.51100000000E-03 0.  1.
         23    2    1    2    0    0  0.00000000000E+00  0.00000000000E+00  0.00000000000E+00  0.91188000000E+02  0.91188000000E+02 0.  0.
    9900012    2    3    3    0    0  0.70260494624E+01  0.12036850494E+02 -0.38195736209E+02  0.50528863199E+02  0.30000010180E+02 0.  0.
         12    1    3    3    0    0 -0.70260494624E+01 -0.12036850494E+02  0.38195736209E+02  0.40659136801E+02  0.00000000000E+00 0. -1.
         11    1    4    4    0    0  0.13212960932E+02  0.11924713120E+02 -0.15395818863E+02  0.23533218189E+02  0.51100000000E-03 0. -1.
        -11    1    4    4    0    0  0.86311160960E+00 -0.47915277077E+01 -0.39067064480E+01  0.62422796281E+01  0.51100000000E-03 0.  1.
        -12    1    4    4    0    0 -0.70500230796E+01  0.49036650821E+01 -0.18893210898E+02  0.20753365382E+02  0.00000000000E+00 0.  1.
</event>
<event>
 8    1  0.1338956E-013  0.9118800E+02  0.7816164E-02  0.1184000E+00
        -11   -1    0    0    0    0  0.00000000000E+00  0.00000000000E+00  0.45593999997E+02  0.45594000000E+02  0.51100000000E-03 0. -1.
         11   -1    0    0    0    0 -0.00000000000E+00 -0.00000000000E+00 -0.45593999997E+02  0.45594000000E+02  0.51100000000E-03 0.  1.
         23    2    1    2    0    0  0.00000000000E+00  0.00000000000E+00  0.00000000000E+00  0.91188000000E+02  0.91188000000E+02 0.  0.
    9900012    2    3    3    0    0 -0.20240716287E+02  0.54969143317E+01  0.34831917394E+02  0.50528866557E+02  0.30000020387E+02 0.  0.
        -12    1    3    3    0    0  0.20240716287E+02 -0.54969143317E+01 -0.34831917394E+02  0.40659133443E+02  0.00000000000E+00 0.  1.
         11    1    4    4    0    0 -0.14616703860E+02  0.63823532942E+01  0.16249106832E+02  0.22768749162E+02  0.51100000000E-03 0. -1.
        -11    1    4    4    0    0 -0.55146003864E+01  0.64525043904E+01  0.18573799347E+02  0.20421352864E+02  0.51100000000E-03 0.  1.
        -12    1    4    4    0    0 -0.10941204065E+00 -0.73379433528E+01  0.90112145377E-02  0.73387645313E+01  0.00000000000E+00 0.  1.
</event>
<event>
 8    1  0.1338956E-013  0.9118800E+02  0.7816164E-02  0.1184000E+00
        -11   -1    0    0    0    0  0.00000000000E+00  0.00000000000E+00  0.45593999997E+02  0.45594000000E+02  0.51100000000E-03 0. -1.
         11   -1    0    0    0    0 -0.00000000000E+00 -0.00000000000E+00 -0.45593999997E+02  0.45594000000E+02  0.51100000000E-03 0.  1.
         23    2    1    2    0    0 -0.22204460493E-15 -0.35527136788E-14  0.00000000000E+00  0.91188000000E+02  0.91188000000E+02 0.  0.
    9900012    2    3    3    0    0  0.17279064141E+01 -0.30261973249E+02  0.27099710656E+02  0.50528843551E+02  0.29999950458E+02 0.  0.
        -12    1    3    3    0    0 -0.17279064141E+01  0.30261973249E+02 -0.27099710656E+02  0.40659156449E+02  0.00000000000E+00 0.  1.
         11    1    4    4    0    0  0.82520470454E+00 -0.13148301724E+02  0.20132870383E+02  0.24060159416E+02  0.51100000000E-03 0. -1.
        -11    1    4    4    0    0  0.90095691235E+01 -0.90302514993E+01  0.78639585601E+01  0.14985313558E+02  0.51100000000E-03 0.  1.
        -12    1    4    4    0    0 -0.81068674139E+01 -0.80834200263E+01 -0.89711828717E+00  0.11483370577E+02  0.00000000000E+00 0.  1.
</event>
<event>
 8    1  0.1338956E-013  0.9118800E+02  0.7816164E-02  0.1184000E+00
        -11   -1    0    0    0    0  0.00000000000E+00  0.00000000000E+00  0.45593999997E+02  0.45594000000E+02  0.51100000000E-03 0. -1.
         11   -1    0    0    0    0 -0.00000000000E+00 -0.00000000000E+00 -0.45593999997E+02  0.45594000000E+02  0.51100000000E-03 0.  1.
         23    2    1    2    0    0  0.17763568394E-14  0.71054273576E-14  0.00000000000E+00  0.91188000000E+02  0.91188000000E+02 0.  0.
    9900012    2    3    3    0    0 -0.10538377263E+02  0.32654031384E+02  0.21813354028E+02  0.50528861114E+02  0.30000003844E+02 0.  0.
        -12    1    3    3    0    0  0.10538377263E+02 -0.32654031384E+02 -0.21813354028E+02  0.40659138886E+02  0.00000000000E+00 0.  1.
         11    1    4    4    0    0  0.61240373078E+01  0.93748588769E+01  0.22832419183E+01  0.11428254715E+02  0.51100000000E-03 0. -1.
        -11    1    4    4    0    0 -0.41892740937E+01 -0.18452269094E+01  0.70350456301E+01  0.83932560463E+01  0.51100000000E-03 0.  1.
         12    1    4    4    0    0 -0.12473140477E+02  0.25124399417E+02  0.12495066479E+02  0.30707350353E+02  0.00000000000E+00 0. -1.
</event>
<event>
 8    1  0.1338956E-013  0.9118800E+02  0.7816164E-02  0.1184000E+00
        -11   -1    0    0    0    0  0.00000000000E+00  0.00000000000E+00  0.45593999997E+02  0.45594000000E+02  0.51100000000E-03 0. -1.
         11   -1    0    0    0    0 -0.00000000000E+00 -0.00000000000E+00 -0.45593999997E+02  0.45594000000E+02  0.51100000000E-03 0.  1.
         23    2    1    2    0    0  0.13322676296E-14  0.00000000000E+00 -0.71054273576E-14  0.91188000000E+02  0.91188000000E+02 0.  0.
    9900012    2    3    3    0    0 -0.18925901186E+00 -0.57909806897E+01 -0.40244180566E+02  0.50528863933E+02  0.30000012411E+02 0.  0.
         12    1    3    3    0    0  0.18925901186E+00  0.57909806897E+01  0.40244180566E+02  0.40659136067E+02  0.00000000000E+00 0. -1.
         11    1    4    4    0    0  0.78876212825E+01 -0.31769686728E+01 -0.12328611323E+01  0.85923015704E+01  0.51100000000E-03 0. -1.
        -11    1    4    4    0    0  0.19641519685E+01  0.30235752728E+01 -0.63166427777E+01  0.72732301372E+01  0.51100000000E-03 0.  1.
        -12    1    4    4    0    0 -0.10041032263E+02 -0.56375872897E+01 -0.32694676656E+02  0.34663332225E+02  0.00000000000E+00 0.  1.
</event>
<event>
 8    1  0.1338956E-013  0.9118800E+02  0.7816164E-02  0.1184000E+00
        -11   -1    0    0    0    0  0.00000000000E+00  0.00000000000E+00  0.45593999997E+02  0.45594000000E+02  0.51100000000E-03 0. -1.
         11   -1    0    0    0    0 -0.00000000000E+00 -0.00000000000E+00 -0.45593999997E+02  0.45594000000E+02  0.51100000000E-03 0.  1.
         23    2    1    2    0    0  0.17763568394E-14  0.17763568394E-14 -0.71054273576E-14  0.91188000000E+02  0.91188000000E+02 0.  0.
    9900012    2    3    3    0    0 -0.14901761487E+02  0.88618458647E+01  0.36777308784E+02  0.50528865123E+02  0.30000016029E+02 0.  0.
        -12    1    3    3    0    0  0.14901761487E+02 -0.88618458647E+01 -0.36777308784E+02  0.40659134877E+02  0.00000000000E+00 0.  1.
         11    1    4    4    0    0  0.22135764605E+01  0.94015819995E+01  0.19390825753E+02  0.21663189712E+02  0.51100000000E-03 0. -1.
        -11    1    4    4    0    0  0.21080423889E+01  0.10129969693E+01 -0.68390589822E+00  0.24367464193E+01  0.51100000000E-03 0.  1.
        -12    1    4    4    0    0 -0.19223380336E+02 -0.15527331041E+01  0.18070388929E+02  0.26428928993E+02  0.00000000000E+00 0.  1.
</event>
<event>
 8    1  0.1338956E-013  0.9118800E+02  0.7816164E-02  0.1184000E+00
        -11   -1    0    0    0    0  0.00000000000E+00  0.00000000000E+00  0.45593999997E+02  0.45594000000E+02  0.51100000000E-03 0. -1.
         11   -1    0    0    0    0 -0.00000000000E+00 -0.00000000000E+00 -0.45593999997E+02  0.45594000000E+02  0.51100000000E-03 0.  1.
         23    2    1    2    0    0  0.00000000000E+00  0.17763568394E-14  0.00000000000E+00  0.91188000000E+02  0.91188000000E+02 0.  0.
    9900012    2    3    3    0    0  0.98823697626E+01 -0.10549992873E+02  0.38002650512E+02  0.50528867844E+02  0.30000024299E+02 0.  0.
        -12    1    3    3    0    0 -0.98823697626E+01  0.10549992873E+02 -0.38002650512E+02  0.40659132156E+02  0.00000000000E+00 0.  1.
         11    1    4    4    0    0  0.95757447628E+01 -0.15833526437E+02  0.18070860233E+02  0.25864095519E+02  0.51100000000E-03 0. -1.
        -11    1    4    4    0    0  0.64750568344E+00  0.36423472726E+01 -0.86606635431E+00  0.37994773924E+01  0.51100000000E-03 0.  1.
        -12    1    4    4    0    0 -0.34088068358E+00  0.16411862916E+01  0.20797856633E+02  0.20865294933E+02  0.00000000000E+00 0.  1.
</event>
<event>
 8    1  0.1338956E-013  0.9118800E+02  0.7816164E-02  0.1184000E+00
        -11   -1    0    0    0    0  0.00000000000E+00  0.00000000000E+00  0.45593999997E+02  0.45594000000E+02  0.51100000000E-03 0. -1.
         11   -1    0    0    0    0 -0.00000000000E+00 -0.00000000000E+00 -0.45593999997E+02  0.45594000000E+02  0.51100000000E-03 0.  1.
         23    2    1    2    0    0  0.35527136788E-14 -0.33306690739E-15  0.35527136788E-14  0.91188000000E+02  0.91188000000E+02 0.  0.
    9900012    2    3    3    0    0 -0.30298461975E+02 -0.37457097336E+00 -0.27111413284E+02  0.50528857956E+02  0.29999994244E+02 0.  0.
         12    1    3    3    0    0  0.30298461975E+02  0.37457097336E+00  0.27111413284E+02  0.40659142044E+02  0.00000000000E+00 0. -1.
         11    1    4    4    0    0 -0.93356909918E+01 -0.10781858418E+02 -0.84189610917E+01  0.16561476485E+02  0.51100000000E-03 0. -1.
        -11    1    4    4    0    0 -0.10032631082E+02  0.53723255127E+01  0.41280352919E+00  0.11387975011E+02  0.51100000000E-03 0.  1.
        -12    1    4    4    0    0 -0.10930139901E+02  0.50349619319E+01 -0.19105255722E+02  0.22579406461E+02  0.00000000000E+00 0.  1.
</event>
<event>
 8    1  0.1338956E-013  0.9118800E+02  0.7816164E-02  0.1184000E+00
        -11   -1    0    0    0    0  0.00000000000E+00  0.00000000000E+00  0.45593999997E+02  0.45594000000E+02  0.51100000000E-03 0. -1.
         11   -1    0    0    0    0 -0.00000000000E+00 -0.00000000000E+00 -0.45593999997E+02  0.45594000000E+02  0.51100000000E-03 0.  1.
         23    2    1    2    0    0  0.00000000000E+00 -0.44408920985E-15  0.00000000000E+00  0.91188000000E+02  0.91188000000E+02 0.  0.
    9900012    2    3    3    0    0 -0.17519767641E+02  0.39047325903E+01 -0.36482537435E+02  0.50528871474E+02  0.30000035331E+02 0.  0.
         12    1    3    3    0    0  0.17519767641E+02 -0.39047325903E+01  0.36482537435E+02  0.40659128526E+02  0.00000000000E+00 0. -1.
         11    1    4    4    0    0  0.82264618068E+00 -0.40530896028E+01 -0.21923526499E+01  0.46808858638E+01  0.51100000000E-03 0. -1.
        -11    1    4    4    0    0 -0.11191092562E+02 -0.36371476508E+01 -0.36573851225E+01  0.12322575297E+02  0.51100000000E-03 0.  1.
        -12    1    4    4    0    0 -0.71513212601E+01  0.11594969844E+02 -0.30632799663E+02  0.33525410313E+02  0.00000000000E+00 0.  1.
</event>
<event>
 8    1  0.1338956E-013  0.9118800E+02  0.7816164E-02  0.1184000E+00
        -11   -1    0    0    0    0  0.00000000000E+00  0.00000000000E+00  0.45593999997E+02  0.45594000000E+02  0.51100000000E-03 0.  1.
         11   -1    0    0    0    0 -0.00000000000E+00 -0.00000000000E+00 -0.45593999997E+02  0.45594000000E+02  0.51100000000E-03 0. -1.
         23    2    1    2    0    0  0.17763568394E-14  0.71054273576E-14  0.00000000000E+00  0.91188000000E+02  0.91188000000E+02 0.  0.
    9900012    2    3    3    0    0 -0.83509565495E+01 -0.38981747526E+02 -0.79906440378E+01  0.50528861943E+02  0.30000006361E+02 0.  0.
         12    1    3    3    0    0  0.83509565495E+01  0.38981747526E+02  0.79906440378E+01  0.40659138057E+02  0.00000000000E+00 0. -1.
         11    1    4    4    0    0  0.62523982376E+00 -0.40702396142E+01  0.25835643769E+01  0.48613352595E+01  0.51100000000E-03 0. -1.
        -11    1    4    4    0    0 -0.38246616666E+01  0.20377017459E+01  0.37248998196E+01  0.57144679714E+01  0.51100000000E-03 0.  1.
         12    1    4    4    0    0 -0.51515347067E+01 -0.36949209657E+02 -0.14299108234E+02  0.39953058712E+02  0.00000000000E+00 0. -1.
</event>
<event>
 8    1  0.1338956E-013  0.9118800E+02  0.7816164E-02  0.1184000E+00
        -11   -1    0    0    0    0  0.00000000000E+00  0.00000000000E+00  0.45593999997E+02  0.45594000000E+02  0.51100000000E-03 0. -1.
         11   -1    0    0    0    0 -0.00000000000E+00 -0.00000000000E+00 -0.45593999997E+02  0.45594000000E+02  0.51100000000E-03 0.  1.
         23    2    1    2    0    0  0.00000000000E+00  0.00000000000E+00  0.35527136788E-14  0.91188000000E+02  0.91188000000E+02 0.  0.
    9900012    2    3    3    0    0 -0.29087646127E+02  0.18111464995E+02  0.21887191053E+02  0.50528862606E+02  0.30000008376E+02 0.  0.
        -12    1    3    3    0    0  0.29087646127E+02 -0.18111464995E+02 -0.21887191053E+02  0.40659137394E+02  0.00000000000E+00 0.  1.
         11    1    4    4    0    0  0.98097778346E+00  0.35771435653E+01 -0.10731259232E+01  0.38613304710E+01  0.51100000000E-03 0. -1.
        -11    1    4    4    0    0 -0.10678923011E+02  0.14724546255E+02  0.23019227884E+01  0.18334407760E+02  0.51100000000E-03 0.  1.
         12    1    4    4    0    0 -0.19389700899E+02 -0.19022482532E+00  0.20658394187E+02  0.28333124375E+02  0.00000000000E+00 0. -1.
</event>
<event>
 8    1  0.1338956E-013  0.9118800E+02  0.7816164E-02  0.1184000E+00
        -11   -1    0    0    0    0  0.00000000000E+00  0.00000000000E+00  0.45593999997E+02  0.45594000000E+02  0.51100000000E-03 0.  1.
         11   -1    0    0    0    0 -0.00000000000E+00 -0.00000000000E+00 -0.45593999997E+02  0.45594000000E+02  0.51100000000E-03 0. -1.
         23    2    1    2    0    0 -0.35527136788E-14  0.71054273576E-14  0.99920072216E-15  0.91188000000E+02  0.91188000000E+02 0.  0.
    9900012    2    3    3    0    0 -0.17756094031E+02  0.36569833537E+02  0.73051945495E+00  0.50528865001E+02  0.30000015658E+02 0.  0.
        -12    1    3    3    0    0  0.17756094031E+02 -0.36569833537E+02 -0.73051945495E+00  0.40659134999E+02  0.00000000000E+00 0.  1.
         11    1    4    4    0    0  0.17042076499E+01  0.20902043186E+01  0.45355973987E+01  0.52768287666E+01  0.51100000000E-03 0. -1.
        -11    1    4    4    0    0  0.45915338238E+00  0.84734808732E+01  0.67415463030E+01  0.10837857111E+02  0.51100000000E-03 0.  1.
         12    1    4    4    0    0 -0.19919455064E+02  0.26006148345E+02 -0.10546624247E+02  0.34414179124E+02  0.00000000000E+00 0. -1.
</event>
<event>
 8    1  0.1338956E-013  0.9118800E+02  0.7816164E-02  0.1184000E+00
        -11   -1    0    0    0    0  0.00000000000E+00  0.00000000000E+00  0.45593999997E+02  0.45594000000E+02  0.51100000000E-03 0. -1.
         11   -1    0    0    0    0 -0.00000000000E+00 -0.00000000000E+00 -0.45593999997E+02  0.45594000000E+02  0.51100000000E-03 0.  1.
         23    2    1    2    0    0  0.17763568394E-14  0.00000000000E+00 -0.71054273576E-14  0.91188000000E+02  0.91188000000E+02 0.  0.
    9900012    2    3    3    0    0 -0.11933061983E+02 -0.55717346697E+01  0.38467172828E+02  0.50528861041E+02  0.30000003620E+02 0.  0.
        -12    1    3    3    0    0  0.11933061983E+02  0.55717346697E+01 -0.38467172828E+02  0.40659138959E+02  0.00000000000E+00 0.  1.
         11    1    4    4    0    0  0.47742776100E+01 -0.28195068870E+01  0.29274531140E+02  0.29794991518E+02  0.51100000000E-03 0. -1.
        -11    1    4    4    0    0  0.79755732881E+00  0.21828711869E+00  0.48172827526E+00  0.95697928464E+00  0.51100000000E-03 0.  1.
        -12    1    4    4    0    0 -0.17504896922E+02 -0.29705149014E+01  0.87109134123E+01  0.19776890239E+02  0.00000000000E+00 0.  1.
</event>
<event>
 8    1  0.1338956E-013  0.9118800E+02  0.7816164E-02  0.1184000E+00
        -11   -1    0    0    0    0  0.00000000000E+00  0.00000000000E+00  0.45593999997E+02  0.45594000000E+02  0.51100000000E-03 0. -1.
         11   -1    0    0    0    0 -0.00000000000E+00 -0.00000000000E+00 -0.45593999997E+02  0.45594000000E+02  0.51100000000E-03 0.  1.
         23    2    1    2    0    0  0.00000000000E+00  0.83266726847E-16  0.00000000000E+00  0.91188000000E+02  0.91188000000E+02 0.  0.
    9900012    2    3    3    0    0  0.20133043111E+02  0.12661749559E+00  0.35324366850E+02  0.50528851580E+02  0.29999974863E+02 0.  0.
        -12    1    3    3    0    0 -0.20133043111E+02 -0.12661749559E+00 -0.35324366850E+02  0.40659148420E+02  0.00000000000E+00 0.  1.
         11    1    4    4    0    0  0.11918868176E+02  0.83295064425E+01  0.13476719918E+02  0.19825793205E+02  0.51100000000E-03 0. -1.
        -11    1    4    4    0    0 -0.12218732091E+01 -0.28061971223E+01  0.19296091278E+02  0.19537319552E+02  0.51100000000E-03 0.  1.
         12    1    4    4    0    0  0.94360481433E+01 -0.53966918246E+01  0.25515556542E+01  0.11165738823E+02  0.00000000000E+00 0. -1.
</event>
<event>
 8    1  0.1338956E-013  0.9118800E+02  0.7816164E-02  0.1184000E+00
        -11   -1    0    0    0    0  0.00000000000E+00  0.00000000000E+00  0.45593999997E+02  0.45594000000E+02  0.51100000000E-03 0. -1.
         11   -1    0    0    0    0 -0.00000000000E+00 -0.00000000000E+00 -0.45593999997E+02  0.45594000000E+02  0.51100000000E-03 0.  1.
         23    2    1    2    0    0  0.00000000000E+00 -0.35527136788E-14  0.00000000000E+00  0.91188000000E+02  0.91188000000E+02 0.  0.
    9900012    2    3    3    0    0 -0.19748713102E+02 -0.22177505885E+02  0.27772501392E+02  0.50528864864E+02  0.30000015241E+02 0.  0.
        -12    1    3    3    0    0  0.19748713102E+02  0.22177505885E+02 -0.27772501392E+02  0.40659135136E+02  0.00000000000E+00 0.  1.
         11    1    4    4    0    0  0.23295358407E+01 -0.85231734183E+01  0.14967013684E+01  0.89616593106E+01  0.51100000000E-03 0. -1.
        -11    1    4    4    0    0 -0.12273891209E+02 -0.61078616340E+01  0.13955500511E+01  0.13780491260E+02  0.51100000000E-03 0.  1.
         12    1    4    4    0    0 -0.98043577336E+01 -0.75464708324E+01  0.24880249972E+02  0.27786714294E+02  0.00000000000E+00 0. -1.
</event>
<event>
 8    1  0.1338956E-013  0.9118800E+02  0.7816164E-02  0.1184000E+00
        -11   -1    0    0    0    0  0.00000000000E+00  0.00000000000E+00  0.45593999997E+02  0.45594000000E+02  0.51100000000E-03 0. -1.
         11   -1    0    0    0    0 -0.00000000000E+00 -0.00000000000E+00 -0.45593999997E+02  0.45594000000E+02  0.51100000000E-03 0.  1.
         23    2    1    2    0    0  0.17763568394E-14  0.00000000000E+00  0.00000000000E+00  0.91188000000E+02  0.91188000000E+02 0.  0.
    9900012    2    3    3    0    0 -0.15806368864E+02  0.11646463523E+02  0.35604569821E+02  0.50528846032E+02  0.29999958000E+02 0.  0.
        -12    1    3    3    0    0  0.15806368864E+02 -0.11646463523E+02 -0.35604569821E+02  0.40659153968E+02  0.00000000000E+00 0.  1.
         11    1    4    4    0    0 -0.48238472618E+01  0.72192416677E+00  0.25719348331E+02  0.26177768349E+02  0.51100000000E-03 0. -1.
        -11    1    4    4    0    0 -0.16134200392E+01  0.57086759892E+01  0.12032198025E+02  0.13415136800E+02  0.51100000000E-03 0.  1.
        -12    1    4    4    0    0 -0.93691015628E+01  0.52158633669E+01 -0.21469765358E+01  0.10935940883E+02  0.00000000000E+00 0.  1.
</event>
<event>
 8    1  0.1338956E-013  0.9118800E+02  0.7816164E-02  0.1184000E+00
        -11   -1    0    0    0    0  0.00000000000E+00  0.00000000000E+00  0.45593999997E+02  0.45594000000E+02  0.51100000000E-03 0. -1.
         11   -1    0    0    0    0 -0.00000000000E+00 -0.00000000000E+00 -0.45593999997E+02  0.45594000000E+02  0.51100000000E-03 0.  1.
         23    2    1    2    0    0 -0.88817841970E-15  0.00000000000E+00  0.00000000000E+00  0.91188000000E+02  0.91188000000E+02 0.  0.
    9900012    2    3    3    0    0 -0.74116540341E+01 -0.14238230378E+02  0.37356471979E+02  0.50528858119E+02  0.29999994738E+02 0.  0.
        -12    1    3    3    0    0  0.74116540341E+01  0.14238230378E+02 -0.37356471979E+02  0.40659141881E+02  0.00000000000E+00 0.  1.
         11    1    4    4    0    0  0.11930509976E+01 -0.98374460332E+01  0.19806586019E+02  0.22147224773E+02  0.51100000000E-03 0. -1.
        -11    1    4    4    0    0  0.48934814334E+01 -0.28486148032E+01 -0.61709056063E+00  0.56957499819E+01  0.51100000000E-03 0.  1.
         12    1    4    4    0    0 -0.13498186465E+02 -0.15521695416E+01  0.18166976520E+02  0.22685883364E+02  0.00000000000E+00 0. -1.
</event>
<event>
 8    1  0.1338956E-013  0.9118800E+02  0.7816164E-02  0.1184000E+00
        -11   -1    0    0    0    0  0.00000000000E+00  0.00000000000E+00  0.45593999997E+02  0.45594000000E+02  0.51100000000E-03 0. -1.
         11   -1    0    0    0    0 -0.00000000000E+00 -0.00000000000E+00 -0.45593999997E+02  0.45594000000E+02  0.51100000000E-03 0.  1.
         23    2    1    2    0    0  0.00000000000E+00  0.00000000000E+00  0.00000000000E+00  0.91188000000E+02  0.91188000000E+02 0.  0.
    9900012    2    3    3    0    0 -0.38026556197E+02  0.54284274968E+01  0.13329604607E+02  0.50528866213E+02  0.30000019341E+02 0.  0.
        -12    1    3    3    0    0  0.38026556197E+02 -0.54284274968E+01 -0.13329604607E+02  0.40659133787E+02  0.00000000000E+00 0.  1.
         11    1    4    4    0    0 -0.14829285303E+02  0.64837642267E+01  0.60081102501E+01  0.17263959285E+02  0.51100000000E-03 0. -1.
        -11    1    4    4    0    0 -0.19696816653E+02 -0.69227093358E+01  0.12815737675E+02  0.24497584029E+02  0.51100000000E-03 0.  1.
        -12    1    4    4    0    0 -0.35004542408E+01  0.58673726059E+01 -0.54942433177E+01  0.87673228995E+01  0.00000000000E+00 0.  1.
</event>
<event>
 8    1  0.1338956E-013  0.9118800E+02  0.7816164E-02  0.1184000E+00
        -11   -1    0    0    0    0  0.00000000000E+00  0.00000000000E+00  0.45593999997E+02  0.45594000000E+02  0.51100000000E-03 0. -1.
         11   -1    0    0    0    0 -0.00000000000E+00 -0.00000000000E+00 -0.45593999997E+02  0.45594000000E+02  0.51100000000E-03 0.  1.
         23    2    1    2    0    0 -0.17763568394E-14  0.00000000000E+00  0.71054273576E-14  0.91188000000E+02  0.91188000000E+02 0.  0.
    9900012    2    3    3    0    0  0.10770971673E+02  0.28317245597E+01 -0.39104034620E+02  0.50528954041E+02  0.30000286302E+02 0.  0.
         12    1    3    3    0    0 -0.10770971673E+02 -0.28317245597E+01  0.39104034620E+02  0.40659045959E+02  0.00000000000E+00 0. -1.
         11    1    4    4    0    0  0.71487033082E+01  0.12960330783E+02 -0.28617013864E+02  0.32218125578E+02  0.51100000000E-03 0. -1.
        -11    1    4    4    0    0  0.29505664719E+01 -0.12862086387E+01 -0.86842661791E+01  0.92615686846E+01  0.51100000000E-03 0.  1.
         12    1    4    4    0    0  0.67170189253E+00 -0.88423975849E+01 -0.18027545767E+01  0.90492597788E+01  0.00000000000E+00 0. -1.
</event>
<event>
 8    1  0.1338956E-013  0.9118800E+02  0.7816164E-02  0.1184000E+00
        -11   -1    0    0    0    0  0.00000000000E+00  0.00000000000E+00  0.45593999997E+02  0.45594000000E+02  0.51100000000E-03 0. -1.
         11   -1    0    0    0    0 -0.00000000000E+00 -0.00000000000E+00 -0.45593999997E+02  0.45594000000E+02  0.51100000000E-03 0.  1.
         23    2    1    2    0    0  0.00000000000E+00  0.00000000000E+00  0.00000000000E+00  0.91188000000E+02  0.91188000000E+02 0.  0.
    9900012    2    3    3    0    0 -0.46228055469E+01  0.32173267635E+02  0.24426960766E+02  0.50528857194E+02  0.29999991927E+02 0.  0.
        -12    1    3    3    0    0  0.46228055469E+01 -0.32173267635E+02 -0.24426960766E+02  0.40659142806E+02  0.00000000000E+00 0.  1.
         11    1    4    4    0    0  0.10137019945E+02  0.15963870871E+02  0.38487851132E+01  0.19298121506E+02  0.51100000000E-03 0. -1.
        -11    1    4    4    0    0 -0.50891825726E+01  0.48932513013E+01  0.12342123255E+02  0.14218709304E+02  0.51100000000E-03 0.  1.
        -12    1    4    4    0    0 -0.96706429190E+01  0.11316145463E+02  0.82360523973E+01  0.17012026384E+02  0.00000000000E+00 0.  1.
</event>
<event>
 8    1  0.1338956E-013  0.9118800E+02  0.7816164E-02  0.1184000E+00
        -11   -1    0    0    0    0  0.00000000000E+00  0.00000000000E+00  0.45593999997E+02  0.45594000000E+02  0.51100000000E-03 0. -1.
         11   -1    0    0    0    0 -0.00000000000E+00 -0.00000000000E+00 -0.45593999997E+02  0.45594000000E+02  0.51100000000E-03 0.  1.
         23    2    1    2    0    0 -0.35527136788E-14 -0.44408920985E-15  0.71054273576E-14  0.91188000000E+02  0.91188000000E+02 0.  0.
    9900012    2    3    3    0    0 -0.22652674009E+02 -0.24613828572E+01  0.33674377408E+02  0.50528859094E+02  0.29999997703E+02 0.  0.
        -12    1    3    3    0    0  0.22652674009E+02  0.24613828572E+01 -0.33674377408E+02  0.40659140906E+02  0.00000000000E+00 0.  1.
         11    1    4    4    0    0 -0.11722875523E+02 -0.46649319784E+00  0.20177645232E+02  0.23340539706E+02  0.51100000000E-03 0. -1.
        -11    1    4    4    0    0 -0.82648703561E+01 -0.11202899889E+02  0.67904879097E+01  0.15489473014E+02  0.51100000000E-03 0.  1.
        -12    1    4    4    0    0 -0.26649281303E+01  0.92080102295E+01  0.67062442670E+01  0.11698846375E+02  0.00000000000E+00 0.  1.
</event>
<event>
 8    1  0.1338956E-013  0.9118800E+02  0.7816164E-02  0.1184000E+00
        -11   -1    0    0    0    0  0.00000000000E+00  0.00000000000E+00  0.45593999997E+02  0.45594000000E+02  0.51100000000E-03 0. -1.
         11   -1    0    0    0    0 -0.00000000000E+00 -0.00000000000E+00 -0.45593999997E+02  0.45594000000E+02  0.51100000000E-03 0.  1.
         23    2    1    2    0    0  0.00000000000E+00  0.35527136788E-14  0.00000000000E+00  0.91188000000E+02  0.91188000000E+02 0.  0.
    9900012    2    3    3    0    0 -0.76555281461E+01 -0.24235251121E+02 -0.31736549302E+02  0.50528891922E+02  0.30000097485E+02 0.  0.
         12    1    3    3    0    0  0.76555281461E+01  0.24235251121E+02  0.31736549302E+02  0.40659108078E+02  0.00000000000E+00 0. -1.
         11    1    4    4    0    0  0.50738408525E+01 -0.15227773573E+02 -0.99277346114E+01  0.18872966480E+02  0.51100000000E-03 0. -1.
        -11    1    4    4    0    0 -0.93731421737E+01 -0.14039471469E+02 -0.15534434670E+02  0.22940819822E+02  0.51100000000E-03 0.  1.
         12    1    4    4    0    0 -0.33562268249E+01  0.50319939205E+01 -0.62743800210E+01  0.87151056198E+01  0.00000000000E+00 0. -1.
</event>
<event>
 8    1  0.1338956E-013  0.9118800E+02  0.7816164E-02  0.1184000E+00
        -11   -1    0    0    0    0  0.00000000000E+00  0.00000000000E+00  0.45593999997E+02  0.45594000000E+02  0.51100000000E-03 0. -1.
         11   -1    0    0    0    0 -0.00000000000E+00 -0.00000000000E+00 -0.45593999997E+02  0.45594000000E+02  0.51100000000E-03 0.  1.
         23    2    1    2    0    0  0.35527136788E-14  0.00000000000E+00  0.35527136788E-14  0.91188000000E+02  0.91188000000E+02 0.  0.
    9900012    2    3    3    0    0  0.30689503630E+02 -0.40769035835E+01 -0.26357144352E+02  0.50528857925E+02  0.29999994148E+02 0.  0.
         12    1    3    3    0    0 -0.30689503630E+02  0.40769035835E+01  0.26357144352E+02  0.40659142075E+02  0.00000000000E+00 0. -1.
         11    1    4    4    0    0  0.61214016720E+01  0.28690631179E+00  0.48372736401E+01  0.78072460056E+01  0.51100000000E-03 0. -1.
        -11    1    4    4    0    0  0.18829179874E+02 -0.46446150091E+01 -0.12281822574E+02  0.22955470575E+02  0.51100000000E-03 0.  1.
        -12    1    4    4    0    0  0.57389220844E+01  0.28080511382E+00 -0.18912595418E+02  0.19766141345E+02  0.00000000000E+00 0.  1.
</event>
<event>
 8    1  0.1338956E-013  0.9118800E+02  0.7816164E-02  0.1184000E+00
        -11   -1    0    0    0    0  0.00000000000E+00  0.00000000000E+00  0.45593999997E+02  0.45594000000E+02  0.51100000000E-03 0. -1.
         11   -1    0    0    0    0 -0.00000000000E+00 -0.00000000000E+00 -0.45593999997E+02  0.45594000000E+02  0.51100000000E-03 0.  1.
         23    2    1    2    0    0  0.00000000000E+00  0.00000000000E+00  0.00000000000E+00  0.91188000000E+02  0.91188000000E+02 0.  0.
    9900012    2    3    3    0    0 -0.17562776559E+02  0.46237491146E+01 -0.36377674288E+02  0.50528863721E+02  0.30000011767E+02 0.  0.
         12    1    3    3    0    0  0.17562776559E+02 -0.46237491146E+01  0.36377674288E+02  0.40659136279E+02  0.00000000000E+00 0. -1.
         11    1    4    4    0    0 -0.31255280931E+00 -0.10069230729E+01 -0.72174479635E+01  0.72940481696E+01  0.51100000000E-03 0. -1.
        -11    1    4    4    0    0 -0.10983592736E+02  0.75354155870E+00  0.19030015467E+01  0.11172669753E+02  0.51100000000E-03 0.  1.
        -12    1    4    4    0    0 -0.62666310145E+01  0.48771306288E+01 -0.31063227871E+02  0.32062145799E+02  0.00000000000E+00 0.  1.
</event>
<event>
 8    1  0.1338956E-013  0.9118800E+02  0.7816164E-02  0.1184000E+00
        -11   -1    0    0    0    0  0.00000000000E+00  0.00000000000E+00  0.45593999997E+02  0.45594000000E+02  0.51100000000E-03 0. -1.
         11   -1    0    0    0    0 -0.00000000000E+00 -0.00000000000E+00 -0.45593999997E+02  0.45594000000E+02  0.51100000000E-03 0.  1.
         23    2    1    2    0    0  0.00000000000E+00 -0.17763568394E-14  0.71054273576E-14  0.91188000000E+02  0.91188000000E+02 0.  0.
    9900012    2    3    3    0    0  0.30888857681E+01  0.11757754926E+02 -0.38799211664E+02  0.50528870128E+02  0.30000031242E+02 0.  0.
         12    1    3    3    0    0 -0.30888857681E+01 -0.11757754926E+02  0.38799211664E+02  0.40659129872E+02  0.00000000000E+00 0. -1.
         11    1    4    4    0    0  0.10607839894E+02 -0.32832056398E+01 -0.19836243816E+02  0.22732845741E+02  0.51100000000E-03 0. -1.
        -11    1    4    4    0    0 -0.85556695951E+00  0.18990851403E+01 -0.10703646110E+02  0.10904428436E+02  0.51100000000E-03 0.  1.
         12    1    4    4    0    0 -0.66633871664E+01  0.13141875426E+02 -0.82593217375E+01  0.16891595952E+02  0.00000000000E+00 0. -1.
</event>
<event>
 8    1  0.1338956E-013  0.9118800E+02  0.7816164E-02  0.1184000E+00
        -11   -1    0    0    0    0  0.00000000000E+00  0.00000000000E+00  0.45593999997E+02  0.45594000000E+02  0.51100000000E-03 0. -1.
         11   -1    0    0    0    0 -0.00000000000E+00 -0.00000000000E+00 -0.45593999997E+02  0.45594000000E+02  0.51100000000E-03 0.  1.
         23    2    1    2    0    0 -0.44408920985E-15  0.17763568394E-14  0.00000000000E+00  0.91188000000E+02  0.91188000000E+02 0.  0.
    9900012    2    3    3    0    0  0.26469144413E+01 -0.13234265560E+02 -0.38353796085E+02  0.50528860620E+02  0.30000002341E+02 0.  0.
         12    1    3    3    0    0 -0.26469144413E+01  0.13234265560E+02  0.38353796085E+02  0.40659139380E+02  0.00000000000E+00 0. -1.
         11    1    4    4    0    0 -0.39327703229E+01 -0.42380263188E+01 -0.15008792876E+02  0.16083886761E+02  0.51100000000E-03 0. -1.
        -11    1    4    4    0    0 -0.75615754569E+01 -0.44948867391E+01 -0.15080287546E+02  0.17458422120E+02  0.51100000000E-03 0.  1.
         12    1    4    4    0    0  0.14141260221E+02 -0.45013525022E+01 -0.82647156633E+01  0.16986551739E+02  0.00000000000E+00 0. -1.
</event>
<event>
 8    1  0.1338956E-013  0.9118800E+02  0.7816164E-02  0.1184000E+00
        -11   -1    0    0    0    0  0.00000000000E+00  0.00000000000E+00  0.45593999997E+02  0.45594000000E+02  0.51100000000E-03 0. -1.
         11   -1    0    0    0    0 -0.00000000000E+00 -0.00000000000E+00 -0.45593999997E+02  0.45594000000E+02  0.51100000000E-03 0.  1.
         23    2    1    2    0    0  0.17763568394E-14  0.35527136788E-14 -0.35527136788E-14  0.91188000000E+02  0.91188000000E+02 0.  0.
    9900012    2    3    3    0    0 -0.15074637325E+02 -0.21233955419E+02  0.31225626281E+02  0.50528864620E+02  0.30000014498E+02 0.  0.
        -12    1    3    3    0    0  0.15074637325E+02  0.21233955419E+02 -0.31225626281E+02  0.40659135380E+02  0.00000000000E+00 0.  1.
         11    1    4    4    0    0 -0.12114167648E+02 -0.19826604184E+02  0.10740529212E+02  0.25596997075E+02  0.51100000000E-03 0. -1.
        -11    1    4    4    0    0 -0.39558599155E+01 -0.72198564300E+01  0.10600823960E+02  0.13422094599E+02  0.51100000000E-03 0.  1.
        -12    1    4    4    0    0  0.99539023801E+00  0.58125051943E+01  0.98842731086E+01  0.11509772945E+02  0.00000000000E+00 0.  1.
</event>
<event>
 8    1  0.1338956E-013  0.9118800E+02  0.7816164E-02  0.1184000E+00
        -11   -1    0    0    0    0  0.00000000000E+00  0.00000000000E+00  0.45593999997E+02  0.45594000000E+02  0.51100000000E-03 0. -1.
         11   -1    0    0    0    0 -0.00000000000E+00 -0.00000000000E+00 -0.45593999997E+02  0.45594000000E+02  0.51100000000E-03 0.  1.
         23    2    1    2    0    0  0.00000000000E+00  0.00000000000E+00  0.00000000000E+00  0.91188000000E+02  0.91188000000E+02 0.  0.
    9900012    2    3    3    0    0 -0.17654245835E+02  0.17404191313E+02  0.32227111520E+02  0.50528868330E+02  0.30000025774E+02 0.  0.
        -12    1    3    3    0    0  0.17654245835E+02 -0.17404191313E+02 -0.32227111520E+02  0.40659131670E+02  0.00000000000E+00 0.  1.
         11    1    4    4    0    0 -0.38028626060E+01  0.10642351464E+02  0.23234761876E+02  0.25837483785E+02  0.51100000000E-03 0. -1.
        -11    1    4    4    0    0 -0.96483168317E+01  0.46042296108E+01  0.14125530601E+02  0.17714953091E+02  0.51100000000E-03 0.  1.
        -12    1    4    4    0    0 -0.42030663973E+01  0.21576102382E+01 -0.51331809568E+01  0.69764314528E+01  0.00000000000E+00 0.  1.
</event>
<event>
 8    1  0.1338956E-013  0.9118800E+02  0.7816164E-02  0.1184000E+00
        -11   -1    0    0    0    0  0.00000000000E+00  0.00000000000E+00  0.45593999997E+02  0.45594000000E+02  0.51100000000E-03 0. -1.
         11   -1    0    0    0    0 -0.00000000000E+00 -0.00000000000E+00 -0.45593999997E+02  0.45594000000E+02  0.51100000000E-03 0.  1.
         23    2    1    2    0    0 -0.88817841970E-15  0.00000000000E+00  0.35527136788E-14  0.91188000000E+02  0.91188000000E+02 0.  0.
    9900012    2    3    3    0    0  0.64878750612E+01  0.34242481138E+02  0.20941012080E+02  0.50528855589E+02  0.29999987049E+02 0.  0.
        -12    1    3    3    0    0 -0.64878750612E+01 -0.34242481138E+02 -0.20941012080E+02  0.40659144411E+02  0.00000000000E+00 0.  1.
         11    1    4    4    0    0 -0.21508303834E+00  0.10904914472E+01 -0.58246128516E+00  0.12548680089E+01  0.51100000000E-03 0. -1.
        -11    1    4    4    0    0 -0.78953429028E+01  0.27261669289E+02  0.11571931175E+02  0.30650361227E+02  0.51100000000E-03 0.  1.
        -12    1    4    4    0    0  0.14598301002E+02  0.58903204018E+01  0.99515421909E+01  0.18623626354E+02  0.00000000000E+00 0.  1.
</event>
<event>
 8    1  0.1338956E-013  0.9118800E+02  0.7816164E-02  0.1184000E+00
        -11   -1    0    0    0    0  0.00000000000E+00  0.00000000000E+00  0.45593999997E+02  0.45594000000E+02  0.51100000000E-03 0. -1.
         11   -1    0    0    0    0 -0.00000000000E+00 -0.00000000000E+00 -0.45593999997E+02  0.45594000000E+02  0.51100000000E-03 0.  1.
         23    2    1    2    0    0  0.44408920985E-15  0.17763568394E-14 -0.71054273576E-14  0.91188000000E+02  0.91188000000E+02 0.  0.
    9900012    2    3    3    0    0 -0.25483683890E+01  0.12993458859E+02 -0.38442702755E+02  0.50528861425E+02  0.30000004788E+02 0.  0.
         12    1    3    3    0    0  0.25483683890E+01 -0.12993458859E+02  0.38442702755E+02  0.40659138575E+02  0.00000000000E+00 0. -1.
         11    1    4    4    0    0  0.80357076921E+00 -0.23814997314E+01 -0.17423900184E+02  0.17604248489E+02  0.51100000000E-03 0. -1.
        -11    1    4    4    0    0 -0.94294636127E+01  0.11523837250E+01 -0.53251985162E+01  0.10890386209E+02  0.51100000000E-03 0.  1.
         12    1    4    4    0    0  0.60775244546E+01  0.14222574865E+02 -0.15693604054E+02  0.22034226728E+02  0.00000000000E+00 0. -1.
</event>
<event>
 8    1  0.1338956E-013  0.9118800E+02  0.7816164E-02  0.1184000E+00
        -11   -1    0    0    0    0  0.00000000000E+00  0.00000000000E+00  0.45593999997E+02  0.45594000000E+02  0.51100000000E-03 0. -1.
         11   -1    0    0    0    0 -0.00000000000E+00 -0.00000000000E+00 -0.45593999997E+02  0.45594000000E+02  0.51100000000E-03 0.  1.
         23    2    1    2    0    0  0.00000000000E+00  0.35527136788E-14  0.00000000000E+00  0.91188000000E+02  0.91188000000E+02 0.  0.
    9900012    2    3    3    0    0  0.97161540760E+01 -0.21551924362E+02  0.33079836040E+02  0.50528872536E+02  0.30000038559E+02 0.  0.
        -12    1    3    3    0    0 -0.97161540760E+01  0.21551924362E+02 -0.33079836040E+02  0.40659127464E+02  0.00000000000E+00 0.  1.
         11    1    4    4    0    0  0.51048585225E+00  0.11778897921E+01  0.41880855824E-01  0.12844354538E+01  0.51100000000E-03 0. -1.
        -11    1    4    4    0    0 -0.12914711259E+01 -0.14290926524E+02  0.87566167971E+00  0.14375856921E+02  0.51100000000E-03 0.  1.
         12    1    4    4    0    0  0.10497139350E+02 -0.84388876304E+01  0.32162293504E+02  0.34868580161E+02  0.00000000000E+00 0. -1.
</event>
<event>
 8    1  0.1338956E-013  0.9118800E+02  0.7816164E-02  0.1184000E+00
        -11   -1    0    0    0    0  0.00000000000E+00  0.00000000000E+00  0.45593999997E+02  0.45594000000E+02  0.51100000000E-03 0. -1.
         11   -1    0    0    0    0 -0.00000000000E+00 -0.00000000000E+00 -0.45593999997E+02  0.45594000000E+02  0.51100000000E-03 0.  1.
         23    2    1    2    0    0  0.00000000000E+00 -0.35527136788E-14 -0.35527136788E-14  0.91188000000E+02  0.91188000000E+02 0.  0.
    9900012    2    3    3    0    0  0.22991007740E+02  0.20060018883E+02  0.26873311959E+02  0.50528859698E+02  0.29999999537E+02 0.  0.
        -12    1    3    3    0    0 -0.22991007740E+02 -0.20060018883E+02 -0.26873311959E+02  0.40659140302E+02  0.00000000000E+00 0.  1.
         11    1    4    4    0    0  0.94078109212E+01  0.27945391710E+01  0.18733526144E+02  0.21148554503E+02  0.51100000000E-03 0. -1.
        -11    1    4    4    0    0 -0.19670674074E+01 -0.13372075648E+01  0.41852036906E+01  0.48138766550E+01  0.51100000000E-03 0.  1.
         12    1    4    4    0    0  0.15550264226E+02  0.18602687277E+02  0.39545821242E+01  0.24566428540E+02  0.00000000000E+00 0. -1.
</event>
<event>
 8    1  0.1338956E-013  0.9118800E+02  0.7816164E-02  0.1184000E+00
        -11   -1    0    0    0    0  0.00000000000E+00  0.00000000000E+00  0.45593999997E+02  0.45594000000E+02  0.51100000000E-03 0. -1.
         11   -1    0    0    0    0 -0.00000000000E+00 -0.00000000000E+00 -0.45593999997E+02  0.45594000000E+02  0.51100000000E-03 0.  1.
         23    2    1    2    0    0  0.71054273576E-14  0.00000000000E+00 -0.71054273576E-14  0.91188000000E+02  0.91188000000E+02 0.  0.
    9900012    2    3    3    0    0 -0.22741967946E+02  0.16780834174E+02  0.29229644805E+02  0.50528860350E+02  0.30000001521E+02 0.  0.
        -12    1    3    3    0    0  0.22741967946E+02 -0.16780834174E+02 -0.29229644805E+02  0.40659139650E+02  0.00000000000E+00 0.  1.
         11    1    4    4    0    0 -0.12497819971E+02  0.85791786738E+01  0.24683630660E+02  0.28966867859E+02  0.51100000000E-03 0. -1.
        -11    1    4    4    0    0 -0.13688091032E+02  0.27455864515E+01  0.55667480032E+01  0.15029662826E+02  0.51100000000E-03 0.  1.
        -12    1    4    4    0    0  0.34439430567E+01  0.54560690491E+01 -0.10207338589E+01  0.65323296653E+01  0.00000000000E+00 0.  1.
</event>
<event>
 8    1  0.1338956E-013  0.9118800E+02  0.7816164E-02  0.1184000E+00
        -11   -1    0    0    0    0  0.00000000000E+00  0.00000000000E+00  0.45593999997E+02  0.45594000000E+02  0.51100000000E-03 0. -1.
         11   -1    0    0    0    0 -0.00000000000E+00 -0.00000000000E+00 -0.45593999997E+02  0.45594000000E+02  0.51100000000E-03 0.  1.
         23    2    1    2    0    0  0.00000000000E+00 -0.13322676296E-14  0.35527136788E-14  0.91188000000E+02  0.91188000000E+02 0.  0.
    9900012    2    3    3    0    0  0.32056690216E+02 -0.35603989251E+01  0.24755972497E+02  0.50528855858E+02  0.29999987866E+02 0.  0.
        -12    1    3    3    0    0 -0.32056690216E+02  0.35603989251E+01 -0.24755972497E+02  0.40659144142E+02  0.00000000000E+00 0.  1.
         11    1    4    4    0    0  0.30481482590E+00  0.41238361682E+01  0.67130221190E+01  0.78843898338E+01  0.51100000000E-03 0.  1.
        -11    1    4    4    0    0  0.13567229272E+02  0.17579244961E+01  0.17413705978E+02  0.22144912843E+02  0.51100000000E-03 0. -1.
         12    1    4    4    0    0  0.18184646117E+02 -0.94421595894E+01  0.62924439974E+00  0.20499553181E+02  0.00000000000E+00 0. -1.
</event>
<event>
 8    1  0.1338956E-013  0.9118800E+02  0.7816164E-02  0.1184000E+00
        -11   -1    0    0    0    0  0.00000000000E+00  0.00000000000E+00  0.45593999997E+02  0.45594000000E+02  0.51100000000E-03 0.  1.
         11   -1    0    0    0    0 -0.00000000000E+00 -0.00000000000E+00 -0.45593999997E+02  0.45594000000E+02  0.51100000000E-03 0. -1.
         23    2    1    2    0    0  0.00000000000E+00 -0.17763568394E-14  0.44408920985E-15  0.91188000000E+02  0.91188000000E+02 0.  0.
    9900012    2    3    3    0    0  0.38006911446E+02  0.14107968020E+02 -0.30991898938E+01  0.50528867480E+02  0.30000023191E+02 0.  0.
         12    1    3    3    0    0 -0.38006911446E+02 -0.14107968020E+02  0.30991898938E+01  0.40659132520E+02  0.00000000000E+00 0. -1.
         11    1    4    4    0    0  0.85892763606E+01 -0.17538258192E+01  0.77083163076E+01  0.11673461953E+02  0.51100000000E-03 0. -1.
        -11    1    4    4    0    0 -0.56590756189E+00 -0.16500505732E+01  0.11974305434E+01  0.21158351614E+01  0.51100000000E-03 0.  1.
        -12    1    4    4    0    0  0.29983542647E+02  0.17511844413E+02 -0.12004936745E+02  0.36739570366E+02  0.00000000000E+00 0.  1.
</event>
<event>
 8    1  0.1338956E-013  0.9118800E+02  0.7816164E-02  0.1184000E+00
        -11   -1    0    0    0    0  0.00000000000E+00  0.00000000000E+00  0.45593999997E+02  0.45594000000E+02  0.51100000000E-03 0. -1.
         11   -1    0    0    0    0 -0.00000000000E+00 -0.00000000000E+00 -0.45593999997E+02  0.45594000000E+02  0.51100000000E-03 0.  1.
         23    2    1    2    0    0  0.17763568394E-14  0.00000000000E+00  0.00000000000E+00  0.91188000000E+02  0.91188000000E+02 0.  0.
    9900012    2    3    3    0    0  0.89052812780E+01 -0.20166491451E+02  0.34163926048E+02  0.50528865047E+02  0.30000015798E+02 0.  0.
        -12    1    3    3    0    0 -0.89052812780E+01  0.20166491451E+02 -0.34163926048E+02  0.40659134953E+02  0.00000000000E+00 0.  1.
         11    1    4    4    0    0  0.69698615177E+00 -0.32886482790E+01  0.16661349294E+02  0.16997104393E+02  0.51100000000E-03 0. -1.
        -11    1    4    4    0    0  0.24942826575E+00 -0.10306850437E+02  0.20360898859E+02  0.22822348323E+02  0.51100000000E-03 0.  1.
        -12    1    4    4    0    0  0.79588668605E+01 -0.65709927353E+01 -0.28583221046E+01  0.10709412331E+02  0.00000000000E+00 0.  1.
</event>
<event>
 8    1  0.1338956E-013  0.9118800E+02  0.7816164E-02  0.1184000E+00
        -11   -1    0    0    0    0  0.00000000000E+00  0.00000000000E+00  0.45593999997E+02  0.45594000000E+02  0.51100000000E-03 0. -1.
         11   -1    0    0    0    0 -0.00000000000E+00 -0.00000000000E+00 -0.45593999997E+02  0.45594000000E+02  0.51100000000E-03 0.  1.
         23    2    1    2    0    0  0.00000000000E+00  0.00000000000E+00  0.00000000000E+00  0.91188000000E+02  0.91188000000E+02 0.  0.
    9900012    2    3    3    0    0  0.21475892436E+02 -0.24570242241E+02 -0.24253973066E+02  0.50528856266E+02  0.29999989107E+02 0.  0.
         12    1    3    3    0    0 -0.21475892436E+02  0.24570242241E+02  0.24253973066E+02  0.40659143734E+02  0.00000000000E+00 0. -1.
         11    1    4    4    0    0 -0.33043151461E+01 -0.72997845104E+01 -0.65302884883E+01  0.10336828357E+02  0.51100000000E-03 0. -1.
        -11    1    4    4    0    0  0.96029369930E+01 -0.54585714736E+01 -0.17812952433E+02  0.20959810974E+02  0.51100000000E-03 0.  1.
        -12    1    4    4    0    0  0.15177270589E+02 -0.11811886257E+02  0.89267855715E-01  0.19232216935E+02  0.00000000000E+00 0.  1.
</event>
<event>
 8    1  0.1338956E-013  0.9118800E+02  0.7816164E-02  0.1184000E+00
        -11   -1    0    0    0    0  0.00000000000E+00  0.00000000000E+00  0.45593999997E+02  0.45594000000E+02  0.51100000000E-03 0.  1.
         11   -1    0    0    0    0 -0.00000000000E+00 -0.00000000000E+00 -0.45593999997E+02  0.45594000000E+02  0.51100000000E-03 0. -1.
         23    2    1    2    0    0 -0.35527136788E-14  0.00000000000E+00  0.00000000000E+00  0.91188000000E+02  0.91188000000E+02 0.  0.
    9900012    2    3    3    0    0  0.83048910858E+01  0.29113984484E+02  0.27139834382E+02  0.50528856886E+02  0.29999990992E+02 0.  0.
        -12    1    3    3    0    0 -0.83048910858E+01 -0.29113984484E+02 -0.27139834382E+02  0.40659143114E+02  0.00000000000E+00 0.  1.
         11    1    4    4    0    0  0.36967499673E+01  0.80119368498E+01 -0.15867605258E+01  0.89652050525E+01  0.51100000000E-03 0. -1.
        -11    1    4    4    0    0  0.10042736624E+02  0.22402149547E+01  0.11678511369E+02  0.15564792000E+02  0.51100000000E-03 0.  1.
        -12    1    4    4    0    0 -0.54345955053E+01  0.18861832679E+02  0.17048083539E+02  0.25998859834E+02  0.00000000000E+00 0.  1.
</event>
<event>
 8    1  0.1338956E-013  0.9118800E+02  0.7816164E-02  0.1184000E+00
        -11   -1    0    0    0    0  0.00000000000E+00  0.00000000000E+00  0.45593999997E+02  0.45594000000E+02  0.51100000000E-03 0. -1.
         11   -1    0    0    0    0 -0.00000000000E+00 -0.00000000000E+00 -0.45593999997E+02  0.45594000000E+02  0.51100000000E-03 0.  1.
         23    2    1    2    0    0 -0.17763568394E-14 -0.88817841970E-15 -0.71054273576E-14  0.91188000000E+02  0.91188000000E+02 0.  0.
    9900012    2    3    3    0    0  0.95226260831E+01  0.63823356176E+01  0.39009629359E+02  0.50528858369E+02  0.29999995498E+02 0.  0.
        -12    1    3    3    0    0 -0.95226260831E+01 -0.63823356176E+01 -0.39009629359E+02  0.40659141631E+02  0.00000000000E+00 0.  1.
         11    1    4    4    0    0 -0.12696286591E+01  0.99730952673E+01  0.62137965139E+01  0.11818876999E+02  0.51100000000E-03 0.  1.
        -11    1    4    4    0    0  0.13129926818E+02  0.12831216256E+01  0.29657882471E+02  0.32459688419E+02  0.51100000000E-03 0. -1.
         12    1    4    4    0    0 -0.23376720756E+01 -0.48738812753E+01  0.31379503744E+01  0.62502929509E+01  0.00000000000E+00 0. -1.
</event>
<event>
 8    1  0.1338956E-013  0.9118800E+02  0.7816164E-02  0.1184000E+00
        -11   -1    0    0    0    0  0.00000000000E+00  0.00000000000E+00  0.45593999997E+02  0.45594000000E+02  0.51100000000E-03 0.  1.
         11   -1    0    0    0    0 -0.00000000000E+00 -0.00000000000E+00 -0.45593999997E+02  0.45594000000E+02  0.51100000000E-03 0. -1.
         23    2    1    2    0    0  0.71054273576E-14  0.17763568394E-14  0.17763568394E-14  0.91188000000E+02  0.91188000000E+02 0.  0.
    9900012    2    3    3    0    0 -0.38549056141E+02 -0.11494483797E+02 -0.59171425560E+01  0.50528862489E+02  0.30000008022E+02 0.  0.
         12    1    3    3    0    0  0.38549056141E+02  0.11494483797E+02  0.59171425560E+01  0.40659137511E+02  0.00000000000E+00 0. -1.
         11    1    4    4    0    0 -0.10652272663E+02 -0.41179886174E+01 -0.69073478942E+01  0.13346917184E+02  0.51100000000E-03 0. -1.
        -11    1    4    4    0    0 -0.18336108576E+02 -0.71615570174E+01 -0.10437324502E+02  0.22280900333E+02  0.51100000000E-03 0.  1.
        -12    1    4    4    0    0 -0.95606749021E+01 -0.21493816184E+00  0.11427529841E+02  0.14901044972E+02  0.00000000000E+00 0.  1.
</event>
<event>
 8    1  0.1338956E-013  0.9118800E+02  0.7816164E-02  0.1184000E+00
        -11   -1    0    0    0    0  0.00000000000E+00  0.00000000000E+00  0.45593999997E+02  0.45594000000E+02  0.51100000000E-03 0. -1.
         11   -1    0    0    0    0 -0.00000000000E+00 -0.00000000000E+00 -0.45593999997E+02  0.45594000000E+02  0.51100000000E-03 0.  1.
         23    2    1    2    0    0  0.71054273576E-14 -0.88817841970E-15  0.00000000000E+00  0.91188000000E+02  0.91188000000E+02 0.  0.
    9900012    2    3    3    0    0 -0.37716831796E+02  0.70703511273E+01 -0.13439439802E+02  0.50528833653E+02  0.29999920372E+02 0.  0.
         12    1    3    3    0    0  0.37716831796E+02 -0.70703511273E+01  0.13439439802E+02  0.40659166347E+02  0.00000000000E+00 0. -1.
         11    1    4    4    0    0 -0.14639591611E+02  0.14168833878E+02 -0.20740807826E+01  0.20478654920E+02  0.51100000000E-03 0. -1.
        -11    1    4    4    0    0 -0.15897756843E+02 -0.32768305188E+01 -0.19572371654E+00  0.16233132751E+02  0.51100000000E-03 0.  1.
        -12    1    4    4    0    0 -0.71794833421E+01 -0.38216522316E+01 -0.11169635303E+02  0.13817045981E+02  0.00000000000E+00 0.  1.
</event>
<event>
 8    1  0.1338956E-013  0.9118800E+02  0.7816164E-02  0.1184000E+00
        -11   -1    0    0    0    0  0.00000000000E+00  0.00000000000E+00  0.45593999997E+02  0.45594000000E+02  0.51100000000E-03 0. -1.
         11   -1    0    0    0    0 -0.00000000000E+00 -0.00000000000E+00 -0.45593999997E+02  0.45594000000E+02  0.51100000000E-03 0.  1.
         23    2    1    2    0    0  0.00000000000E+00  0.00000000000E+00  0.00000000000E+00  0.91188000000E+02  0.91188000000E+02 0.  0.
    9900012    2    3    3    0    0  0.79070564763E+01  0.18481348026E+02 -0.35342378103E+02  0.50528862565E+02  0.30000008253E+02 0.  0.
         12    1    3    3    0    0 -0.79070564763E+01 -0.18481348026E+02  0.35342378103E+02  0.40659137435E+02  0.00000000000E+00 0. -1.
         11    1    4    4    0    0 -0.57359513587E+01  0.64391861700E+01 -0.20950668293E+02  0.22656009329E+02  0.51100000000E-03 0. -1.
        -11    1    4    4    0    0 -0.31248186148E+01  0.20067660048E+00 -0.32643620666E+01  0.45233640619E+01  0.51100000000E-03 0.  1.
        -12    1    4    4    0    0  0.16767826450E+02  0.11841485255E+02 -0.11127347743E+02  0.23349489174E+02  0.00000000000E+00 0.  1.
</event>
<event>
 8    1  0.1338956E-013  0.9118800E+02  0.7816164E-02  0.1184000E+00
        -11   -1    0    0    0    0  0.00000000000E+00  0.00000000000E+00  0.45593999997E+02  0.45594000000E+02  0.51100000000E-03 0.  1.
         11   -1    0    0    0    0 -0.00000000000E+00 -0.00000000000E+00 -0.45593999997E+02  0.45594000000E+02  0.51100000000E-03 0. -1.
         23    2    1    2    0    0  0.00000000000E+00 -0.17763568394E-14  0.00000000000E+00  0.91188000000E+02  0.91188000000E+02 0.  0.
    9900012    2    3    3    0    0  0.37978269131E+02  0.13211873740E+02 -0.60217981365E+01  0.50528873266E+02  0.30000040781E+02 0.  0.
        -12    1    3    3    0    0 -0.37978269131E+02 -0.13211873740E+02  0.60217981365E+01  0.40659126734E+02  0.00000000000E+00 0.  1.
         11    1    4    4    0    0  0.12696628270E+01  0.21917140127E+01  0.19843161980E+01  0.32176334537E+01  0.51100000000E-03 0. -1.
        -11    1    4    4    0    0 -0.28337689776E+01  0.18364505150E+01  0.37520578591E+01  0.50478446442E+01  0.51100000000E-03 0.  1.
         12    1    4    4    0    0  0.39542375282E+02  0.91837092127E+01 -0.11758172194E+02  0.42263395169E+02  0.00000000000E+00 0. -1.
</event>
<event>
 8    1  0.1338956E-013  0.9118800E+02  0.7816164E-02  0.1184000E+00
        -11   -1    0    0    0    0  0.00000000000E+00  0.00000000000E+00  0.45593999997E+02  0.45594000000E+02  0.51100000000E-03 0. -1.
         11   -1    0    0    0    0 -0.00000000000E+00 -0.00000000000E+00 -0.45593999997E+02  0.45594000000E+02  0.51100000000E-03 0.  1.
         23    2    1    2    0    0 -0.35527136788E-14 -0.88817841970E-15  0.00000000000E+00  0.91188000000E+02  0.91188000000E+02 0.  0.
    9900012    2    3    3    0    0 -0.28935604123E+02 -0.46086532479E+01  0.28189658950E+02  0.50528859054E+02  0.29999997580E+02 0.  0.
        -12    1    3    3    0    0  0.28935604123E+02  0.46086532479E+01 -0.28189658950E+02  0.40659140946E+02  0.00000000000E+00 0.  1.
         11    1    4    4    0    0 -0.23704714129E+01 -0.28115446797E+01 -0.21675665831E+01  0.42687543099E+01  0.51100000000E-03 0. -1.
        -11    1    4    4    0    0 -0.22821976824E+01 -0.67750233168E+01  0.16216443698E+02  0.17722370430E+02  0.51100000000E-03 0.  1.
         12    1    4    4    0    0 -0.24282935028E+02  0.49779147486E+01  0.14140781836E+02  0.28537734314E+02  0.00000000000E+00 0. -1.
</event>
<event>
 8    1  0.1338956E-013  0.9118800E+02  0.7816164E-02  0.1184000E+00
        -11   -1    0    0    0    0  0.00000000000E+00  0.00000000000E+00  0.45593999997E+02  0.45594000000E+02  0.51100000000E-03 0. -1.
         11   -1    0    0    0    0 -0.00000000000E+00 -0.00000000000E+00 -0.45593999997E+02  0.45594000000E+02  0.51100000000E-03 0.  1.
         23    2    1    2    0    0  0.00000000000E+00  0.00000000000E+00  0.00000000000E+00  0.91188000000E+02  0.91188000000E+02 0.  0.
    9900012    2    3    3    0    0 -0.22639685437E+02 -0.15244043593E+02  0.30136849985E+02  0.50528856517E+02  0.29999989871E+02 0.  0.
        -12    1    3    3    0    0  0.22639685437E+02  0.15244043593E+02 -0.30136849985E+02  0.40659143483E+02  0.00000000000E+00 0.  1.
         11    1    4    4    0    0  0.15163469706E+01  0.74177306954E+00  0.20948502049E+01  0.26903406967E+01  0.51100000000E-03 0. -1.
        -11    1    4    4    0    0  0.19190258057E+01 -0.62634481721E+01  0.16423713628E+02  0.17681962918E+02  0.51100000000E-03 0.  1.
         12    1    4    4    0    0 -0.26075058213E+02 -0.97223684901E+01  0.11618286152E+02  0.30156552903E+02  0.00000000000E+00 0. -1.
</event>
<event>
 8    1  0.1338956E-013  0.9118800E+02  0.7816164E-02  0.1184000E+00
        -11   -1    0    0    0    0  0.00000000000E+00  0.00000000000E+00  0.45593999997E+02  0.45594000000E+02  0.51100000000E-03 0. -1.
         11   -1    0    0    0    0 -0.00000000000E+00 -0.00000000000E+00 -0.45593999997E+02  0.45594000000E+02  0.51100000000E-03 0.  1.
         23    2    1    2    0    0  0.00000000000E+00  0.00000000000E+00  0.00000000000E+00  0.91188000000E+02  0.91188000000E+02 0.  0.
    9900012    2    3    3    0    0  0.16103955209E+02 -0.46814873466E+01  0.37039325070E+02  0.50528864510E+02  0.30000014165E+02 0.  0.
        -12    1    3    3    0    0 -0.16103955209E+02  0.46814873466E+01 -0.37039325070E+02  0.40659135490E+02  0.00000000000E+00 0.  1.
         11    1    4    4    0    0 -0.55124901068E+01 -0.45286988134E+01  0.53881534605E+01  0.89402940720E+01  0.51100000000E-03 0. -1.
        -11    1    4    4    0    0  0.26258553303E+01 -0.21012727650E+01 -0.12187415304E+01  0.35771209970E+01  0.51100000000E-03 0.  1.
         12    1    4    4    0    0  0.18990589986E+02  0.19484842318E+01  0.32869913140E+02  0.38011449441E+02  0.00000000000E+00 0. -1.
</event>
<event>
 8    1  0.1338956E-013  0.9118800E+02  0.7816164E-02  0.1184000E+00
        -11   -1    0    0    0    0  0.00000000000E+00  0.00000000000E+00  0.45593999997E+02  0.45594000000E+02  0.51100000000E-03 0.  1.
         11   -1    0    0    0    0 -0.00000000000E+00 -0.00000000000E+00 -0.45593999997E+02  0.45594000000E+02  0.51100000000E-03 0. -1.
         23    2    1    2    0    0  0.71054273576E-14  0.17763568394E-14 -0.44408920985E-15  0.91188000000E+02  0.91188000000E+02 0.  0.
    9900012    2    3    3    0    0  0.39404247956E+02  0.99004978387E+01  0.15655702902E+01  0.50528860501E+02  0.30000001979E+02 0.  0.
         12    1    3    3    0    0 -0.39404247956E+02 -0.99004978387E+01 -0.15655702902E+01  0.40659139499E+02  0.00000000000E+00 0. -1.
         11    1    4    4    0    0  0.20272695125E+02  0.84076888277E+00  0.74567480391E+01  0.21616941309E+02  0.51100000000E-03 0. -1.
        -11    1    4    4    0    0  0.98724097201E+01 -0.47002425200E+01  0.94097516140E+00  0.10974615617E+02  0.51100000000E-03 0.  1.
        -12    1    4    4    0    0  0.92591431107E+01  0.13759971476E+02 -0.68321529102E+01  0.17937303575E+02  0.00000000000E+00 0.  1.
</event>
<event>
 8    1  0.1338956E-013  0.9118800E+02  0.7816164E-02  0.1184000E+00
        -11   -1    0    0    0    0  0.00000000000E+00  0.00000000000E+00  0.45593999997E+02  0.45594000000E+02  0.51100000000E-03 0. -1.
         11   -1    0    0    0    0 -0.00000000000E+00 -0.00000000000E+00 -0.45593999997E+02  0.45594000000E+02  0.51100000000E-03 0.  1.
         23    2    1    2    0    0 -0.17763568394E-14  0.00000000000E+00  0.00000000000E+00  0.91188000000E+02  0.91188000000E+02 0.  0.
    9900012    2    3    3    0    0  0.15263337582E+02  0.94866872909E+01  0.36471902430E+02  0.50528851253E+02  0.29999973870E+02 0.  0.
        -12    1    3    3    0    0 -0.15263337582E+02 -0.94866872909E+01 -0.36471902430E+02  0.40659148747E+02  0.00000000000E+00 0.  1.
         11    1    4    4    0    0 -0.23161083951E+01  0.40070310558E+01  0.15962840741E+02  0.16620256941E+02  0.51100000000E-03 0. -1.
        -11    1    4    4    0    0 -0.21923789769E+01 -0.31802566034E+01  0.81906272595E+01  0.90557679303E+01  0.51100000000E-03 0.  1.
        -12    1    4    4    0    0  0.19771824954E+02  0.86599128385E+01  0.12318434429E+02  0.24852826382E+02  0.00000000000E+00 0.  1.
</event>
<event>
 8    1  0.1338956E-013  0.9118800E+02  0.7816164E-02  0.1184000E+00
        -11   -1    0    0    0    0  0.00000000000E+00  0.00000000000E+00  0.45593999997E+02  0.45594000000E+02  0.51100000000E-03 0. -1.
         11   -1    0    0    0    0 -0.00000000000E+00 -0.00000000000E+00 -0.45593999997E+02  0.45594000000E+02  0.51100000000E-03 0.  1.
         23    2    1    2    0    0  0.00000000000E+00  0.88817841970E-15 -0.35527136788E-14  0.91188000000E+02  0.91188000000E+02 0.  0.
    9900012    2    3    3    0    0  0.33045470491E+02  0.42728010335E+01 -0.23300340749E+02  0.50528858006E+02  0.29999994395E+02 0.  0.
         12    1    3    3    0    0 -0.33045470491E+02 -0.42728010335E+01  0.23300340749E+02  0.40659141994E+02  0.00000000000E+00 0. -1.
         11    1    4    4    0    0  0.95937368090E+00  0.26075241118E+01  0.39719245820E+01  0.48472430308E+01  0.51100000000E-03 0. -1.
        -11    1    4    4    0    0  0.19170643750E+02 -0.42970791969E+01 -0.68764145139E+01  0.20814983744E+02  0.51100000000E-03 0.  1.
        -12    1    4    4    0    0  0.12915453060E+02  0.59623561186E+01 -0.20395850817E+02  0.24866631231E+02  0.00000000000E+00 0.  1.
</event>
<event>
 8    1  0.1338956E-013  0.9118800E+02  0.7816164E-02  0.1184000E+00
        -11   -1    0    0    0    0  0.00000000000E+00  0.00000000000E+00  0.45593999997E+02  0.45594000000E+02  0.51100000000E-03 0. -1.
         11   -1    0    0    0    0 -0.00000000000E+00 -0.00000000000E+00 -0.45593999997E+02  0.45594000000E+02  0.51100000000E-03 0.  1.
         23    2    1    2    0    0  0.00000000000E+00 -0.88817841970E-15  0.00000000000E+00  0.91188000000E+02  0.91188000000E+02 0.  0.
    9900012    2    3    3    0    0  0.38159615848E+02 -0.56307250199E+01 -0.12857037754E+02  0.50528871065E+02  0.30000034090E+02 0.  0.
         12    1    3    3    0    0 -0.38159615848E+02  0.56307250199E+01  0.12857037754E+02  0.40659128935E+02  0.00000000000E+00 0. -1.
         11    1    4    4    0    0  0.53899031089E+01  0.48279354129E+01  0.59470712380E+01  0.93663051651E+01  0.51100000000E-03 0. -1.
        -11    1    4    4    0    0  0.15955096203E+01 -0.44593139357E+01 -0.36799547899E+01  0.59977661877E+01  0.51100000000E-03 0.  1.
        -12    1    4    4    0    0  0.31174203119E+02 -0.59993464970E+01 -0.15124154202E+02  0.35164799712E+02  0.00000000000E+00 0.  1.
</event>
<event>
 8    1  0.1338956E-013  0.9118800E+02  0.7816164E-02  0.1184000E+00
        -11   -1    0    0    0    0  0.00000000000E+00  0.00000000000E+00  0.45593999997E+02  0.45594000000E+02  0.51100000000E-03 0. -1.
         11   -1    0    0    0    0 -0.00000000000E+00 -0.00000000000E+00 -0.45593999997E+02  0.45594000000E+02  0.51100000000E-03 0.  1.
         23    2    1    2    0    0  0.00000000000E+00  0.17763568394E-14  0.00000000000E+00  0.91188000000E+02  0.91188000000E+02 0.  0.
    9900012    2    3    3    0    0  0.72348617541E+01  0.50579336691E+01 -0.39689294129E+02  0.50528856059E+02  0.29999988476E+02 0.  0.
         12    1    3    3    0    0 -0.72348617541E+01 -0.50579336691E+01  0.39689294129E+02  0.40659143941E+02  0.00000000000E+00 0. -1.
         11    1    4    4    0    0 -0.52380922130E+01 -0.33220958607E+01 -0.79951795200E+01  0.10119131720E+02  0.51100000000E-03 0. -1.
        -11    1    4    4    0    0 -0.11468623367E+01 -0.52328671166E+01 -0.10409055039E+02  0.11706691187E+02  0.51100000000E-03 0.  1.
        -12    1    4    4    0    0  0.13619816304E+02  0.13612896646E+02 -0.21285059570E+02  0.28703033153E+02  0.00000000000E+00 0.  1.
</event>
<event>
 8    1  0.1338956E-013  0.9118800E+02  0.7816164E-02  0.1184000E+00
        -11   -1    0    0    0    0  0.00000000000E+00  0.00000000000E+00  0.45593999997E+02  0.45594000000E+02  0.51100000000E-03 0. -1.
         11   -1    0    0    0    0 -0.00000000000E+00 -0.00000000000E+00 -0.45593999997E+02  0.45594000000E+02  0.51100000000E-03 0.  1.
         23    2    1    2    0    0  0.00000000000E+00  0.00000000000E+00  0.00000000000E+00  0.91188000000E+02  0.91188000000E+02 0.  0.
    9900012    2    3    3    0    0 -0.14966452097E+02 -0.17769666036E+02  0.33367796637E+02  0.50528861153E+02  0.30000003960E+02 0.  0.
        -12    1    3    3    0    0  0.14966452097E+02  0.17769666036E+02 -0.33367796637E+02  0.40659138847E+02  0.00000000000E+00 0.  1.
         11    1    4    4    0    0 -0.74106728199E+01 -0.57435082260E+00  0.86513105951E-02  0.74329015611E+01  0.51100000000E-03 0.  1.
        -11    1    4    4    0    0  0.65997462624E+01 -0.30681124391E+01  0.93448616177E+01  0.11844678281E+02  0.51100000000E-03 0. -1.
         12    1    4    4    0    0 -0.14155525540E+02 -0.14127202774E+02  0.24014283708E+02  0.31251281311E+02  0.00000000000E+00 0. -1.
</event>
<event>
 8    1  0.1338956E-013  0.9118800E+02  0.7816164E-02  0.1184000E+00
        -11   -1    0    0    0    0  0.00000000000E+00  0.00000000000E+00  0.45593999997E+02  0.45594000000E+02  0.51100000000E-03 0. -1.
         11   -1    0    0    0    0 -0.00000000000E+00 -0.00000000000E+00 -0.45593999997E+02  0.45594000000E+02  0.51100000000E-03 0.  1.
         23    2    1    2    0    0 -0.72164496601E-15 -0.61062266354E-15  0.00000000000E+00  0.91188000000E+02  0.91188000000E+02 0.  0.
    9900012    2    3    3    0    0 -0.24477612983E+00 -0.24853809231E+00 -0.40657625202E+02  0.50528878347E+02  0.30000056223E+02 0.  0.
         12    1    3    3    0    0  0.24477612983E+00  0.24853809231E+00  0.40657625202E+02  0.40659121653E+02  0.00000000000E+00 0. -1.
         11    1    4    4    0    0 -0.65403304880E+01  0.29062403460E+01 -0.45060730788E+01  0.84573548284E+01  0.51100000000E-03 0. -1.
        -11    1    4    4    0    0  0.10457733520E+02  0.29500807733E+01 -0.31546131061E+02  0.33365034873E+02  0.51100000000E-03 0.  1.
         12    1    4    4    0    0 -0.41621791614E+01 -0.61048592117E+01 -0.46054210627E+01  0.87064886453E+01  0.00000000000E+00 0. -1.
</event>
<event>
 8    1  0.1338956E-013  0.9118800E+02  0.7816164E-02  0.1184000E+00
        -11   -1    0    0    0    0  0.00000000000E+00  0.00000000000E+00  0.45593999997E+02  0.45594000000E+02  0.51100000000E-03 0. -1.
         11   -1    0    0    0    0 -0.00000000000E+00 -0.00000000000E+00 -0.45593999997E+02  0.45594000000E+02  0.51100000000E-03 0.  1.
         23    2    1    2    0    0  0.38857805862E-15  0.88817841970E-15  0.00000000000E+00  0.91188000000E+02  0.91188000000E+02 0.  0.
    9900012    2    3    3    0    0  0.25879155592E+00  0.50155181497E+01 -0.40347770125E+02  0.50528868806E+02  0.30000027222E+02 0.  0.
         12    1    3    3    0    0 -0.25879155592E+00 -0.50155181497E+01  0.40347770125E+02  0.40659131194E+02  0.00000000000E+00 0. -1.
         11    1    4    4    0    0 -0.41622640528E+01 -0.16824874104E+01 -0.28137547124E+01  0.52983414173E+01  0.51100000000E-03 0. -1.
        -11    1    4    4    0    0 -0.73153071949E+01  0.87062759296E+01 -0.96632155654E+01  0.14922824640E+02  0.51100000000E-03 0.  1.
         12    1    4    4    0    0  0.11736362804E+02 -0.20082703695E+01 -0.27870799848E+02  0.30307702748E+02  0.00000000000E+00 0. -1.
</event>
<event>
 8    1  0.1338956E-013  0.9118800E+02  0.7816164E-02  0.1184000E+00
        -11   -1    0    0    0    0  0.00000000000E+00  0.00000000000E+00  0.45593999997E+02  0.45594000000E+02  0.51100000000E-03 0. -1.
         11   -1    0    0    0    0 -0.00000000000E+00 -0.00000000000E+00 -0.45593999997E+02  0.45594000000E+02  0.51100000000E-03 0.  1.
         23    2    1    2    0    0  0.00000000000E+00  0.00000000000E+00  0.00000000000E+00  0.91188000000E+02  0.91188000000E+02 0.  0.
    9900012    2    3    3    0    0 -0.39704946307E+02  0.12106002342E+01  0.86727957454E+01  0.50528859574E+02  0.29999999161E+02 0.  0.
        -12    1    3    3    0    0  0.39704946307E+02 -0.12106002342E+01 -0.86727957454E+01  0.40659140426E+02  0.00000000000E+00 0.  1.
         11    1    4    4    0    0 -0.14388903019E+02 -0.68641058975E+00  0.81219944208E+01  0.16537184864E+02  0.51100000000E-03 0. -1.
        -11    1    4    4    0    0  0.36923500454E+01  0.16231946389E+01  0.27766330479E+01  0.48967235002E+01  0.51100000000E-03 0.  1.
         12    1    4    4    0    0 -0.29008393333E+02  0.27381618504E+00 -0.22258317232E+01  0.29094951210E+02  0.00000000000E+00 0. -1.
</event>
<event>
 8    1  0.1338956E-013  0.9118800E+02  0.7816164E-02  0.1184000E+00
        -11   -1    0    0    0    0  0.00000000000E+00  0.00000000000E+00  0.45593999997E+02  0.45594000000E+02  0.51100000000E-03 0. -1.
         11   -1    0    0    0    0 -0.00000000000E+00 -0.00000000000E+00 -0.45593999997E+02  0.45594000000E+02  0.51100000000E-03 0.  1.
         23    2    1    2    0    0 -0.17763568394E-14  0.00000000000E+00  0.00000000000E+00  0.91188000000E+02  0.91188000000E+02 0.  0.
    9900012    2    3    3    0    0  0.13124179387E+02  0.63077918356E+01  0.37962261317E+02  0.50528860723E+02  0.30000002653E+02 0.  0.
        -12    1    3    3    0    0 -0.13124179387E+02 -0.63077918356E+01 -0.37962261317E+02  0.40659139277E+02  0.00000000000E+00 0.  1.
         11    1    4    4    0    0  0.51861601008E+01 -0.12786886204E+01  0.31521034708E+01  0.62021816912E+01  0.51100000000E-03 0.  1.
        -11    1    4    4    0    0  0.10995045066E+02  0.42291432541E+01  0.29493427672E+01  0.12143940533E+02  0.51100000000E-03 0. -1.
         12    1    4    4    0    0 -0.30570257793E+01  0.33573372020E+01  0.31860815080E+02  0.32182738498E+02  0.00000000000E+00 0. -1.
</event>
<event>
 8    1  0.1338956E-013  0.9118800E+02  0.7816164E-02  0.1184000E+00
        -11   -1    0    0    0    0  0.00000000000E+00  0.00000000000E+00  0.45593999997E+02  0.45594000000E+02  0.51100000000E-03 0. -1.
         11   -1    0    0    0    0 -0.00000000000E+00 -0.00000000000E+00 -0.45593999997E+02  0.45594000000E+02  0.51100000000E-03 0.  1.
         23    2    1    2    0    0 -0.17763568394E-14  0.00000000000E+00  0.00000000000E+00  0.91188000000E+02  0.91188000000E+02 0.  0.
    9900012    2    3    3    0    0 -0.15882227198E+02 -0.18720435521E+02 -0.32410885097E+02  0.50528864254E+02  0.30000013386E+02 0.  0.
         12    1    3    3    0    0  0.15882227198E+02  0.18720435521E+02  0.32410885097E+02  0.40659135746E+02  0.00000000000E+00 0. -1.
         11    1    4    4    0    0 -0.46886058897E+01 -0.18493532559E+02 -0.19920974590E+02  0.27583310181E+02  0.51100000000E-03 0. -1.
        -11    1    4    4    0    0 -0.21129854580E+00 -0.61647043460E+01 -0.69334986189E+01  0.92801740344E+01  0.51100000000E-03 0.  1.
         12    1    4    4    0    0 -0.10982322762E+02  0.59378013832E+01 -0.55564118881E+01  0.13665380038E+02  0.00000000000E+00 0. -1.
</event>
<event>
 8    1  0.1338956E-013  0.9118800E+02  0.7816164E-02  0.1184000E+00
        -11   -1    0    0    0    0  0.00000000000E+00  0.00000000000E+00  0.45593999997E+02  0.45594000000E+02  0.51100000000E-03 0. -1.
         11   -1    0    0    0    0 -0.00000000000E+00 -0.00000000000E+00 -0.45593999997E+02  0.45594000000E+02  0.51100000000E-03 0.  1.
         23    2    1    2    0    0  0.13322676296E-14 -0.17763568394E-14  0.71054273576E-14  0.91188000000E+02  0.91188000000E+02 0.  0.
    9900012    2    3    3    0    0  0.30888894255E+01  0.78152526471E+01  0.39781227866E+02  0.50528862007E+02  0.30000006556E+02 0.  0.
        -12    1    3    3    0    0 -0.30888894255E+01 -0.78152526471E+01 -0.39781227866E+02  0.40659137993E+02  0.00000000000E+00 0.  1.
         11    1    4    4    0    0 -0.43831342877E+01 -0.43272466313E+01  0.12587888180E+02  0.14013987965E+02  0.51100000000E-03 0. -1.
        -11    1    4    4    0    0 -0.24909003849E+01 -0.43041330167E+01  0.74295572991E+01  0.89402722372E+01  0.51100000000E-03 0.  1.
         12    1    4    4    0    0  0.99629240982E+01  0.16446632295E+02  0.19763782387E+02  0.27574601804E+02  0.00000000000E+00 0. -1.
</event>
<event>
 8    1  0.1338956E-013  0.9118800E+02  0.7816164E-02  0.1184000E+00
        -11   -1    0    0    0    0  0.00000000000E+00  0.00000000000E+00  0.45593999997E+02  0.45594000000E+02  0.51100000000E-03 0. -1.
         11   -1    0    0    0    0 -0.00000000000E+00 -0.00000000000E+00 -0.45593999997E+02  0.45594000000E+02  0.51100000000E-03 0.  1.
         23    2    1    2    0    0  0.00000000000E+00  0.17763568394E-14  0.00000000000E+00  0.91188000000E+02  0.91188000000E+02 0.  0.
    9900012    2    3    3    0    0  0.24264580459E+02  0.14181676553E+02 -0.29381545281E+02  0.50528867965E+02  0.30000024668E+02 0.  0.
         12    1    3    3    0    0 -0.24264580459E+02 -0.14181676553E+02  0.29381545281E+02  0.40659132035E+02  0.00000000000E+00 0. -1.
         11    1    4    4    0    0 -0.32527163009E+01  0.57761008766E+00 -0.61067752615E+01  0.69430901696E+01  0.51100000000E-03 0. -1.
        -11    1    4    4    0    0  0.11024420248E+02  0.10582840922E+02 -0.48131237986E+00  0.15289408937E+02  0.51100000000E-03 0.  1.
        -12    1    4    4    0    0  0.16492876511E+02  0.30212255437E+01 -0.22793457639E+02  0.28296368858E+02  0.00000000000E+00 0.  1.
</event>
<event>
 8    1  0.1338956E-013  0.9118800E+02  0.7816164E-02  0.1184000E+00
        -11   -1    0    0    0    0  0.00000000000E+00  0.00000000000E+00  0.45593999997E+02  0.45594000000E+02  0.51100000000E-03 0. -1.
         11   -1    0    0    0    0 -0.00000000000E+00 -0.00000000000E+00 -0.45593999997E+02  0.45594000000E+02  0.51100000000E-03 0.  1.
         23    2    1    2    0    0  0.00000000000E+00  0.00000000000E+00 -0.17763568394E-14  0.91188000000E+02  0.91188000000E+02 0.  0.
    9900012    2    3    3    0    0 -0.38343795285E+02 -0.57812996652E+01 -0.12226852662E+02  0.50528856027E+02  0.29999988378E+02 0.  0.
         12    1    3    3    0    0  0.38343795285E+02  0.57812996652E+01  0.12226852662E+02  0.40659143973E+02  0.00000000000E+00 0. -1.
         11    1    4    4    0    0 -0.19277533198E+01 -0.15964446811E+01 -0.32348026813E+00  0.25237884671E+01  0.51100000000E-03 0. -1.
        -11    1    4    4    0    0 -0.40325798229E+02  0.32720480912E+00 -0.11858657428E+02  0.42034566990E+02  0.51100000000E-03 0.  1.
         12    1    4    4    0    0  0.39097562641E+01 -0.45120597933E+01 -0.44714966083E-01  0.59705005695E+01  0.00000000000E+00 0. -1.
</event>
<event>
 8    1  0.1338956E-013  0.9118800E+02  0.7816164E-02  0.1184000E+00
        -11   -1    0    0    0    0  0.00000000000E+00  0.00000000000E+00  0.45593999997E+02  0.45594000000E+02  0.51100000000E-03 0. -1.
         11   -1    0    0    0    0 -0.00000000000E+00 -0.00000000000E+00 -0.45593999997E+02  0.45594000000E+02  0.51100000000E-03 0.  1.
         23    2    1    2    0    0  0.00000000000E+00  0.00000000000E+00 -0.17763568394E-14  0.91188000000E+02  0.91188000000E+02 0.  0.
    9900012    2    3    3    0    0 -0.31997111859E+02  0.21788200060E+02 -0.12434745038E+02  0.50528884007E+02  0.30000073428E+02 0.  0.
         12    1    3    3    0    0  0.31997111859E+02 -0.21788200060E+02  0.12434745038E+02  0.40659115993E+02  0.00000000000E+00 0. -1.
         11    1    4    4    0    0 -0.29805625429E+01  0.77643447046E+01  0.64348510728E+00  0.83416350381E+01  0.51100000000E-03 0. -1.
        -11    1    4    4    0    0 -0.70285769180E+01  0.10780397051E+01  0.68024799826E+01  0.98405689507E+01  0.51100000000E-03 0.  1.
        -12    1    4    4    0    0 -0.21987972398E+02  0.12945815650E+02 -0.19880710128E+02  0.32346680018E+02  0.00000000000E+00 0.  1.
</event>
<event>
 8    1  0.1338956E-013  0.9118800E+02  0.7816164E-02  0.1184000E+00
        -11   -1    0    0    0    0  0.00000000000E+00  0.00000000000E+00  0.45593999997E+02  0.45594000000E+02  0.51100000000E-03 0. -1.
         11   -1    0    0    0    0 -0.00000000000E+00 -0.00000000000E+00 -0.45593999997E+02  0.45594000000E+02  0.51100000000E-03 0.  1.
         23    2    1    2    0    0  0.00000000000E+00  0.00000000000E+00  0.00000000000E+00  0.91188000000E+02  0.91188000000E+02 0.  0.
    9900012    2    3    3    0    0  0.30592188652E+02  0.24525413966E+02 -0.10760468527E+02  0.50528860564E+02  0.30000002170E+02 0.  0.
         12    1    3    3    0    0 -0.30592188652E+02 -0.24525413966E+02  0.10760468527E+02  0.40659139436E+02  0.00000000000E+00 0. -1.
         11    1    4    4    0    0  0.94538792580E+01  0.58709313270E+00 -0.89478423086E+01  0.13030134060E+02  0.51100000000E-03 0. -1.
        -11    1    4    4    0    0  0.92901560354E+01  0.14383782852E+02 -0.10388852309E+02  0.20028191652E+02  0.51100000000E-03 0.  1.
         12    1    4    4    0    0  0.11848153359E+02  0.95545379814E+01  0.85762260906E+01  0.17470534852E+02  0.00000000000E+00 0. -1.
</event>
<event>
 8    1  0.1338956E-013  0.9118800E+02  0.7816164E-02  0.1184000E+00
        -11   -1    0    0    0    0  0.00000000000E+00  0.00000000000E+00  0.45593999997E+02  0.45594000000E+02  0.51100000000E-03 0. -1.
         11   -1    0    0    0    0 -0.00000000000E+00 -0.00000000000E+00 -0.45593999997E+02  0.45594000000E+02  0.51100000000E-03 0.  1.
         23    2    1    2    0    0  0.00000000000E+00  0.22204460493E-15  0.00000000000E+00  0.91188000000E+02  0.91188000000E+02 0.  0.
    9900012    2    3    3    0    0 -0.30102617909E+02 -0.18002337572E+01 -0.27271834464E+02  0.50528912436E+02  0.30000159839E+02 0.  0.
         12    1    3    3    0    0  0.30102617909E+02  0.18002337572E+01  0.27271834464E+02  0.40659087564E+02  0.00000000000E+00 0. -1.
         11    1    4    4    0    0  0.59622468529E-01 -0.16846398601E+01 -0.18789362158E+01  0.25242757102E+01  0.51100000000E-03 0. -1.
        -11    1    4    4    0    0 -0.63875093385E+01 -0.10871449716E+02 -0.15772681546E+02  0.20193221088E+02  0.51100000000E-03 0.  1.
         12    1    4    4    0    0 -0.23774731039E+02  0.10755855819E+02 -0.96202167017E+01  0.27811415638E+02  0.00000000000E+00 0. -1.
</event>
<event>
 8    1  0.1338956E-013  0.9118800E+02  0.7816164E-02  0.1184000E+00
        -11   -1    0    0    0    0  0.00000000000E+00  0.00000000000E+00  0.45593999997E+02  0.45594000000E+02  0.51100000000E-03 0. -1.
         11   -1    0    0    0    0 -0.00000000000E+00 -0.00000000000E+00 -0.45593999997E+02  0.45594000000E+02  0.51100000000E-03 0.  1.
         23    2    1    2    0    0  0.00000000000E+00 -0.17763568394E-14  0.00000000000E+00  0.91188000000E+02  0.91188000000E+02 0.  0.
    9900012    2    3    3    0    0 -0.42137280687E+01  0.12374880791E+02  0.38500281891E+02  0.50528869605E+02  0.30000029651E+02 0.  0.
        -12    1    3    3    0    0  0.42137280687E+01 -0.12374880791E+02 -0.38500281891E+02  0.40659130395E+02  0.00000000000E+00 0.  1.
         11    1    4    4    0    0 -0.10831808532E+02  0.13942483727E+02  0.27617648281E+02  0.32778886884E+02  0.51100000000E-03 0. -1.
        -11    1    4    4    0    0 -0.28218921525E+01  0.21089278286E+01  0.47285626089E+01  0.58966055078E+01  0.51100000000E-03 0.  1.
        -12    1    4    4    0    0  0.94399726161E+01 -0.36765307649E+01  0.61540710013E+01  0.11853377213E+02  0.00000000000E+00 0.  1.
</event>
<event>
 8    1  0.1338956E-013  0.9118800E+02  0.7816164E-02  0.1184000E+00
        -11   -1    0    0    0    0  0.00000000000E+00  0.00000000000E+00  0.45593999997E+02  0.45594000000E+02  0.51100000000E-03 0. -1.
         11   -1    0    0    0    0 -0.00000000000E+00 -0.00000000000E+00 -0.45593999997E+02  0.45594000000E+02  0.51100000000E-03 0.  1.
         23    2    1    2    0    0 -0.17763568394E-14 -0.17763568394E-14  0.00000000000E+00  0.91188000000E+02  0.91188000000E+02 0.  0.
    9900012    2    3    3    0    0  0.90026912657E+01  0.10474783025E+02  0.38241284663E+02  0.50528863485E+02  0.30000011050E+02 0.  0.
        -12    1    3    3    0    0 -0.90026912657E+01 -0.10474783025E+02 -0.38241284663E+02  0.40659136515E+02  0.00000000000E+00 0.  1.
         11    1    4    4    0    0  0.87825704896E+01  0.95785610987E+01  0.27990831828E+02  0.30860477051E+02  0.51100000000E-03 0.  1.
        -11    1    4    4    0    0  0.21702475885E+01 -0.19831049322E+01  0.14144944888E+02  0.14447219314E+02  0.51100000000E-03 0. -1.
        -12    1    4    4    0    0 -0.19501268123E+01  0.28793268590E+01 -0.38944920532E+01  0.52211671203E+01  0.00000000000E+00 0.  1.
</event>
<event>
 8    1  0.1338956E-013  0.9118800E+02  0.7816164E-02  0.1184000E+00
        -11   -1    0    0    0    0  0.00000000000E+00  0.00000000000E+00  0.45593999997E+02  0.45594000000E+02  0.51100000000E-03 0. -1.
         11   -1    0    0    0    0 -0.00000000000E+00 -0.00000000000E+00 -0.45593999997E+02  0.45594000000E+02  0.51100000000E-03 0.  1.
         23    2    1    2    0    0  0.00000000000E+00  0.00000000000E+00  0.00000000000E+00  0.91188000000E+02  0.91188000000E+02 0.  0.
    9900012    2    3    3    0    0  0.20323333660E+02  0.18660373332E+02 -0.29865005178E+02  0.50528856401E+02  0.29999989517E+02 0.  0.
         12    1    3    3    0    0 -0.20323333660E+02 -0.18660373332E+02  0.29865005178E+02  0.40659143599E+02  0.00000000000E+00 0. -1.
         11    1    4    4    0    0 -0.24348982229E+01  0.11091498695E+02 -0.14038779024E+02  0.18056505460E+02  0.51100000000E-03 0. -1.
        -11    1    4    4    0    0 -0.68743427191E+00  0.27354541079E+01 -0.59341356316E+01  0.65703303577E+01  0.51100000000E-03 0.  1.
         12    1    4    4    0    0  0.23445666154E+02  0.48334205290E+01 -0.98920905220E+01  0.25902020584E+02  0.00000000000E+00 0. -1.
</event>
<event>
 8    1  0.1338956E-013  0.9118800E+02  0.7816164E-02  0.1184000E+00
        -11   -1    0    0    0    0  0.00000000000E+00  0.00000000000E+00  0.45593999997E+02  0.45594000000E+02  0.51100000000E-03 0. -1.
         11   -1    0    0    0    0 -0.00000000000E+00 -0.00000000000E+00 -0.45593999997E+02  0.45594000000E+02  0.51100000000E-03 0.  1.
         23    2    1    2    0    0 -0.44408920985E-15  0.00000000000E+00 -0.71054273576E-14  0.91188000000E+02  0.91188000000E+02 0.  0.
    9900012    2    3    3    0    0 -0.16294909110E+01 -0.21904157604E+02  0.34215749628E+02  0.50528869616E+02  0.30000029685E+02 0.  0.
        -12    1    3    3    0    0  0.16294909110E+01  0.21904157604E+02 -0.34215749628E+02  0.40659130384E+02  0.00000000000E+00 0.  1.
         11    1    4    4    0    0 -0.12995664333E+02 -0.14238853439E+02  0.13055004878E+02  0.23282297811E+02  0.51100000000E-03 0. -1.
        -11    1    4    4    0    0  0.69622764301E+01 -0.82919913913E+01  0.83128527384E+01  0.13650418867E+02  0.51100000000E-03 0.  1.
        -12    1    4    4    0    0  0.44038969917E+01  0.62668722654E+00  0.12847892012E+02  0.13596152939E+02  0.00000000000E+00 0.  1.
</event>
<event>
 8    1  0.1338956E-013  0.9118800E+02  0.7816164E-02  0.1184000E+00
        -11   -1    0    0    0    0  0.00000000000E+00  0.00000000000E+00  0.45593999997E+02  0.45594000000E+02  0.51100000000E-03 0. -1.
         11   -1    0    0    0    0 -0.00000000000E+00 -0.00000000000E+00 -0.45593999997E+02  0.45594000000E+02  0.51100000000E-03 0.  1.
         23    2    1    2    0    0  0.00000000000E+00  0.00000000000E+00  0.00000000000E+00  0.91188000000E+02  0.91188000000E+02 0.  0.
    9900012    2    3    3    0    0 -0.72136017501E+01  0.24463096264E+02  0.31665220420E+02  0.50528864332E+02  0.30000013623E+02 0.  0.
        -12    1    3    3    0    0  0.72136017501E+01 -0.24463096264E+02 -0.31665220420E+02  0.40659135668E+02  0.00000000000E+00 0.  1.
         11    1    4    4    0    0  0.20903473674E+01  0.64747845704E+01  0.15183240600E+02  0.16638004169E+02  0.51100000000E-03 0. -1.
        -11    1    4    4    0    0 -0.16799472173E+01 -0.38986824367E+01  0.82812139102E+01  0.93059363571E+01  0.51100000000E-03 0.  1.
        -12    1    4    4    0    0 -0.76240019003E+01  0.21886994130E+02  0.82007659099E+01  0.24584923806E+02  0.00000000000E+00 0.  1.
</event>
<event>
 8    1  0.1338956E-013  0.9118800E+02  0.7816164E-02  0.1184000E+00
        -11   -1    0    0    0    0  0.00000000000E+00  0.00000000000E+00  0.45593999997E+02  0.45594000000E+02  0.51100000000E-03 0. -1.
         11   -1    0    0    0    0 -0.00000000000E+00 -0.00000000000E+00 -0.45593999997E+02  0.45594000000E+02  0.51100000000E-03 0.  1.
         23    2    1    2    0    0  0.00000000000E+00  0.17763568394E-14  0.00000000000E+00  0.91188000000E+02  0.91188000000E+02 0.  0.
    9900012    2    3    3    0    0  0.29694862570E+02  0.76786359660E+01 -0.26691186301E+02  0.50528859091E+02  0.29999997693E+02 0.  0.
         12    1    3    3    0    0 -0.29694862570E+02 -0.76786359660E+01  0.26691186301E+02  0.40659140909E+02  0.00000000000E+00 0. -1.
         11    1    4    4    0    0  0.43428037047E+01  0.41115022073E+00  0.59381558334E+00  0.44024545120E+01  0.51100000000E-03 0. -1.
        -11    1    4    4    0    0  0.94002200035E+01  0.83020126051E+01  0.20604257476E+01  0.12709559549E+02  0.51100000000E-03 0.  1.
        -12    1    4    4    0    0  0.15951838861E+02 -0.10345268598E+01 -0.29345427631E+02  0.33416845030E+02  0.00000000000E+00 0.  1.
</event>
<event>
 8    1  0.1338956E-013  0.9118800E+02  0.7816164E-02  0.1184000E+00
        -11   -1    0    0    0    0  0.00000000000E+00  0.00000000000E+00  0.45593999997E+02  0.45594000000E+02  0.51100000000E-03 0. -1.
         11   -1    0    0    0    0 -0.00000000000E+00 -0.00000000000E+00 -0.45593999997E+02  0.45594000000E+02  0.51100000000E-03 0.  1.
         23    2    1    2    0    0  0.17763568394E-14 -0.35527136788E-14  0.00000000000E+00  0.91188000000E+02  0.91188000000E+02 0.  0.
    9900012    2    3    3    0    0 -0.12458373531E+02  0.25383167014E+02  0.29217281912E+02  0.50528858334E+02  0.29999995392E+02 0.  0.
        -12    1    3    3    0    0  0.12458373531E+02 -0.25383167014E+02 -0.29217281912E+02  0.40659141666E+02  0.00000000000E+00 0.  1.
         11    1    4    4    0    0 -0.59819829936E+01  0.17575867961E+02  0.20937177769E+01  0.18683653537E+02  0.51100000000E-03 0. -1.
        -11    1    4    4    0    0  0.33792893169E+01 -0.87563052553E+00  0.46479023581E+01  0.58128583069E+01  0.51100000000E-03 0.  1.
        -12    1    4    4    0    0 -0.98556798541E+01  0.86829295789E+01  0.22475661777E+02  0.26032346490E+02  0.00000000000E+00 0.  1.
</event>
<event>
 8    1  0.1338956E-013  0.9118800E+02  0.7816164E-02  0.1184000E+00
        -11   -1    0    0    0    0  0.00000000000E+00  0.00000000000E+00  0.45593999997E+02  0.45594000000E+02  0.51100000000E-03 0. -1.
         11   -1    0    0    0    0 -0.00000000000E+00 -0.00000000000E+00 -0.45593999997E+02  0.45594000000E+02  0.51100000000E-03 0.  1.
         23    2    1    2    0    0  0.00000000000E+00 -0.33306690739E-15  0.00000000000E+00  0.91188000000E+02  0.91188000000E+02 0.  0.
    9900012    2    3    3    0    0  0.53845412282E+01 -0.99548103641E+00 -0.40288733445E+02  0.50528852083E+02  0.29999976390E+02 0.  0.
         12    1    3    3    0    0 -0.53845412282E+01  0.99548103641E+00  0.40288733445E+02  0.40659147917E+02  0.00000000000E+00 0. -1.
         11    1    4    4    0    0 -0.55230556679E+01 -0.93829922715E+01 -0.10733277190E+02  0.15288817069E+02  0.51100000000E-03 0. -1.
        -11    1    4    4    0    0 -0.10351031472E+01  0.62322385906E+00  0.97330028338E+00  0.15515025642E+01  0.51100000000E-03 0.  1.
        -12    1    4    4    0    0  0.11942700043E+02  0.77642873760E+01 -0.30528756538E+02  0.33688532449E+02  0.00000000000E+00 0.  1.
</event>
<event>
 8    1  0.1338956E-013  0.9118800E+02  0.7816164E-02  0.1184000E+00
        -11   -1    0    0    0    0  0.00000000000E+00  0.00000000000E+00  0.45593999997E+02  0.45594000000E+02  0.51100000000E-03 0. -1.
         11   -1    0    0    0    0 -0.00000000000E+00 -0.00000000000E+00 -0.45593999997E+02  0.45594000000E+02  0.51100000000E-03 0.  1.
         23    2    1    2    0    0 -0.22204460493E-15  0.00000000000E+00 -0.71054273576E-14  0.91188000000E+02  0.91188000000E+02 0.  0.
    9900012    2    3    3    0    0  0.17428288156E+01 -0.10826829113E+02 -0.39152368985E+02  0.50528859846E+02  0.29999999988E+02 0.  0.
         12    1    3    3    0    0 -0.17428288156E+01  0.10826829113E+02  0.39152368985E+02  0.40659140154E+02  0.00000000000E+00 0. -1.
         11    1    4    4    0    0  0.91581691311E+01 -0.66902279535E+01 -0.10136849920E+02  0.15211408168E+02  0.51100000000E-03 0. -1.
        -11    1    4    4    0    0  0.36501464898E+01 -0.75307800622E+01 -0.14621800811E+02  0.16847352224E+02  0.51100000000E-03 0.  1.
         12    1    4    4    0    0 -0.11065486805E+02  0.33941789024E+01 -0.14393718254E+02  0.18470099454E+02  0.00000000000E+00 0. -1.
</event>
<event>
 8    1  0.1338956E-013  0.9118800E+02  0.7816164E-02  0.1184000E+00
        -11   -1    0    0    0    0  0.00000000000E+00  0.00000000000E+00  0.45593999997E+02  0.45594000000E+02  0.51100000000E-03 0. -1.
         11   -1    0    0    0    0 -0.00000000000E+00 -0.00000000000E+00 -0.45593999997E+02  0.45594000000E+02  0.51100000000E-03 0.  1.
         23    2    1    2    0    0  0.35527136788E-14 -0.17763568394E-14  0.00000000000E+00  0.91188000000E+02  0.91188000000E+02 0.  0.
    9900012    2    3    3    0    0 -0.26507485730E+02  0.15969334617E+02  0.26372309435E+02  0.50528866306E+02  0.30000019624E+02 0.  0.
        -12    1    3    3    0    0  0.26507485730E+02 -0.15969334617E+02 -0.26372309435E+02  0.40659133694E+02  0.00000000000E+00 0.  1.
         11    1    4    4    0    0 -0.11344102079E+02  0.44878532871E+01  0.38246074155E+01  0.12785034269E+02  0.51100000000E-03 0. -1.
        -11    1    4    4    0    0 -0.16837682629E+02 -0.13010179786E+01  0.93885609453E+01  0.19322144834E+02  0.51100000000E-03 0.  1.
         12    1    4    4    0    0  0.16742989780E+01  0.12782499308E+02  0.13159141074E+02  0.18421687204E+02  0.00000000000E+00 0. -1.
</event>
<event>
 8    1  0.1338956E-013  0.9118800E+02  0.7816164E-02  0.1184000E+00
        -11   -1    0    0    0    0  0.00000000000E+00  0.00000000000E+00  0.45593999997E+02  0.45594000000E+02  0.51100000000E-03 0. -1.
         11   -1    0    0    0    0 -0.00000000000E+00 -0.00000000000E+00 -0.45593999997E+02  0.45594000000E+02  0.51100000000E-03 0.  1.
         23    2    1    2    0    0  0.22204460493E-15  0.00000000000E+00 -0.17763568394E-14  0.91188000000E+02  0.91188000000E+02 0.  0.
    9900012    2    3    3    0    0 -0.12815392689E+01  0.39718007859E+02 -0.86025453257E+01  0.50528852477E+02  0.29999977590E+02 0.  0.
         12    1    3    3    0    0  0.12815392689E+01 -0.39718007859E+02  0.86025453257E+01  0.40659147523E+02  0.00000000000E+00 0. -1.
         11    1    4    4    0    0 -0.48963561412E+01  0.24743865484E+02 -0.52191259189E+01  0.25757959122E+02  0.51100000000E-03 0. -1.
        -11    1    4    4    0    0  0.20786791244E+01  0.37419558877E+01 -0.10531903768E+02  0.11368559187E+02  0.51100000000E-03 0.  1.
         12    1    4    4    0    0  0.15361377479E+01  0.11232186488E+02  0.71484843607E+01  0.13402334167E+02  0.00000000000E+00 0. -1.
</event>
<event>
 8    1  0.1338956E-013  0.9118800E+02  0.7816164E-02  0.1184000E+00
        -11   -1    0    0    0    0  0.00000000000E+00  0.00000000000E+00  0.45593999997E+02  0.45594000000E+02  0.51100000000E-03 0. -1.
         11   -1    0    0    0    0 -0.00000000000E+00 -0.00000000000E+00 -0.45593999997E+02  0.45594000000E+02  0.51100000000E-03 0.  1.
         23    2    1    2    0    0  0.00000000000E+00  0.35527136788E-14 -0.35527136788E-14  0.91188000000E+02  0.91188000000E+02 0.  0.
    9900012    2    3    3    0    0 -0.23209814960E+02  0.24066203768E+02  0.23136310173E+02  0.50528849460E+02  0.29999968417E+02 0.  0.
        -12    1    3    3    0    0  0.23209814960E+02 -0.24066203768E+02 -0.23136310173E+02  0.40659150540E+02  0.00000000000E+00 0.  1.
         11    1    4    4    0    0  0.28828430027E+01  0.76923700531E+01 -0.11708694262E+01  0.82978476900E+01  0.51100000000E-03 0. -1.
        -11    1    4    4    0    0 -0.32179787134E+01  0.86646623501E-01 -0.19691377925E+01  0.37736452594E+01  0.51100000000E-03 0.  1.
         12    1    4    4    0    0 -0.22874679249E+02  0.16287187092E+02  0.26276317391E+02  0.38457356510E+02  0.00000000000E+00 0. -1.
</event>
<event>
 8    1  0.1338956E-013  0.9118800E+02  0.7816164E-02  0.1184000E+00
        -11   -1    0    0    0    0  0.00000000000E+00  0.00000000000E+00  0.45593999997E+02  0.45594000000E+02  0.51100000000E-03 0. -1.
         11   -1    0    0    0    0 -0.00000000000E+00 -0.00000000000E+00 -0.45593999997E+02  0.45594000000E+02  0.51100000000E-03 0.  1.
         23    2    1    2    0    0  0.00000000000E+00  0.17763568394E-14  0.00000000000E+00  0.91188000000E+02  0.91188000000E+02 0.  0.
    9900012    2    3    3    0    0 -0.69814111847E+01  0.10540679166E+02 -0.38643488842E+02  0.50528865119E+02  0.30000016016E+02 0.  0.
         12    1    3    3    0    0  0.69814111847E+01 -0.10540679166E+02  0.38643488842E+02  0.40659134881E+02  0.00000000000E+00 0. -1.
         11    1    4    4    0    0 -0.69389325677E+01  0.11019688816E+01 -0.14346555595E+02  0.15974566608E+02  0.51100000000E-03 0. -1.
        -11    1    4    4    0    0 -0.10213316563E+02  0.10033174146E+02 -0.12953530303E+02  0.19307262008E+02  0.51100000000E-03 0.  1.
         12    1    4    4    0    0  0.10170837946E+02 -0.59446386159E+00 -0.11343402943E+02  0.15247036503E+02  0.00000000000E+00 0. -1.
</event>
<event>
 8    1  0.1338956E-013  0.9118800E+02  0.7816164E-02  0.1184000E+00
        -11   -1    0    0    0    0  0.00000000000E+00  0.00000000000E+00  0.45593999997E+02  0.45594000000E+02  0.51100000000E-03 0. -1.
         11   -1    0    0    0    0 -0.00000000000E+00 -0.00000000000E+00 -0.45593999997E+02  0.45594000000E+02  0.51100000000E-03 0.  1.
         23    2    1    2    0    0  0.88817841970E-15  0.35527136788E-14  0.00000000000E+00  0.91188000000E+02  0.91188000000E+02 0.  0.
    9900012    2    3    3    0    0  0.75059170062E+01  0.16929392106E+02  0.36197009346E+02  0.50528848597E+02  0.29999965795E+02 0.  0.
        -12    1    3    3    0    0 -0.75059170062E+01 -0.16929392106E+02 -0.36197009346E+02  0.40659151403E+02  0.00000000000E+00 0.  1.
         11    1    4    4    0    0 -0.12697105539E+00  0.19059803896E+02  0.10549065149E+02  0.21784742872E+02  0.51100000000E-03 0. -1.
        -11    1    4    4    0    0 -0.17799746409E+01  0.14438057091E+01  0.19997491179E+01  0.30416905568E+01  0.51100000000E-03 0.  1.
        -12    1    4    4    0    0  0.94128627025E+01 -0.35742174987E+01  0.23648195079E+02  0.25702415168E+02  0.00000000000E+00 0.  1.
</event>
<event>
 8    1  0.1338956E-013  0.9118800E+02  0.7816164E-02  0.1184000E+00
        -11   -1    0    0    0    0  0.00000000000E+00  0.00000000000E+00  0.45593999997E+02  0.45594000000E+02  0.51100000000E-03 0. -1.
         11   -1    0    0    0    0 -0.00000000000E+00 -0.00000000000E+00 -0.45593999997E+02  0.45594000000E+02  0.51100000000E-03 0.  1.
         23    2    1    2    0    0  0.00000000000E+00  0.00000000000E+00  0.00000000000E+00  0.91188000000E+02  0.91188000000E+02 0.  0.
    9900012    2    3    3    0    0 -0.33933866620E+02  0.11959973890E+02  0.18937202576E+02  0.50528856863E+02  0.29999990922E+02 0.  0.
        -12    1    3    3    0    0  0.33933866620E+02 -0.11959973890E+02 -0.18937202576E+02  0.40659143137E+02  0.00000000000E+00 0.  1.
         11    1    4    4    0    0 -0.28265426313E+02 -0.22772930951E+01  0.12027328138E+02  0.30802224123E+02  0.51100000000E-03 0. -1.
        -11    1    4    4    0    0 -0.38826809208E+01  0.62604282460E+00  0.41624642842E+01  0.57265390883E+01  0.51100000000E-03 0.  1.
        -12    1    4    4    0    0 -0.17857593856E+01  0.13611224160E+02  0.27474101531E+01  0.14000093652E+02  0.00000000000E+00 0.  1.
</event>
<event>
 8    1  0.1338956E-013  0.9118800E+02  0.7816164E-02  0.1184000E+00
        -11   -1    0    0    0    0  0.00000000000E+00  0.00000000000E+00  0.45593999997E+02  0.45594000000E+02  0.51100000000E-03 0. -1.
         11   -1    0    0    0    0 -0.00000000000E+00 -0.00000000000E+00 -0.45593999997E+02  0.45594000000E+02  0.51100000000E-03 0.  1.
         23    2    1    2    0    0  0.00000000000E+00  0.35527136788E-14 -0.71054273576E-14  0.91188000000E+02  0.91188000000E+02 0.  0.
    9900012    2    3    3    0    0  0.37014069249E+01 -0.17042535415E+02  0.36728970907E+02  0.50528859201E+02  0.29999998027E+02 0.  0.
        -12    1    3    3    0    0 -0.37014069249E+01  0.17042535415E+02 -0.36728970907E+02  0.40659140799E+02  0.00000000000E+00 0.  1.
         11    1    4    4    0    0  0.12955058157E+02 -0.10734251403E+02  0.25641818450E+02  0.30668559449E+02  0.51100000000E-03 0. -1.
        -11    1    4    4    0    0 -0.49574325056E+00 -0.66744942966E+01  0.82999912200E+01  0.10662292905E+02  0.51100000000E-03 0.  1.
        -12    1    4    4    0    0 -0.87579079812E+01  0.36621028399E+00  0.27871612376E+01  0.91980068462E+01  0.00000000000E+00 0.  1.
</event>
<event>
 8    1  0.1338956E-013  0.9118800E+02  0.7816164E-02  0.1184000E+00
        -11   -1    0    0    0    0  0.00000000000E+00  0.00000000000E+00  0.45593999997E+02  0.45594000000E+02  0.51100000000E-03 0. -1.
         11   -1    0    0    0    0 -0.00000000000E+00 -0.00000000000E+00 -0.45593999997E+02  0.45594000000E+02  0.51100000000E-03 0.  1.
         23    2    1    2    0    0 -0.88817841970E-15  0.00000000000E+00  0.00000000000E+00  0.91188000000E+02  0.91188000000E+02 0.  0.
    9900012    2    3    3    0    0 -0.77644892240E+01  0.85357517039E+01 -0.38987425992E+02  0.50528859139E+02  0.29999997839E+02 0.  0.
         12    1    3    3    0    0  0.77644892240E+01 -0.85357517039E+01  0.38987425992E+02  0.40659140861E+02  0.00000000000E+00 0. -1.
         11    1    4    4    0    0 -0.91312847119E+01 -0.21881667995E+01 -0.19304599593E+02  0.21467091097E+02  0.51100000000E-03 0. -1.
        -11    1    4    4    0    0 -0.12570746740E+01 -0.47307635825E+00 -0.17255980166E+02  0.17308174073E+02  0.51100000000E-03 0.  1.
        -12    1    4    4    0    0  0.26238701619E+01  0.11196994862E+02 -0.24268462324E+01  0.11753593969E+02  0.00000000000E+00 0.  1.
</event>
<event>
 8    1  0.1338956E-013  0.9118800E+02  0.7816164E-02  0.1184000E+00
        -11   -1    0    0    0    0  0.00000000000E+00  0.00000000000E+00  0.45593999997E+02  0.45594000000E+02  0.51100000000E-03 0. -1.
         11   -1    0    0    0    0 -0.00000000000E+00 -0.00000000000E+00 -0.45593999997E+02  0.45594000000E+02  0.51100000000E-03 0.  1.
         23    2    1    2    0    0  0.00000000000E+00  0.00000000000E+00  0.00000000000E+00  0.91188000000E+02  0.91188000000E+02 0.  0.
    9900012    2    3    3    0    0  0.25690271506E+02  0.11204117782E+02  0.29455798547E+02  0.50528851295E+02  0.29999973997E+02 0.  0.
        -12    1    3    3    0    0 -0.25690271506E+02 -0.11204117782E+02 -0.29455798547E+02  0.40659148705E+02  0.00000000000E+00 0.  1.
         11    1    4    4    0    0  0.12116804297E+02  0.26260279481E+01  0.81163836182E+01  0.14818523963E+02  0.51100000000E-03 0. -1.
        -11    1    4    4    0    0  0.74230937889E+01  0.11293887679E+02  0.18821206671E+00  0.13516273316E+02  0.51100000000E-03 0.  1.
         12    1    4    4    0    0  0.61503734207E+01 -0.27157978451E+01  0.21151202862E+02  0.22194054016E+02  0.00000000000E+00 0. -1.
</event>
<event>
 8    1  0.1338956E-013  0.9118800E+02  0.7816164E-02  0.1184000E+00
        -11   -1    0    0    0    0  0.00000000000E+00  0.00000000000E+00  0.45593999997E+02  0.45594000000E+02  0.51100000000E-03 0. -1.
         11   -1    0    0    0    0 -0.00000000000E+00 -0.00000000000E+00 -0.45593999997E+02  0.45594000000E+02  0.51100000000E-03 0.  1.
         23    2    1    2    0    0  0.00000000000E+00  0.44408920985E-15  0.00000000000E+00  0.91188000000E+02  0.91188000000E+02 0.  0.
    9900012    2    3    3    0    0 -0.62735076862E+01 -0.35885447530E+01  0.40011630700E+02  0.50528866421E+02  0.30000019974E+02 0.  0.
        -12    1    3    3    0    0  0.62735076862E+01  0.35885447530E+01 -0.40011630700E+02  0.40659133579E+02  0.00000000000E+00 0.  1.
         11    1    4    4    0    0 -0.65959186537E+01  0.10692416192E+01  0.29150696040E+02  0.29906730018E+02  0.51100000000E-03 0. -1.
        -11    1    4    4    0    0 -0.51369260228E+01 -0.58497902280E+01  0.12563959329E+02  0.14780430608E+02  0.51100000000E-03 0.  1.
        -12    1    4    4    0    0  0.54593369903E+01  0.11920038559E+01 -0.17030246694E+01  0.58417057946E+01  0.00000000000E+00 0.  1.
</event>
<event>
 8    1  0.1338956E-013  0.9118800E+02  0.7816164E-02  0.1184000E+00
        -11   -1    0    0    0    0  0.00000000000E+00  0.00000000000E+00  0.45593999997E+02  0.45594000000E+02  0.51100000000E-03 0. -1.
         11   -1    0    0    0    0 -0.00000000000E+00 -0.00000000000E+00 -0.45593999997E+02  0.45594000000E+02  0.51100000000E-03 0.  1.
         23    2    1    2    0    0  0.00000000000E+00  0.88817841970E-15 -0.35527136788E-14  0.91188000000E+02  0.91188000000E+02 0.  0.
    9900012    2    3    3    0    0 -0.39045884552E+02  0.73069497010E+01 -0.86713857995E+01  0.50528861469E+02  0.30000004922E+02 0.  0.
         12    1    3    3    0    0  0.39045884552E+02 -0.73069497010E+01  0.86713857995E+01  0.40659138531E+02  0.00000000000E+00 0. -1.
         11    1    4    4    0    0 -0.88408057301E+01  0.31397220297E+01  0.43795841021E+00  0.93919917064E+01  0.51100000000E-03 0. -1.
        -11    1    4    4    0    0 -0.13826309382E+02  0.14591964468E+02 -0.81711020830E+01  0.21699289566E+02  0.51100000000E-03 0.  1.
        -12    1    4    4    0    0 -0.16378769440E+02 -0.10424736796E+02 -0.93824212665E+00  0.19437580197E+02  0.00000000000E+00 0.  1.
</event>
<event>
 8    1  0.1338956E-013  0.9118800E+02  0.7816164E-02  0.1184000E+00
        -11   -1    0    0    0    0  0.00000000000E+00  0.00000000000E+00  0.45593999997E+02  0.45594000000E+02  0.51100000000E-03 0.  1.
         11   -1    0    0    0    0 -0.00000000000E+00 -0.00000000000E+00 -0.45593999997E+02  0.45594000000E+02  0.51100000000E-03 0. -1.
         23    2    1    2    0    0 -0.71054273576E-14  0.00000000000E+00  0.00000000000E+00  0.91188000000E+02  0.91188000000E+02 0.  0.
    9900012    2    3    3    0    0  0.32027436294E+02 -0.10882296658E+02  0.22560678401E+02  0.50528864913E+02  0.30000015389E+02 0.  0.
        -12    1    3    3    0    0 -0.32027436294E+02  0.10882296658E+02 -0.22560678401E+02  0.40659135087E+02  0.00000000000E+00 0.  1.
         11    1    4    4    0    0  0.70583048925E+01 -0.28043731694E+01 -0.66656854993E+01  0.10105223415E+02  0.51100000000E-03 0. -1.
        -11    1    4    4    0    0  0.12416947165E+02  0.96765879232E+00  0.13056542224E+02  0.18044119140E+02  0.51100000000E-03 0.  1.
        -12    1    4    4    0    0  0.12552184237E+02 -0.90455822806E+01  0.16169821677E+02  0.22379522358E+02  0.00000000000E+00 0.  1.
</event>
<event>
 8    1  0.1338956E-013  0.9118800E+02  0.7816164E-02  0.1184000E+00
        -11   -1    0    0    0    0  0.00000000000E+00  0.00000000000E+00  0.45593999997E+02  0.45594000000E+02  0.51100000000E-03 0. -1.
         11   -1    0    0    0    0 -0.00000000000E+00 -0.00000000000E+00 -0.45593999997E+02  0.45594000000E+02  0.51100000000E-03 0.  1.
         23    2    1    2    0    0 -0.17763568394E-14  0.00000000000E+00  0.00000000000E+00  0.91188000000E+02  0.91188000000E+02 0.  0.
    9900012    2    3    3    0    0  0.11089395023E+02 -0.18099582808E+02  0.34678488845E+02  0.50528841519E+02  0.29999944282E+02 0.  0.
        -12    1    3    3    0    0 -0.11089395023E+02  0.18099582808E+02 -0.34678488845E+02  0.40659158481E+02  0.00000000000E+00 0.  1.
         11    1    4    4    0    0  0.11042449054E+02 -0.18181197772E+02  0.31067674071E+02  0.37652251009E+02  0.51100000000E-03 0. -1.
        -11    1    4    4    0    0  0.29014039910E+01  0.94176355475E-01  0.75058024748E+01  0.80476136436E+01  0.51100000000E-03 0.  1.
        -12    1    4    4    0    0 -0.28544580219E+01 -0.12561391493E-01 -0.38949877017E+01  0.48289768671E+01  0.00000000000E+00 0.  1.
</event>
<event>
 8    1  0.1338956E-013  0.9118800E+02  0.7816164E-02  0.1184000E+00
        -11   -1    0    0    0    0  0.00000000000E+00  0.00000000000E+00  0.45593999997E+02  0.45594000000E+02  0.51100000000E-03 0. -1.
         11   -1    0    0    0    0 -0.00000000000E+00 -0.00000000000E+00 -0.45593999997E+02  0.45594000000E+02  0.51100000000E-03 0.  1.
         23    2    1    2    0    0 -0.35527136788E-14 -0.71054273576E-14  0.00000000000E+00  0.91188000000E+02  0.91188000000E+02 0.  0.
    9900012    2    3    3    0    0  0.12733604784E+02  0.32441693354E+02 -0.20941771782E+02  0.50528856331E+02  0.29999989304E+02 0.  0.
         12    1    3    3    0    0 -0.12733604784E+02 -0.32441693354E+02  0.20941771782E+02  0.40659143669E+02  0.00000000000E+00 0. -1.
         11    1    4    4    0    0  0.22684711344E+01  0.10376050269E+02 -0.10942238641E+02  0.15249293991E+02  0.51100000000E-03 0. -1.
        -11    1    4    4    0    0  0.78711711664E+01 -0.19651779877E+01 -0.73805517583E+01  0.10967670882E+02  0.51100000000E-03 0.  1.
         12    1    4    4    0    0  0.25939624836E+01  0.24030821073E+02 -0.26189813827E+01  0.24311891458E+02  0.00000000000E+00 0. -1.
</event>
<event>
 8    1  0.1338956E-013  0.9118800E+02  0.7816164E-02  0.1184000E+00
        -11   -1    0    0    0    0  0.00000000000E+00  0.00000000000E+00  0.45593999997E+02  0.45594000000E+02  0.51100000000E-03 0. -1.
         11   -1    0    0    0    0 -0.00000000000E+00 -0.00000000000E+00 -0.45593999997E+02  0.45594000000E+02  0.51100000000E-03 0.  1.
         23    2    1    2    0    0 -0.35527136788E-14  0.13322676296E-14  0.00000000000E+00  0.91188000000E+02  0.91188000000E+02 0.  0.
    9900012    2    3    3    0    0 -0.23254959491E+02 -0.26571797570E+00  0.33351188937E+02  0.50528861415E+02  0.30000004757E+02 0.  0.
        -12    1    3    3    0    0  0.23254959491E+02  0.26571797570E+00 -0.33351188937E+02  0.40659138585E+02  0.00000000000E+00 0.  1.
         11    1    4    4    0    0 -0.51746852393E+01 -0.68896400217E+01  0.10825030066E+02  0.13835670679E+02  0.51100000000E-03 0. -1.
        -11    1    4    4    0    0 -0.60531353027E+01 -0.77907332065E+01  0.10449073297E+02  0.14370772558E+02  0.51100000000E-03 0.  1.
         12    1    4    4    0    0 -0.12027138949E+02  0.14414655253E+02  0.12077085574E+02  0.22322418178E+02  0.00000000000E+00 0. -1.
</event>
<event>
 8    1  0.1338956E-013  0.9118800E+02  0.7816164E-02  0.1184000E+00
        -11   -1    0    0    0    0  0.00000000000E+00  0.00000000000E+00  0.45593999997E+02  0.45594000000E+02  0.51100000000E-03 0.  1.
         11   -1    0    0    0    0 -0.00000000000E+00 -0.00000000000E+00 -0.45593999997E+02  0.45594000000E+02  0.51100000000E-03 0. -1.
         23    2    1    2    0    0  0.00000000000E+00  0.11102230246E-14  0.00000000000E+00  0.91188000000E+02  0.91188000000E+02 0.  0.
    9900012    2    3    3    0    0 -0.37025805801E+02 -0.11824609218E+01  0.16758809680E+02  0.50528853293E+02  0.29999980069E+02 0.  0.
        -12    1    3    3    0    0  0.37025805801E+02  0.11824609218E+01 -0.16758809680E+02  0.40659146707E+02  0.00000000000E+00 0.  1.
         11    1    4    4    0    0 -0.21996503696E+02  0.91697975602E+01  0.49180222157E+01  0.24333481151E+02  0.51100000000E-03 0. -1.
        -11    1    4    4    0    0 -0.14257965923E+02 -0.17125875391E+01  0.52067369741E+01  0.15275230228E+02  0.51100000000E-03 0.  1.
        -12    1    4    4    0    0 -0.77133618206E+00 -0.86396709430E+01  0.66340504906E+01  0.10920141914E+02  0.00000000000E+00 0.  1.
</event>
<event>
 8    1  0.1338956E-013  0.9118800E+02  0.7816164E-02  0.1184000E+00
        -11   -1    0    0    0    0  0.00000000000E+00  0.00000000000E+00  0.45593999997E+02  0.45594000000E+02  0.51100000000E-03 0. -1.
         11   -1    0    0    0    0 -0.00000000000E+00 -0.00000000000E+00 -0.45593999997E+02  0.45594000000E+02  0.51100000000E-03 0.  1.
         23    2    1    2    0    0  0.00000000000E+00  0.99920072216E-15  0.00000000000E+00  0.91188000000E+02  0.91188000000E+02 0.  0.
    9900012    2    3    3    0    0  0.24740720480E+02  0.12347430443E+00 -0.32265242064E+02  0.50528876286E+02  0.30000049958E+02 0.  0.
         12    1    3    3    0    0 -0.24740720480E+02 -0.12347430443E+00  0.32265242064E+02  0.40659123714E+02  0.00000000000E+00 0. -1.
         11    1    4    4    0    0  0.14698267789E+01  0.33938582105E+01 -0.28082325341E+01  0.46437952733E+01  0.51100000000E-03 0. -1.
        -11    1    4    4    0    0  0.15424002657E+01  0.90891136653E+01 -0.35352159548E+01  0.98736385344E+01  0.51100000000E-03 0.  1.
        -12    1    4    4    0    0  0.21728493435E+02 -0.12359497571E+02 -0.25921793575E+02  0.36011442478E+02  0.00000000000E+00 0.  1.
</event>
<event>
 8    1  0.1338956E-013  0.9118800E+02  0.7816164E-02  0.1184000E+00
        -11   -1    0    0    0    0  0.00000000000E+00  0.00000000000E+00  0.45593999997E+02  0.45594000000E+02  0.51100000000E-03 0. -1.
         11   -1    0    0    0    0 -0.00000000000E+00 -0.00000000000E+00 -0.45593999997E+02  0.45594000000E+02  0.51100000000E-03 0.  1.
         23    2    1    2    0    0  0.00000000000E+00  0.00000000000E+00  0.00000000000E+00  0.91188000000E+02  0.91188000000E+02 0.  0.
    9900012    2    3    3    0    0 -0.17673095361E+02 -0.31152606212E+02  0.19244256421E+02  0.50528873366E+02  0.30000041083E+02 0.  0.
        -12    1    3    3    0    0  0.17673095361E+02  0.31152606212E+02 -0.19244256421E+02  0.40659126634E+02  0.00000000000E+00 0.  1.
         11    1    4    4    0    0 -0.10966680937E+01 -0.50715158528E+00 -0.16619584321E+00  0.12196331242E+01  0.51100000000E-03 0. -1.
        -11    1    4    4    0    0 -0.19872857805E+02 -0.29809198563E+02  0.70809304554E+01  0.36519287680E+02  0.51100000000E-03 0.  1.
        -12    1    4    4    0    0  0.32964305370E+01 -0.83625606369E+00  0.12329521809E+02  0.12789952561E+02  0.00000000000E+00 0.  1.
</event>
<event>
 8    1  0.1338956E-013  0.9118800E+02  0.7816164E-02  0.1184000E+00
        -11   -1    0    0    0    0  0.00000000000E+00  0.00000000000E+00  0.45593999997E+02  0.45594000000E+02  0.51100000000E-03 0. -1.
         11   -1    0    0    0    0 -0.00000000000E+00 -0.00000000000E+00 -0.45593999997E+02  0.45594000000E+02  0.51100000000E-03 0.  1.
         23    2    1    2    0    0  0.22204460493E-15 -0.35527136788E-14  0.35527136788E-14  0.91188000000E+02  0.91188000000E+02 0.  0.
    9900012    2    3    3    0    0  0.18017743492E+01 -0.26453896594E+02  0.30823865798E+02  0.50528859102E+02  0.29999997726E+02 0.  0.
        -12    1    3    3    0    0 -0.18017743492E+01  0.26453896594E+02 -0.30823865798E+02  0.40659140898E+02  0.00000000000E+00 0.  1.
         11    1    4    4    0    0  0.27464255028E+00 -0.20312369427E+02  0.25981084933E+02  0.32980062990E+02  0.51100000000E-03 0. -1.
        -11    1    4    4    0    0  0.37456939833E+01 -0.10481699551E+02  0.58454413104E+01  0.12572407616E+02  0.51100000000E-03 0.  1.
         12    1    4    4    0    0 -0.22185621844E+01  0.43401723841E+01 -0.10026604453E+01  0.49763884955E+01  0.00000000000E+00 0. -1.
</event>
<event>
 8    1  0.1338956E-013  0.9118800E+02  0.7816164E-02  0.1184000E+00
        -11   -1    0    0    0    0  0.00000000000E+00  0.00000000000E+00  0.45593999997E+02  0.45594000000E+02  0.51100000000E-03 0. -1.
         11   -1    0    0    0    0 -0.00000000000E+00 -0.00000000000E+00 -0.45593999997E+02  0.45594000000E+02  0.51100000000E-03 0.  1.
         23    2    1    2    0    0 -0.17763568394E-14  0.71054273576E-14  0.35527136788E-14  0.91188000000E+02  0.91188000000E+02 0.  0.
    9900012    2    3    3    0    0 -0.84499520950E+01 -0.24162939917E+02  0.31589821960E+02  0.50528853338E+02  0.29999980206E+02 0.  0.
        -12    1    3    3    0    0  0.84499520950E+01  0.24162939917E+02 -0.31589821960E+02  0.40659146662E+02  0.00000000000E+00 0.  1.
         11    1    4    4    0    0  0.45610459381E+00 -0.20295606236E+02  0.30444368822E+02  0.36592065494E+02  0.51100000000E-03 0. -1.
        -11    1    4    4    0    0 -0.35357161694E+01  0.31483736554E+01  0.18287188364E+01  0.50752101778E+01  0.51100000000E-03 0.  1.
        -12    1    4    4    0    0 -0.53703405193E+01 -0.70157073359E+01 -0.68326569843E+00  0.88615776660E+01  0.00000000000E+00 0.  1.
</event>
<event>
 8    1  0.1338956E-013  0.9118800E+02  0.7816164E-02  0.1184000E+00
        -11   -1    0    0    0    0  0.00000000000E+00  0.00000000000E+00  0.45593999997E+02  0.45594000000E+02  0.51100000000E-03 0. -1.
         11   -1    0    0    0    0 -0.00000000000E+00 -0.00000000000E+00 -0.45593999997E+02  0.45594000000E+02  0.51100000000E-03 0.  1.
         23    2    1    2    0    0  0.00000000000E+00  0.35527136788E-14  0.71054273576E-14  0.91188000000E+02  0.91188000000E+02 0.  0.
    9900012    2    3    3    0    0  0.13708479315E+02  0.14676299539E+02  0.35353227437E+02  0.50528845269E+02  0.29999955679E+02 0.  0.
        -12    1    3    3    0    0 -0.13708479315E+02 -0.14676299539E+02 -0.35353227437E+02  0.40659154731E+02  0.00000000000E+00 0.  1.
         11    1    4    4    0    0 -0.23556148027E+01 -0.13982395506E+01  0.31270759363E+01  0.41572345510E+01  0.51100000000E-03 0. -1.
        -11    1    4    4    0    0 -0.46981255553E+01  0.10651590137E+02  0.14075278442E+02  0.18265875825E+02  0.51100000000E-03 0.  1.
         12    1    4    4    0    0  0.20762219673E+02  0.54229489535E+01  0.18150873058E+02  0.28105734893E+02  0.00000000000E+00 0. -1.
</event>
<event>
 8    1  0.1338956E-013  0.9118800E+02  0.7816164E-02  0.1184000E+00
        -11   -1    0    0    0    0  0.00000000000E+00  0.00000000000E+00  0.45593999997E+02  0.45594000000E+02  0.51100000000E-03 0. -1.
         11   -1    0    0    0    0 -0.00000000000E+00 -0.00000000000E+00 -0.45593999997E+02  0.45594000000E+02  0.51100000000E-03 0.  1.
         23    2    1    2    0    0  0.00000000000E+00  0.44408920985E-15  0.00000000000E+00  0.91188000000E+02  0.91188000000E+02 0.  0.
    9900012    2    3    3    0    0  0.15190911220E+02  0.35449194830E+01  0.37547762088E+02  0.50528872173E+02  0.30000037457E+02 0.  0.
        -12    1    3    3    0    0 -0.15190911220E+02 -0.35449194830E+01 -0.37547762088E+02  0.40659127827E+02  0.00000000000E+00 0.  1.
         11    1    4    4    0    0  0.58058649745E+01  0.22126050627E+01  0.91033383826E+01  0.11021545229E+02  0.51100000000E-03 0. -1.
        -11    1    4    4    0    0  0.11659095032E+02  0.10627029102E+02  0.98580805119E+01  0.18602419094E+02  0.51100000000E-03 0.  1.
        -12    1    4    4    0    0 -0.22740487866E+01 -0.92947146820E+01  0.18586343194E+02  0.20904907850E+02  0.00000000000E+00 0.  1.
</event>
<event>
 8    1  0.1338956E-013  0.9118800E+02  0.7816164E-02  0.1184000E+00
        -11   -1    0    0    0    0  0.00000000000E+00  0.00000000000E+00  0.45593999997E+02  0.45594000000E+02  0.51100000000E-03 0.  1.
         11   -1    0    0    0    0 -0.00000000000E+00 -0.00000000000E+00 -0.45593999997E+02  0.45594000000E+02  0.51100000000E-03 0. -1.
         23    2    1    2    0    0  0.00000000000E+00  0.00000000000E+00  0.00000000000E+00  0.91188000000E+02  0.91188000000E+02 0.  0.
    9900012    2    3    3    0    0  0.25076205585E+02  0.16289748662E+02 -0.27549841818E+02  0.50528858565E+02  0.29999996093E+02 0.  0.
         12    1    3    3    0    0 -0.25076205585E+02 -0.16289748662E+02  0.27549841818E+02  0.40659141435E+02  0.00000000000E+00 0. -1.
         11    1    4    4    0    0 -0.14143978988E+01 -0.28515264725E+01 -0.97633283238E+01  0.10269094647E+02  0.51100000000E-03 0. -1.
        -11    1    4    4    0    0  0.24058126206E+01 -0.23764167799E+01 -0.37354534511E+01  0.50387403013E+01  0.51100000000E-03 0.  1.
        -12    1    4    4    0    0  0.24084790863E+02  0.21517691915E+02 -0.14051060043E+02  0.35221023617E+02  0.00000000000E+00 0.  1.
</event>
<event>
 8    1  0.1338956E-013  0.9118800E+02  0.7816164E-02  0.1184000E+00
        -11   -1    0    0    0    0  0.00000000000E+00  0.00000000000E+00  0.45593999997E+02  0.45594000000E+02  0.51100000000E-03 0. -1.
         11   -1    0    0    0    0 -0.00000000000E+00 -0.00000000000E+00 -0.45593999997E+02  0.45594000000E+02  0.51100000000E-03 0.  1.
         23    2    1    2    0    0 -0.71054273576E-14  0.00000000000E+00  0.00000000000E+00  0.91188000000E+02  0.91188000000E+02 0.  0.
    9900012    2    3    3    0    0  0.35632484333E+02 -0.10028674166E+02  0.16820101329E+02  0.50528879817E+02  0.30000060693E+02 0.  0.
        -12    1    3    3    0    0 -0.35632484333E+02  0.10028674166E+02 -0.16820101329E+02  0.40659120183E+02  0.00000000000E+00 0.  1.
         11    1    4    4    0    0  0.83833635357E+01 -0.97722383383E+01  0.15664832022E+01  0.12970400772E+02  0.51100000000E-03 0. -1.
        -11    1    4    4    0    0  0.13558966025E+01 -0.10567430784E+01 -0.46060522030E+01  0.49163887853E+01  0.51100000000E-03 0.  1.
         12    1    4    4    0    0  0.25893224195E+02  0.80030725087E+00  0.19859670330E+02  0.32642090260E+02  0.00000000000E+00 0. -1.
</event>
<event>
 8    1  0.1338956E-013  0.9118800E+02  0.7816164E-02  0.1184000E+00
        -11   -1    0    0    0    0  0.00000000000E+00  0.00000000000E+00  0.45593999997E+02  0.45594000000E+02  0.51100000000E-03 0. -1.
         11   -1    0    0    0    0 -0.00000000000E+00 -0.00000000000E+00 -0.45593999997E+02  0.45594000000E+02  0.51100000000E-03 0.  1.
         23    2    1    2    0    0 -0.35527136788E-14  0.88817841970E-15  0.00000000000E+00  0.91188000000E+02  0.91188000000E+02 0.  0.
    9900012    2    3    3    0    0 -0.23299346015E+02  0.77813648584E+01 -0.32399962845E+02  0.50528846588E+02  0.29999959689E+02 0.  0.
         12    1    3    3    0    0  0.23299346015E+02 -0.77813648584E+01  0.32399962845E+02  0.40659153412E+02  0.00000000000E+00 0. -1.
         11    1    4    4    0    0 -0.95696788127E+01  0.10203789818E+02 -0.10535148399E+02  0.17512436475E+02  0.51100000000E-03 0. -1.
        -11    1    4    4    0    0 -0.56532904589E+01  0.65745652187E+01 -0.18555445343E+02  0.20481434348E+02  0.51100000000E-03 0.  1.
         12    1    4    4    0    0 -0.80763767434E+01 -0.89969901782E+01 -0.33093691033E+01  0.12534975765E+02  0.00000000000E+00 0. -1.
</event>
<event>
 8    1  0.1338956E-013  0.9118800E+02  0.7816164E-02  0.1184000E+00
        -11   -1    0    0    0    0  0.00000000000E+00  0.00000000000E+00  0.45593999997E+02  0.45594000000E+02  0.51100000000E-03 0. -1.
         11   -1    0    0    0    0 -0.00000000000E+00 -0.00000000000E+00 -0.45593999997E+02  0.45594000000E+02  0.51100000000E-03 0.  1.
         23    2    1    2    0    0  0.00000000000E+00  0.13322676296E-14 -0.17763568394E-14  0.91188000000E+02  0.91188000000E+02 0.  0.
    9900012    2    3    3    0    0 -0.37540729257E+02  0.39688093096E+01  0.15103232984E+02  0.50528862687E+02  0.30000008624E+02 0.  0.
        -12    1    3    3    0    0  0.37540729257E+02 -0.39688093096E+01 -0.15103232984E+02  0.40659137313E+02  0.00000000000E+00 0.  1.
         11    1    4    4    0    0 -0.18648157045E+02 -0.41402268933E+01  0.97991586867E+01  0.21469018402E+02  0.51100000000E-03 0. -1.
        -11    1    4    4    0    0 -0.87487731353E+01 -0.77232414931E+00  0.11293722916E+02  0.14306840795E+02  0.51100000000E-03 0.  1.
        -12    1    4    4    0    0 -0.10143799076E+02  0.88813603522E+01 -0.59896486189E+01  0.14753003490E+02  0.00000000000E+00 0.  1.
</event>
<event>
 8    1  0.1338956E-013  0.9118800E+02  0.7816164E-02  0.1184000E+00
        -11   -1    0    0    0    0  0.00000000000E+00  0.00000000000E+00  0.45593999997E+02  0.45594000000E+02  0.51100000000E-03 0. -1.
         11   -1    0    0    0    0 -0.00000000000E+00 -0.00000000000E+00 -0.45593999997E+02  0.45594000000E+02  0.51100000000E-03 0.  1.
         23    2    1    2    0    0  0.17763568394E-14  0.35527136788E-14  0.00000000000E+00  0.91188000000E+02  0.91188000000E+02 0.  0.
    9900012    2    3    3    0    0  0.13433547208E+02  0.25879822971E+02  0.28336197237E+02  0.50528862017E+02  0.30000006588E+02 0.  0.
        -12    1    3    3    0    0 -0.13433547208E+02 -0.25879822971E+02 -0.28336197237E+02  0.40659137983E+02  0.00000000000E+00 0.  1.
         11    1    4    4    0    0 -0.19196714614E+01  0.21330945805E+01  0.23546171425E+01  0.37120685821E+01  0.51100000000E-03 0. -1.
        -11    1    4    4    0    0 -0.27321199346E+01 -0.45209705694E+01  0.47675002947E+01  0.71156667676E+01  0.51100000000E-03 0.  1.
         12    1    4    4    0    0  0.18085338604E+02  0.28267698960E+02  0.21214079800E+02  0.39701126668E+02  0.00000000000E+00 0. -1.
</event>
<event>
 8    1  0.1338956E-013  0.9118800E+02  0.7816164E-02  0.1184000E+00
        -11   -1    0    0    0    0  0.00000000000E+00  0.00000000000E+00  0.45593999997E+02  0.45594000000E+02  0.51100000000E-03 0. -1.
         11   -1    0    0    0    0 -0.00000000000E+00 -0.00000000000E+00 -0.45593999997E+02  0.45594000000E+02  0.51100000000E-03 0.  1.
         23    2    1    2    0    0  0.00000000000E+00 -0.35527136788E-14  0.00000000000E+00  0.91188000000E+02  0.91188000000E+02 0.  0.
    9900012    2    3    3    0    0 -0.43472479444E+01  0.22249960389E+02 -0.33752132010E+02  0.50528859365E+02  0.29999998526E+02 0.  0.
         12    1    3    3    0    0  0.43472479444E+01 -0.22249960389E+02  0.33752132010E+02  0.40659140635E+02  0.00000000000E+00 0. -1.
         11    1    4    4    0    0  0.45788183871E+01 -0.13738299091E+01  0.47851258896E+00  0.48043689492E+01  0.51100000000E-03 0. -1.
        -11    1    4    4    0    0 -0.12335183457E+02  0.14379710802E+02 -0.15180060129E+02  0.24276883231E+02  0.51100000000E-03 0.  1.
         12    1    4    4    0    0  0.34091171251E+01  0.92440794960E+01 -0.19050584470E+02  0.21447607184E+02  0.00000000000E+00 0. -1.
</event>
<event>
 8    1  0.1338956E-013  0.9118800E+02  0.7816164E-02  0.1184000E+00
        -11   -1    0    0    0    0  0.00000000000E+00  0.00000000000E+00  0.45593999997E+02  0.45594000000E+02  0.51100000000E-03 0. -1.
         11   -1    0    0    0    0 -0.00000000000E+00 -0.00000000000E+00 -0.45593999997E+02  0.45594000000E+02  0.51100000000E-03 0.  1.
         23    2    1    2    0    0  0.00000000000E+00 -0.17763568394E-14  0.00000000000E+00  0.91188000000E+02  0.91188000000E+02 0.  0.
    9900012    2    3    3    0    0  0.22079119738E+02 -0.56695038220E+01 -0.33668041661E+02  0.50528833367E+02  0.29999919503E+02 0.  0.
         12    1    3    3    0    0 -0.22079119738E+02  0.56695038220E+01  0.33668041661E+02  0.40659166633E+02  0.00000000000E+00 0. -1.
         11    1    4    4    0    0 -0.45853064348E+01  0.59412550288E+01 -0.66260857816E+01  0.10011421451E+02  0.51100000000E-03 0. -1.
        -11    1    4    4    0    0  0.73022238597E+01 -0.13581438945E+01 -0.11366246099E+02  0.13577870922E+02  0.51100000000E-03 0.  1.
        -12    1    4    4    0    0  0.19362202313E+02 -0.10252614956E+02 -0.15675709780E+02  0.26939540994E+02  0.00000000000E+00 0.  1.
</event>
<event>
 8    1  0.1338956E-013  0.9118800E+02  0.7816164E-02  0.1184000E+00
        -11   -1    0    0    0    0  0.00000000000E+00  0.00000000000E+00  0.45593999997E+02  0.45594000000E+02  0.51100000000E-03 0. -1.
         11   -1    0    0    0    0 -0.00000000000E+00 -0.00000000000E+00 -0.45593999997E+02  0.45594000000E+02  0.51100000000E-03 0.  1.
         23    2    1    2    0    0  0.00000000000E+00  0.00000000000E+00  0.00000000000E+00  0.91188000000E+02  0.91188000000E+02 0.  0.
    9900012    2    3    3    0    0 -0.30819118538E+02 -0.47266534164E+01 -0.26096079938E+02  0.50528871774E+02  0.30000036244E+02 0.  0.
         12    1    3    3    0    0  0.30819118538E+02  0.47266534164E+01  0.26096079938E+02  0.40659128226E+02  0.00000000000E+00 0. -1.
         11    1    4    4    0    0 -0.60891364311E+01  0.86285805181E+01 -0.27576472624E+01  0.10914879886E+02  0.51100000000E-03 0. -1.
        -11    1    4    4    0    0 -0.35676801251E+00  0.20804849881E+01 -0.50044104092E+01  0.54313741360E+01  0.51100000000E-03 0.  1.
         12    1    4    4    0    0 -0.24373214094E+02 -0.15435718923E+02 -0.18334022267E+02  0.34182617752E+02  0.00000000000E+00 0. -1.
</event>
<event>
 8    1  0.1338956E-013  0.9118800E+02  0.7816164E-02  0.1184000E+00
        -11   -1    0    0    0    0  0.00000000000E+00  0.00000000000E+00  0.45593999997E+02  0.45594000000E+02  0.51100000000E-03 0. -1.
         11   -1    0    0    0    0 -0.00000000000E+00 -0.00000000000E+00 -0.45593999997E+02  0.45594000000E+02  0.51100000000E-03 0.  1.
         23    2    1    2    0    0  0.00000000000E+00  0.88817841970E-15  0.00000000000E+00  0.91188000000E+02  0.91188000000E+02 0.  0.
    9900012    2    3    3    0    0 -0.84500575549E+01  0.16379655055E+01  0.39737630122E+02  0.50528860174E+02  0.30000000983E+02 0.  0.
        -12    1    3    3    0    0  0.84500575549E+01 -0.16379655055E+01 -0.39737630122E+02  0.40659139826E+02  0.00000000000E+00 0.  1.
         11    1    4    4    0    0 -0.32350399988E+01 -0.81726294321E+01  0.14656997620E+02  0.17090492536E+02  0.51100000000E-03 0. -1.
        -11    1    4    4    0    0  0.56497301998E+01  0.93331148794E+01  0.96816193186E+01  0.14586303081E+02  0.51100000000E-03 0.  1.
         12    1    4    4    0    0 -0.10864747756E+02  0.47748005819E+00  0.15399013184E+02  0.18852064556E+02  0.00000000000E+00 0. -1.
</event>
<event>
 8    1  0.1338956E-013  0.9118800E+02  0.7816164E-02  0.1184000E+00
        -11   -1    0    0    0    0  0.00000000000E+00  0.00000000000E+00  0.45593999997E+02  0.45594000000E+02  0.51100000000E-03 0. -1.
         11   -1    0    0    0    0 -0.00000000000E+00 -0.00000000000E+00 -0.45593999997E+02  0.45594000000E+02  0.51100000000E-03 0.  1.
         23    2    1    2    0    0  0.00000000000E+00  0.00000000000E+00  0.88817841970E-15  0.91188000000E+02  0.91188000000E+02 0.  0.
    9900012    2    3    3    0    0  0.10553543134E+02 -0.39198358356E+02  0.22970362533E+01  0.50528868848E+02  0.30000027350E+02 0.  0.
         12    1    3    3    0    0 -0.10553543134E+02  0.39198358356E+02 -0.22970362533E+01  0.40659131152E+02  0.00000000000E+00 0. -1.
         11    1    4    4    0    0 -0.96580209862E+00 -0.50886620317E+01  0.73232025343E+01  0.89697575545E+01  0.51100000000E-03 0. -1.
        -11    1    4    4    0    0  0.12077954597E+02 -0.13114879825E+02 -0.93264636779E+01  0.20121132798E+02  0.51100000000E-03 0.  1.
         12    1    4    4    0    0 -0.55860936491E+00 -0.20994816499E+02  0.43002973969E+01  0.21437978495E+02  0.00000000000E+00 0. -1.
</event>
<event>
 8    1  0.1338956E-013  0.9118800E+02  0.7816164E-02  0.1184000E+00
        -11   -1    0    0    0    0  0.00000000000E+00  0.00000000000E+00  0.45593999997E+02  0.45594000000E+02  0.51100000000E-03 0. -1.
         11   -1    0    0    0    0 -0.00000000000E+00 -0.00000000000E+00 -0.45593999997E+02  0.45594000000E+02  0.51100000000E-03 0.  1.
         23    2    1    2    0    0  0.00000000000E+00  0.17763568394E-14  0.71054273576E-14  0.91188000000E+02  0.91188000000E+02 0.  0.
    9900012    2    3    3    0    0 -0.20975540272E+02 -0.98099202584E+01 -0.33420915999E+02  0.50528862634E+02  0.30000008462E+02 0.  0.
         12    1    3    3    0    0  0.20975540272E+02  0.98099202584E+01  0.33420915999E+02  0.40659137366E+02  0.00000000000E+00 0. -1.
         11    1    4    4    0    0 -0.66759906708E+01 -0.13020052524E+02 -0.28584627781E+02  0.32111860189E+02  0.51100000000E-03 0. -1.
        -11    1    4    4    0    0 -0.52280477616E+01  0.16144327898E+00 -0.68686629154E+01  0.86334858451E+01  0.51100000000E-03 0.  1.
         12    1    4    4    0    0 -0.90715018392E+01  0.30486889866E+01  0.20323746973E+01  0.97835166002E+01  0.00000000000E+00 0. -1.
</event>
<event>
 8    1  0.1338956E-013  0.9118800E+02  0.7816164E-02  0.1184000E+00
        -11   -1    0    0    0    0  0.00000000000E+00  0.00000000000E+00  0.45593999997E+02  0.45594000000E+02  0.51100000000E-03 0.  1.
         11   -1    0    0    0    0 -0.00000000000E+00 -0.00000000000E+00 -0.45593999997E+02  0.45594000000E+02  0.51100000000E-03 0. -1.
         23    2    1    2    0    0  0.00000000000E+00 -0.88817841970E-15 -0.35527136788E-14  0.91188000000E+02  0.91188000000E+02 0.  0.
    9900012    2    3    3    0    0 -0.33410893591E+02 -0.57396109931E+01 -0.22448484949E+02  0.50528863002E+02  0.30000009582E+02 0.  0.
         12    1    3    3    0    0  0.33410893591E+02  0.57396109931E+01  0.22448484949E+02  0.40659136998E+02  0.00000000000E+00 0. -1.
         11    1    4    4    0    0 -0.92053956760E+01  0.70083182720E+00 -0.12966437047E+02  0.15917253682E+02  0.51100000000E-03 0. -1.
        -11    1    4    4    0    0 -0.11668067390E+02  0.15261055474E+00 -0.15347600110E+02  0.19279935581E+02  0.51100000000E-03 0.  1.
        -12    1    4    4    0    0 -0.12537430524E+02 -0.65930533751E+01  0.58655522080E+01  0.15331673740E+02  0.00000000000E+00 0.  1.
</event>
<event>
 8    1  0.1338956E-013  0.9118800E+02  0.7816164E-02  0.1184000E+00
        -11   -1    0    0    0    0  0.00000000000E+00  0.00000000000E+00  0.45593999997E+02  0.45594000000E+02  0.51100000000E-03 0. -1.
         11   -1    0    0    0    0 -0.00000000000E+00 -0.00000000000E+00 -0.45593999997E+02  0.45594000000E+02  0.51100000000E-03 0.  1.
         23    2    1    2    0    0 -0.88817841970E-15  0.00000000000E+00 -0.71054273576E-14  0.91188000000E+02  0.91188000000E+02 0.  0.
    9900012    2    3    3    0    0 -0.47309117819E+01 -0.69832446791E+01 -0.39774584282E+02  0.50528870799E+02  0.30000033282E+02 0.  0.
         12    1    3    3    0    0  0.47309117819E+01  0.69832446791E+01  0.39774584282E+02  0.40659129201E+02  0.00000000000E+00 0. -1.
         11    1    4    4    0    0  0.15177048350E+01  0.17447264346E+01  0.34148219178E+01  0.41241371570E+01  0.51100000000E-03 0. -1.
        -11    1    4    4    0    0 -0.99134000881E+01 -0.35160110249E+01 -0.24624622410E+02  0.26777039865E+02  0.51100000000E-03 0.  1.
        -12    1    4    4    0    0  0.36647834712E+01 -0.52119600888E+01 -0.18564783790E+02  0.19627693778E+02  0.00000000000E+00 0.  1.
</event>
<event>
 8    1  0.1338956E-013  0.9118800E+02  0.7816164E-02  0.1184000E+00
        -11   -1    0    0    0    0  0.00000000000E+00  0.00000000000E+00  0.45593999997E+02  0.45594000000E+02  0.51100000000E-03 0. -1.
         11   -1    0    0    0    0 -0.00000000000E+00 -0.00000000000E+00 -0.45593999997E+02  0.45594000000E+02  0.51100000000E-03 0.  1.
         23    2    1    2    0    0  0.17763568394E-14  0.00000000000E+00  0.00000000000E+00  0.91188000000E+02  0.91188000000E+02 0.  0.
    9900012    2    3    3    0    0  0.13614357607E+02  0.12181373550E+02 -0.36323940189E+02  0.50528865412E+02  0.30000016906E+02 0.  0.
         12    1    3    3    0    0 -0.13614357607E+02 -0.12181373550E+02  0.36323940189E+02  0.40659134588E+02  0.00000000000E+00 0. -1.
         11    1    4    4    0    0  0.13581258443E+02  0.82750711119E+00 -0.73971446591E+01  0.15487191427E+02  0.51100000000E-03 0. -1.
        -11    1    4    4    0    0  0.89155251385E-02 -0.19838031122E+01  0.10405917121E+01  0.22401753608E+01  0.51100000000E-03 0.  1.
         12    1    4    4    0    0  0.24183638148E-01  0.13337669551E+02 -0.29967387242E+02  0.32801498624E+02  0.00000000000E+00 0. -1.
</event>
<event>
 8    1  0.1338956E-013  0.9118800E+02  0.7816164E-02  0.1184000E+00
        -11   -1    0    0    0    0  0.00000000000E+00  0.00000000000E+00  0.45593999997E+02  0.45594000000E+02  0.51100000000E-03 0. -1.
         11   -1    0    0    0    0 -0.00000000000E+00 -0.00000000000E+00 -0.45593999997E+02  0.45594000000E+02  0.51100000000E-03 0.  1.
         23    2    1    2    0    0  0.17763568394E-14  0.17763568394E-14  0.00000000000E+00  0.91188000000E+02  0.91188000000E+02 0.  0.
    9900012    2    3    3    0    0 -0.86541194979E+01  0.15566035294E+02 -0.36550927590E+02  0.50528861461E+02  0.30000004897E+02 0.  0.
         12    1    3    3    0    0  0.86541194979E+01 -0.15566035294E+02  0.36550927590E+02  0.40659138539E+02  0.00000000000E+00 0. -1.
         11    1    4    4    0    0 -0.47410183251E+01 -0.13036767374E+01 -0.48705712429E+01  0.69209314609E+01  0.51100000000E-03 0. -1.
        -11    1    4    4    0    0 -0.13603814094E+02  0.14506285982E+02 -0.19341045920E+02  0.27741163429E+02  0.51100000000E-03 0.  1.
         12    1    4    4    0    0  0.96907129207E+01  0.23634260499E+01 -0.12339310427E+02  0.15866766571E+02  0.00000000000E+00 0. -1.
</event>
<event>
 8    1  0.1338956E-013  0.9118800E+02  0.7816164E-02  0.1184000E+00
        -11   -1    0    0    0    0  0.00000000000E+00  0.00000000000E+00  0.45593999997E+02  0.45594000000E+02  0.51100000000E-03 0.  1.
         11   -1    0    0    0    0 -0.00000000000E+00 -0.00000000000E+00 -0.45593999997E+02  0.45594000000E+02  0.51100000000E-03 0. -1.
         23    2    1    2    0    0  0.35527136788E-14  0.00000000000E+00 -0.35527136788E-14  0.91188000000E+02  0.91188000000E+02 0.  0.
    9900012    2    3    3    0    0 -0.28246797707E+02  0.17797507192E+02  0.23206310665E+02  0.50528859605E+02  0.29999999257E+02 0.  0.
        -12    1    3    3    0    0  0.28246797707E+02 -0.17797507192E+02 -0.23206310665E+02  0.40659140395E+02  0.00000000000E+00 0.  1.
         11    1    4    4    0    0 -0.22163871334E+02  0.45981222218E+01  0.73786575016E+01  0.23808076513E+02  0.51100000000E-03 0. -1.
        -11    1    4    4    0    0 -0.77278018234E+01  0.82967624804E+00  0.18616233761E+01  0.79920539008E+01  0.51100000000E-03 0.  1.
        -12    1    4    4    0    0  0.16448754499E+01  0.12369708722E+02  0.13966029787E+02  0.18728729192E+02  0.00000000000E+00 0.  1.
</event>
<event>
 8    1  0.1338956E-013  0.9118800E+02  0.7816164E-02  0.1184000E+00
        -11   -1    0    0    0    0  0.00000000000E+00  0.00000000000E+00  0.45593999997E+02  0.45594000000E+02  0.51100000000E-03 0.  1.
         11   -1    0    0    0    0 -0.00000000000E+00 -0.00000000000E+00 -0.45593999997E+02  0.45594000000E+02  0.51100000000E-03 0. -1.
         23    2    1    2    0    0  0.00000000000E+00 -0.22204460493E-15 -0.44408920985E-15  0.91188000000E+02  0.91188000000E+02 0.  0.
    9900012    2    3    3    0    0  0.40616077979E+02 -0.17813831345E+01  0.57219385575E+00  0.50528849467E+02  0.29999968439E+02 0.  0.
        -12    1    3    3    0    0 -0.40616077979E+02  0.17813831345E+01 -0.57219385575E+00  0.40659150533E+02  0.00000000000E+00 0.  1.
         11    1    4    4    0    0  0.17263894095E+02 -0.34748579398E+01 -0.34633449348E+01  0.17947463203E+02  0.51100000000E-03 0. -1.
        -11    1    4    4    0    0  0.20356458536E+02 -0.71319708098E+01 -0.17022825029E+01  0.21636732141E+02  0.51100000000E-03 0.  1.
         12    1    4    4    0    0  0.29957253484E+01  0.88254456152E+01  0.57378212935E+01  0.10944654123E+02  0.00000000000E+00 0. -1.
</event>
<event>
 8    1  0.1338956E-013  0.9118800E+02  0.7816164E-02  0.1184000E+00
        -11   -1    0    0    0    0  0.00000000000E+00  0.00000000000E+00  0.45593999997E+02  0.45594000000E+02  0.51100000000E-03 0. -1.
         11   -1    0    0    0    0 -0.00000000000E+00 -0.00000000000E+00 -0.45593999997E+02  0.45594000000E+02  0.51100000000E-03 0.  1.
         23    2    1    2    0    0  0.00000000000E+00  0.35527136788E-14  0.71054273576E-14  0.91188000000E+02  0.91188000000E+02 0.  0.
    9900012    2    3    3    0    0 -0.16712532880E+02  0.27129576197E+02  0.25255558013E+02  0.50528857480E+02  0.29999992796E+02 0.  0.
        -12    1    3    3    0    0  0.16712532880E+02 -0.27129576197E+02 -0.25255558013E+02  0.40659142520E+02  0.00000000000E+00 0.  1.
         11    1    4    4    0    0 -0.64029061403E+01  0.18376172635E+01  0.93006657355E+01  0.11440123585E+02  0.51100000000E-03 0. -1.
        -11    1    4    4    0    0 -0.15168158736E+02  0.18313544518E+02  0.18593373896E+02  0.30185634089E+02  0.51100000000E-03 0.  1.
        -12    1    4    4    0    0  0.48585319955E+01  0.69784144161E+01 -0.26384816185E+01  0.89030998066E+01  0.00000000000E+00 0.  1.
</event>
<event>
 8    1  0.1338956E-013  0.9118800E+02  0.7816164E-02  0.1184000E+00
        -11   -1    0    0    0    0  0.00000000000E+00  0.00000000000E+00  0.45593999997E+02  0.45594000000E+02  0.51100000000E-03 0. -1.
         11   -1    0    0    0    0 -0.00000000000E+00 -0.00000000000E+00 -0.45593999997E+02  0.45594000000E+02  0.51100000000E-03 0.  1.
         23    2    1    2    0    0  0.00000000000E+00  0.17763568394E-14 -0.35527136788E-14  0.91188000000E+02  0.91188000000E+02 0.  0.
    9900012    2    3    3    0    0  0.33940782251E+02  0.12645431815E+02 -0.18473846528E+02  0.50528847879E+02  0.29999963614E+02 0.  0.
         12    1    3    3    0    0 -0.33940782251E+02 -0.12645431815E+02  0.18473846528E+02  0.40659152121E+02  0.00000000000E+00 0. -1.
         11    1    4    4    0    0  0.77434519152E+01 -0.18424993026E+01 -0.30988272772E+01  0.85415795962E+01  0.51100000000E-03 0.  1.
        -11    1    4    4    0    0  0.97181158104E+00 -0.63051697943E+01 -0.24202960817E+01  0.68232995881E+01  0.51100000000E-03 0. -1.
        -12    1    4    4    0    0  0.25225518755E+02  0.20793100912E+02 -0.12954723169E+02  0.35163968695E+02  0.00000000000E+00 0.  1.
</event>
<event>
 8    1  0.1338956E-013  0.9118800E+02  0.7816164E-02  0.1184000E+00
        -11   -1    0    0    0    0  0.00000000000E+00  0.00000000000E+00  0.45593999997E+02  0.45594000000E+02  0.51100000000E-03 0. -1.
         11   -1    0    0    0    0 -0.00000000000E+00 -0.00000000000E+00 -0.45593999997E+02  0.45594000000E+02  0.51100000000E-03 0.  1.
         23    2    1    2    0    0  0.00000000000E+00  0.00000000000E+00  0.35527136788E-14  0.91188000000E+02  0.91188000000E+02 0.  0.
    9900012    2    3    3    0    0 -0.11009704714E+01  0.32093495205E+02  0.24939152254E+02  0.50528857294E+02  0.29999992231E+02 0.  0.
        -12    1    3    3    0    0  0.11009704714E+01 -0.32093495205E+02 -0.24939152254E+02  0.40659142706E+02  0.00000000000E+00 0.  1.
         11    1    4    4    0    0 -0.24223862752E+01  0.16146223698E+02 -0.40147006487E+01  0.16813277983E+02  0.51100000000E-03 0.  1.
        -11    1    4    4    0    0  0.24802133820E+01  0.18342443962E+01  0.59649053157E+01  0.67153560302E+01  0.51100000000E-03 0. -1.
        -12    1    4    4    0    0 -0.11587975782E+01  0.14113027111E+02  0.22988947587E+02  0.27000223281E+02  0.00000000000E+00 0.  1.
</event>
<event>
 8    1  0.1338956E-013  0.9118800E+02  0.7816164E-02  0.1184000E+00
        -11   -1    0    0    0    0  0.00000000000E+00  0.00000000000E+00  0.45593999997E+02  0.45594000000E+02  0.51100000000E-03 0. -1.
         11   -1    0    0    0    0 -0.00000000000E+00 -0.00000000000E+00 -0.45593999997E+02  0.45594000000E+02  0.51100000000E-03 0.  1.
         23    2    1    2    0    0  0.20816681712E-16  0.88817841970E-15  0.00000000000E+00  0.91188000000E+02  0.91188000000E+02 0.  0.
    9900012    2    3    3    0    0 -0.43726891234E-01  0.37834393159E+01  0.40482699102E+02  0.50528865090E+02  0.30000015926E+02 0.  0.
        -12    1    3    3    0    0  0.43726891234E-01 -0.37834393159E+01 -0.40482699102E+02  0.40659134910E+02  0.00000000000E+00 0.  1.
         11    1    4    4    0    0 -0.36249063838E+01 -0.76670705090E+01  0.60762701456E+01  0.10432879546E+02  0.51100000000E-03 0. -1.
        -11    1    4    4    0    0 -0.21684906153E+00 -0.43116509943E+01  0.85194531486E+01  0.95508345198E+01  0.51100000000E-03 0.  1.
        -12    1    4    4    0    0  0.37980285541E+01  0.15762160819E+02  0.25886975808E+02  0.30545151024E+02  0.00000000000E+00 0.  1.
</event>
<event>
 8    1  0.1338956E-013  0.9118800E+02  0.7816164E-02  0.1184000E+00
        -11   -1    0    0    0    0  0.00000000000E+00  0.00000000000E+00  0.45593999997E+02  0.45594000000E+02  0.51100000000E-03 0. -1.
         11   -1    0    0    0    0 -0.00000000000E+00 -0.00000000000E+00 -0.45593999997E+02  0.45594000000E+02  0.51100000000E-03 0.  1.
         23    2    1    2    0    0  0.00000000000E+00  0.00000000000E+00  0.17763568394E-14  0.91188000000E+02  0.91188000000E+02 0.  0.
    9900012    2    3    3    0    0  0.34147176100E+02  0.16192351942E+02  0.14998150788E+02  0.50528850672E+02  0.29999972102E+02 0.  0.
        -12    1    3    3    0    0 -0.34147176100E+02 -0.16192351942E+02 -0.14998150788E+02  0.40659149328E+02  0.00000000000E+00 0.  1.
         11    1    4    4    0    0  0.72545634734E+01  0.14709533550E+02 -0.25427396469E+01  0.16597126065E+02  0.51100000000E-03 0. -1.
        -11    1    4    4    0    0  0.71939918700E+00  0.80121490883E+00 -0.12905385683E+01  0.16807648788E+01  0.51100000000E-03 0.  1.
        -12    1    4    4    0    0  0.26173213440E+02  0.68160348381E+00  0.18831429004E+02  0.32250959728E+02  0.00000000000E+00 0.  1.
</event>
<event>
 8    1  0.1338956E-013  0.9118800E+02  0.7816164E-02  0.1184000E+00
        -11   -1    0    0    0    0  0.00000000000E+00  0.00000000000E+00  0.45593999997E+02  0.45594000000E+02  0.51100000000E-03 0. -1.
         11   -1    0    0    0    0 -0.00000000000E+00 -0.00000000000E+00 -0.45593999997E+02  0.45594000000E+02  0.51100000000E-03 0.  1.
         23    2    1    2    0    0  0.17763568394E-14 -0.71054273576E-14 -0.71054273576E-14  0.91188000000E+02  0.91188000000E+02 0.  0.
    9900012    2    3    3    0    0 -0.80869102732E+01  0.25655360219E+02  0.30488884930E+02  0.50528834613E+02  0.29999923288E+02 0.  0.
        -12    1    3    3    0    0  0.80869102732E+01 -0.25655360219E+02 -0.30488884930E+02  0.40659165387E+02  0.00000000000E+00 0.  1.
         11    1    4    4    0    0 -0.10947939726E+02  0.30278914104E+02  0.19883085229E+02  0.37841869696E+02  0.51100000000E-03 0. -1.
        -11    1    4    4    0    0 -0.93144138897E+00  0.30223357095E-01  0.18389820622E+01  0.20616381347E+01  0.51100000000E-03 0.  1.
         12    1    4    4    0    0  0.37924708420E+01 -0.46537772428E+01  0.87668176387E+01  0.10625326782E+02  0.00000000000E+00 0. -1.
</event>
<event>
 8    1  0.1338956E-013  0.9118800E+02  0.7816164E-02  0.1184000E+00
        -11   -1    0    0    0    0  0.00000000000E+00  0.00000000000E+00  0.45593999997E+02  0.45594000000E+02  0.51100000000E-03 0. -1.
         11   -1    0    0    0    0 -0.00000000000E+00 -0.00000000000E+00 -0.45593999997E+02  0.45594000000E+02  0.51100000000E-03 0.  1.
         23    2    1    2    0    0 -0.88817841970E-15  0.00000000000E+00  0.00000000000E+00  0.91188000000E+02  0.91188000000E+02 0.  0.
    9900012    2    3    3    0    0  0.54734895847E+01  0.31763377592E+02  0.24784963268E+02  0.50528860210E+02  0.30000001094E+02 0.  0.
        -12    1    3    3    0    0 -0.54734895847E+01 -0.31763377592E+02 -0.24784963268E+02  0.40659139790E+02  0.00000000000E+00 0.  1.
         11    1    4    4    0    0  0.36102888081E+01  0.14819583481E+02  0.18898217863E+01  0.15369634559E+02  0.51100000000E-03 0. -1.
        -11    1    4    4    0    0  0.46186374464E+00  0.55036859398E+01 -0.33745458359E+01  0.64723594540E+01  0.51100000000E-03 0.  1.
         12    1    4    4    0    0  0.14013370320E+01  0.11440108171E+02  0.26269687318E+02  0.28686866197E+02  0.00000000000E+00 0. -1.
</event>
<event>
 8    1  0.1338956E-013  0.9118800E+02  0.7816164E-02  0.1184000E+00
        -11   -1    0    0    0    0  0.00000000000E+00  0.00000000000E+00  0.45593999997E+02  0.45594000000E+02  0.51100000000E-03 0. -1.
         11   -1    0    0    0    0 -0.00000000000E+00 -0.00000000000E+00 -0.45593999997E+02  0.45594000000E+02  0.51100000000E-03 0.  1.
         23    2    1    2    0    0  0.00000000000E+00 -0.17763568394E-14 -0.35527136788E-14  0.91188000000E+02  0.91188000000E+02 0.  0.
    9900012    2    3    3    0    0  0.21230778634E+02  0.13613486886E+02  0.31891887367E+02  0.50528862448E+02  0.30000007897E+02 0.  0.
        -12    1    3    3    0    0 -0.21230778634E+02 -0.13613486886E+02 -0.31891887367E+02  0.40659137552E+02  0.00000000000E+00 0.  1.
         11    1    4    4    0    0  0.64204834844E+01  0.32950510026E+01  0.33271860229E+01  0.79467060079E+01  0.51100000000E-03 0. -1.
        -11    1    4    4    0    0  0.11591941537E+02  0.18991958930E+02  0.21514177225E+02  0.30950402817E+02  0.51100000000E-03 0.  1.
        -12    1    4    4    0    0  0.32183536126E+01 -0.86735230458E+01  0.70505241194E+01  0.11631753624E+02  0.00000000000E+00 0.  1.
</event>
<event>
 8    1  0.1338956E-013  0.9118800E+02  0.7816164E-02  0.1184000E+00
        -11   -1    0    0    0    0  0.00000000000E+00  0.00000000000E+00  0.45593999997E+02  0.45594000000E+02  0.51100000000E-03 0. -1.
         11   -1    0    0    0    0 -0.00000000000E+00 -0.00000000000E+00 -0.45593999997E+02  0.45594000000E+02  0.51100000000E-03 0.  1.
         23    2    1    2    0    0  0.00000000000E+00 -0.17763568394E-14  0.35527136788E-14  0.91188000000E+02  0.91188000000E+02 0.  0.
    9900012    2    3    3    0    0 -0.24839306486E+02  0.12350513168E+02  0.29726077271E+02  0.50528855984E+02  0.29999988248E+02 0.  0.
        -12    1    3    3    0    0  0.24839306486E+02 -0.12350513168E+02 -0.29726077271E+02  0.40659144016E+02  0.00000000000E+00 0.  1.
         11    1    4    4    0    0 -0.59456728510E+01 -0.65966875843E+01  0.91997009345E+01  0.12786782640E+02  0.51100000000E-03 0. -1.
        -11    1    4    4    0    0  0.78363893247E-01 -0.10297643140E+01  0.69536950264E+01  0.70299665877E+01  0.51100000000E-03 0.  1.
        -12    1    4    4    0    0 -0.18971997528E+02  0.19976965066E+02  0.13572681310E+02  0.30712106756E+02  0.00000000000E+00 0.  1.
</event>
<event>
 8    1  0.1338956E-013  0.9118800E+02  0.7816164E-02  0.1184000E+00
        -11   -1    0    0    0    0  0.00000000000E+00  0.00000000000E+00  0.45593999997E+02  0.45594000000E+02  0.51100000000E-03 0. -1.
         11   -1    0    0    0    0 -0.00000000000E+00 -0.00000000000E+00 -0.45593999997E+02  0.45594000000E+02  0.51100000000E-03 0.  1.
         23    2    1    2    0    0 -0.17763568394E-14 -0.88817841970E-15  0.71054273576E-14  0.91188000000E+02  0.91188000000E+02 0.  0.
    9900012    2    3    3    0    0 -0.11763605212E+02  0.41666157196E+01 -0.38696539313E+02  0.50528865123E+02  0.30000016029E+02 0.  0.
         12    1    3    3    0    0  0.11763605212E+02 -0.41666157196E+01  0.38696539313E+02  0.40659134877E+02  0.00000000000E+00 0. -1.
         11    1    4    4    0    0 -0.20671778443E+02  0.73696869222E+01 -0.32004960336E+02  0.38806599899E+02  0.51100000000E-03 0.  1.
        -11    1    4    4    0    0  0.38416529680E+01 -0.49546270557E+00 -0.29081452523E+01  0.48436649232E+01  0.51100000000E-03 0. -1.
        -12    1    4    4    0    0  0.50665202636E+01 -0.27076084970E+01 -0.37834337246E+01  0.68786003012E+01  0.00000000000E+00 0.  1.
</event>
<event>
 8    1  0.2381493E-013  0.9118800E+02  0.7816164E-02  0.1184000E+00
        -11   -1    0    0    0    0  0.00000000000E+00  0.00000000000E+00  0.45593999997E+02  0.45594000000E+02  0.51100000000E-03 0. -1.
         11   -1    0    0    0    0 -0.00000000000E+00 -0.00000000000E+00 -0.45593999997E+02  0.45594000000E+02  0.51100000000E-03 0.  1.
         23    2    1    2    0    0 -0.88817841970E-15  0.35527136788E-14  0.35527136788E-14  0.91188000000E+02  0.91188000000E+02 0.  0.
    9900012    2    3    3    0    0 -0.53469557094E+01  0.24635396013E+02 -0.31900991562E+02  0.50528856690E+02  0.29999990395E+02 0.  0.
         12    1    3    3    0    0  0.53469557094E+01 -0.24635396013E+02  0.31900991562E+02  0.40659143310E+02  0.00000000000E+00 0. -1.
         11    1    4    4    0    0 -0.88953801875E+01  0.82321880234E+01 -0.17759154041E+02  0.21500796749E+02  0.51100000000E-03 0. -1.
        -11    1    4    4    0    0 -0.25879521659E+01  0.12139834948E+02 -0.16981717256E+02  0.21034538507E+02  0.51100000000E-03 0.  1.
         12    1    4    4    0    0  0.61363766439E+01  0.42633730418E+01  0.28398797348E+01  0.79935214341E+01  0.00000000000E+00 0. -1.
</event>
<event>
 8    1  0.1338956E-013  0.9118800E+02  0.7816164E-02  0.1184000E+00
        -11   -1    0    0    0    0  0.00000000000E+00  0.00000000000E+00  0.45593999997E+02  0.45594000000E+02  0.51100000000E-03 0. -1.
         11   -1    0    0    0    0 -0.00000000000E+00 -0.00000000000E+00 -0.45593999997E+02  0.45594000000E+02  0.51100000000E-03 0.  1.
         23    2    1    2    0    0  0.00000000000E+00 -0.35527136788E-14 -0.35527136788E-14  0.91188000000E+02  0.91188000000E+02 0.  0.
    9900012    2    3    3    0    0 -0.22730948407E+02 -0.19780474657E+02  0.27298393933E+02  0.50528861981E+02  0.30000006476E+02 0.  0.
        -12    1    3    3    0    0  0.22730948407E+02  0.19780474657E+02 -0.27298393933E+02  0.40659138019E+02  0.00000000000E+00 0.  1.
         11    1    4    4    0    0 -0.16177318223E+02 -0.13177571435E+02  0.22029396289E+02  0.30342187049E+02  0.51100000000E-03 0. -1.
        -11    1    4    4    0    0 -0.25520280857E+01  0.58549859157E+01  0.13564251195E+01  0.65294407716E+01  0.51100000000E-03 0.  1.
         12    1    4    4    0    0 -0.40016020980E+01 -0.12457889138E+02  0.39125725247E+01  0.13657234160E+02  0.00000000000E+00 0. -1.
</event>
<event>
 8    1  0.1338956E-013  0.9118800E+02  0.7816164E-02  0.1184000E+00
        -11   -1    0    0    0    0  0.00000000000E+00  0.00000000000E+00  0.45593999997E+02  0.45594000000E+02  0.51100000000E-03 0. -1.
         11   -1    0    0    0    0 -0.00000000000E+00 -0.00000000000E+00 -0.45593999997E+02  0.45594000000E+02  0.51100000000E-03 0.  1.
         23    2    1    2    0    0  0.17763568394E-14  0.00000000000E+00  0.00000000000E+00  0.91188000000E+02  0.91188000000E+02 0.  0.
    9900012    2    3    3    0    0  0.71316222767E+01  0.17835390074E+02 -0.35835793135E+02  0.50528865172E+02  0.30000016176E+02 0.  0.
         12    1    3    3    0    0 -0.71316222767E+01 -0.17835390074E+02  0.35835793135E+02  0.40659134828E+02  0.00000000000E+00 0. -1.
         11    1    4    4    0    0  0.15655519754E+01  0.31907126553E+01 -0.62540938942E+00  0.36087030083E+01  0.51100000000E-03 0. -1.
        -11    1    4    4    0    0  0.10920894445E+02  0.20340329041E+02 -0.24544471753E+02  0.33696083079E+02  0.51100000000E-03 0.  1.
         12    1    4    4    0    0 -0.53548241438E+01 -0.56956516217E+01 -0.10665911992E+02  0.13224079084E+02  0.00000000000E+00 0. -1.
</event>
<event>
 8    1  0.1338956E-013  0.9118800E+02  0.7816164E-02  0.1184000E+00
        -11   -1    0    0    0    0  0.00000000000E+00  0.00000000000E+00  0.45593999997E+02  0.45594000000E+02  0.51100000000E-03 0. -1.
         11   -1    0    0    0    0 -0.00000000000E+00 -0.00000000000E+00 -0.45593999997E+02  0.45594000000E+02  0.51100000000E-03 0.  1.
         23    2    1    2    0    0  0.88817841970E-15 -0.35527136788E-14 -0.35527136788E-14  0.91188000000E+02  0.91188000000E+02 0.  0.
    9900012    2    3    3    0    0 -0.77796671240E+01  0.24948663882E+02  0.31148136616E+02  0.50528862469E+02  0.30000007962E+02 0.  0.
        -12    1    3    3    0    0  0.77796671240E+01 -0.24948663882E+02 -0.31148136616E+02  0.40659137531E+02  0.00000000000E+00 0.  1.
         11    1    4    4    0    0 -0.31662551355E+01  0.20094137795E+01  0.37837415458E+01  0.53272521685E+01  0.51100000000E-03 0. -1.
        -11    1    4    4    0    0 -0.31146833166E+01  0.24987838223E+02  0.91205611483E+01  0.26782045238E+02  0.51100000000E-03 0.  1.
        -12    1    4    4    0    0 -0.14987286719E+01 -0.20485881204E+01  0.18243833922E+02  0.18419565063E+02  0.00000000000E+00 0.  1.
</event>
<event>
 8    1  0.1338956E-013  0.9118800E+02  0.7816164E-02  0.1184000E+00
        -11   -1    0    0    0    0  0.00000000000E+00  0.00000000000E+00  0.45593999997E+02  0.45594000000E+02  0.51100000000E-03 0. -1.
         11   -1    0    0    0    0 -0.00000000000E+00 -0.00000000000E+00 -0.45593999997E+02  0.45594000000E+02  0.51100000000E-03 0.  1.
         23    2    1    2    0    0 -0.17763568394E-14  0.00000000000E+00  0.00000000000E+00  0.91188000000E+02  0.91188000000E+02 0.  0.
    9900012    2    3    3    0    0 -0.12249870437E+02  0.10916927804E+02 -0.37201164487E+02  0.50528864771E+02  0.30000014956E+02 0.  0.
         12    1    3    3    0    0  0.12249870437E+02 -0.10916927804E+02  0.37201164487E+02  0.40659135229E+02  0.00000000000E+00 0. -1.
         11    1    4    4    0    0 -0.47699113890E+00 -0.78965366581E+00 -0.49024174162E+00  0.10447060280E+01  0.51100000000E-03 0. -1.
        -11    1    4    4    0    0 -0.11285202024E+02 -0.71671042055E+01 -0.21135787723E+02  0.25008892226E+02  0.51100000000E-03 0.  1.
         12    1    4    4    0    0 -0.48767727378E+00  0.18873685675E+02 -0.15575135022E+02  0.24475266517E+02  0.00000000000E+00 0. -1.
</event>
<event>
 8    1  0.1338956E-013  0.9118800E+02  0.7816164E-02  0.1184000E+00
        -11   -1    0    0    0    0  0.00000000000E+00  0.00000000000E+00  0.45593999997E+02  0.45594000000E+02  0.51100000000E-03 0. -1.
         11   -1    0    0    0    0 -0.00000000000E+00 -0.00000000000E+00 -0.45593999997E+02  0.45594000000E+02  0.51100000000E-03 0.  1.
         23    2    1    2    0    0  0.17763568394E-14  0.88817841970E-15  0.00000000000E+00  0.91188000000E+02  0.91188000000E+02 0.  0.
    9900012    2    3    3    0    0 -0.14974939272E+02 -0.49664772398E+01 -0.37473492302E+02  0.50528716587E+02  0.29999564533E+02 0.  0.
         12    1    3    3    0    0  0.14974939272E+02  0.49664772398E+01  0.37473492302E+02  0.40659283413E+02  0.00000000000E+00 0. -1.
         11    1    4    4    0    0 -0.10501781317E+01  0.90160966741E+01 -0.14709508157E+02  0.17284747722E+02  0.51100000000E-03 0. -1.
        -11    1    4    4    0    0 -0.68074097798E+01 -0.86536413627E+01 -0.27569039891E+01  0.11350191920E+02  0.51100000000E-03 0.  1.
        -12    1    4    4    0    0 -0.71173513602E+01 -0.53289325513E+01 -0.20007080156E+02  0.21893776945E+02  0.00000000000E+00 0.  1.
</event>
<event>
 8    1  0.1338956E-013  0.9118800E+02  0.7816164E-02  0.1184000E+00
        -11   -1    0    0    0    0  0.00000000000E+00  0.00000000000E+00  0.45593999997E+02  0.45594000000E+02  0.51100000000E-03 0.  1.
         11   -1    0    0    0    0 -0.00000000000E+00 -0.00000000000E+00 -0.45593999997E+02  0.45594000000E+02  0.51100000000E-03 0. -1.
         23    2    1    2    0    0  0.00000000000E+00  0.00000000000E+00  0.88817841970E-15  0.91188000000E+02  0.91188000000E+02 0.  0.
    9900012    2    3    3    0    0 -0.16201448935E+02  0.37038915197E+02  0.43356139890E+01  0.50528859143E+02  0.29999997850E+02 0.  0.
         12    1    3    3    0    0  0.16201448935E+02 -0.37038915197E+02 -0.43356139890E+01  0.40659140857E+02  0.00000000000E+00 0. -1.
         11    1    4    4    0    0 -0.31970577596E+01  0.24725839560E+02  0.47076344121E+01  0.25372231716E+02  0.51100000000E-03 0. -1.
        -11    1    4    4    0    0 -0.10067715368E+02  0.16647543321E+02  0.16927683360E+01  0.19528570256E+02  0.51100000000E-03 0.  1.
         12    1    4    4    0    0 -0.29366758070E+01 -0.43344676828E+01 -0.20647887591E+01  0.56280571700E+01  0.00000000000E+00 0. -1.
</event>
<event>
 8    1  0.1338956E-013  0.9118800E+02  0.7816164E-02  0.1184000E+00
        -11   -1    0    0    0    0  0.00000000000E+00  0.00000000000E+00  0.45593999997E+02  0.45594000000E+02  0.51100000000E-03 0. -1.
         11   -1    0    0    0    0 -0.00000000000E+00 -0.00000000000E+00 -0.45593999997E+02  0.45594000000E+02  0.51100000000E-03 0.  1.
         23    2    1    2    0    0 -0.17763568394E-14 -0.53290705182E-14 -0.71054273576E-14  0.91188000000E+02  0.91188000000E+02 0.  0.
    9900012    2    3    3    0    0  0.10658313944E+02  0.13241753588E+02  0.36935379971E+02  0.50528856037E+02  0.29999988410E+02 0.  0.
        -12    1    3    3    0    0 -0.10658313944E+02 -0.13241753588E+02 -0.36935379971E+02  0.40659143963E+02  0.00000000000E+00 0.  1.
         11    1    4    4    0    0  0.42776869497E+01  0.39189637316E+01  0.68780817302E+01  0.89980492841E+01  0.51100000000E-03 0. -1.
        -11    1    4    4    0    0  0.23833288225E+01  0.14146559657E+02  0.42328735079E+01  0.14957360222E+02  0.51100000000E-03 0.  1.
         12    1    4    4    0    0  0.39972981722E+01 -0.48237698011E+01  0.25824424732E+02  0.26573446531E+02  0.00000000000E+00 0. -1.
</event>
<event>
 8    1  0.1338956E-013  0.9118800E+02  0.7816164E-02  0.1184000E+00
        -11   -1    0    0    0    0  0.00000000000E+00  0.00000000000E+00  0.45593999997E+02  0.45594000000E+02  0.51100000000E-03 0. -1.
         11   -1    0    0    0    0 -0.00000000000E+00 -0.00000000000E+00 -0.45593999997E+02  0.45594000000E+02  0.51100000000E-03 0.  1.
         23    2    1    2    0    0  0.00000000000E+00  0.00000000000E+00  0.00000000000E+00  0.91188000000E+02  0.91188000000E+02 0.  0.
    9900012    2    3    3    0    0 -0.33846416516E+02  0.14666544568E+02  0.17102005546E+02  0.50528855466E+02  0.29999986673E+02 0.  0.
        -12    1    3    3    0    0  0.33846416516E+02 -0.14666544568E+02 -0.17102005546E+02  0.40659144534E+02  0.00000000000E+00 0.  1.
         11    1    4    4    0    0 -0.11828325176E+02 -0.32689914091E+01  0.76840200423E+01  0.14478941452E+02  0.51100000000E-03 0. -1.
        -11    1    4    4    0    0 -0.79282798212E+01 -0.32693577196E+01  0.57565074982E+01  0.10328780163E+02  0.51100000000E-03 0.  1.
         12    1    4    4    0    0 -0.14089811519E+02  0.21204893697E+02  0.36614780054E+01  0.25721133850E+02  0.00000000000E+00 0. -1.
</event>
<event>
 8    1  0.1338956E-013  0.9118800E+02  0.7816164E-02  0.1184000E+00
        -11   -1    0    0    0    0  0.00000000000E+00  0.00000000000E+00  0.45593999997E+02  0.45594000000E+02  0.51100000000E-03 0. -1.
         11   -1    0    0    0    0 -0.00000000000E+00 -0.00000000000E+00 -0.45593999997E+02  0.45594000000E+02  0.51100000000E-03 0.  1.
         23    2    1    2    0    0  0.17763568394E-14  0.00000000000E+00  0.00000000000E+00  0.91188000000E+02  0.91188000000E+02 0.  0.
    9900012    2    3    3    0    0 -0.15585324505E+02 -0.10026414193E+02 -0.36190169039E+02  0.50528933894E+02  0.30000225064E+02 0.  0.
         12    1    3    3    0    0  0.15585324505E+02  0.10026414193E+02  0.36190169039E+02  0.40659066106E+02  0.00000000000E+00 0. -1.
         11    1    4    4    0    0 -0.12152236330E+02  0.35208142567E+01 -0.22526929691E+02  0.25836709203E+02  0.51100000000E-03 0. -1.
        -11    1    4    4    0    0 -0.50156705950E+01  0.15842684842E+01 -0.45695242539E+01  0.69675971694E+01  0.51100000000E-03 0.  1.
         12    1    4    4    0    0  0.15825824199E+01 -0.15131496934E+02 -0.90937150944E+01  0.17724627522E+02  0.00000000000E+00 0. -1.
</event>
<event>
 8    1  0.1338956E-013  0.9118800E+02  0.7816164E-02  0.1184000E+00
        -11   -1    0    0    0    0  0.00000000000E+00  0.00000000000E+00  0.45593999997E+02  0.45594000000E+02  0.51100000000E-03 0. -1.
         11   -1    0    0    0    0 -0.00000000000E+00 -0.00000000000E+00 -0.45593999997E+02  0.45594000000E+02  0.51100000000E-03 0.  1.
         23    2    1    2    0    0  0.17763568394E-14  0.00000000000E+00 -0.35527136788E-14  0.91188000000E+02  0.91188000000E+02 0.  0.
    9900012    2    3    3    0    0 -0.12741746294E+02  0.32167467303E+02 -0.21355833786E+02  0.50528810535E+02  0.29999850101E+02 0.  0.
         12    1    3    3    0    0  0.12741746294E+02 -0.32167467303E+02  0.21355833786E+02  0.40659189465E+02  0.00000000000E+00 0. -1.
         11    1    4    4    0    0  0.54705903408E+01  0.19470792022E+01  0.22160165498E+01  0.62152397948E+01  0.51100000000E-03 0. -1.
        -11    1    4    4    0    0  0.20139008976E+01  0.26428594153E+01 -0.19688404093E+01  0.38622319367E+01  0.51100000000E-03 0.  1.
         12    1    4    4    0    0 -0.20226237532E+02  0.27577528685E+02 -0.21603009926E+02  0.40451338803E+02  0.00000000000E+00 0. -1.
</event>
<event>
 8    1  0.1338956E-013  0.9118800E+02  0.7816164E-02  0.1184000E+00
        -11   -1    0    0    0    0  0.00000000000E+00  0.00000000000E+00  0.45593999997E+02  0.45594000000E+02  0.51100000000E-03 0.  1.
         11   -1    0    0    0    0 -0.00000000000E+00 -0.00000000000E+00 -0.45593999997E+02  0.45594000000E+02  0.51100000000E-03 0. -1.
         23    2    1    2    0    0  0.00000000000E+00  0.00000000000E+00  0.00000000000E+00  0.91188000000E+02  0.91188000000E+02 0.  0.
    9900012    2    3    3    0    0  0.39254952123E+02 -0.10390691666E+02  0.20608809196E+01  0.50528868558E+02  0.30000026469E+02 0.  0.
        -12    1    3    3    0    0 -0.39254952123E+02  0.10390691666E+02 -0.20608809196E+01  0.40659131442E+02  0.00000000000E+00 0.  1.
         11    1    4    4    0    0  0.33364834287E+01  0.13184305038E+01 -0.18774935573E+01  0.40491187908E+01  0.51100000000E-03 0. -1.
        -11    1    4    4    0    0  0.87105512956E+01  0.84995197207E+01  0.31822150164E+01  0.12579428923E+02  0.51100000000E-03 0.  1.
        -12    1    4    4    0    0  0.27207917398E+02 -0.20208641891E+02  0.75615946053E+00  0.33900320844E+02  0.00000000000E+00 0.  1.
</event>
<event>
 8    1  0.1338956E-013  0.9118800E+02  0.7816164E-02  0.1184000E+00
        -11   -1    0    0    0    0  0.00000000000E+00  0.00000000000E+00  0.45593999997E+02  0.45594000000E+02  0.51100000000E-03 0. -1.
         11   -1    0    0    0    0 -0.00000000000E+00 -0.00000000000E+00 -0.45593999997E+02  0.45594000000E+02  0.51100000000E-03 0.  1.
         23    2    1    2    0    0 -0.88817841970E-15  0.00000000000E+00  0.71054273576E-14  0.91188000000E+02  0.91188000000E+02 0.  0.
    9900012    2    3    3    0    0  0.57466458529E+01 -0.17456334701E+02 -0.36268708936E+02  0.50528845955E+02  0.29999957765E+02 0.  0.
         12    1    3    3    0    0 -0.57466458529E+01  0.17456334701E+02  0.36268708936E+02  0.40659154045E+02  0.00000000000E+00 0. -1.
         11    1    4    4    0    0  0.85582356679E+01 -0.71154566007E+01 -0.17152817565E+02  0.20447304738E+02  0.51100000000E-03 0. -1.
        -11    1    4    4    0    0  0.69108320119E+01  0.14234424028E+01 -0.10211129483E+02  0.12411806998E+02  0.51100000000E-03 0.  1.
         12    1    4    4    0    0 -0.97224218269E+01 -0.11764320504E+02 -0.89047618876E+01  0.17669734219E+02  0.00000000000E+00 0. -1.
</event>
<event>
 8    1  0.1338956E-013  0.9118800E+02  0.7816164E-02  0.1184000E+00
        -11   -1    0    0    0    0  0.00000000000E+00  0.00000000000E+00  0.45593999997E+02  0.45594000000E+02  0.51100000000E-03 0. -1.
         11   -1    0    0    0    0 -0.00000000000E+00 -0.00000000000E+00 -0.45593999997E+02  0.45594000000E+02  0.51100000000E-03 0.  1.
         23    2    1    2    0    0 -0.71054273576E-14  0.00000000000E+00  0.35527136788E-14  0.91188000000E+02  0.91188000000E+02 0.  0.
    9900012    2    3    3    0    0 -0.32312195453E+02 -0.13355706163E+02  0.20753618177E+02  0.50528861672E+02  0.30000005539E+02 0.  0.
        -12    1    3    3    0    0  0.32312195453E+02  0.13355706163E+02 -0.20753618177E+02  0.40659138328E+02  0.00000000000E+00 0.  1.
         11    1    4    4    0    0 -0.11277786671E+02 -0.42715471305E+01 -0.86784031513E+00  0.12090811973E+02  0.51100000000E-03 0. -1.
        -11    1    4    4    0    0 -0.63601447545E+01 -0.27432567906E+01 -0.41769054048E+01  0.80884756376E+01  0.51100000000E-03 0.  1.
         12    1    4    4    0    0 -0.14674264028E+02 -0.63409022415E+01  0.25798363897E+02  0.30349574062E+02  0.00000000000E+00 0. -1.
</event>
<event>
 8    1  0.1338956E-013  0.9118800E+02  0.7816164E-02  0.1184000E+00
        -11   -1    0    0    0    0  0.00000000000E+00  0.00000000000E+00  0.45593999997E+02  0.45594000000E+02  0.51100000000E-03 0. -1.
         11   -1    0    0    0    0 -0.00000000000E+00 -0.00000000000E+00 -0.45593999997E+02  0.45594000000E+02  0.51100000000E-03 0.  1.
         23    2    1    2    0    0 -0.17763568394E-14  0.35527136788E-14  0.35527136788E-14  0.91188000000E+02  0.91188000000E+02 0.  0.
    9900012    2    3    3    0    0 -0.12974780500E+02  0.23555704258E+02  0.30495069845E+02  0.50528863057E+02  0.30000009747E+02 0.  0.
        -12    1    3    3    0    0  0.12974780500E+02 -0.23555704258E+02 -0.30495069845E+02  0.40659136943E+02  0.00000000000E+00 0.  1.
         11    1    4    4    0    0  0.16279767415E+01  0.27205281482E+01  0.15211109118E+02  0.15537999309E+02  0.51100000000E-03 0. -1.
        -11    1    4    4    0    0 -0.11747527835E+02  0.14746759568E+01  0.46654833444E+01  0.12725793276E+02  0.51100000000E-03 0.  1.
         12    1    4    4    0    0 -0.28552294065E+01  0.19360500153E+02  0.10618477383E+02  0.22265070471E+02  0.00000000000E+00 0. -1.
</event>
<event>
 8    1  0.1338956E-013  0.9118800E+02  0.7816164E-02  0.1184000E+00
        -11   -1    0    0    0    0  0.00000000000E+00  0.00000000000E+00  0.45593999997E+02  0.45594000000E+02  0.51100000000E-03 0. -1.
         11   -1    0    0    0    0 -0.00000000000E+00 -0.00000000000E+00 -0.45593999997E+02  0.45594000000E+02  0.51100000000E-03 0.  1.
         23    2    1    2    0    0  0.00000000000E+00  0.00000000000E+00  0.35527136788E-14  0.91188000000E+02  0.91188000000E+02 0.  0.
    9900012    2    3    3    0    0 -0.25788029923E+02  0.13168192449E+02 -0.28543683231E+02  0.50528860411E+02  0.30000001706E+02 0.  0.
         12    1    3    3    0    0  0.25788029923E+02 -0.13168192449E+02  0.28543683231E+02  0.40659139589E+02  0.00000000000E+00 0. -1.
         11    1    4    4    0    0  0.49715325717E+01  0.54744997827E+01 -0.90187564885E+01  0.11662943575E+02  0.51100000000E-03 0. -1.
        -11    1    4    4    0    0  0.38752397022E+00  0.65064663380E+00 -0.26334929958E+01  0.27402192411E+01  0.51100000000E-03 0.  1.
        -12    1    4    4    0    0 -0.31147086465E+02  0.70430460320E+01 -0.16891433747E+02  0.36125697595E+02  0.00000000000E+00 0.  1.
</event>
<event>
 8    1  0.1338956E-013  0.9118800E+02  0.7816164E-02  0.1184000E+00
        -11   -1    0    0    0    0  0.00000000000E+00  0.00000000000E+00  0.45593999997E+02  0.45594000000E+02  0.51100000000E-03 0. -1.
         11   -1    0    0    0    0 -0.00000000000E+00 -0.00000000000E+00 -0.45593999997E+02  0.45594000000E+02  0.51100000000E-03 0.  1.
         23    2    1    2    0    0  0.00000000000E+00  0.00000000000E+00  0.00000000000E+00  0.91188000000E+02  0.91188000000E+02 0.  0.
    9900012    2    3    3    0    0 -0.17882588165E+02 -0.20496362153E+02 -0.30220505693E+02  0.50528846230E+02  0.29999958600E+02 0.  0.
         12    1    3    3    0    0  0.17882588165E+02  0.20496362153E+02  0.30220505693E+02  0.40659153770E+02  0.00000000000E+00 0. -1.
         11    1    4    4    0    0 -0.46908587486E+01  0.11891063682E+01 -0.15401118904E+02  0.16143500039E+02  0.51100000000E-03 0. -1.
        -11    1    4    4    0    0 -0.89044587121E+01 -0.33797322004E+01 -0.12084192441E+02  0.15386347257E+02  0.51100000000E-03 0.  1.
         12    1    4    4    0    0 -0.42872707039E+01 -0.18305736321E+02 -0.27351943474E+01  0.18998998933E+02  0.00000000000E+00 0. -1.
</event>
<event>
 8    1  0.1529227E-013  0.9118800E+02  0.7816164E-02  0.1184000E+00
        -11   -1    0    0    0    0  0.00000000000E+00  0.00000000000E+00  0.45593999997E+02  0.45594000000E+02  0.51100000000E-03 0. -1.
         11   -1    0    0    0    0 -0.00000000000E+00 -0.00000000000E+00 -0.45593999997E+02  0.45594000000E+02  0.51100000000E-03 0.  1.
         23    2    1    2    0    0  0.88817841970E-15  0.00000000000E+00  0.00000000000E+00  0.91188000000E+02  0.91188000000E+02 0.  0.
    9900012    2    3    3    0    0 -0.42299659970E+01 -0.20014446592E+02 -0.35138233270E+02  0.50528854386E+02  0.29999983392E+02 0.  0.
         12    1    3    3    0    0  0.42299659970E+01  0.20014446592E+02  0.35138233270E+02  0.40659145614E+02  0.00000000000E+00 0. -1.
         11    1    4    4    0    0 -0.11700111393E+01  0.17149462700E+01  0.24097084593E+01  0.31806700386E+01  0.51100000000E-03 0. -1.
        -11    1    4    4    0    0  0.66010461899E+01 -0.16653728852E+02 -0.22538985913E+02  0.28791081636E+02  0.51100000000E-03 0.  1.
         12    1    4    4    0    0 -0.96610010476E+01 -0.50756640097E+01 -0.15008955816E+02  0.18557102712E+02  0.00000000000E+00 0. -1.
</event>
<event>
 8    1  0.1338956E-013  0.9118800E+02  0.7816164E-02  0.1184000E+00
        -11   -1    0    0    0    0  0.00000000000E+00  0.00000000000E+00  0.45593999997E+02  0.45594000000E+02  0.51100000000E-03 0. -1.
         11   -1    0    0    0    0 -0.00000000000E+00 -0.00000000000E+00 -0.45593999997E+02  0.45594000000E+02  0.51100000000E-03 0.  1.
         23    2    1    2    0    0  0.35527136788E-14 -0.88817841970E-15  0.00000000000E+00  0.91188000000E+02  0.91188000000E+02 0.  0.
    9900012    2    3    3    0    0 -0.29869877007E+02 -0.48944043021E+01  0.27147758644E+02  0.50528861479E+02  0.30000004952E+02 0.  0.
        -12    1    3    3    0    0  0.29869877007E+02  0.48944043021E+01 -0.27147758644E+02  0.40659138521E+02  0.00000000000E+00 0.  1.
         11    1    4    4    0    0 -0.84087794204E+01 -0.65167631939E+01  0.11803321085E+02  0.15890064908E+02  0.51100000000E-03 0. -1.
        -11    1    4    4    0    0 -0.10786989547E+01 -0.82536593536E+01  0.30275977707E+01  0.88573603676E+01  0.51100000000E-03 0.  1.
        -12    1    4    4    0    0 -0.20382398632E+02  0.98760182454E+01  0.12316839788E+02  0.25781436204E+02  0.00000000000E+00 0.  1.
</event>
<event>
 8    1  0.1338956E-013  0.9118800E+02  0.7816164E-02  0.1184000E+00
        -11   -1    0    0    0    0  0.00000000000E+00  0.00000000000E+00  0.45593999997E+02  0.45594000000E+02  0.51100000000E-03 0. -1.
         11   -1    0    0    0    0 -0.00000000000E+00 -0.00000000000E+00 -0.45593999997E+02  0.45594000000E+02  0.51100000000E-03 0.  1.
         23    2    1    2    0    0  0.00000000000E+00  0.00000000000E+00  0.00000000000E+00  0.91188000000E+02  0.91188000000E+02 0.  0.
    9900012    2    3    3    0    0 -0.21291199732E+02  0.29685339869E+02 -0.17850253447E+02  0.50528854199E+02  0.29999982823E+02 0.  0.
         12    1    3    3    0    0  0.21291199732E+02 -0.29685339869E+02  0.17850253447E+02  0.40659145801E+02  0.00000000000E+00 0. -1.
         11    1    4    4    0    0  0.17499039706E+01  0.93934495224E-01 -0.88469436391E+00  0.19630771697E+01  0.51100000000E-03 0. -1.
        -11    1    4    4    0    0  0.67209623418E+00  0.18369097174E+02 -0.11755021542E+02  0.21818707021E+02  0.51100000000E-03 0.  1.
         12    1    4    4    0    0 -0.23713199937E+02  0.11222308200E+02 -0.52105375404E+01  0.26747070008E+02  0.00000000000E+00 0. -1.
</event>
<event>
 8    1  0.1338956E-013  0.9118800E+02  0.7816164E-02  0.1184000E+00
        -11   -1    0    0    0    0  0.00000000000E+00  0.00000000000E+00  0.45593999997E+02  0.45594000000E+02  0.51100000000E-03 0. -1.
         11   -1    0    0    0    0 -0.00000000000E+00 -0.00000000000E+00 -0.45593999997E+02  0.45594000000E+02  0.51100000000E-03 0.  1.
         23    2    1    2    0    0  0.35527136788E-14  0.12767564783E-14  0.71054273576E-14  0.91188000000E+02  0.91188000000E+02 0.  0.
    9900012    2    3    3    0    0 -0.22242799587E+02  0.30383822915E+00 -0.34034263466E+02  0.50528861534E+02  0.30000005118E+02 0.  0.
         12    1    3    3    0    0  0.22242799587E+02 -0.30383822915E+00  0.34034263466E+02  0.40659138466E+02  0.00000000000E+00 0. -1.
         11    1    4    4    0    0 -0.93129848814E+01 -0.45500863902E+01  0.68045709178E+00  0.10387396001E+02  0.51100000000E-03 0. -1.
        -11    1    4    4    0    0 -0.31030015443E+01 -0.47778321580E+01 -0.58550466964E+01  0.81693249900E+01  0.51100000000E-03 0.  1.
        -12    1    4    4    0    0 -0.98268131609E+01  0.96317567774E+01 -0.28859673862E+02  0.31972140543E+02  0.00000000000E+00 0.  1.
</event>
<event>
 8    1  0.1338956E-013  0.9118800E+02  0.7816164E-02  0.1184000E+00
        -11   -1    0    0    0    0  0.00000000000E+00  0.00000000000E+00  0.45593999997E+02  0.45594000000E+02  0.51100000000E-03 0.  1.
         11   -1    0    0    0    0 -0.00000000000E+00 -0.00000000000E+00 -0.45593999997E+02  0.45594000000E+02  0.51100000000E-03 0. -1.
         23    2    1    2    0    0  0.00000000000E+00 -0.35527136788E-14  0.00000000000E+00  0.91188000000E+02  0.91188000000E+02 0.  0.
    9900012    2    3    3    0    0  0.22739347527E+02 -0.26254341221E+02 -0.21137576437E+02  0.50528862078E+02  0.30000006772E+02 0.  0.
         12    1    3    3    0    0 -0.22739347527E+02  0.26254341221E+02  0.21137576437E+02  0.40659137922E+02  0.00000000000E+00 0. -1.
         11    1    4    4    0    0  0.76170233342E+01 -0.20037470832E+02 -0.86278980049E+01  0.23107572483E+02  0.51100000000E-03 0. -1.
        -11    1    4    4    0    0 -0.82820428474E+00 -0.25391409500E+01  0.35814480096E+01  0.44676536580E+01  0.51100000000E-03 0.  1.
         12    1    4    4    0    0  0.15950528478E+02 -0.36777294394E+01 -0.16091126442E+02  0.22953635937E+02  0.00000000000E+00 0. -1.
</event>
<event>
 8    1  0.1338956E-013  0.9118800E+02  0.7816164E-02  0.1184000E+00
        -11   -1    0    0    0    0  0.00000000000E+00  0.00000000000E+00  0.45593999997E+02  0.45594000000E+02  0.51100000000E-03 0. -1.
         11   -1    0    0    0    0 -0.00000000000E+00 -0.00000000000E+00 -0.45593999997E+02  0.45594000000E+02  0.51100000000E-03 0.  1.
         23    2    1    2    0    0  0.88817841970E-15  0.00000000000E+00  0.00000000000E+00  0.91188000000E+02  0.91188000000E+02 0.  0.
    9900012    2    3    3    0    0 -0.56122424548E+01  0.82236231921E+01 -0.39421325410E+02  0.50528854155E+02  0.29999982689E+02 0.  0.
         12    1    3    3    0    0  0.56122424548E+01 -0.82236231921E+01  0.39421325410E+02  0.40659145845E+02  0.00000000000E+00 0. -1.
         11    1    4    4    0    0  0.22746322411E+01  0.34439727326E+01  0.15640682816E+01  0.44137523567E+01  0.51100000000E-03 0. -1.
        -11    1    4    4    0    0  0.34467984648E+01  0.60637963623E+01 -0.56247775775E+01  0.89603665682E+01  0.51100000000E-03 0.  1.
        -12    1    4    4    0    0 -0.11333673161E+02 -0.12841459028E+01 -0.35360616114E+02  0.37154735230E+02  0.00000000000E+00 0.  1.
</event>
<event>
 8    1  0.1338956E-013  0.9118800E+02  0.7816164E-02  0.1184000E+00
        -11   -1    0    0    0    0  0.00000000000E+00  0.00000000000E+00  0.45593999997E+02  0.45594000000E+02  0.51100000000E-03 0. -1.
         11   -1    0    0    0    0 -0.00000000000E+00 -0.00000000000E+00 -0.45593999997E+02  0.45594000000E+02  0.51100000000E-03 0.  1.
         23    2    1    2    0    0  0.35527136788E-14 -0.25535129566E-14  0.00000000000E+00  0.91188000000E+02  0.91188000000E+02 0.  0.
    9900012    2    3    3    0    0  0.21122237335E+02  0.80822764768E+00  0.34732727604E+02  0.50528874225E+02  0.30000043695E+02 0.  0.
        -12    1    3    3    0    0 -0.21122237335E+02 -0.80822764768E+00 -0.34732727604E+02  0.40659125775E+02  0.00000000000E+00 0.  1.
         11    1    4    4    0    0  0.11716556960E+02 -0.11627045967E+02  0.23290116933E+02  0.28546373709E+02  0.51100000000E-03 0. -1.
        -11    1    4    4    0    0  0.22323079215E+00 -0.12929638328E+01  0.33347764068E+01  0.35836184792E+01  0.51100000000E-03 0.  1.
        -12    1    4    4    0    0  0.91824495828E+01  0.13728237448E+02  0.81078342638E+01  0.18398882037E+02  0.00000000000E+00 0.  1.
</event>
<event>
 8    1  0.1338956E-013  0.9118800E+02  0.7816164E-02  0.1184000E+00
        -11   -1    0    0    0    0  0.00000000000E+00  0.00000000000E+00  0.45593999997E+02  0.45594000000E+02  0.51100000000E-03 0. -1.
         11   -1    0    0    0    0 -0.00000000000E+00 -0.00000000000E+00 -0.45593999997E+02  0.45594000000E+02  0.51100000000E-03 0.  1.
         23    2    1    2    0    0 -0.35527136788E-14  0.88817841970E-15  0.00000000000E+00  0.91188000000E+02  0.91188000000E+02 0.  0.
    9900012    2    3    3    0    0  0.23509863199E+02  0.20964288714E+01 -0.33106749339E+02  0.50528861624E+02  0.30000005392E+02 0.  0.
         12    1    3    3    0    0 -0.23509863199E+02 -0.20964288714E+01  0.33106749339E+02  0.40659138376E+02  0.00000000000E+00 0. -1.
         11    1    4    4    0    0  0.25775522986E+00 -0.37322475690E+00  0.21194303497E+00  0.50065416095E+00  0.51100000000E-03 0. -1.
        -11    1    4    4    0    0  0.24782366282E+02 -0.47961958370E+01 -0.34247814288E+02  0.42545057960E+02  0.51100000000E-03 0.  1.
        -12    1    4    4    0    0 -0.15302583120E+01  0.72658494653E+01  0.92912191424E+00  0.74831495031E+01  0.00000000000E+00 0.  1.
</event>
<event>
 8    1  0.1338956E-013  0.9118800E+02  0.7816164E-02  0.1184000E+00
        -11   -1    0    0    0    0  0.00000000000E+00  0.00000000000E+00  0.45593999997E+02  0.45594000000E+02  0.51100000000E-03 0. -1.
         11   -1    0    0    0    0 -0.00000000000E+00 -0.00000000000E+00 -0.45593999997E+02  0.45594000000E+02  0.51100000000E-03 0.  1.
         23    2    1    2    0    0  0.35527136788E-14  0.00000000000E+00  0.44408920985E-14  0.91188000000E+02  0.91188000000E+02 0.  0.
    9900012    2    3    3    0    0  0.25790665766E+02 -0.31023638200E+02  0.50538560256E+01  0.50528855536E+02  0.29999986888E+02 0.  0.
        -12    1    3    3    0    0 -0.25790665766E+02  0.31023638200E+02 -0.50538560256E+01  0.40659144464E+02  0.00000000000E+00 0.  1.
         11    1    4    4    0    0  0.26829856309E+01 -0.52687645248E+01  0.24202798969E+01  0.63887437383E+01  0.51100000000E-03 0. -1.
        -11    1    4    4    0    0  0.18947312185E+02 -0.13015442033E+02  0.13700104315E+02  0.26759955696E+02  0.51100000000E-03 0.  1.
        -12    1    4    4    0    0  0.41603679503E+01 -0.12739431642E+02 -0.11066528186E+02  0.17380156102E+02  0.00000000000E+00 0.  1.
</event>
<event>
 8    1  0.1338956E-013  0.9118800E+02  0.7816164E-02  0.1184000E+00
        -11   -1    0    0    0    0  0.00000000000E+00  0.00000000000E+00  0.45593999997E+02  0.45594000000E+02  0.51100000000E-03 0. -1.
         11   -1    0    0    0    0 -0.00000000000E+00 -0.00000000000E+00 -0.45593999997E+02  0.45594000000E+02  0.51100000000E-03 0.  1.
         23    2    1    2    0    0  0.00000000000E+00  0.00000000000E+00  0.00000000000E+00  0.91188000000E+02  0.91188000000E+02 0.  0.
    9900012    2    3    3    0    0 -0.18116378329E+02 -0.26932699317E+02 -0.24486601984E+02  0.50528841954E+02  0.29999945604E+02 0.  0.
         12    1    3    3    0    0  0.18116378329E+02  0.26932699317E+02  0.24486601984E+02  0.40659158046E+02  0.00000000000E+00 0. -1.
         11    1    4    4    0    0  0.16092456243E+01 -0.11998015629E+02  0.51402914213E+00  0.12116364006E+02  0.51100000000E-03 0. -1.
        -11    1    4    4    0    0 -0.17529851583E+02 -0.56570674882E+01 -0.10938489980E+02  0.21423087368E+02  0.51100000000E-03 0.  1.
        -12    1    4    4    0    0 -0.21957723705E+01 -0.92776161999E+01 -0.14062141146E+02  0.16989390580E+02  0.00000000000E+00 0.  1.
</event>
<event>
 8    1  0.1338956E-013  0.9118800E+02  0.7816164E-02  0.1184000E+00
        -11   -1    0    0    0    0  0.00000000000E+00  0.00000000000E+00  0.45593999997E+02  0.45594000000E+02  0.51100000000E-03 0. -1.
         11   -1    0    0    0    0 -0.00000000000E+00 -0.00000000000E+00 -0.45593999997E+02  0.45594000000E+02  0.51100000000E-03 0.  1.
         23    2    1    2    0    0  0.00000000000E+00  0.00000000000E+00 -0.35527136788E-14  0.91188000000E+02  0.91188000000E+02 0.  0.
    9900012    2    3    3    0    0  0.12867952330E+02 -0.21600648224E+02  0.31953003735E+02  0.50528847912E+02  0.29999963713E+02 0.  0.
        -12    1    3    3    0    0 -0.12867952330E+02  0.21600648224E+02 -0.31953003735E+02  0.40659152088E+02  0.00000000000E+00 0.  1.
         11    1    4    4    0    0  0.19053661052E+01 -0.23234776431E+02  0.22005065565E+02  0.32057887743E+02  0.51100000000E-03 0. -1.
        -11    1    4    4    0    0  0.23140956614E+01  0.24021626024E+01  0.91651420774E+01  0.97532175951E+01  0.51100000000E-03 0.  1.
        -12    1    4    4    0    0  0.86484905633E+01 -0.76803439527E+00  0.78279609220E+00  0.87177425735E+01  0.00000000000E+00 0.  1.
</event>
<event>
 8    1  0.1338956E-013  0.9118800E+02  0.7816164E-02  0.1184000E+00
        -11   -1    0    0    0    0  0.00000000000E+00  0.00000000000E+00  0.45593999997E+02  0.45594000000E+02  0.51100000000E-03 0. -1.
         11   -1    0    0    0    0 -0.00000000000E+00 -0.00000000000E+00 -0.45593999997E+02  0.45594000000E+02  0.51100000000E-03 0.  1.
         23    2    1    2    0    0  0.00000000000E+00  0.35527136788E-14 -0.44408920985E-15  0.91188000000E+02  0.91188000000E+02 0.  0.
    9900012    2    3    3    0    0  0.32211582405E+02  0.24762499442E+02 -0.15485917858E+01  0.50528861345E+02  0.30000004544E+02 0.  0.
         12    1    3    3    0    0 -0.32211582405E+02 -0.24762499442E+02  0.15485917858E+01  0.40659138655E+02  0.00000000000E+00 0. -1.
         11    1    4    4    0    0  0.64346695432E+01  0.15635484495E+02  0.37830730742E+01  0.17325847444E+02  0.51100000000E-03 0. -1.
        -11    1    4    4    0    0  0.66531215219E+01  0.11702125417E+02 -0.17044393212E+01  0.13568672703E+02  0.51100000000E-03 0.  1.
         12    1    4    4    0    0  0.19123791340E+02 -0.25751104704E+01 -0.36272255388E+01  0.19634341197E+02  0.00000000000E+00 0. -1.
</event>
<event>
 8    1  0.1338956E-013  0.9118800E+02  0.7816164E-02  0.1184000E+00
        -11   -1    0    0    0    0  0.00000000000E+00  0.00000000000E+00  0.45593999997E+02  0.45594000000E+02  0.51100000000E-03 0. -1.
         11   -1    0    0    0    0 -0.00000000000E+00 -0.00000000000E+00 -0.45593999997E+02  0.45594000000E+02  0.51100000000E-03 0.  1.
         23    2    1    2    0    0  0.00000000000E+00  0.88817841970E-15  0.00000000000E+00  0.91188000000E+02  0.91188000000E+02 0.  0.
    9900012    2    3    3    0    0  0.92852016539E+01  0.57404312241E+01 -0.39166290417E+02  0.50528858034E+02  0.29999994479E+02 0.  0.
         12    1    3    3    0    0 -0.92852016539E+01 -0.57404312241E+01  0.39166290417E+02  0.40659141966E+02  0.00000000000E+00 0. -1.
         11    1    4    4    0    0 -0.21408434739E+01  0.52044821288E+01 -0.12839088220E+02  0.14018274915E+02  0.51100000000E-03 0. -1.
        -11    1    4    4    0    0  0.37188900025E+01  0.74637696768E+01 -0.24637645429E+02  0.26010605013E+02  0.51100000000E-03 0.  1.
        -12    1    4    4    0    0  0.77071551253E+01 -0.69278205815E+01 -0.16895567683E+01  0.10499978105E+02  0.00000000000E+00 0.  1.
</event>
<event>
 8    1  0.1338956E-013  0.9118800E+02  0.7816164E-02  0.1184000E+00
        -11   -1    0    0    0    0  0.00000000000E+00  0.00000000000E+00  0.45593999997E+02  0.45594000000E+02  0.51100000000E-03 0.  1.
         11   -1    0    0    0    0 -0.00000000000E+00 -0.00000000000E+00 -0.45593999997E+02  0.45594000000E+02  0.51100000000E-03 0. -1.
         23    2    1    2    0    0  0.44408920985E-15  0.00000000000E+00  0.00000000000E+00  0.91188000000E+02  0.91188000000E+02 0.  0.
    9900012    2    3    3    0    0  0.39653906095E+01  0.38458709767E+02 -0.12584501915E+02  0.50528851361E+02  0.29999974197E+02 0.  0.
         12    1    3    3    0    0 -0.39653906095E+01 -0.38458709767E+02  0.12584501915E+02  0.40659148639E+02  0.00000000000E+00 0. -1.
         11    1    4    4    0    0  0.50008206842E+00  0.12645772055E+02 -0.15075802451E+02  0.19683634135E+02  0.51100000000E-03 0. -1.
        -11    1    4    4    0    0 -0.11498586767E+01  0.34249632746E+01 -0.55423303573E+01  0.66158880326E+01  0.51100000000E-03 0.  1.
         12    1    4    4    0    0  0.46151672178E+01  0.22387974437E+02  0.80336308934E+01  0.24229329194E+02  0.00000000000E+00 0. -1.
</event>
<event>
 8    1  0.1338956E-013  0.9118800E+02  0.7816164E-02  0.1184000E+00
        -11   -1    0    0    0    0  0.00000000000E+00  0.00000000000E+00  0.45593999997E+02  0.45594000000E+02  0.51100000000E-03 0. -1.
         11   -1    0    0    0    0 -0.00000000000E+00 -0.00000000000E+00 -0.45593999997E+02  0.45594000000E+02  0.51100000000E-03 0.  1.
         23    2    1    2    0    0  0.00000000000E+00  0.00000000000E+00  0.00000000000E+00  0.91188000000E+02  0.91188000000E+02 0.  0.
    9900012    2    3    3    0    0  0.40072302762E+01  0.23052466340E+02  0.33251950566E+02  0.50528852010E+02  0.29999976169E+02 0.  0.
        -12    1    3    3    0    0 -0.40072302762E+01 -0.23052466340E+02 -0.33251950566E+02  0.40659147990E+02  0.00000000000E+00 0.  1.
         11    1    4    4    0    0 -0.58769488554E+01  0.13536560440E+01  0.33576726811E+01  0.69025269741E+01  0.51100000000E-03 0.  1.
        -11    1    4    4    0    0 -0.18872115386E+01  0.18151374393E+02  0.23545070530E+02  0.29789332088E+02  0.51100000000E-03 0. -1.
         12    1    4    4    0    0  0.11771390670E+02  0.35474359030E+01  0.63492073549E+01  0.13836992948E+02  0.00000000000E+00 0. -1.
</event>
<event>
 8    1  0.1338956E-013  0.9118800E+02  0.7816164E-02  0.1184000E+00
        -11   -1    0    0    0    0  0.00000000000E+00  0.00000000000E+00  0.45593999997E+02  0.45594000000E+02  0.51100000000E-03 0.  1.
         11   -1    0    0    0    0 -0.00000000000E+00 -0.00000000000E+00 -0.45593999997E+02  0.45594000000E+02  0.51100000000E-03 0. -1.
         23    2    1    2    0    0  0.00000000000E+00 -0.35527136788E-14  0.00000000000E+00  0.91188000000E+02  0.91188000000E+02 0.  0.
    9900012    2    3    3    0    0 -0.27013867761E+02 -0.25059819065E+02 -0.17187873314E+02  0.50528848852E+02  0.29999966572E+02 0.  0.
         12    1    3    3    0    0  0.27013867761E+02  0.25059819065E+02  0.17187873314E+02  0.40659151148E+02  0.00000000000E+00 0. -1.
         11    1    4    4    0    0 -0.21074814785E+01  0.23756147534E+01 -0.94958111058E+01  0.10012764476E+02  0.51100000000E-03 0.  1.
        -11    1    4    4    0    0 -0.86176579286E+01 -0.92874326427E+00 -0.17165311448E+01  0.88358967659E+01  0.51100000000E-03 0. -1.
        -12    1    4    4    0    0 -0.16288728354E+02 -0.26506690554E+02 -0.59755310631E+01  0.31680187610E+02  0.00000000000E+00 0.  1.
</event>
<event>
 8    1  0.1338956E-013  0.9118800E+02  0.7816164E-02  0.1184000E+00
        -11   -1    0    0    0    0  0.00000000000E+00  0.00000000000E+00  0.45593999997E+02  0.45594000000E+02  0.51100000000E-03 0. -1.
         11   -1    0    0    0    0 -0.00000000000E+00 -0.00000000000E+00 -0.45593999997E+02  0.45594000000E+02  0.51100000000E-03 0.  1.
         23    2    1    2    0    0 -0.71054273576E-14  0.00000000000E+00  0.00000000000E+00  0.91188000000E+02  0.91188000000E+02 0.  0.
    9900012    2    3    3    0    0 -0.20336682648E+02  0.22125579815E+02 -0.27386936675E+02  0.50528852890E+02  0.29999978844E+02 0.  0.
         12    1    3    3    0    0  0.20336682648E+02 -0.22125579815E+02  0.27386936675E+02  0.40659147110E+02  0.00000000000E+00 0. -1.
         11    1    4    4    0    0 -0.46251066531E+01  0.24723634909E+01 -0.97336099697E+01  0.11056552631E+02  0.51100000000E-03 0. -1.
        -11    1    4    4    0    0 -0.11447485077E+02  0.15809283988E+02 -0.23986341828E+02  0.30924472014E+02  0.51100000000E-03 0.  1.
         12    1    4    4    0    0 -0.42640909181E+01  0.38439323354E+01  0.63330151224E+01  0.85478282445E+01  0.00000000000E+00 0. -1.
</event>
<event>
 8    1  0.1338956E-013  0.9118800E+02  0.7816164E-02  0.1184000E+00
        -11   -1    0    0    0    0  0.00000000000E+00  0.00000000000E+00  0.45593999997E+02  0.45594000000E+02  0.51100000000E-03 0. -1.
         11   -1    0    0    0    0 -0.00000000000E+00 -0.00000000000E+00 -0.45593999997E+02  0.45594000000E+02  0.51100000000E-03 0.  1.
         23    2    1    2    0    0 -0.55511151231E-15  0.31086244690E-14 -0.71054273576E-14  0.91188000000E+02  0.91188000000E+02 0.  0.
    9900012    2    3    3    0    0 -0.90324540688E+00  0.37242601549E+01  0.40478112052E+02  0.50528886369E+02  0.30000080607E+02 0.  0.
        -12    1    3    3    0    0  0.90324540688E+00 -0.37242601549E+01 -0.40478112052E+02  0.40659113631E+02  0.00000000000E+00 0.  1.
         11    1    4    4    0    0  0.44863098544E+01 -0.28881995699E+01  0.50731747403E+01  0.73624571355E+01  0.51100000000E-03 0. -1.
        -11    1    4    4    0    0  0.85562547122E+00 -0.80169597920E+01  0.73200274849E+01  0.10889744804E+02  0.51100000000E-03 0.  1.
        -12    1    4    4    0    0 -0.62451807325E+01  0.14629419517E+02  0.28084909827E+02  0.32276684430E+02  0.00000000000E+00 0.  1.
</event>
<event>
 8    1  0.1338956E-013  0.9118800E+02  0.7816164E-02  0.1184000E+00
        -11   -1    0    0    0    0  0.00000000000E+00  0.00000000000E+00  0.45593999997E+02  0.45594000000E+02  0.51100000000E-03 0. -1.
         11   -1    0    0    0    0 -0.00000000000E+00 -0.00000000000E+00 -0.45593999997E+02  0.45594000000E+02  0.51100000000E-03 0.  1.
         23    2    1    2    0    0 -0.35527136788E-14  0.00000000000E+00  0.00000000000E+00  0.91188000000E+02  0.91188000000E+02 0.  0.
    9900012    2    3    3    0    0 -0.17504877528E+02  0.36587541055E+02 -0.28456132349E+01  0.50528850815E+02  0.29999972539E+02 0.  0.
        -12    1    3    3    0    0  0.17504877528E+02 -0.36587541055E+02  0.28456132349E+01  0.40659149185E+02  0.00000000000E+00 0.  1.
         11    1    4    4    0    0 -0.66270575165E+01  0.12283449177E+02  0.49624295297E+01  0.14813059175E+02  0.51100000000E-03 0. -1.
        -11    1    4    4    0    0 -0.11354913358E+01  0.34525205447E+01  0.73208530094E+01  0.81733792113E+01  0.51100000000E-03 0.  1.
        -12    1    4    4    0    0 -0.97423286760E+01  0.20851571333E+02 -0.15128895774E+02  0.27542412429E+02  0.00000000000E+00 0.  1.
</event>
<event>
 8    1  0.1338956E-013  0.9118800E+02  0.7816164E-02  0.1184000E+00
        -11   -1    0    0    0    0  0.00000000000E+00  0.00000000000E+00  0.45593999997E+02  0.45594000000E+02  0.51100000000E-03 0. -1.
         11   -1    0    0    0    0 -0.00000000000E+00 -0.00000000000E+00 -0.45593999997E+02  0.45594000000E+02  0.51100000000E-03 0.  1.
         23    2    1    2    0    0  0.35527136788E-14  0.00000000000E+00 -0.71054273576E-14  0.91188000000E+02  0.91188000000E+02 0.  0.
    9900012    2    3    3    0    0 -0.22855726665E+02  0.17160118611E+02  0.28919054971E+02  0.50528860160E+02  0.30000000942E+02 0.  0.
        -12    1    3    3    0    0  0.22855726665E+02 -0.17160118611E+02 -0.28919054971E+02  0.40659139840E+02  0.00000000000E+00 0.  1.
         11    1    4    4    0    0 -0.50516765621E+01  0.79249332625E+01  0.46758668358E+00  0.94097099249E+01  0.51100000000E-03 0. -1.
        -11    1    4    4    0    0 -0.59025641713E+01 -0.70640855358E+01  0.63136480697E+01  0.11162603660E+02  0.51100000000E-03 0.  1.
         12    1    4    4    0    0 -0.11901485931E+02  0.16299270885E+02  0.22137820218E+02  0.29956546575E+02  0.00000000000E+00 0. -1.
</event>
<event>
 8    1  0.1338956E-013  0.9118800E+02  0.7816164E-02  0.1184000E+00
        -11   -1    0    0    0    0  0.00000000000E+00  0.00000000000E+00  0.45593999997E+02  0.45594000000E+02  0.51100000000E-03 0. -1.
         11   -1    0    0    0    0 -0.00000000000E+00 -0.00000000000E+00 -0.45593999997E+02  0.45594000000E+02  0.51100000000E-03 0.  1.
         23    2    1    2    0    0  0.00000000000E+00 -0.35527136788E-14  0.00000000000E+00  0.91188000000E+02  0.91188000000E+02 0.  0.
    9900012    2    3    3    0    0 -0.34702214456E+02  0.20249935903E+02 -0.62339524705E+01  0.50528858892E+02  0.29999997089E+02 0.  0.
        -12    1    3    3    0    0  0.34702214456E+02 -0.20249935903E+02  0.62339524705E+01  0.40659141108E+02  0.00000000000E+00 0.  1.
         11    1    4    4    0    0 -0.64670675085E+01  0.23365638132E+01  0.69235844408E+00  0.69109950867E+01  0.51100000000E-03 0. -1.
        -11    1    4    4    0    0 -0.18412121417E+02 -0.35610859997E+01 -0.69603446259E+01  0.20003348373E+02  0.51100000000E-03 0.  1.
         12    1    4    4    0    0 -0.98230255304E+01  0.21474458090E+02  0.34033711237E-01  0.23614515433E+02  0.00000000000E+00 0. -1.
</event>
<event>
 8    1  0.1338956E-013  0.9118800E+02  0.7816164E-02  0.1184000E+00
        -11   -1    0    0    0    0  0.00000000000E+00  0.00000000000E+00  0.45593999997E+02  0.45594000000E+02  0.51100000000E-03 0. -1.
         11   -1    0    0    0    0 -0.00000000000E+00 -0.00000000000E+00 -0.45593999997E+02  0.45594000000E+02  0.51100000000E-03 0.  1.
         23    2    1    2    0    0 -0.22204460493E-15  0.00000000000E+00  0.00000000000E+00  0.91188000000E+02  0.91188000000E+02 0.  0.
    9900012    2    3    3    0    0 -0.17377086940E+01  0.20150786982E+01  0.40571944440E+02  0.50528894632E+02  0.30000105723E+02 0.  0.
        -12    1    3    3    0    0  0.17377086940E+01 -0.20150786982E+01 -0.40571944440E+02  0.40659105368E+02  0.00000000000E+00 0.  1.
         11    1    4    4    0    0  0.25566282876E+01  0.19891593980E+01 -0.33426475418E+01  0.46547176242E+01  0.51100000000E-03 0. -1.
        -11    1    4    4    0    0 -0.24296628401E+01  0.11308480079E+01  0.93260426413E+00  0.28375746172E+01  0.51100000000E-03 0.  1.
         12    1    4    4    0    0 -0.18646741415E+01 -0.11049287077E+01  0.42981987718E+02  0.43036602390E+02  0.00000000000E+00 0. -1.
</event>
<event>
 8    1  0.1338956E-013  0.9118800E+02  0.7816164E-02  0.1184000E+00
        -11   -1    0    0    0    0  0.00000000000E+00  0.00000000000E+00  0.45593999997E+02  0.45594000000E+02  0.51100000000E-03 0. -1.
         11   -1    0    0    0    0 -0.00000000000E+00 -0.00000000000E+00 -0.45593999997E+02  0.45594000000E+02  0.51100000000E-03 0.  1.
         23    2    1    2    0    0  0.00000000000E+00  0.00000000000E+00  0.00000000000E+00  0.91188000000E+02  0.91188000000E+02 0.  0.
    9900012    2    3    3    0    0  0.14994982587E+02  0.19078332268E+01  0.37744881399E+02  0.50528863239E+02  0.30000010300E+02 0.  0.
        -12    1    3    3    0    0 -0.14994982587E+02 -0.19078332268E+01 -0.37744881399E+02  0.40659136761E+02  0.00000000000E+00 0.  1.
         11    1    4    4    0    0 -0.42796435871E+01  0.27472716679E+01  0.15696912673E+02  0.16500179350E+02  0.51100000000E-03 0. -1.
        -11    1    4    4    0    0  0.42999007387E+01 -0.25097841086E+01 -0.22297502467E+01  0.54552680098E+01  0.51100000000E-03 0.  1.
        -12    1    4    4    0    0  0.14974725435E+02  0.16703456675E+01  0.24277718972E+02  0.28573415879E+02  0.00000000000E+00 0.  1.
</event>
<event>
 8    1  0.1338956E-013  0.9118800E+02  0.7816164E-02  0.1184000E+00
        -11   -1    0    0    0    0  0.00000000000E+00  0.00000000000E+00  0.45593999997E+02  0.45594000000E+02  0.51100000000E-03 0. -1.
         11   -1    0    0    0    0 -0.00000000000E+00 -0.00000000000E+00 -0.45593999997E+02  0.45594000000E+02  0.51100000000E-03 0.  1.
         23    2    1    2    0    0  0.17763568394E-14  0.35527136788E-14  0.00000000000E+00  0.91188000000E+02  0.91188000000E+02 0.  0.
    9900012    2    3    3    0    0  0.59791953018E+01  0.24941176213E+02  0.31549210624E+02  0.50528859105E+02  0.29999997734E+02 0.  0.
        -12    1    3    3    0    0 -0.59791953018E+01 -0.24941176213E+02 -0.31549210624E+02  0.40659140895E+02  0.00000000000E+00 0.  1.
         11    1    4    4    0    0 -0.24715541870E+01  0.16998172175E+02  0.97800130258E+01  0.19766008511E+02  0.51100000000E-03 0. -1.
        -11    1    4    4    0    0  0.12642568013E+02  0.90288522969E+01  0.10664424897E+02  0.18843690149E+02  0.51100000000E-03 0.  1.
        -12    1    4    4    0    0 -0.41918185243E+01 -0.10858482588E+01  0.11104772701E+02  0.11919160445E+02  0.00000000000E+00 0.  1.
</event>
<event>
 8    1  0.1338956E-013  0.9118800E+02  0.7816164E-02  0.1184000E+00
        -11   -1    0    0    0    0  0.00000000000E+00  0.00000000000E+00  0.45593999997E+02  0.45594000000E+02  0.51100000000E-03 0. -1.
         11   -1    0    0    0    0 -0.00000000000E+00 -0.00000000000E+00 -0.45593999997E+02  0.45594000000E+02  0.51100000000E-03 0.  1.
         23    2    1    2    0    0  0.00000000000E+00  0.00000000000E+00  0.00000000000E+00  0.91188000000E+02  0.91188000000E+02 0.  0.
    9900012    2    3    3    0    0  0.12127038703E+02 -0.86954967879E+01 -0.37821813108E+02  0.50528852458E+02  0.29999977531E+02 0.  0.
         12    1    3    3    0    0 -0.12127038703E+02  0.86954967879E+01  0.37821813108E+02  0.40659147542E+02  0.00000000000E+00 0. -1.
         11    1    4    4    0    0  0.82481091658E+01 -0.43155221310E+01 -0.75386969423E+01  0.11978605425E+02  0.51100000000E-03 0. -1.
        -11    1    4    4    0    0  0.12482342650E+02  0.21369477296E+01 -0.19804397481E+02  0.23507224070E+02  0.51100000000E-03 0.  1.
        -12    1    4    4    0    0 -0.86034131136E+01 -0.65169223865E+01 -0.10478718685E+02  0.15043022963E+02  0.00000000000E+00 0.  1.
</event>
<event>
 8    1  0.1338956E-013  0.9118800E+02  0.7816164E-02  0.1184000E+00
        -11   -1    0    0    0    0  0.00000000000E+00  0.00000000000E+00  0.45593999997E+02  0.45594000000E+02  0.51100000000E-03 0. -1.
         11   -1    0    0    0    0 -0.00000000000E+00 -0.00000000000E+00 -0.45593999997E+02  0.45594000000E+02  0.51100000000E-03 0.  1.
         23    2    1    2    0    0 -0.17763568394E-14  0.71054273576E-14  0.00000000000E+00  0.91188000000E+02  0.91188000000E+02 0.  0.
    9900012    2    3    3    0    0  0.13343584522E+02 -0.38262094898E+02 -0.33358760858E+01  0.50528840846E+02  0.29999942234E+02 0.  0.
        -12    1    3    3    0    0 -0.13343584522E+02  0.38262094898E+02  0.33358760858E+01  0.40659159154E+02  0.00000000000E+00 0.  1.
         11    1    4    4    0    0  0.10375502941E+02 -0.17893233148E+02  0.18192660612E+01  0.20763636075E+02  0.51100000000E-03 0. -1.
        -11    1    4    4    0    0  0.17672095324E+01  0.74769760152E+00  0.56837997778E+01  0.59989716960E+01  0.51100000000E-03 0.  1.
        -12    1    4    4    0    0  0.12008720483E+01 -0.21116559352E+02 -0.10838941925E+02  0.23766233075E+02  0.00000000000E+00 0.  1.
</event>
<event>
 8    1  0.1338956E-013  0.9118800E+02  0.7816164E-02  0.1184000E+00
        -11   -1    0    0    0    0  0.00000000000E+00  0.00000000000E+00  0.45593999997E+02  0.45594000000E+02  0.51100000000E-03 0. -1.
         11   -1    0    0    0    0 -0.00000000000E+00 -0.00000000000E+00 -0.45593999997E+02  0.45594000000E+02  0.51100000000E-03 0.  1.
         23    2    1    2    0    0  0.00000000000E+00 -0.44408920985E-15  0.00000000000E+00  0.91188000000E+02  0.91188000000E+02 0.  0.
    9900012    2    3    3    0    0  0.19357970527E+02 -0.22504576144E+01  0.35684327714E+02  0.50528845719E+02  0.29999957049E+02 0.  0.
        -12    1    3    3    0    0 -0.19357970527E+02  0.22504576144E+01 -0.35684327714E+02  0.40659154281E+02  0.00000000000E+00 0.  1.
         11    1    4    4    0    0  0.49612038708E+01  0.76715595116E+01  0.49810214611E+01  0.10405620801E+02  0.51100000000E-03 0. -1.
        -11    1    4    4    0    0  0.22925055934E+01  0.37197599192E+01 -0.48941866506E-01  0.43697358410E+01  0.51100000000E-03 0.  1.
         12    1    4    4    0    0  0.12104261062E+02 -0.13641777045E+02  0.30752248120E+02  0.35753489078E+02  0.00000000000E+00 0. -1.
</event>
<event>
 8    1  0.1338956E-013  0.9118800E+02  0.7816164E-02  0.1184000E+00
        -11   -1    0    0    0    0  0.00000000000E+00  0.00000000000E+00  0.45593999997E+02  0.45594000000E+02  0.51100000000E-03 0. -1.
         11   -1    0    0    0    0 -0.00000000000E+00 -0.00000000000E+00 -0.45593999997E+02  0.45594000000E+02  0.51100000000E-03 0.  1.
         23    2    1    2    0    0  0.00000000000E+00  0.88817841970E-15  0.00000000000E+00  0.91188000000E+02  0.91188000000E+02 0.  0.
    9900012    2    3    3    0    0 -0.27345277547E+02  0.65170811800E+01  0.29375676468E+02  0.50528844584E+02  0.29999953597E+02 0.  0.
        -12    1    3    3    0    0  0.27345277547E+02 -0.65170811800E+01 -0.29375676468E+02  0.40659155416E+02  0.00000000000E+00 0.  1.
         11    1    4    4    0    0 -0.75246600390E+01  0.18998010235E+01 -0.34480121457E+01  0.84922635763E+01  0.51100000000E-03 0. -1.
        -11    1    4    4    0    0 -0.58471102051E-01 -0.10770615919E+01  0.14353389035E+02  0.14393861803E+02  0.51100000000E-03 0.  1.
         12    1    4    4    0    0 -0.19762146406E+02  0.56943417484E+01  0.18470299579E+02  0.27642719205E+02  0.00000000000E+00 0. -1.
</event>
<event>
 8    1  0.1338956E-013  0.9118800E+02  0.7816164E-02  0.1184000E+00
        -11   -1    0    0    0    0  0.00000000000E+00  0.00000000000E+00  0.45593999997E+02  0.45594000000E+02  0.51100000000E-03 0. -1.
         11   -1    0    0    0    0 -0.00000000000E+00 -0.00000000000E+00 -0.45593999997E+02  0.45594000000E+02  0.51100000000E-03 0.  1.
         23    2    1    2    0    0 -0.88817841970E-15 -0.17763568394E-14 -0.71054273576E-14  0.91188000000E+02  0.91188000000E+02 0.  0.
    9900012    2    3    3    0    0  0.50842471811E+01 -0.11129363961E+02  0.38774392715E+02  0.50528857830E+02  0.29999993860E+02 0.  0.
        -12    1    3    3    0    0 -0.50842471811E+01  0.11129363961E+02 -0.38774392715E+02  0.40659142170E+02  0.00000000000E+00 0.  1.
         11    1    4    4    0    0  0.72894998501E+01 -0.11195554057E+02  0.26968394139E+02  0.30096038301E+02  0.51100000000E-03 0. -1.
        -11    1    4    4    0    0  0.41326912910E+01 -0.64675881885E+00  0.13249044957E+02  0.13893690180E+02  0.51100000000E-03 0.  1.
        -12    1    4    4    0    0 -0.63379439600E+01  0.71294891514E+00 -0.14430463804E+01  0.65391293497E+01  0.00000000000E+00 0.  1.
</event>
<event>
 8    1  0.1338956E-013  0.9118800E+02  0.7816164E-02  0.1184000E+00
        -11   -1    0    0    0    0  0.00000000000E+00  0.00000000000E+00  0.45593999997E+02  0.45594000000E+02  0.51100000000E-03 0. -1.
         11   -1    0    0    0    0 -0.00000000000E+00 -0.00000000000E+00 -0.45593999997E+02  0.45594000000E+02  0.51100000000E-03 0.  1.
         23    2    1    2    0    0  0.71054273576E-14  0.00000000000E+00  0.00000000000E+00  0.91188000000E+02  0.91188000000E+02 0.  0.
    9900012    2    3    3    0    0 -0.33389364544E+02 -0.10507175556E+02  0.20686112175E+02  0.50528860317E+02  0.30000001420E+02 0.  0.
        -12    1    3    3    0    0  0.33389364544E+02  0.10507175556E+02 -0.20686112175E+02  0.40659139683E+02  0.00000000000E+00 0.  1.
         11    1    4    4    0    0 -0.10594587210E+01 -0.26381014070E+01 -0.16908681903E+01  0.33077284220E+01  0.51100000000E-03 0.  1.
        -11    1    4    4    0    0 -0.24493581466E+01 -0.86208178364E+01  0.13198500814E+02  0.15953629039E+02  0.51100000000E-03 0. -1.
         12    1    4    4    0    0 -0.29880547677E+02  0.75174368746E+00  0.91784795510E+01  0.31267502857E+02  0.00000000000E+00 0. -1.
</event>
<event>
 8    1  0.1338956E-013  0.9118800E+02  0.7816164E-02  0.1184000E+00
        -11   -1    0    0    0    0  0.00000000000E+00  0.00000000000E+00  0.45593999997E+02  0.45594000000E+02  0.51100000000E-03 0. -1.
         11   -1    0    0    0    0 -0.00000000000E+00 -0.00000000000E+00 -0.45593999997E+02  0.45594000000E+02  0.51100000000E-03 0.  1.
         23    2    1    2    0    0  0.00000000000E+00  0.00000000000E+00  0.00000000000E+00  0.91188000000E+02  0.91188000000E+02 0.  0.
    9900012    2    3    3    0    0 -0.19567290795E+02 -0.23615571907E+01  0.35562769139E+02  0.50528851333E+02  0.29999974113E+02 0.  0.
        -12    1    3    3    0    0  0.19567290795E+02  0.23615571907E+01 -0.35562769139E+02  0.40659148667E+02  0.00000000000E+00 0.  1.
         11    1    4    4    0    0  0.20009286883E+01  0.53944237495E+01  0.16445452661E+02  0.17422871080E+02  0.51100000000E-03 0. -1.
        -11    1    4    4    0    0 -0.81637534894E+00 -0.25854590873E+01 -0.17491215304E+01  0.32265296825E+01  0.51100000000E-03 0.  1.
         12    1    4    4    0    0 -0.20751844135E+02 -0.51705218528E+01  0.20866438009E+02  0.29879450571E+02  0.00000000000E+00 0. -1.
</event>
<event>
 8    1  0.1338956E-013  0.9118800E+02  0.7816164E-02  0.1184000E+00
        -11   -1    0    0    0    0  0.00000000000E+00  0.00000000000E+00  0.45593999997E+02  0.45594000000E+02  0.51100000000E-03 0.  1.
         11   -1    0    0    0    0 -0.00000000000E+00 -0.00000000000E+00 -0.45593999997E+02  0.45594000000E+02  0.51100000000E-03 0. -1.
         23    2    1    2    0    0 -0.35527136788E-14  0.35527136788E-14  0.35527136788E-14  0.91188000000E+02  0.91188000000E+02 0.  0.
    9900012    2    3    3    0    0  0.29273098364E+02 -0.21300484985E+02 -0.18507901150E+02  0.50528839244E+02  0.29999937365E+02 0.  0.
         12    1    3    3    0    0 -0.29273098364E+02  0.21300484985E+02  0.18507901150E+02  0.40659160756E+02  0.00000000000E+00 0. -1.
         11    1    4    4    0    0  0.81305465315E+01 -0.58349529242E+01 -0.40883813648E+00  0.10015967822E+02  0.51100000000E-03 0. -1.
        -11    1    4    4    0    0  0.17242223960E+02 -0.48599420278E+01  0.14079048254E+01  0.17969293806E+02  0.51100000000E-03 0.  1.
         12    1    4    4    0    0  0.39003278721E+01 -0.10605590033E+02 -0.19506967839E+02  0.22543577616E+02  0.00000000000E+00 0. -1.
</event>
<event>
 8    1  0.1338956E-013  0.9118800E+02  0.7816164E-02  0.1184000E+00
        -11   -1    0    0    0    0  0.00000000000E+00  0.00000000000E+00  0.45593999997E+02  0.45594000000E+02  0.51100000000E-03 0. -1.
         11   -1    0    0    0    0 -0.00000000000E+00 -0.00000000000E+00 -0.45593999997E+02  0.45594000000E+02  0.51100000000E-03 0.  1.
         23    2    1    2    0    0  0.00000000000E+00  0.35527136788E-14  0.00000000000E+00  0.91188000000E+02  0.91188000000E+02 0.  0.
    9900012    2    3    3    0    0  0.25770507331E+02  0.30843541597E+02 -0.61418856286E+01  0.50528857542E+02  0.29999992985E+02 0.  0.
         12    1    3    3    0    0 -0.25770507331E+02 -0.30843541597E+02  0.61418856286E+01  0.40659142458E+02  0.00000000000E+00 0. -1.
         11    1    4    4    0    0  0.89402024248E+00  0.67012679365E+00  0.28760468269E+01  0.30854477349E+01  0.51100000000E-03 0. -1.
        -11    1    4    4    0    0  0.17299374501E+02  0.23110658692E+02  0.57200797484E+01  0.29429410729E+02  0.51100000000E-03 0.  1.
        -12    1    4    4    0    0  0.75771125867E+01  0.70627561122E+01 -0.14738012204E+02  0.18013999078E+02  0.00000000000E+00 0.  1.
</event>
<event>
 8    1  0.1338956E-013  0.9118800E+02  0.7816164E-02  0.1184000E+00
        -11   -1    0    0    0    0  0.00000000000E+00  0.00000000000E+00  0.45593999997E+02  0.45594000000E+02  0.51100000000E-03 0. -1.
         11   -1    0    0    0    0 -0.00000000000E+00 -0.00000000000E+00 -0.45593999997E+02  0.45594000000E+02  0.51100000000E-03 0.  1.
         23    2    1    2    0    0  0.00000000000E+00 -0.17763568394E-14  0.00000000000E+00  0.91188000000E+02  0.91188000000E+02 0.  0.
    9900012    2    3    3    0    0  0.81377451921E+01  0.15948970388E+02  0.36504423182E+02  0.50528862465E+02  0.30000007949E+02 0.  0.
        -12    1    3    3    0    0 -0.81377451921E+01 -0.15948970388E+02 -0.36504423182E+02  0.40659137535E+02  0.00000000000E+00 0.  1.
         11    1    4    4    0    0  0.11130575995E+02  0.30575035804E+01  0.14998859611E+02  0.18926273802E+02  0.51100000000E-03 0. -1.
        -11    1    4    4    0    0 -0.22313348373E+01 -0.25366593112E+01  0.14050157166E+02  0.14450619788E+02  0.51100000000E-03 0.  1.
        -12    1    4    4    0    0 -0.76149596548E+00  0.15428126119E+02  0.74554064049E+01  0.17151968875E+02  0.00000000000E+00 0.  1.
</event>
<event>
 8    1  0.1338956E-013  0.9118800E+02  0.7816164E-02  0.1184000E+00
        -11   -1    0    0    0    0  0.00000000000E+00  0.00000000000E+00  0.45593999997E+02  0.45594000000E+02  0.51100000000E-03 0. -1.
         11   -1    0    0    0    0 -0.00000000000E+00 -0.00000000000E+00 -0.45593999997E+02  0.45594000000E+02  0.51100000000E-03 0.  1.
         23    2    1    2    0    0  0.35527136788E-14 -0.35527136788E-14  0.00000000000E+00  0.91188000000E+02  0.91188000000E+02 0.  0.
    9900012    2    3    3    0    0  0.23389030035E+02 -0.17901643155E+02  0.28029475586E+02  0.50528842910E+02  0.29999948510E+02 0.  0.
        -12    1    3    3    0    0 -0.23389030035E+02  0.17901643155E+02 -0.28029475586E+02  0.40659157090E+02  0.00000000000E+00 0.  1.
         11    1    4    4    0    0  0.10536281677E+02 -0.11007490019E+02  0.12305947514E+02  0.19586077008E+02  0.51100000000E-03 0. -1.
        -11    1    4    4    0    0  0.15254814212E+02 -0.70669281434E+01  0.19943256674E+02  0.26084177523E+02  0.51100000000E-03 0.  1.
        -12    1    4    4    0    0 -0.24020658534E+01  0.17277500803E+00 -0.42197286018E+01  0.48585883794E+01  0.00000000000E+00 0.  1.
</event>
<event>
 8    1  0.1338956E-013  0.9118800E+02  0.7816164E-02  0.1184000E+00
        -11   -1    0    0    0    0  0.00000000000E+00  0.00000000000E+00  0.45593999997E+02  0.45594000000E+02  0.51100000000E-03 0. -1.
         11   -1    0    0    0    0 -0.00000000000E+00 -0.00000000000E+00 -0.45593999997E+02  0.45594000000E+02  0.51100000000E-03 0.  1.
         23    2    1    2    0    0  0.00000000000E+00  0.00000000000E+00 -0.35527136788E-14  0.91188000000E+02  0.91188000000E+02 0.  0.
    9900012    2    3    3    0    0 -0.17646235462E+02 -0.21668731789E+02  0.29533660616E+02  0.50528921399E+02  0.30000187083E+02 0.  0.
        -12    1    3    3    0    0  0.17646235462E+02  0.21668731789E+02 -0.29533660616E+02  0.40659078601E+02  0.00000000000E+00 0.  1.
         11    1    4    4    0    0  0.86757642927E+00 -0.12752146910E+01  0.65222682535E+01  0.67021522514E+01  0.51100000000E-03 0. -1.
        -11    1    4    4    0    0 -0.66471283575E+01 -0.22837764600E+02  0.20615983638E+02  0.31476444986E+02  0.51100000000E-03 0.  1.
        -12    1    4    4    0    0 -0.11866683533E+02  0.24442475021E+01  0.23954087245E+01  0.12350324161E+02  0.00000000000E+00 0.  1.
</event>
<event>
 8    1  0.1338956E-013  0.9118800E+02  0.7816164E-02  0.1184000E+00
        -11   -1    0    0    0    0  0.00000000000E+00  0.00000000000E+00  0.45593999997E+02  0.45594000000E+02  0.51100000000E-03 0. -1.
         11   -1    0    0    0    0 -0.00000000000E+00 -0.00000000000E+00 -0.45593999997E+02  0.45594000000E+02  0.51100000000E-03 0.  1.
         23    2    1    2    0    0  0.00000000000E+00  0.00000000000E+00  0.00000000000E+00  0.91188000000E+02  0.91188000000E+02 0.  0.
    9900012    2    3    3    0    0 -0.25581193913E+01 -0.25035972512E+01 -0.40501278730E+02  0.50528861387E+02  0.30000004672E+02 0.  0.
         12    1    3    3    0    0  0.25581193913E+01  0.25035972512E+01  0.40501278730E+02  0.40659138613E+02  0.00000000000E+00 0. -1.
         11    1    4    4    0    0 -0.73828520621E+01 -0.38605253122E+01 -0.52709896110E+01  0.98586759759E+01  0.51100000000E-03 0. -1.
        -11    1    4    4    0    0  0.89540373648E+01  0.14740370774E+01 -0.54093820898E+01  0.10564515384E+02  0.51100000000E-03 0.  1.
        -12    1    4    4    0    0 -0.41293046939E+01 -0.11710901644E+00 -0.29820907029E+02  0.30105670028E+02  0.00000000000E+00 0.  1.
</event>
<event>
 8    1  0.1338956E-013  0.9118800E+02  0.7816164E-02  0.1184000E+00
        -11   -1    0    0    0    0  0.00000000000E+00  0.00000000000E+00  0.45593999997E+02  0.45594000000E+02  0.51100000000E-03 0. -1.
         11   -1    0    0    0    0 -0.00000000000E+00 -0.00000000000E+00 -0.45593999997E+02  0.45594000000E+02  0.51100000000E-03 0.  1.
         23    2    1    2    0    0  0.00000000000E+00  0.88817841970E-15 -0.71054273576E-14  0.91188000000E+02  0.91188000000E+02 0.  0.
    9900012    2    3    3    0    0 -0.69535230868E+01 -0.41583096763E+01  0.39843726863E+02  0.50528860891E+02  0.30000003165E+02 0.  0.
        -12    1    3    3    0    0  0.69535230868E+01  0.41583096763E+01 -0.39843726863E+02  0.40659139109E+02  0.00000000000E+00 0.  1.
         11    1    4    4    0    0  0.40913318777E+01  0.40315734525E+01  0.24584098478E+01  0.62479084722E+01  0.51100000000E-03 0. -1.
        -11    1    4    4    0    0  0.48183892363E+01  0.54918660105E+00  0.39466396092E+01  0.62525550954E+01  0.51100000000E-03 0.  1.
        -12    1    4    4    0    0 -0.15863244201E+02 -0.87390697298E+01  0.33438677407E+02  0.38028397324E+02  0.00000000000E+00 0.  1.
</event>
<event>
 8    1  0.1338956E-013  0.9118800E+02  0.7816164E-02  0.1184000E+00
        -11   -1    0    0    0    0  0.00000000000E+00  0.00000000000E+00  0.45593999997E+02  0.45594000000E+02  0.51100000000E-03 0. -1.
         11   -1    0    0    0    0 -0.00000000000E+00 -0.00000000000E+00 -0.45593999997E+02  0.45594000000E+02  0.51100000000E-03 0.  1.
         23    2    1    2    0    0  0.00000000000E+00  0.00000000000E+00  0.00000000000E+00  0.91188000000E+02  0.91188000000E+02 0.  0.
    9900012    2    3    3    0    0  0.83586166989E+01  0.20442440622E+02 -0.34138065871E+02  0.50528838755E+02  0.29999935880E+02 0.  0.
         12    1    3    3    0    0 -0.83586166989E+01 -0.20442440622E+02  0.34138065871E+02  0.40659161245E+02  0.00000000000E+00 0. -1.
         11    1    4    4    0    0  0.14563789461E+01 -0.27488599141E+01 -0.10872441603E+02  0.11308724823E+02  0.51100000000E-03 0. -1.
        -11    1    4    4    0    0 -0.42094265602E+01  0.80409027603E+01  0.30043064862E+00  0.90810598502E+01  0.51100000000E-03 0.  1.
        -12    1    4    4    0    0  0.11111664313E+02  0.15150397776E+02 -0.23566054917E+02  0.30139054082E+02  0.00000000000E+00 0.  1.
</event>
<event>
 8    1  0.1338956E-013  0.9118800E+02  0.7816164E-02  0.1184000E+00
        -11   -1    0    0    0    0  0.00000000000E+00  0.00000000000E+00  0.45593999997E+02  0.45594000000E+02  0.51100000000E-03 0. -1.
         11   -1    0    0    0    0 -0.00000000000E+00 -0.00000000000E+00 -0.45593999997E+02  0.45594000000E+02  0.51100000000E-03 0.  1.
         23    2    1    2    0    0  0.00000000000E+00  0.00000000000E+00  0.17763568394E-14  0.91188000000E+02  0.91188000000E+02 0.  0.
    9900012    2    3    3    0    0  0.11954186963E+02  0.37440696983E+02  0.10414294034E+02  0.50528857157E+02  0.29999991813E+02 0.  0.
         12    1    3    3    0    0 -0.11954186963E+02 -0.37440696983E+02 -0.10414294034E+02  0.40659142843E+02  0.00000000000E+00 0. -1.
         11    1    4    4    0    0 -0.22891937673E+01  0.19471786420E+02  0.88031730603E+01  0.21491550216E+02  0.51100000000E-03 0. -1.
        -11    1    4    4    0    0  0.14632366912E+00  0.10621061250E+02  0.64414121432E+01  0.12422565892E+02  0.51100000000E-03 0.  1.
        -12    1    4    4    0    0  0.14097057062E+02  0.73478493137E+01 -0.48302911693E+01  0.16614741049E+02  0.00000000000E+00 0.  1.
</event>
<event>
 8    1  0.1338956E-013  0.9118800E+02  0.7816164E-02  0.1184000E+00
        -11   -1    0    0    0    0  0.00000000000E+00  0.00000000000E+00  0.45593999997E+02  0.45594000000E+02  0.51100000000E-03 0. -1.
         11   -1    0    0    0    0 -0.00000000000E+00 -0.00000000000E+00 -0.45593999997E+02  0.45594000000E+02  0.51100000000E-03 0.  1.
         23    2    1    2    0    0  0.00000000000E+00  0.35527136788E-14  0.00000000000E+00  0.91188000000E+02  0.91188000000E+02 0.  0.
    9900012    2    3    3    0    0  0.54708795953E+01 -0.21984358610E+02  0.33762752599E+02  0.50528855763E+02  0.29999987578E+02 0.  0.
        -12    1    3    3    0    0 -0.54708795953E+01  0.21984358610E+02 -0.33762752599E+02  0.40659144237E+02  0.00000000000E+00 0.  1.
         11    1    4    4    0    0  0.12347911485E+02  0.94313317136E+00  0.17159198552E+02  0.21161250280E+02  0.51100000000E-03 0. -1.
        -11    1    4    4    0    0 -0.37937452320E+00 -0.31844619481E+01  0.37294578959E+01  0.49186969195E+01  0.51100000000E-03 0.  1.
        -12    1    4    4    0    0 -0.64976573666E+01 -0.19743029833E+02  0.12874096151E+02  0.24448908563E+02  0.00000000000E+00 0.  1.
</event>
<event>
 8    1  0.1338956E-013  0.9118800E+02  0.7816164E-02  0.1184000E+00
        -11   -1    0    0    0    0  0.00000000000E+00  0.00000000000E+00  0.45593999997E+02  0.45594000000E+02  0.51100000000E-03 0.  1.
         11   -1    0    0    0    0 -0.00000000000E+00 -0.00000000000E+00 -0.45593999997E+02  0.45594000000E+02  0.51100000000E-03 0. -1.
         23    2    1    2    0    0  0.00000000000E+00 -0.17763568394E-14 -0.44408920985E-15  0.91188000000E+02  0.91188000000E+02 0.  0.
    9900012    2    3    3    0    0  0.39039144219E+02  0.11152652612E+02  0.21744238693E+01  0.50528873586E+02  0.30000041752E+02 0.  0.
         12    1    3    3    0    0 -0.39039144219E+02 -0.11152652612E+02 -0.21744238693E+01  0.40659126414E+02  0.00000000000E+00 0. -1.
         11    1    4    4    0    0  0.15476364650E+02  0.12391448943E+02  0.28532713610E+01  0.20030152955E+02  0.51100000000E-03 0. -1.
        -11    1    4    4    0    0  0.15887052123E+02  0.70672440428E+01  0.46463363550E+01  0.17998133384E+02  0.51100000000E-03 0.  1.
        -12    1    4    4    0    0  0.76757274459E+01 -0.83060403741E+01 -0.53251838467E+01  0.12500587247E+02  0.00000000000E+00 0.  1.
</event>
<event>
 8    1  0.1338956E-013  0.9118800E+02  0.7816164E-02  0.1184000E+00
        -11   -1    0    0    0    0  0.00000000000E+00  0.00000000000E+00  0.45593999997E+02  0.45594000000E+02  0.51100000000E-03 0. -1.
         11   -1    0    0    0    0 -0.00000000000E+00 -0.00000000000E+00 -0.45593999997E+02  0.45594000000E+02  0.51100000000E-03 0.  1.
         23    2    1    2    0    0  0.00000000000E+00 -0.24424906542E-14  0.00000000000E+00  0.91188000000E+02  0.91188000000E+02 0.  0.
    9900012    2    3    3    0    0  0.14126904300E+02 -0.14999234959E+01 -0.38096524335E+02  0.50528876030E+02  0.30000049180E+02 0.  0.
         12    1    3    3    0    0 -0.14126904300E+02  0.14999234959E+01  0.38096524335E+02  0.40659123970E+02  0.00000000000E+00 0. -1.
         11    1    4    4    0    0  0.16865211662E+01  0.13048294071E+01  0.12911415740E+00  0.21362593833E+01  0.51100000000E-03 0. -1.
        -11    1    4    4    0    0  0.95439947697E+01  0.11190613036E+02 -0.14239899978E+02  0.20471746577E+02  0.51100000000E-03 0.  1.
        -12    1    4    4    0    0  0.28963883637E+01 -0.13995365939E+02 -0.23985738515E+02  0.27920870069E+02  0.00000000000E+00 0.  1.
</event>
<event>
 8    1  0.1338956E-013  0.9118800E+02  0.7816164E-02  0.1184000E+00
        -11   -1    0    0    0    0  0.00000000000E+00  0.00000000000E+00  0.45593999997E+02  0.45594000000E+02  0.51100000000E-03 0. -1.
         11   -1    0    0    0    0 -0.00000000000E+00 -0.00000000000E+00 -0.45593999997E+02  0.45594000000E+02  0.51100000000E-03 0.  1.
         23    2    1    2    0    0 -0.17763568394E-14  0.00000000000E+00  0.14210854715E-13  0.91188000000E+02  0.91188000000E+02 0.  0.
    9900012    2    3    3    0    0  0.10097088923E+02 -0.27710651633E+01 -0.39287856910E+02  0.50528859485E+02  0.29999998890E+02 0.  0.
         12    1    3    3    0    0 -0.10097088923E+02  0.27710651633E+01  0.39287856910E+02  0.40659140515E+02  0.00000000000E+00 0. -1.
         11    1    4    4    0    0  0.87230094230E+01 -0.29345742549E+01 -0.24249301176E+02  0.25937062811E+02  0.51100000000E-03 0. -1.
        -11    1    4    4    0    0  0.62643544891E+01 -0.32897385694E+01 -0.16900844322E+02  0.18322201180E+02  0.51100000000E-03 0.  1.
         12    1    4    4    0    0 -0.48902749887E+01  0.34532476610E+01  0.18622885885E+01  0.62695954941E+01  0.00000000000E+00 0. -1.
</event>
<event>
 8    1  0.1338956E-013  0.9118800E+02  0.7816164E-02  0.1184000E+00
        -11   -1    0    0    0    0  0.00000000000E+00  0.00000000000E+00  0.45593999997E+02  0.45594000000E+02  0.51100000000E-03 0.  1.
         11   -1    0    0    0    0 -0.00000000000E+00 -0.00000000000E+00 -0.45593999997E+02  0.45594000000E+02  0.51100000000E-03 0. -1.
         23    2    1    2    0    0 -0.35527136788E-14  0.35527136788E-14  0.00000000000E+00  0.91188000000E+02  0.91188000000E+02 0.  0.
    9900012    2    3    3    0    0 -0.29106511675E+02  0.17793100559E+02 -0.22121950277E+02  0.50528878841E+02  0.30000057724E+02 0.  0.
         12    1    3    3    0    0  0.29106511675E+02 -0.17793100559E+02  0.22121950277E+02  0.40659121159E+02  0.00000000000E+00 0. -1.
         11    1    4    4    0    0 -0.11036423509E+02  0.74844292591E+00 -0.19137642655E+01  0.11226099260E+02  0.51100000000E-03 0. -1.
        -11    1    4    4    0    0 -0.21739315678E+02  0.19257948040E+02 -0.19443006961E+02  0.34949920297E+02  0.51100000000E-03 0.  1.
         12    1    4    4    0    0  0.36692275120E+01 -0.22132904068E+01 -0.76517905105E+00  0.43528592833E+01  0.00000000000E+00 0. -1.
</event>
<event>
 8    1  0.1338956E-013  0.9118800E+02  0.7816164E-02  0.1184000E+00
        -11   -1    0    0    0    0  0.00000000000E+00  0.00000000000E+00  0.45593999997E+02  0.45594000000E+02  0.51100000000E-03 0. -1.
         11   -1    0    0    0    0 -0.00000000000E+00 -0.00000000000E+00 -0.45593999997E+02  0.45594000000E+02  0.51100000000E-03 0.  1.
         23    2    1    2    0    0 -0.17763568394E-14  0.00000000000E+00 -0.35527136788E-14  0.91188000000E+02  0.91188000000E+02 0.  0.
    9900012    2    3    3    0    0  0.89234038018E+01 -0.30127116685E+02  0.25804952483E+02  0.50528857513E+02  0.29999992897E+02 0.  0.
        -12    1    3    3    0    0 -0.89234038018E+01  0.30127116685E+02 -0.25804952483E+02  0.40659142487E+02  0.00000000000E+00 0.  1.
         11    1    4    4    0    0 -0.43200911356E+01 -0.13668416998E+01  0.42784857739E+01  0.62319246169E+01  0.51100000000E-03 0. -1.
        -11    1    4    4    0    0 -0.36547614789E+01  0.13966150280E+01  0.80818911334E+00  0.39951201369E+01  0.51100000000E-03 0.  1.
        -12    1    4    4    0    0  0.16898256416E+02 -0.30156890013E+02  0.20718277595E+02  0.40301812759E+02  0.00000000000E+00 0.  1.
</event>
<event>
 8    1  0.1338956E-013  0.9118800E+02  0.7816164E-02  0.1184000E+00
        -11   -1    0    0    0    0  0.00000000000E+00  0.00000000000E+00  0.45593999997E+02  0.45594000000E+02  0.51100000000E-03 0.  1.
         11   -1    0    0    0    0 -0.00000000000E+00 -0.00000000000E+00 -0.45593999997E+02  0.45594000000E+02  0.51100000000E-03 0. -1.
         23    2    1    2    0    0  0.00000000000E+00  0.00000000000E+00  0.00000000000E+00  0.91188000000E+02  0.91188000000E+02 0.  0.
    9900012    2    3    3    0    0  0.30463992160E+01 -0.40538995785E+02  0.68914164880E+00  0.50528860270E+02  0.30000001275E+02 0.  0.
         12    1    3    3    0    0 -0.30463992160E+01  0.40538995785E+02 -0.68914164880E+00  0.40659139730E+02  0.00000000000E+00 0. -1.
         11    1    4    4    0    0  0.21740435046E+01  0.22915909568E+01  0.18884852183E+01  0.36802487625E+01  0.51100000000E-03 0. -1.
        -11    1    4    4    0    0 -0.33891512397E+01 -0.15103325821E+02  0.78718965020E+01  0.17365585271E+02  0.51100000000E-03 0.  1.
         12    1    4    4    0    0  0.42615069511E+01 -0.27727260920E+02 -0.90712400716E+01  0.29483026236E+02  0.00000000000E+00 0. -1.
</event>
<event>
 8    1  0.1338956E-013  0.9118800E+02  0.7816164E-02  0.1184000E+00
        -11   -1    0    0    0    0  0.00000000000E+00  0.00000000000E+00  0.45593999997E+02  0.45594000000E+02  0.51100000000E-03 0. -1.
         11   -1    0    0    0    0 -0.00000000000E+00 -0.00000000000E+00 -0.45593999997E+02  0.45594000000E+02  0.51100000000E-03 0.  1.
         23    2    1    2    0    0  0.00000000000E+00  0.00000000000E+00 -0.35527136788E-14  0.91188000000E+02  0.91188000000E+02 0.  0.
    9900012    2    3    3    0    0 -0.16814764284E+02  0.19856925268E+02  0.31243074849E+02  0.50528886568E+02  0.30000081212E+02 0.  0.
        -12    1    3    3    0    0  0.16814764284E+02 -0.19856925268E+02 -0.31243074849E+02  0.40659113432E+02  0.00000000000E+00 0.  1.
         11    1    4    4    0    0 -0.75285272643E+01  0.55431793787E+01  0.17443530506E+02  0.19790965544E+02  0.51100000000E-03 0. -1.
        -11    1    4    4    0    0  0.14148885381E+01 -0.43927864050E+01  0.65251626242E+01  0.79922606007E+01  0.51100000000E-03 0.  1.
         12    1    4    4    0    0 -0.10701125558E+02  0.18706532295E+02  0.72743817193E+01  0.22745660423E+02  0.00000000000E+00 0. -1.
</event>
<event>
 8    1  0.1338956E-013  0.9118800E+02  0.7816164E-02  0.1184000E+00
        -11   -1    0    0    0    0  0.00000000000E+00  0.00000000000E+00  0.45593999997E+02  0.45594000000E+02  0.51100000000E-03 0. -1.
         11   -1    0    0    0    0 -0.00000000000E+00 -0.00000000000E+00 -0.45593999997E+02  0.45594000000E+02  0.51100000000E-03 0.  1.
         23    2    1    2    0    0  0.00000000000E+00  0.00000000000E+00  0.00000000000E+00  0.91188000000E+02  0.91188000000E+02 0.  0.
    9900012    2    3    3    0    0  0.46124008097E+01  0.33316091021E+02  0.22845706435E+02  0.50528899362E+02  0.30000120101E+02 0.  0.
        -12    1    3    3    0    0 -0.46124008097E+01 -0.33316091021E+02 -0.22845706435E+02  0.40659100638E+02  0.00000000000E+00 0.  1.
         11    1    4    4    0    0  0.93382709708E+00 -0.20039080196E+01  0.29455885546E+01  0.36829570446E+01  0.51100000000E-03 0. -1.
        -11    1    4    4    0    0  0.39254321913E+00  0.11716275174E+02 -0.46682926132E+01  0.12618167471E+02  0.51100000000E-03 0.  1.
         12    1    4    4    0    0  0.32860304935E+01  0.23603723867E+02  0.24568410494E+02  0.34227774847E+02  0.00000000000E+00 0. -1.
</event>
<event>
 8    1  0.1338956E-013  0.9118800E+02  0.7816164E-02  0.1184000E+00
        -11   -1    0    0    0    0  0.00000000000E+00  0.00000000000E+00  0.45593999997E+02  0.45594000000E+02  0.51100000000E-03 0. -1.
         11   -1    0    0    0    0 -0.00000000000E+00 -0.00000000000E+00 -0.45593999997E+02  0.45594000000E+02  0.51100000000E-03 0.  1.
         23    2    1    2    0    0  0.00000000000E+00  0.35527136788E-14  0.71054273576E-14  0.91188000000E+02  0.91188000000E+02 0.  0.
    9900012    2    3    3    0    0  0.12963085181E+02  0.19254331471E+02  0.33382549850E+02  0.50528862130E+02  0.30000006931E+02 0.  0.
        -12    1    3    3    0    0 -0.12963085181E+02 -0.19254331471E+02 -0.33382549850E+02  0.40659137870E+02  0.00000000000E+00 0.  1.
         11    1    4    4    0    0  0.91700310880E+01  0.58132514793E+01  0.13889819305E+02  0.17629816888E+02  0.51100000000E-03 0. -1.
        -11    1    4    4    0    0  0.64304161017E+01  0.18410738154E+02  0.10128842310E+02  0.21974962512E+02  0.51100000000E-03 0.  1.
        -12    1    4    4    0    0 -0.26373620088E+01 -0.49696581623E+01  0.93638882347E+01  0.10924082730E+02  0.00000000000E+00 0.  1.
</event>
<event>
 8    1  0.1338956E-013  0.9118800E+02  0.7816164E-02  0.1184000E+00
        -11   -1    0    0    0    0  0.00000000000E+00  0.00000000000E+00  0.45593999997E+02  0.45594000000E+02  0.51100000000E-03 0. -1.
         11   -1    0    0    0    0 -0.00000000000E+00 -0.00000000000E+00 -0.45593999997E+02  0.45594000000E+02  0.51100000000E-03 0.  1.
         23    2    1    2    0    0 -0.27755575616E-15  0.00000000000E+00 -0.17763568394E-14  0.91188000000E+02  0.91188000000E+02 0.  0.
    9900012    2    3    3    0    0 -0.40295761790E+00 -0.39168638071E+02 -0.10900451547E+02  0.50528875230E+02  0.30000046748E+02 0.  0.
         12    1    3    3    0    0  0.40295761790E+00  0.39168638071E+02  0.10900451547E+02  0.40659124770E+02  0.00000000000E+00 0. -1.
         11    1    4    4    0    0  0.43728398953E+01 -0.26599565367E+02 -0.11258083219E+02  0.29213062909E+02  0.51100000000E-03 0. -1.
        -11    1    4    4    0    0  0.36600606440E+00 -0.13578950050E+02 -0.43585110303E+01  0.14265989751E+02  0.51100000000E-03 0.  1.
         12    1    4    4    0    0 -0.51418035776E+01  0.10098773470E+01  0.47161427020E+01  0.70498225703E+01  0.00000000000E+00 0. -1.
</event>
<event>
 8    1  0.1338956E-013  0.9118800E+02  0.7816164E-02  0.1184000E+00
        -11   -1    0    0    0    0  0.00000000000E+00  0.00000000000E+00  0.45593999997E+02  0.45594000000E+02  0.51100000000E-03 0. -1.
         11   -1    0    0    0    0 -0.00000000000E+00 -0.00000000000E+00 -0.45593999997E+02  0.45594000000E+02  0.51100000000E-03 0.  1.
         23    2    1    2    0    0 -0.35527136788E-14  0.35527136788E-14  0.35527136788E-14  0.91188000000E+02  0.91188000000E+02 0.  0.
    9900012    2    3    3    0    0  0.29907188516E+02 -0.21748166875E+02 -0.16903926472E+02  0.50528863050E+02  0.30000009726E+02 0.  0.
         12    1    3    3    0    0 -0.29907188516E+02  0.21748166875E+02  0.16903926472E+02  0.40659136950E+02  0.00000000000E+00 0. -1.
         11    1    4    4    0    0  0.28195503238E+01 -0.75921206763E+01 -0.49902751171E+00  0.81141351425E+01  0.51100000000E-03 0. -1.
        -11    1    4    4    0    0  0.90743735549E+01 -0.15255023409E+02  0.40114958759E+00  0.17754461858E+02  0.51100000000E-03 0.  1.
         12    1    4    4    0    0  0.18013264638E+02  0.10989772101E+01 -0.16806048548E+02  0.24660266049E+02  0.00000000000E+00 0. -1.
</event>
<event>
 8    1  0.1338956E-013  0.9118800E+02  0.7816164E-02  0.1184000E+00
        -11   -1    0    0    0    0  0.00000000000E+00  0.00000000000E+00  0.45593999997E+02  0.45594000000E+02  0.51100000000E-03 0. -1.
         11   -1    0    0    0    0 -0.00000000000E+00 -0.00000000000E+00 -0.45593999997E+02  0.45594000000E+02  0.51100000000E-03 0.  1.
         23    2    1    2    0    0 -0.13322676296E-14  0.00000000000E+00 -0.71054273576E-14  0.91188000000E+02  0.91188000000E+02 0.  0.
    9900012    2    3    3    0    0 -0.39841254841E+01  0.18492538625E+02 -0.35990535192E+02  0.50528857559E+02  0.29999993035E+02 0.  0.
         12    1    3    3    0    0  0.39841254841E+01 -0.18492538625E+02  0.35990535192E+02  0.40659142441E+02  0.00000000000E+00 0. -1.
         11    1    4    4    0    0  0.53786838347E+01  0.82415580311E+01  0.95290107885E+00  0.98874435169E+01  0.51100000000E-03 0. -1.
        -11    1    4    4    0    0  0.32009775326E+00  0.45104234048E+01 -0.48490659770E+01  0.66302204317E+01  0.51100000000E-03 0.  1.
        -12    1    4    4    0    0 -0.96829070721E+01  0.57405571889E+01 -0.32094370294E+02  0.34011193610E+02  0.00000000000E+00 0.  1.
</event>
<event>
 8    1  0.1338956E-013  0.9118800E+02  0.7816164E-02  0.1184000E+00
        -11   -1    0    0    0    0  0.00000000000E+00  0.00000000000E+00  0.45593999997E+02  0.45594000000E+02  0.51100000000E-03 0. -1.
         11   -1    0    0    0    0 -0.00000000000E+00 -0.00000000000E+00 -0.45593999997E+02  0.45594000000E+02  0.51100000000E-03 0.  1.
         23    2    1    2    0    0 -0.35527136788E-14  0.35527136788E-14  0.00000000000E+00  0.91188000000E+02  0.91188000000E+02 0.  0.
    9900012    2    3    3    0    0 -0.31268831292E+02  0.16383018651E+02  0.20174816819E+02  0.50528851654E+02  0.29999975088E+02 0.  0.
        -12    1    3    3    0    0  0.31268831292E+02 -0.16383018651E+02 -0.20174816819E+02  0.40659148346E+02  0.00000000000E+00 0.  1.
         11    1    4    4    0    0 -0.21661587169E+02  0.20223155506E+02  0.97038186886E+01  0.31182759254E+02  0.51100000000E-03 0. -1.
        -11    1    4    4    0    0  0.13662388169E+00  0.27757725815E+01 -0.95314480446E+00  0.29380375744E+01  0.51100000000E-03 0.  1.
         12    1    4    4    0    0 -0.97438680053E+01 -0.66159094363E+01  0.11424142935E+02  0.16408054826E+02  0.00000000000E+00 0. -1.
</event>
<event>
 8    1  0.1338956E-013  0.9118800E+02  0.7816164E-02  0.1184000E+00
        -11   -1    0    0    0    0  0.00000000000E+00  0.00000000000E+00  0.45593999997E+02  0.45594000000E+02  0.51100000000E-03 0. -1.
         11   -1    0    0    0    0 -0.00000000000E+00 -0.00000000000E+00 -0.45593999997E+02  0.45594000000E+02  0.51100000000E-03 0.  1.
         23    2    1    2    0    0  0.00000000000E+00  0.44408920985E-15  0.00000000000E+00  0.91188000000E+02  0.91188000000E+02 0.  0.
    9900012    2    3    3    0    0  0.33139071839E+02  0.32814796932E+01  0.23328088513E+02  0.50528857055E+02  0.29999991505E+02 0.  0.
        -12    1    3    3    0    0 -0.33139071839E+02 -0.32814796932E+01 -0.23328088513E+02  0.40659142945E+02  0.00000000000E+00 0.  1.
         11    1    4    4    0    0 -0.45130354860E+00 -0.24203248670E+01 -0.30137881688E+01  0.38916020791E+01  0.51100000000E-03 0. -1.
        -11    1    4    4    0    0  0.18470204253E+02 -0.32766230750E+01  0.58828379839E+01  0.19659412172E+02  0.51100000000E-03 0.  1.
         12    1    4    4    0    0  0.15120171135E+02  0.89784276352E+01  0.20459038698E+02  0.26977842805E+02  0.00000000000E+00 0. -1.
</event>
<event>
 8    1  0.1596666E-013  0.9118800E+02  0.7816164E-02  0.1184000E+00
        -11   -1    0    0    0    0  0.00000000000E+00  0.00000000000E+00  0.45593999997E+02  0.45594000000E+02  0.51100000000E-03 0. -1.
         11   -1    0    0    0    0 -0.00000000000E+00 -0.00000000000E+00 -0.45593999997E+02  0.45594000000E+02  0.51100000000E-03 0.  1.
         23    2    1    2    0    0  0.00000000000E+00 -0.71054273576E-14  0.35527136788E-14  0.91188000000E+02  0.91188000000E+02 0.  0.
    9900012    2    3    3    0    0 -0.13634452663E+01  0.30417177761E+02 -0.26946291608E+02  0.50528851984E+02  0.29999976091E+02 0.  0.
         12    1    3    3    0    0  0.13634452663E+01 -0.30417177761E+02  0.26946291608E+02  0.40659148016E+02  0.00000000000E+00 0. -1.
         11    1    4    4    0    0 -0.32041651632E+01  0.75620326838E+01  0.46840083688E+01  0.94546785966E+01  0.51100000000E-03 0. -1.
        -11    1    4    4    0    0 -0.52581778829E+01  0.11122398581E+02 -0.17418121214E+02  0.21324800860E+02  0.51100000000E-03 0.  1.
        -12    1    4    4    0    0  0.70988977798E+01  0.11732746496E+02 -0.14212178763E+02  0.19749372527E+02  0.00000000000E+00 0.  1.
</event>
<event>
 8    1  0.1338956E-013  0.9118800E+02  0.7816164E-02  0.1184000E+00
        -11   -1    0    0    0    0  0.00000000000E+00  0.00000000000E+00  0.45593999997E+02  0.45594000000E+02  0.51100000000E-03 0. -1.
         11   -1    0    0    0    0 -0.00000000000E+00 -0.00000000000E+00 -0.45593999997E+02  0.45594000000E+02  0.51100000000E-03 0.  1.
         23    2    1    2    0    0  0.35527136788E-14  0.35527136788E-14  0.00000000000E+00  0.91188000000E+02  0.91188000000E+02 0.  0.
    9900012    2    3    3    0    0  0.22376518161E+02 -0.26684613988E+02 -0.20985348279E+02  0.50528904694E+02  0.30000136308E+02 0.  0.
         12    1    3    3    0    0 -0.22376518161E+02  0.26684613988E+02  0.20985348279E+02  0.40659095306E+02  0.00000000000E+00 0. -1.
         11    1    4    4    0    0  0.20298201500E+02 -0.39838132396E+01 -0.43067657567E+01  0.21129031771E+02  0.51100000000E-03 0. -1.
        -11    1    4    4    0    0 -0.27130018344E+00 -0.48406425551E+01  0.30455804633E-02  0.48482402655E+01  0.51100000000E-03 0.  1.
        -12    1    4    4    0    0  0.23496168453E+01 -0.17860158193E+02 -0.16681628102E+02  0.24551632658E+02  0.00000000000E+00 0.  1.
</event>
<event>
 8    1  0.1338956E-013  0.9118800E+02  0.7816164E-02  0.1184000E+00
        -11   -1    0    0    0    0  0.00000000000E+00  0.00000000000E+00  0.45593999997E+02  0.45594000000E+02  0.51100000000E-03 0.  1.
         11   -1    0    0    0    0 -0.00000000000E+00 -0.00000000000E+00 -0.45593999997E+02  0.45594000000E+02  0.51100000000E-03 0. -1.
         23    2    1    2    0    0 -0.35527136788E-14  0.00000000000E+00 -0.88817841970E-15  0.91188000000E+02  0.91188000000E+02 0.  0.
    9900012    2    3    3    0    0 -0.24573140222E+02  0.31760717151E+02 -0.63704571394E+01  0.50528866973E+02  0.30000021651E+02 0.  0.
         12    1    3    3    0    0  0.24573140222E+02 -0.31760717151E+02  0.63704571394E+01  0.40659133027E+02  0.00000000000E+00 0. -1.
         11    1    4    4    0    0 -0.17736561196E+02  0.27944113949E+02  0.38525972154E+01  0.33321188650E+02  0.51100000000E-03 0.  1.
        -11    1    4    4    0    0  0.13501289832E+01  0.25110576096E+00  0.17795468383E+01  0.22478188506E+01  0.51100000000E-03 0. -1.
         12    1    4    4    0    0 -0.81867080095E+01  0.35654974407E+01 -0.12002601193E+02  0.14959859472E+02  0.00000000000E+00 0. -1.
</event>
<event>
 8    1  0.1338956E-013  0.9118800E+02  0.7816164E-02  0.1184000E+00
        -11   -1    0    0    0    0  0.00000000000E+00  0.00000000000E+00  0.45593999997E+02  0.45594000000E+02  0.51100000000E-03 0. -1.
         11   -1    0    0    0    0 -0.00000000000E+00 -0.00000000000E+00 -0.45593999997E+02  0.45594000000E+02  0.51100000000E-03 0.  1.
         23    2    1    2    0    0  0.00000000000E+00  0.33306690739E-15 -0.71054273576E-14  0.91188000000E+02  0.91188000000E+02 0.  0.
    9900012    2    3    3    0    0 -0.35650509049E+01 -0.14852748594E+00 -0.40502269509E+02  0.50528862236E+02  0.30000007252E+02 0.  0.
         12    1    3    3    0    0  0.35650509049E+01  0.14852748594E+00  0.40502269509E+02  0.40659137764E+02  0.00000000000E+00 0. -1.
         11    1    4    4    0    0 -0.39835249840E+01 -0.21821420672E+01  0.26420209123E+01  0.52545684944E+01  0.51100000000E-03 0. -1.
        -11    1    4    4    0    0  0.25721006879E+01  0.58618941693E+01 -0.10226778527E+02  0.12065011584E+02  0.51100000000E-03 0.  1.
         12    1    4    4    0    0 -0.21536266088E+01 -0.38282795880E+01 -0.32917511894E+02  0.33209282158E+02  0.00000000000E+00 0. -1.
</event>
<event>
 8    1  0.1338956E-013  0.9118800E+02  0.7816164E-02  0.1184000E+00
        -11   -1    0    0    0    0  0.00000000000E+00  0.00000000000E+00  0.45593999997E+02  0.45594000000E+02  0.51100000000E-03 0. -1.
         11   -1    0    0    0    0 -0.00000000000E+00 -0.00000000000E+00 -0.45593999997E+02  0.45594000000E+02  0.51100000000E-03 0.  1.
         23    2    1    2    0    0  0.00000000000E+00  0.00000000000E+00  0.00000000000E+00  0.91188000000E+02  0.91188000000E+02 0.  0.
    9900012    2    3    3    0    0 -0.10953130034E+02  0.38958196682E+02  0.39312328254E+01  0.50528846815E+02  0.29999960378E+02 0.  0.
        -12    1    3    3    0    0  0.10953130034E+02 -0.38958196682E+02 -0.39312328254E+01  0.40659153185E+02  0.00000000000E+00 0.  1.
         11    1    4    4    0    0 -0.60515737570E+01  0.12329858601E+02  0.65982638754E+01  0.15237586570E+02  0.51100000000E-03 0. -1.
        -11    1    4    4    0    0 -0.91755623795E+01  0.26463563433E+02  0.30242507500E+01  0.28171922679E+02  0.51100000000E-03 0.  1.
        -12    1    4    4    0    0  0.42740061025E+01  0.16477464756E+00 -0.56912818000E+01  0.71193375657E+01  0.00000000000E+00 0.  1.
</event>
<event>
 8    1  0.1338956E-013  0.9118800E+02  0.7816164E-02  0.1184000E+00
        -11   -1    0    0    0    0  0.00000000000E+00  0.00000000000E+00  0.45593999997E+02  0.45594000000E+02  0.51100000000E-03 0. -1.
         11   -1    0    0    0    0 -0.00000000000E+00 -0.00000000000E+00 -0.45593999997E+02  0.45594000000E+02  0.51100000000E-03 0.  1.
         23    2    1    2    0    0 -0.35527136788E-14  0.35527136788E-14  0.71054273576E-14  0.91188000000E+02  0.91188000000E+02 0.  0.
    9900012    2    3    3    0    0  0.18655460255E+02 -0.30152082551E+02 -0.19899482042E+02  0.50528884601E+02  0.30000075233E+02 0.  0.
         12    1    3    3    0    0 -0.18655460255E+02  0.30152082551E+02  0.19899482042E+02  0.40659115399E+02  0.00000000000E+00 0. -1.
         11    1    4    4    0    0  0.80727139717E+01 -0.12583054200E+02 -0.20289665028E+02  0.25202628257E+02  0.51100000000E-03 0. -1.
        -11    1    4    4    0    0 -0.83178511995E+00 -0.74353050684E+01 -0.51557879834E+01  0.90861310763E+01  0.51100000000E-03 0.  1.
         12    1    4    4    0    0  0.11414531403E+02 -0.10133723283E+02  0.55459709691E+01  0.16240125268E+02  0.00000000000E+00 0. -1.
</event>
<event>
 8    1  0.1338956E-013  0.9118800E+02  0.7816164E-02  0.1184000E+00
        -11   -1    0    0    0    0  0.00000000000E+00  0.00000000000E+00  0.45593999997E+02  0.45594000000E+02  0.51100000000E-03 0. -1.
         11   -1    0    0    0    0 -0.00000000000E+00 -0.00000000000E+00 -0.45593999997E+02  0.45594000000E+02  0.51100000000E-03 0.  1.
         23    2    1    2    0    0  0.35527136788E-14 -0.71054273576E-14 -0.35527136788E-14  0.91188000000E+02  0.91188000000E+02 0.  0.
    9900012    2    3    3    0    0 -0.16925459781E+02  0.26590474792E+02  0.25683505888E+02  0.50528843428E+02  0.29999950083E+02 0.  0.
        -12    1    3    3    0    0  0.16925459781E+02 -0.26590474792E+02 -0.25683505888E+02  0.40659156572E+02  0.00000000000E+00 0.  1.
         11    1    4    4    0    0 -0.42357971882E+01  0.12599510426E+02  0.55119272953E+01  0.14389961208E+02  0.51100000000E-03 0. -1.
        -11    1    4    4    0    0 -0.14261902408E+02  0.12818837701E+02  0.36737149987E+01  0.19524872405E+02  0.51100000000E-03 0.  1.
         12    1    4    4    0    0  0.15722398147E+01  0.11721266654E+01  0.16497863594E+02  0.16614009815E+02  0.00000000000E+00 0. -1.
</event>
<event>
 8    1  0.1338956E-013  0.9118800E+02  0.7816164E-02  0.1184000E+00
        -11   -1    0    0    0    0  0.00000000000E+00  0.00000000000E+00  0.45593999997E+02  0.45594000000E+02  0.51100000000E-03 0. -1.
         11   -1    0    0    0    0 -0.00000000000E+00 -0.00000000000E+00 -0.45593999997E+02  0.45594000000E+02  0.51100000000E-03 0.  1.
         23    2    1    2    0    0  0.00000000000E+00 -0.35527136788E-14  0.35527136788E-14  0.91188000000E+02  0.91188000000E+02 0.  0.
    9900012    2    3    3    0    0 -0.19835998966E+02 -0.15735289890E+02 -0.31813499017E+02  0.50528869136E+02  0.30000028226E+02 0.  0.
         12    1    3    3    0    0  0.19835998966E+02  0.15735289890E+02  0.31813499017E+02  0.40659130864E+02  0.00000000000E+00 0. -1.
         11    1    4    4    0    0 -0.11442402596E+02 -0.23151214116E+01 -0.67838490256E+00  0.11693954449E+02  0.51100000000E-03 0. -1.
        -11    1    4    4    0    0 -0.96545387066E+01 -0.25845476381E+01 -0.23449747354E+02  0.25490795502E+02  0.51100000000E-03 0.  1.
         12    1    4    4    0    0  0.12609423363E+01 -0.10835620840E+02 -0.76853667604E+01  0.13344119185E+02  0.00000000000E+00 0. -1.
</event>
<event>
 8    1  0.1338956E-013  0.9118800E+02  0.7816164E-02  0.1184000E+00
        -11   -1    0    0    0    0  0.00000000000E+00  0.00000000000E+00  0.45593999997E+02  0.45594000000E+02  0.51100000000E-03 0. -1.
         11   -1    0    0    0    0 -0.00000000000E+00 -0.00000000000E+00 -0.45593999997E+02  0.45594000000E+02  0.51100000000E-03 0.  1.
         23    2    1    2    0    0  0.17763568394E-14  0.35527136788E-14  0.00000000000E+00  0.91188000000E+02  0.91188000000E+02 0.  0.
    9900012    2    3    3    0    0 -0.15548248748E+02  0.28063052217E+02  0.24977755635E+02  0.50528791751E+02  0.29999793006E+02 0.  0.
        -12    1    3    3    0    0  0.15548248748E+02 -0.28063052217E+02 -0.24977755635E+02  0.40659208249E+02  0.00000000000E+00 0.  1.
         11    1    4    4    0    0 -0.15476665463E+02  0.20474305849E+02  0.75450129282E+01  0.26751665261E+02  0.51100000000E-03 0. -1.
        -11    1    4    4    0    0  0.24051251857E+01 -0.70741174223E+00 -0.15260582050E+01  0.29349467522E+01  0.51100000000E-03 0.  1.
         12    1    4    4    0    0 -0.24767084703E+01  0.82961581103E+01  0.18958800912E+02  0.20842179738E+02  0.00000000000E+00 0. -1.
</event>
<event>
 8    1  0.1338956E-013  0.9118800E+02  0.7816164E-02  0.1184000E+00
        -11   -1    0    0    0    0  0.00000000000E+00  0.00000000000E+00  0.45593999997E+02  0.45594000000E+02  0.51100000000E-03 0. -1.
         11   -1    0    0    0    0 -0.00000000000E+00 -0.00000000000E+00 -0.45593999997E+02  0.45594000000E+02  0.51100000000E-03 0.  1.
         23    2    1    2    0    0  0.00000000000E+00  0.00000000000E+00  0.00000000000E+00  0.91188000000E+02  0.91188000000E+02 0.  0.
    9900012    2    3    3    0    0  0.15845180482E+02  0.17241046101E+02  0.33239167660E+02  0.50528859799E+02  0.29999999845E+02 0.  0.
        -12    1    3    3    0    0 -0.15845180482E+02 -0.17241046101E+02 -0.33239167660E+02  0.40659140201E+02  0.00000000000E+00 0.  1.
         11    1    4    4    0    0  0.44005723145E+01  0.10924188171E+02  0.13486549225E+02  0.17905025388E+02  0.51100000000E-03 0. -1.
        -11    1    4    4    0    0 -0.55224715775E-01  0.11183334724E+02  0.27292858663E+01  0.11511690880E+02  0.51100000000E-03 0.  1.
         12    1    4    4    0    0  0.11499832883E+02 -0.48664767943E+01  0.17023332569E+02  0.21112143531E+02  0.00000000000E+00 0. -1.
</event>
<event>
 8    1  0.1338956E-013  0.9118800E+02  0.7816164E-02  0.1184000E+00
        -11   -1    0    0    0    0  0.00000000000E+00  0.00000000000E+00  0.45593999997E+02  0.45594000000E+02  0.51100000000E-03 0. -1.
         11   -1    0    0    0    0 -0.00000000000E+00 -0.00000000000E+00 -0.45593999997E+02  0.45594000000E+02  0.51100000000E-03 0.  1.
         23    2    1    2    0    0 -0.35527136788E-14  0.53290705182E-14 -0.71054273576E-14  0.91188000000E+02  0.91188000000E+02 0.  0.
    9900012    2    3    3    0    0 -0.19178231143E+02  0.15232157653E+02  0.32455237209E+02  0.50528860820E+02  0.30000002948E+02 0.  0.
        -12    1    3    3    0    0  0.19178231143E+02 -0.15232157653E+02 -0.32455237209E+02  0.40659139180E+02  0.00000000000E+00 0.  1.
         11    1    4    4    0    0 -0.14114053820E+02  0.11874658588E+02  0.15605723333E+02  0.24160973342E+02  0.51100000000E-03 0.  1.
        -11    1    4    4    0    0 -0.11381349316E+02  0.62042888878E+01  0.84248832743E+01  0.15459850300E+02  0.51100000000E-03 0. -1.
         12    1    4    4    0    0  0.63171719928E+01 -0.28467898235E+01  0.84246306022E+01  0.10908037178E+02  0.00000000000E+00 0. -1.
</event>
<event>
 8    1  0.1338956E-013  0.9118800E+02  0.7816164E-02  0.1184000E+00
        -11   -1    0    0    0    0  0.00000000000E+00  0.00000000000E+00  0.45593999997E+02  0.45594000000E+02  0.51100000000E-03 0. -1.
         11   -1    0    0    0    0 -0.00000000000E+00 -0.00000000000E+00 -0.45593999997E+02  0.45594000000E+02  0.51100000000E-03 0.  1.
         23    2    1    2    0    0  0.00000000000E+00  0.35527136788E-14  0.88817841970E-15  0.91188000000E+02  0.91188000000E+02 0.  0.
    9900012    2    3    3    0    0  0.33935777357E+02  0.21371444479E+02  0.66925769732E+01  0.50528853299E+02  0.29999980088E+02 0.  0.
        -12    1    3    3    0    0 -0.33935777357E+02 -0.21371444479E+02 -0.66925769732E+01  0.40659146701E+02  0.00000000000E+00 0.  1.
         11    1    4    4    0    0  0.15893611991E+02  0.17145193887E+02  0.11056253774E+02  0.25861270721E+02  0.51100000000E-03 0. -1.
        -11    1    4    4    0    0  0.78766343366E+01  0.37474522721E+01  0.56481032718E+01  0.10391623446E+02  0.51100000000E-03 0.  1.
        -12    1    4    4    0    0  0.10165531029E+02  0.47879831932E+00 -0.10011780072E+02  0.14275959133E+02  0.00000000000E+00 0.  1.
</event>
<event>
 8    1  0.1502711E-013  0.9118800E+02  0.7816164E-02  0.1184000E+00
        -11   -1    0    0    0    0  0.00000000000E+00  0.00000000000E+00  0.45593999997E+02  0.45594000000E+02  0.51100000000E-03 0. -1.
         11   -1    0    0    0    0 -0.00000000000E+00 -0.00000000000E+00 -0.45593999997E+02  0.45594000000E+02  0.51100000000E-03 0.  1.
         23    2    1    2    0    0  0.00000000000E+00  0.17763568394E-14  0.00000000000E+00  0.91188000000E+02  0.91188000000E+02 0.  0.
    9900012    2    3    3    0    0  0.18000086565E+02  0.90752654858E+01 -0.35310073410E+02  0.50528870100E+02  0.30000031156E+02 0.  0.
         12    1    3    3    0    0 -0.18000086565E+02 -0.90752654858E+01  0.35310073410E+02  0.40659129900E+02  0.00000000000E+00 0. -1.
         11    1    4    4    0    0  0.52799900674E+01 -0.31646895773E+01 -0.14384631229E+02  0.15646442761E+02  0.51100000000E-03 0. -1.
        -11    1    4    4    0    0  0.27777872082E+01  0.47818323038E+01 -0.21734883724E+02  0.22427375966E+02  0.51100000000E-03 0.  1.
         12    1    4    4    0    0  0.99423092895E+01  0.74581227593E+01  0.80944154219E+00  0.12455051373E+02  0.00000000000E+00 0. -1.
</event>
<event>
 8    1  0.1338956E-013  0.9118800E+02  0.7816164E-02  0.1184000E+00
        -11   -1    0    0    0    0  0.00000000000E+00  0.00000000000E+00  0.45593999997E+02  0.45594000000E+02  0.51100000000E-03 0. -1.
         11   -1    0    0    0    0 -0.00000000000E+00 -0.00000000000E+00 -0.45593999997E+02  0.45594000000E+02  0.51100000000E-03 0.  1.
         23    2    1    2    0    0  0.00000000000E+00  0.00000000000E+00  0.00000000000E+00  0.91188000000E+02  0.91188000000E+02 0.  0.
    9900012    2    3    3    0    0 -0.16498559785E+02  0.34213029397E+02 -0.14506300436E+02  0.50528848412E+02  0.29999965232E+02 0.  0.
         12    1    3    3    0    0  0.16498559785E+02 -0.34213029397E+02  0.14506300436E+02  0.40659151588E+02  0.00000000000E+00 0. -1.
         11    1    4    4    0    0  0.54014385202E+01  0.80550559906E+01  0.83880116952E+00  0.97346316192E+01  0.51100000000E-03 0. -1.
        -11    1    4    4    0    0 -0.88525537943E+01  0.21775852160E+02 -0.63402727517E+01  0.24346550163E+02  0.51100000000E-03 0.  1.
        -12    1    4    4    0    0 -0.13047444511E+02  0.43821212465E+01 -0.90048288541E+01  0.16447666630E+02  0.00000000000E+00 0.  1.
</event>
<event>
 8    1  0.1338956E-013  0.9118800E+02  0.7816164E-02  0.1184000E+00
        -11   -1    0    0    0    0  0.00000000000E+00  0.00000000000E+00  0.45593999997E+02  0.45594000000E+02  0.51100000000E-03 0. -1.
         11   -1    0    0    0    0 -0.00000000000E+00 -0.00000000000E+00 -0.45593999997E+02  0.45594000000E+02  0.51100000000E-03 0.  1.
         23    2    1    2    0    0  0.00000000000E+00 -0.35527136788E-14 -0.35527136788E-14  0.91188000000E+02  0.91188000000E+02 0.  0.
    9900012    2    3    3    0    0 -0.13599535552E+02  0.24497894784E+02 -0.29463047650E+02  0.50528863353E+02  0.30000010648E+02 0.  0.
         12    1    3    3    0    0  0.13599535552E+02 -0.24497894784E+02  0.29463047650E+02  0.40659136647E+02  0.00000000000E+00 0. -1.
         11    1    4    4    0    0 -0.25590331342E+01  0.86563699068E+01  0.37704950395E+01  0.97825366674E+01  0.51100000000E-03 0. -1.
        -11    1    4    4    0    0  0.26489158983E+01  0.63281641417E+01 -0.85757814214E+01  0.10982096525E+02  0.51100000000E-03 0.  1.
         12    1    4    4    0    0 -0.13689418316E+02  0.95133607353E+01 -0.24657761268E+02  0.29764230160E+02  0.00000000000E+00 0. -1.
</event>
<event>
 8    1  0.1338956E-013  0.9118800E+02  0.7816164E-02  0.1184000E+00
        -11   -1    0    0    0    0  0.00000000000E+00  0.00000000000E+00  0.45593999997E+02  0.45594000000E+02  0.51100000000E-03 0. -1.
         11   -1    0    0    0    0 -0.00000000000E+00 -0.00000000000E+00 -0.45593999997E+02  0.45594000000E+02  0.51100000000E-03 0.  1.
         23    2    1    2    0    0 -0.88817841970E-15  0.00000000000E+00  0.00000000000E+00  0.91188000000E+02  0.91188000000E+02 0.  0.
    9900012    2    3    3    0    0 -0.33384903581E+01  0.20337937344E+02  0.35048396664E+02  0.50528839630E+02  0.29999938538E+02 0.  0.
        -12    1    3    3    0    0  0.33384903581E+01 -0.20337937344E+02 -0.35048396664E+02  0.40659160370E+02  0.00000000000E+00 0.  1.
         11    1    4    4    0    0 -0.74227226195E+01 -0.17574415265E+01  0.57511433720E+01  0.95530655892E+01  0.51100000000E-03 0. -1.
        -11    1    4    4    0    0  0.33704114438E+01  0.12059783813E+02  0.30811453012E+01  0.12895406761E+02  0.51100000000E-03 0.  1.
         12    1    4    4    0    0  0.71382081762E+00  0.10035595058E+02  0.26216107991E+02  0.28080367279E+02  0.00000000000E+00 0. -1.
</event>
<event>
 8    1  0.1338956E-013  0.9118800E+02  0.7816164E-02  0.1184000E+00
        -11   -1    0    0    0    0  0.00000000000E+00  0.00000000000E+00  0.45593999997E+02  0.45594000000E+02  0.51100000000E-03 0. -1.
         11   -1    0    0    0    0 -0.00000000000E+00 -0.00000000000E+00 -0.45593999997E+02  0.45594000000E+02  0.51100000000E-03 0.  1.
         23    2    1    2    0    0  0.00000000000E+00  0.88817841970E-15 -0.71054273576E-14  0.91188000000E+02  0.91188000000E+02 0.  0.
    9900012    2    3    3    0    0 -0.51324117841E+01  0.60421811456E+01 -0.39878773567E+02  0.50528853613E+02  0.29999981042E+02 0.  0.
         12    1    3    3    0    0  0.51324117841E+01 -0.60421811456E+01  0.39878773567E+02  0.40659146387E+02  0.00000000000E+00 0. -1.
         11    1    4    4    0    0  0.12128935141E+01 -0.73528971734E+01 -0.44299484175E+01  0.86695242523E+01  0.51100000000E-03 0. -1.
        -11    1    4    4    0    0 -0.22665192933E+01  0.65094428395E+00 -0.24379515866E+02  0.24493297701E+02  0.51100000000E-03 0.  1.
         12    1    4    4    0    0 -0.40787860049E+01  0.12744134035E+02 -0.11069309284E+02  0.17366031659E+02  0.00000000000E+00 0. -1.
</event>
<event>
 8    1  0.1338956E-013  0.9118800E+02  0.7816164E-02  0.1184000E+00
        -11   -1    0    0    0    0  0.00000000000E+00  0.00000000000E+00  0.45593999997E+02  0.45594000000E+02  0.51100000000E-03 0.  1.
         11   -1    0    0    0    0 -0.00000000000E+00 -0.00000000000E+00 -0.45593999997E+02  0.45594000000E+02  0.51100000000E-03 0. -1.
         23    2    1    2    0    0 -0.17763568394E-14  0.00000000000E+00  0.00000000000E+00  0.91188000000E+02  0.91188000000E+02 0.  0.
    9900012    2    3    3    0    0 -0.88582056974E+01 -0.33959720090E+02 -0.20528899961E+02  0.50528854284E+02  0.29999983081E+02 0.  0.
         12    1    3    3    0    0  0.88582056974E+01  0.33959720090E+02  0.20528899961E+02  0.40659145716E+02  0.00000000000E+00 0. -1.
         11    1    4    4    0    0 -0.54844803962E+01 -0.37000803917E+01 -0.12391534795E+02  0.14047072825E+02  0.51100000000E-03 0. -1.
        -11    1    4    4    0    0 -0.11021553134E+02 -0.18527840085E+02 -0.49602814481E+01  0.22121480150E+02  0.51100000000E-03 0.  1.
         12    1    4    4    0    0  0.76478278331E+01 -0.11731799613E+02 -0.31770837180E+01  0.14360301309E+02  0.00000000000E+00 0. -1.
</event>
<event>
 8    1  0.1338956E-013  0.9118800E+02  0.7816164E-02  0.1184000E+00
        -11   -1    0    0    0    0  0.00000000000E+00  0.00000000000E+00  0.45593999997E+02  0.45594000000E+02  0.51100000000E-03 0. -1.
         11   -1    0    0    0    0 -0.00000000000E+00 -0.00000000000E+00 -0.45593999997E+02  0.45594000000E+02  0.51100000000E-03 0.  1.
         23    2    1    2    0    0  0.00000000000E+00  0.00000000000E+00 -0.71054273576E-14  0.91188000000E+02  0.91188000000E+02 0.  0.
    9900012    2    3    3    0    0 -0.84747677702E+01 -0.13715586753E+02 -0.37325966352E+02  0.50528846383E+02  0.29999959065E+02 0.  0.
         12    1    3    3    0    0  0.84747677702E+01  0.13715586753E+02  0.37325966352E+02  0.40659153617E+02  0.00000000000E+00 0. -1.
         11    1    4    4    0    0 -0.89280171535E+00  0.12313552836E+01 -0.27570235341E+00  0.15457499106E+01  0.51100000000E-03 0. -1.
        -11    1    4    4    0    0 -0.18425545554E+01  0.66331635019E+01 -0.19194282952E+02  0.20391526761E+02  0.51100000000E-03 0.  1.
         12    1    4    4    0    0 -0.57394114995E+01 -0.21580105538E+02 -0.17855981047E+02  0.28591569711E+02  0.00000000000E+00 0. -1.
</event>
<event>
 8    1  0.1338956E-013  0.9118800E+02  0.7816164E-02  0.1184000E+00
        -11   -1    0    0    0    0  0.00000000000E+00  0.00000000000E+00  0.45593999997E+02  0.45594000000E+02  0.51100000000E-03 0. -1.
         11   -1    0    0    0    0 -0.00000000000E+00 -0.00000000000E+00 -0.45593999997E+02  0.45594000000E+02  0.51100000000E-03 0.  1.
         23    2    1    2    0    0  0.17763568394E-14  0.00000000000E+00  0.00000000000E+00  0.91188000000E+02  0.91188000000E+02 0.  0.
    9900012    2    3    3    0    0 -0.14956833598E+02  0.17161869567E+02 -0.33688712901E+02  0.50528855700E+02  0.29999987385E+02 0.  0.
         12    1    3    3    0    0  0.14956833598E+02 -0.17161869567E+02  0.33688712901E+02  0.40659144300E+02  0.00000000000E+00 0. -1.
         11    1    4    4    0    0 -0.97655771993E+01  0.18695702421E+01 -0.81523398625E+01  0.12857777274E+02  0.51100000000E-03 0. -1.
        -11    1    4    4    0    0 -0.11673740180E+02  0.67448022808E+00 -0.10265644324E+02  0.15560031716E+02  0.51100000000E-03 0.  1.
         12    1    4    4    0    0  0.64824837813E+01  0.14617819097E+02 -0.15270728715E+02  0.22111046710E+02  0.00000000000E+00 0. -1.
</event>
<event>
 8    1  0.1338956E-013  0.9118800E+02  0.7816164E-02  0.1184000E+00
        -11   -1    0    0    0    0  0.00000000000E+00  0.00000000000E+00  0.45593999997E+02  0.45594000000E+02  0.51100000000E-03 0. -1.
         11   -1    0    0    0    0 -0.00000000000E+00 -0.00000000000E+00 -0.45593999997E+02  0.45594000000E+02  0.51100000000E-03 0.  1.
         23    2    1    2    0    0  0.00000000000E+00  0.00000000000E+00  0.71054273576E-14  0.91188000000E+02  0.91188000000E+02 0.  0.
    9900012    2    3    3    0    0 -0.11232387805E+02  0.11308705789E+02 -0.37404647294E+02  0.50528917354E+02  0.30000174789E+02 0.  0.
         12    1    3    3    0    0  0.11232387805E+02 -0.11308705789E+02  0.37404647294E+02  0.40659082646E+02  0.00000000000E+00 0. -1.
         11    1    4    4    0    0 -0.17110679278E+02  0.98039305942E+01 -0.30141084110E+02  0.36019124809E+02  0.51100000000E-03 0.  1.
        -11    1    4    4    0    0  0.85857034088E+00  0.51336971488E+01 -0.33442618320E+00  0.52157291512E+01  0.51100000000E-03 0. -1.
        -12    1    4    4    0    0  0.50197211320E+01 -0.36289219537E+01 -0.69291370005E+01  0.92940633934E+01  0.00000000000E+00 0.  1.
</event>
<event>
 8    1  0.1338956E-013  0.9118800E+02  0.7816164E-02  0.1184000E+00
        -11   -1    0    0    0    0  0.00000000000E+00  0.00000000000E+00  0.45593999997E+02  0.45594000000E+02  0.51100000000E-03 0. -1.
         11   -1    0    0    0    0 -0.00000000000E+00 -0.00000000000E+00 -0.45593999997E+02  0.45594000000E+02  0.51100000000E-03 0.  1.
         23    2    1    2    0    0  0.00000000000E+00  0.35527136788E-14  0.00000000000E+00  0.91188000000E+02  0.91188000000E+02 0.  0.
    9900012    2    3    3    0    0  0.19602076223E+02 -0.11496489314E+02 -0.33715781047E+02  0.50528873713E+02  0.30000042138E+02 0.  0.
         12    1    3    3    0    0 -0.19602076223E+02  0.11496489314E+02  0.33715781047E+02  0.40659126287E+02  0.00000000000E+00 0. -1.
         11    1    4    4    0    0  0.87578268703E+01 -0.17639389796E+02 -0.14815114499E+02  0.24644172166E+02  0.51100000000E-03 0. -1.
        -11    1    4    4    0    0 -0.94964508156E+00 -0.15324074109E+01  0.54354349380E+00  0.18829599159E+01  0.51100000000E-03 0.  1.
        -12    1    4    4    0    0  0.11793894435E+02  0.76753078928E+01 -0.19444210042E+02  0.24001741631E+02  0.00000000000E+00 0.  1.
</event>
<event>
 8    1  0.1338956E-013  0.9118800E+02  0.7816164E-02  0.1184000E+00
        -11   -1    0    0    0    0  0.00000000000E+00  0.00000000000E+00  0.45593999997E+02  0.45594000000E+02  0.51100000000E-03 0. -1.
         11   -1    0    0    0    0 -0.00000000000E+00 -0.00000000000E+00 -0.45593999997E+02  0.45594000000E+02  0.51100000000E-03 0.  1.
         23    2    1    2    0    0 -0.88817841970E-15  0.00000000000E+00  0.00000000000E+00  0.91188000000E+02  0.91188000000E+02 0.  0.
    9900012    2    3    3    0    0 -0.72288117187E+01 -0.29511774119E+02  0.27017855359E+02  0.50528867708E+02  0.30000023886E+02 0.  0.
        -12    1    3    3    0    0  0.72288117187E+01  0.29511774119E+02 -0.27017855359E+02  0.40659132292E+02  0.00000000000E+00 0.  1.
         11    1    4    4    0    0  0.12840046252E-01 -0.35594426082E+01  0.17002201729E+02  0.17370799073E+02  0.51100000000E-03 0. -1.
        -11    1    4    4    0    0 -0.10566420044E+01  0.15579780844E+00 -0.31103866870E+01  0.32886579157E+01  0.51100000000E-03 0.  1.
        -12    1    4    4    0    0 -0.61850097606E+01 -0.26108129319E+02  0.13126040317E+02  0.29869410719E+02  0.00000000000E+00 0.  1.
</event>
<event>
 8    1  0.1338956E-013  0.9118800E+02  0.7816164E-02  0.1184000E+00
        -11   -1    0    0    0    0  0.00000000000E+00  0.00000000000E+00  0.45593999997E+02  0.45594000000E+02  0.51100000000E-03 0. -1.
         11   -1    0    0    0    0 -0.00000000000E+00 -0.00000000000E+00 -0.45593999997E+02  0.45594000000E+02  0.51100000000E-03 0.  1.
         23    2    1    2    0    0  0.00000000000E+00  0.00000000000E+00  0.35527136788E-14  0.91188000000E+02  0.91188000000E+02 0.  0.
    9900012    2    3    3    0    0 -0.15981131723E+02 -0.22664902397E+02  0.29733211649E+02  0.50528951231E+02  0.30000277761E+02 0.  0.
        -12    1    3    3    0    0  0.15981131723E+02  0.22664902397E+02 -0.29733211649E+02  0.40659048769E+02  0.00000000000E+00 0.  1.
         11    1    4    4    0    0  0.30925439177E+00  0.44862500676E+01  0.12025303284E+01  0.46549068089E+01  0.51100000000E-03 0.  1.
        -11    1    4    4    0    0 -0.60744515626E+00 -0.21273134988E+01 -0.22929983837E+01  0.31862664968E+01  0.51100000000E-03 0. -1.
         12    1    4    4    0    0 -0.15682940958E+02 -0.25023838966E+02  0.30823679704E+02  0.42687777925E+02  0.00000000000E+00 0. -1.
</event>
<event>
 8    1  0.1338956E-013  0.9118800E+02  0.7816164E-02  0.1184000E+00
        -11   -1    0    0    0    0  0.00000000000E+00  0.00000000000E+00  0.45593999997E+02  0.45594000000E+02  0.51100000000E-03 0. -1.
         11   -1    0    0    0    0 -0.00000000000E+00 -0.00000000000E+00 -0.45593999997E+02  0.45594000000E+02  0.51100000000E-03 0.  1.
         23    2    1    2    0    0  0.00000000000E+00  0.00000000000E+00  0.71054273576E-14  0.91188000000E+02  0.91188000000E+02 0.  0.
    9900012    2    3    3    0    0  0.13855553717E+02  0.18886258408E+02 -0.33234000409E+02  0.50528857011E+02  0.29999991369E+02 0.  0.
         12    1    3    3    0    0 -0.13855553717E+02 -0.18886258408E+02  0.33234000409E+02  0.40659142989E+02  0.00000000000E+00 0. -1.
         11    1    4    4    0    0  0.11767597550E+02 -0.44053992726E+00 -0.22936064562E+02  0.25782425901E+02  0.51100000000E-03 0. -1.
        -11    1    4    4    0    0  0.39714764854E+00 -0.12778276561E+01  0.49263994831E+00  0.14259257180E+01  0.51100000000E-03 0.  1.
        -12    1    4    4    0    0  0.16908085185E+01  0.20604625992E+02 -0.10790575795E+02  0.23320505391E+02  0.00000000000E+00 0.  1.
</event>
<event>
 8    1  0.1338956E-013  0.9118800E+02  0.7816164E-02  0.1184000E+00
        -11   -1    0    0    0    0  0.00000000000E+00  0.00000000000E+00  0.45593999997E+02  0.45594000000E+02  0.51100000000E-03 0. -1.
         11   -1    0    0    0    0 -0.00000000000E+00 -0.00000000000E+00 -0.45593999997E+02  0.45594000000E+02  0.51100000000E-03 0.  1.
         23    2    1    2    0    0  0.88817841970E-15  0.71054273576E-14  0.35527136788E-14  0.91188000000E+02  0.91188000000E+02 0.  0.
    9900012    2    3    3    0    0 -0.76375829291E+01 -0.32671457260E+02 -0.22965352571E+02  0.50528877884E+02  0.30000054817E+02 0.  0.
         12    1    3    3    0    0  0.76375829291E+01  0.32671457260E+02  0.22965352571E+02  0.40659122116E+02  0.00000000000E+00 0. -1.
         11    1    4    4    0    0 -0.10034280804E+02 -0.21551212404E+02 -0.10607851568E+02  0.26032058361E+02  0.51100000000E-03 0. -1.
        -11    1    4    4    0    0  0.83939946452E+00 -0.84912639336E+01  0.28417819313E+01  0.89934353535E+01  0.51100000000E-03 0.  1.
         12    1    4    4    0    0  0.15572984102E+01 -0.26289809227E+01 -0.15199282934E+02  0.15503384170E+02  0.00000000000E+00 0. -1.
</event>
<event>
 8    1  0.1338956E-013  0.9118800E+02  0.7816164E-02  0.1184000E+00
        -11   -1    0    0    0    0  0.00000000000E+00  0.00000000000E+00  0.45593999997E+02  0.45594000000E+02  0.51100000000E-03 0. -1.
         11   -1    0    0    0    0 -0.00000000000E+00 -0.00000000000E+00 -0.45593999997E+02  0.45594000000E+02  0.51100000000E-03 0.  1.
         23    2    1    2    0    0  0.00000000000E+00 -0.17763568394E-14  0.00000000000E+00  0.91188000000E+02  0.91188000000E+02 0.  0.
    9900012    2    3    3    0    0  0.26037752162E+02 -0.15031909819E+02 -0.27372409980E+02  0.50528786056E+02  0.29999775696E+02 0.  0.
         12    1    3    3    0    0 -0.26037752162E+02  0.15031909819E+02  0.27372409980E+02  0.40659213944E+02  0.00000000000E+00 0. -1.
         11    1    4    4    0    0  0.14693635877E+02 -0.31888272702E+01 -0.41130585398E+01  0.15588098199E+02  0.51100000000E-03 0. -1.
        -11    1    4    4    0    0  0.60034190422E+01 -0.47497760070E-01  0.21868889486E+01  0.63895054400E+01  0.51100000000E-03 0.  1.
        -12    1    4    4    0    0  0.53406972430E+01 -0.11795584788E+02 -0.25446240388E+02  0.28551182418E+02  0.00000000000E+00 0.  1.
</event>
<event>
 8    1  0.1338956E-013  0.9118800E+02  0.7816164E-02  0.1184000E+00
        -11   -1    0    0    0    0  0.00000000000E+00  0.00000000000E+00  0.45593999997E+02  0.45594000000E+02  0.51100000000E-03 0. -1.
         11   -1    0    0    0    0 -0.00000000000E+00 -0.00000000000E+00 -0.45593999997E+02  0.45594000000E+02  0.51100000000E-03 0.  1.
         23    2    1    2    0    0  0.00000000000E+00  0.35527136788E-14 -0.17763568394E-14  0.91188000000E+02  0.91188000000E+02 0.  0.
    9900012    2    3    3    0    0  0.21494752455E+02 -0.31119930614E+02 -0.14922851762E+02  0.50528856265E+02  0.29999989104E+02 0.  0.
         12    1    3    3    0    0 -0.21494752455E+02  0.31119930614E+02  0.14922851762E+02  0.40659143735E+02  0.00000000000E+00 0. -1.
         11    1    4    4    0    0  0.12478999858E+02 -0.12973191371E+02  0.41072164403E+01  0.18463433022E+02  0.51100000000E-03 0. -1.
        -11    1    4    4    0    0  0.11466510975E+01 -0.17148319215E+02 -0.94004828133E+01  0.19589505813E+02  0.51100000000E-03 0.  1.
        -12    1    4    4    0    0  0.78691014988E+01 -0.99842002880E+00 -0.96295853892E+01  0.12475917430E+02  0.00000000000E+00 0.  1.
</event>
<event>
 8    1  0.1338956E-013  0.9118800E+02  0.7816164E-02  0.1184000E+00
        -11   -1    0    0    0    0  0.00000000000E+00  0.00000000000E+00  0.45593999997E+02  0.45594000000E+02  0.51100000000E-03 0. -1.
         11   -1    0    0    0    0 -0.00000000000E+00 -0.00000000000E+00 -0.45593999997E+02  0.45594000000E+02  0.51100000000E-03 0.  1.
         23    2    1    2    0    0  0.00000000000E+00 -0.17763568394E-14  0.00000000000E+00  0.91188000000E+02  0.91188000000E+02 0.  0.
    9900012    2    3    3    0    0  0.10957153951E+02  0.12865948474E+02  0.36980725311E+02  0.50528857150E+02  0.29999991792E+02 0.  0.
        -12    1    3    3    0    0 -0.10957153951E+02 -0.12865948474E+02 -0.36980725311E+02  0.40659142850E+02  0.00000000000E+00 0.  1.
         11    1    4    4    0    0 -0.16547470956E+01  0.12886067767E+02  0.16394570527E+02  0.20918194794E+02  0.51100000000E-03 0. -1.
        -11    1    4    4    0    0 -0.64642684742E+00 -0.88553798735E+00 -0.26367231734E+01  0.28555830491E+01  0.51100000000E-03 0.  1.
         12    1    4    4    0    0  0.13258327894E+02  0.86541869468E+00  0.23222877957E+02  0.26755079306E+02  0.00000000000E+00 0. -1.
</event>
<event>
 8    1  0.1338956E-013  0.9118800E+02  0.7816164E-02  0.1184000E+00
        -11   -1    0    0    0    0  0.00000000000E+00  0.00000000000E+00  0.45593999997E+02  0.45594000000E+02  0.51100000000E-03 0. -1.
         11   -1    0    0    0    0 -0.00000000000E+00 -0.00000000000E+00 -0.45593999997E+02  0.45594000000E+02  0.51100000000E-03 0.  1.
         23    2    1    2    0    0  0.17763568394E-14  0.17763568394E-14  0.00000000000E+00  0.91188000000E+02  0.91188000000E+02 0.  0.
    9900012    2    3    3    0    0  0.90808928925E+01  0.15796253042E+02 -0.36348069754E+02  0.50528850959E+02  0.29999972976E+02 0.  0.
         12    1    3    3    0    0 -0.90808928925E+01 -0.15796253042E+02  0.36348069754E+02  0.40659149041E+02  0.00000000000E+00 0. -1.
         11    1    4    4    0    0 -0.57909294794E+01  0.62869125982E+01 -0.63230804359E+01  0.10632096722E+02  0.51100000000E-03 0. -1.
        -11    1    4    4    0    0  0.11721135150E+02  0.13843122089E+02 -0.13746798287E+02  0.22759426657E+02  0.51100000000E-03 0.  1.
        -12    1    4    4    0    0  0.31506872219E+01 -0.43337816457E+01 -0.16278191031E+02  0.17137327580E+02  0.00000000000E+00 0.  1.
</event>
<event>
 8    1  0.1488419E-013  0.9118800E+02  0.7816164E-02  0.1184000E+00
        -11   -1    0    0    0    0  0.00000000000E+00  0.00000000000E+00  0.45593999997E+02  0.45594000000E+02  0.51100000000E-03 0. -1.
         11   -1    0    0    0    0 -0.00000000000E+00 -0.00000000000E+00 -0.45593999997E+02  0.45594000000E+02  0.51100000000E-03 0.  1.
         23    2    1    2    0    0  0.00000000000E+00  0.00000000000E+00  0.35527136788E-14  0.91188000000E+02  0.91188000000E+02 0.  0.
    9900012    2    3    3    0    0  0.24661914065E+02  0.23014833450E+02 -0.22699632936E+02  0.50528857123E+02  0.29999991710E+02 0.  0.
         12    1    3    3    0    0 -0.24661914065E+02 -0.23014833450E+02  0.22699632936E+02  0.40659142877E+02  0.00000000000E+00 0. -1.
         11    1    4    4    0    0  0.58298315062E+01 -0.95233644645E+00  0.24262432847E+01  0.63859640490E+01  0.51100000000E-03 0. -1.
        -11    1    4    4    0    0  0.15132971063E+02  0.87654269950E+01 -0.41482916883E+01  0.17973531868E+02  0.51100000000E-03 0.  1.
        -12    1    4    4    0    0  0.36991114955E+01  0.15201742902E+02 -0.20977584533E+02  0.26169361206E+02  0.00000000000E+00 0.  1.
</event>
<event>
 8    1  0.1338956E-013  0.9118800E+02  0.7816164E-02  0.1184000E+00
        -11   -1    0    0    0    0  0.00000000000E+00  0.00000000000E+00  0.45593999997E+02  0.45594000000E+02  0.51100000000E-03 0. -1.
         11   -1    0    0    0    0 -0.00000000000E+00 -0.00000000000E+00 -0.45593999997E+02  0.45594000000E+02  0.51100000000E-03 0.  1.
         23    2    1    2    0    0  0.00000000000E+00  0.00000000000E+00  0.00000000000E+00  0.91188000000E+02  0.91188000000E+02 0.  0.
    9900012    2    3    3    0    0 -0.12579908208E+02 -0.15657851217E+02 -0.35351709145E+02  0.50528859149E+02  0.29999997868E+02 0.  0.
         12    1    3    3    0    0  0.12579908208E+02  0.15657851217E+02  0.35351709145E+02  0.40659140851E+02  0.00000000000E+00 0. -1.
         11    1    4    4    0    0 -0.46145181685E+01 -0.10641411791E+01 -0.16201156552E+01  0.50050923442E+01  0.51100000000E-03 0. -1.
        -11    1    4    4    0    0 -0.13805808345E+02 -0.24624536171E+01 -0.71830312585E+01  0.15756267331E+02  0.51100000000E-03 0.  1.
        -12    1    4    4    0    0  0.58404183052E+01 -0.12131256421E+02 -0.26548562232E+02  0.29767499474E+02  0.00000000000E+00 0.  1.
</event>
<event>
 8    1  0.1338956E-013  0.9118800E+02  0.7816164E-02  0.1184000E+00
        -11   -1    0    0    0    0  0.00000000000E+00  0.00000000000E+00  0.45593999997E+02  0.45594000000E+02  0.51100000000E-03 0. -1.
         11   -1    0    0    0    0 -0.00000000000E+00 -0.00000000000E+00 -0.45593999997E+02  0.45594000000E+02  0.51100000000E-03 0.  1.
         23    2    1    2    0    0  0.35527136788E-14  0.00000000000E+00 -0.35527136788E-14  0.91188000000E+02  0.91188000000E+02 0.  0.
    9900012    2    3    3    0    0 -0.20424974116E+02 -0.30751493589E+02  0.17039127863E+02  0.50528858298E+02  0.29999995284E+02 0.  0.
        -12    1    3    3    0    0  0.20424974116E+02  0.30751493589E+02 -0.17039127863E+02  0.40659141702E+02  0.00000000000E+00 0.  1.
         11    1    4    4    0    0 -0.17323146297E+01 -0.21339755830E+02  0.57125530593E+01  0.22158956555E+02  0.51100000000E-03 0. -1.
        -11    1    4    4    0    0 -0.30200830167E+01 -0.54709678525E+01 -0.28538967478E+01  0.68700158354E+01  0.51100000000E-03 0.  1.
         12    1    4    4    0    0 -0.15672576470E+02 -0.39407699057E+01  0.14180471552E+02  0.21499885908E+02  0.00000000000E+00 0. -1.
</event>
<event>
 8    1  0.1338956E-013  0.9118800E+02  0.7816164E-02  0.1184000E+00
        -11   -1    0    0    0    0  0.00000000000E+00  0.00000000000E+00  0.45593999997E+02  0.45594000000E+02  0.51100000000E-03 0. -1.
         11   -1    0    0    0    0 -0.00000000000E+00 -0.00000000000E+00 -0.45593999997E+02  0.45594000000E+02  0.51100000000E-03 0.  1.
         23    2    1    2    0    0  0.35527136788E-14  0.00000000000E+00 -0.35527136788E-14  0.91188000000E+02  0.91188000000E+02 0.  0.
    9900012    2    3    3    0    0 -0.22940510988E+02 -0.14597619469E+02  0.30229329366E+02  0.50528808020E+02  0.29999842457E+02 0.  0.
        -12    1    3    3    0    0  0.22940510988E+02  0.14597619469E+02 -0.30229329366E+02  0.40659191980E+02  0.00000000000E+00 0.  1.
         11    1    4    4    0    0 -0.10725865554E+02 -0.32873451727E+00  0.20951999809E+01  0.10933531977E+02  0.51100000000E-03 0. -1.
        -11    1    4    4    0    0 -0.14948933786E+01 -0.21911246487E+01 -0.33130339130E+01  0.42440461130E+01  0.51100000000E-03 0.  1.
        -12    1    4    4    0    0 -0.10719752055E+02 -0.12077760303E+02  0.31447163298E+02  0.35351229930E+02  0.00000000000E+00 0.  1.
</event>
<event>
 8    1  0.1338956E-013  0.9118800E+02  0.7816164E-02  0.1184000E+00
        -11   -1    0    0    0    0  0.00000000000E+00  0.00000000000E+00  0.45593999997E+02  0.45594000000E+02  0.51100000000E-03 0. -1.
         11   -1    0    0    0    0 -0.00000000000E+00 -0.00000000000E+00 -0.45593999997E+02  0.45594000000E+02  0.51100000000E-03 0.  1.
         23    2    1    2    0    0  0.22204460493E-15 -0.35527136788E-14  0.00000000000E+00  0.91188000000E+02  0.91188000000E+02 0.  0.
    9900012    2    3    3    0    0  0.14320329112E+01 -0.22657946887E+02  0.33730291528E+02  0.50528857831E+02  0.29999993863E+02 0.  0.
        -12    1    3    3    0    0 -0.14320329112E+01  0.22657946887E+02 -0.33730291528E+02  0.40659142169E+02  0.00000000000E+00 0.  1.
         11    1    4    4    0    0  0.37068227987E+01 -0.47957568224E+01  0.93599676036E+01  0.11151179873E+02  0.51100000000E-03 0. -1.
        -11    1    4    4    0    0  0.52372741094E+01 -0.20391577416E+02  0.23261152235E+02  0.31373980831E+02  0.51100000000E-03 0.  1.
        -12    1    4    4    0    0 -0.75120639969E+01  0.25293873518E+01  0.11091716893E+01  0.80036971273E+01  0.00000000000E+00 0.  1.
</event>
<event>
 8    1  0.1338956E-013  0.9118800E+02  0.7816164E-02  0.1184000E+00
        -11   -1    0    0    0    0  0.00000000000E+00  0.00000000000E+00  0.45593999997E+02  0.45594000000E+02  0.51100000000E-03 0. -1.
         11   -1    0    0    0    0 -0.00000000000E+00 -0.00000000000E+00 -0.45593999997E+02  0.45594000000E+02  0.51100000000E-03 0.  1.
         23    2    1    2    0    0  0.44408920985E-15  0.00000000000E+00  0.00000000000E+00  0.91188000000E+02  0.91188000000E+02 0.  0.
    9900012    2    3    3    0    0  0.32917896226E+01  0.11886045335E+02 -0.38743373515E+02  0.50528893468E+02  0.30000102186E+02 0.  0.
         12    1    3    3    0    0 -0.32917896226E+01 -0.11886045335E+02  0.38743373515E+02  0.40659106532E+02  0.00000000000E+00 0. -1.
         11    1    4    4    0    0 -0.11650752810E+01 -0.16293740116E+01 -0.83288044464E+01  0.85662853004E+01  0.51100000000E-03 0. -1.
        -11    1    4    4    0    0 -0.34471497908E+01 -0.34196465385E+01 -0.19973015642E+02  0.20554760476E+02  0.51100000000E-03 0.  1.
         12    1    4    4    0    0  0.79040146944E+01  0.16935065885E+02 -0.10441553427E+02  0.21407847692E+02  0.00000000000E+00 0. -1.
</event>
<event>
 8    1  0.1338956E-013  0.9118800E+02  0.7816164E-02  0.1184000E+00
        -11   -1    0    0    0    0  0.00000000000E+00  0.00000000000E+00  0.45593999997E+02  0.45594000000E+02  0.51100000000E-03 0. -1.
         11   -1    0    0    0    0 -0.00000000000E+00 -0.00000000000E+00 -0.45593999997E+02  0.45594000000E+02  0.51100000000E-03 0.  1.
         23    2    1    2    0    0  0.00000000000E+00  0.00000000000E+00  0.00000000000E+00  0.91188000000E+02  0.91188000000E+02 0.  0.
    9900012    2    3    3    0    0  0.13898354736E+02  0.12782709168E+02  0.36008381430E+02  0.50528862635E+02  0.30000008467E+02 0.  0.
        -12    1    3    3    0    0 -0.13898354736E+02 -0.12782709168E+02 -0.36008381430E+02  0.40659137365E+02  0.00000000000E+00 0.  1.
         11    1    4    4    0    0  0.12328623716E+02 -0.11275001948E+01  0.12098021309E+01  0.12439045014E+02  0.51100000000E-03 0.  1.
        -11    1    4    4    0    0 -0.66950152958E+00  0.10824514335E+01  0.99961837516E+01  0.10076885593E+02  0.51100000000E-03 0. -1.
        -12    1    4    4    0    0  0.22392325496E+01  0.12827757929E+02  0.24802395547E+02  0.28012932028E+02  0.00000000000E+00 0.  1.
</event>
<event>
 8    1  0.1338956E-013  0.9118800E+02  0.7816164E-02  0.1184000E+00
        -11   -1    0    0    0    0  0.00000000000E+00  0.00000000000E+00  0.45593999997E+02  0.45594000000E+02  0.51100000000E-03 0. -1.
         11   -1    0    0    0    0 -0.00000000000E+00 -0.00000000000E+00 -0.45593999997E+02  0.45594000000E+02  0.51100000000E-03 0.  1.
         23    2    1    2    0    0 -0.35527136788E-14  0.00000000000E+00  0.00000000000E+00  0.91188000000E+02  0.91188000000E+02 0.  0.
    9900012    2    3    3    0    0 -0.24321662285E+02  0.29650482637E+01  0.32447307695E+02  0.50528898385E+02  0.30000117130E+02 0.  0.
        -12    1    3    3    0    0  0.24321662285E+02 -0.29650482637E+01 -0.32447307695E+02  0.40659101615E+02  0.00000000000E+00 0.  1.
         11    1    4    4    0    0  0.49012147253E+01  0.16098777928E+01  0.24031274962E+01  0.56911013272E+01  0.51100000000E-03 0. -1.
        -11    1    4    4    0    0  0.99220059513E+00  0.11724951068E+01 -0.73791504420E+00  0.17040321799E+01  0.51100000000E-03 0.  1.
         12    1    4    4    0    0 -0.30215077606E+02  0.18267536407E+00  0.30782095243E+02  0.43133764878E+02  0.00000000000E+00 0. -1.
</event>
<event>
 8    1  0.1338956E-013  0.9118800E+02  0.7816164E-02  0.1184000E+00
        -11   -1    0    0    0    0  0.00000000000E+00  0.00000000000E+00  0.45593999997E+02  0.45594000000E+02  0.51100000000E-03 0. -1.
         11   -1    0    0    0    0 -0.00000000000E+00 -0.00000000000E+00 -0.45593999997E+02  0.45594000000E+02  0.51100000000E-03 0.  1.
         23    2    1    2    0    0  0.17763568394E-14 -0.35527136788E-14  0.00000000000E+00  0.91188000000E+02  0.91188000000E+02 0.  0.
    9900012    2    3    3    0    0  0.11931786833E+02 -0.16185440537E+02 -0.35338811122E+02  0.50528836286E+02  0.29999928374E+02 0.  0.
         12    1    3    3    0    0 -0.11931786833E+02  0.16185440537E+02  0.35338811122E+02  0.40659163714E+02  0.00000000000E+00 0. -1.
         11    1    4    4    0    0 -0.12910150188E+01 -0.24340272079E+01 -0.19306969129E+01  0.33643422920E+01  0.51100000000E-03 0. -1.
        -11    1    4    4    0    0 -0.55493786830E-01 -0.14004301337E+02 -0.30510974327E+02  0.33571462436E+02  0.51100000000E-03 0.  1.
         12    1    4    4    0    0  0.13278295639E+02  0.25288800745E+00 -0.28971398824E+01  0.13593031557E+02  0.00000000000E+00 0. -1.
</event>
<event>
 8    1  0.1338956E-013  0.9118800E+02  0.7816164E-02  0.1184000E+00
        -11   -1    0    0    0    0  0.00000000000E+00  0.00000000000E+00  0.45593999997E+02  0.45594000000E+02  0.51100000000E-03 0. -1.
         11   -1    0    0    0    0 -0.00000000000E+00 -0.00000000000E+00 -0.45593999997E+02  0.45594000000E+02  0.51100000000E-03 0.  1.
         23    2    1    2    0    0  0.00000000000E+00  0.00000000000E+00  0.17763568394E-14  0.91188000000E+02  0.91188000000E+02 0.  0.
    9900012    2    3    3    0    0  0.15084838945E+02  0.34352183233E+02  0.15669775536E+02  0.50528846981E+02  0.29999960883E+02 0.  0.
        -12    1    3    3    0    0 -0.15084838945E+02 -0.34352183233E+02 -0.15669775536E+02  0.40659153019E+02  0.00000000000E+00 0.  1.
         11    1    4    4    0    0  0.43816035605E-01  0.24087630667E+02  0.12223543159E+02  0.27011680411E+02  0.51100000000E-03 0. -1.
        -11    1    4    4    0    0  0.56622068315E+01  0.12410400956E+02  0.21312762067E+01  0.13806555567E+02  0.51100000000E-03 0.  1.
         12    1    4    4    0    0  0.93788160775E+01 -0.21458483896E+01  0.13149561704E+01  0.97106110033E+01  0.00000000000E+00 0. -1.
</event>
<event>
 8    1  0.1338956E-013  0.9118800E+02  0.7816164E-02  0.1184000E+00
        -11   -1    0    0    0    0  0.00000000000E+00  0.00000000000E+00  0.45593999997E+02  0.45594000000E+02  0.51100000000E-03 0. -1.
         11   -1    0    0    0    0 -0.00000000000E+00 -0.00000000000E+00 -0.45593999997E+02  0.45594000000E+02  0.51100000000E-03 0.  1.
         23    2    1    2    0    0  0.00000000000E+00  0.00000000000E+00 -0.71054273576E-14  0.91188000000E+02  0.91188000000E+02 0.  0.
    9900012    2    3    3    0    0  0.53172510964E+01 -0.11054339327E+02 -0.38764593534E+02  0.50528864630E+02  0.30000014530E+02 0.  0.
         12    1    3    3    0    0 -0.53172510964E+01  0.11054339327E+02  0.38764593534E+02  0.40659135370E+02  0.00000000000E+00 0. -1.
         11    1    4    4    0    0  0.84716082536E+01 -0.66245397693E+01 -0.28781114391E+02  0.30724667930E+02  0.51100000000E-03 0.  1.
        -11    1    4    4    0    0  0.41029098257E+01  0.30430141989E+01 -0.75352589322E+01  0.91035120634E+01  0.51100000000E-03 0. -1.
        -12    1    4    4    0    0 -0.72572669829E+01 -0.74728137566E+01 -0.24482202105E+01  0.10700684637E+02  0.00000000000E+00 0.  1.
</event>
<event>
 8    1  0.1338956E-013  0.9118800E+02  0.7816164E-02  0.1184000E+00
        -11   -1    0    0    0    0  0.00000000000E+00  0.00000000000E+00  0.45593999997E+02  0.45594000000E+02  0.51100000000E-03 0. -1.
         11   -1    0    0    0    0 -0.00000000000E+00 -0.00000000000E+00 -0.45593999997E+02  0.45594000000E+02  0.51100000000E-03 0.  1.
         23    2    1    2    0    0  0.17763568394E-14  0.00000000000E+00  0.00000000000E+00  0.91188000000E+02  0.91188000000E+02 0.  0.
    9900012    2    3    3    0    0 -0.10078008485E+02  0.20601501678E+02  0.33573478279E+02  0.50528848876E+02  0.29999966643E+02 0.  0.
        -12    1    3    3    0    0  0.10078008485E+02 -0.20601501678E+02 -0.33573478279E+02  0.40659151124E+02  0.00000000000E+00 0.  1.
         11    1    4    4    0    0  0.80100142663E+01  0.88809929294E+01  0.19802410773E+02  0.23133694834E+02  0.51100000000E-03 0. -1.
        -11    1    4    4    0    0  0.85896420990E+00  0.24353423286E+01  0.15273879131E+01  0.30002709660E+01  0.51100000000E-03 0.  1.
        -12    1    4    4    0    0 -0.18946986961E+02  0.92851664198E+01  0.12243679592E+02  0.24394883076E+02  0.00000000000E+00 0.  1.
</event>
<event>
 8    1  0.1338956E-013  0.9118800E+02  0.7816164E-02  0.1184000E+00
        -11   -1    0    0    0    0  0.00000000000E+00  0.00000000000E+00  0.45593999997E+02  0.45594000000E+02  0.51100000000E-03 0.  1.
         11   -1    0    0    0    0 -0.00000000000E+00 -0.00000000000E+00 -0.45593999997E+02  0.45594000000E+02  0.51100000000E-03 0. -1.
         23    2    1    2    0    0  0.00000000000E+00 -0.17763568394E-14  0.00000000000E+00  0.91188000000E+02  0.91188000000E+02 0.  0.
    9900012    2    3    3    0    0  0.36430486145E+02 -0.12484796858E+02 -0.13042840054E+02  0.50528854042E+02  0.29999982347E+02 0.  0.
         12    1    3    3    0    0 -0.36430486145E+02  0.12484796858E+02  0.13042840054E+02  0.40659145958E+02  0.00000000000E+00 0. -1.
         11    1    4    4    0    0  0.78536606986E+01 -0.11422058887E+02  0.27502170796E+01  0.14131776599E+02  0.51100000000E-03 0. -1.
        -11    1    4    4    0    0 -0.26928948243E+00 -0.12264975967E+01 -0.56985578446E+01  0.58352699124E+01  0.51100000000E-03 0.  1.
        -12    1    4    4    0    0  0.28846114929E+02  0.16375962564E+00 -0.10094499289E+02  0.30561807531E+02  0.00000000000E+00 0.  1.
</event>
<event>
 8    1  0.1338956E-013  0.9118800E+02  0.7816164E-02  0.1184000E+00
        -11   -1    0    0    0    0  0.00000000000E+00  0.00000000000E+00  0.45593999997E+02  0.45594000000E+02  0.51100000000E-03 0. -1.
         11   -1    0    0    0    0 -0.00000000000E+00 -0.00000000000E+00 -0.45593999997E+02  0.45594000000E+02  0.51100000000E-03 0.  1.
         23    2    1    2    0    0  0.00000000000E+00  0.00000000000E+00  0.00000000000E+00  0.91188000000E+02  0.91188000000E+02 0.  0.
    9900012    2    3    3    0    0  0.16504260557E+02  0.17007908271E+02  0.33037952390E+02  0.50528857629E+02  0.29999993248E+02 0.  0.
        -12    1    3    3    0    0 -0.16504260557E+02 -0.17007908271E+02 -0.33037952390E+02  0.40659142371E+02  0.00000000000E+00 0.  1.
         11    1    4    4    0    0  0.60030999002E+01  0.80953009638E+01  0.13620886055E+02  0.16944014970E+02  0.51100000000E-03 0. -1.
        -11    1    4    4    0    0  0.46884862881E+01  0.16778786153E+02  0.10448108936E+02  0.20314343431E+02  0.51100000000E-03 0.  1.
        -12    1    4    4    0    0  0.58126743682E+01 -0.78661788455E+01  0.89689573988E+01  0.13270499228E+02  0.00000000000E+00 0.  1.
</event>
<event>
 8    1  0.1338956E-013  0.9118800E+02  0.7816164E-02  0.1184000E+00
        -11   -1    0    0    0    0  0.00000000000E+00  0.00000000000E+00  0.45593999997E+02  0.45594000000E+02  0.51100000000E-03 0. -1.
         11   -1    0    0    0    0 -0.00000000000E+00 -0.00000000000E+00 -0.45593999997E+02  0.45594000000E+02  0.51100000000E-03 0.  1.
         23    2    1    2    0    0  0.35527136788E-14  0.00000000000E+00  0.00000000000E+00  0.91188000000E+02  0.91188000000E+02 0.  0.
    9900012    2    3    3    0    0 -0.19161533489E+02 -0.34688467724E+02  0.90946113897E+01  0.50528854473E+02  0.29999983655E+02 0.  0.
        -12    1    3    3    0    0  0.19161533489E+02  0.34688467724E+02 -0.90946113897E+01  0.40659145527E+02  0.00000000000E+00 0.  1.
         11    1    4    4    0    0 -0.30147854898E+01 -0.41876569852E+00 -0.35119002237E+01  0.46473368397E+01  0.51100000000E-03 0. -1.
        -11    1    4    4    0    0 -0.11202566961E+02 -0.31889904786E+01 -0.79654529117E+00  0.11674829825E+02  0.51100000000E-03 0.  1.
         12    1    4    4    0    0 -0.49441810384E+01 -0.31080711547E+02  0.13403056905E+02  0.34206687808E+02  0.00000000000E+00 0. -1.
</event>
<event>
 8    1  0.1338956E-013  0.9118800E+02  0.7816164E-02  0.1184000E+00
        -11   -1    0    0    0    0  0.00000000000E+00  0.00000000000E+00  0.45593999997E+02  0.45594000000E+02  0.51100000000E-03 0. -1.
         11   -1    0    0    0    0 -0.00000000000E+00 -0.00000000000E+00 -0.45593999997E+02  0.45594000000E+02  0.51100000000E-03 0.  1.
         23    2    1    2    0    0 -0.71054273576E-14  0.17763568394E-14  0.00000000000E+00  0.91188000000E+02  0.91188000000E+02 0.  0.
    9900012    2    3    3    0    0  0.37602088662E+02 -0.13759505420E+02  0.70658170294E+01  0.50528845663E+02  0.29999956877E+02 0.  0.
        -12    1    3    3    0    0 -0.37602088662E+02  0.13759505420E+02 -0.70658170294E+01  0.40659154337E+02  0.00000000000E+00 0.  1.
         11    1    4    4    0    0  0.46297662368E-01 -0.22231385370E+01  0.50523506916E+01  0.55200304529E+01  0.51100000000E-03 0. -1.
        -11    1    4    4    0    0 -0.25776194938E+01  0.79705121109E-01 -0.16600644049E+01  0.30669674355E+01  0.51100000000E-03 0.  1.
         12    1    4    4    0    0  0.40133410493E+02 -0.11616072004E+02  0.36735307427E+01  0.41941847774E+02  0.00000000000E+00 0. -1.
</event>
<event>
 8    1  0.1338956E-013  0.9118800E+02  0.7816164E-02  0.1184000E+00
        -11   -1    0    0    0    0  0.00000000000E+00  0.00000000000E+00  0.45593999997E+02  0.45594000000E+02  0.51100000000E-03 0. -1.
         11   -1    0    0    0    0 -0.00000000000E+00 -0.00000000000E+00 -0.45593999997E+02  0.45594000000E+02  0.51100000000E-03 0.  1.
         23    2    1    2    0    0 -0.44408920985E-15 -0.88817841970E-15  0.00000000000E+00  0.91188000000E+02  0.91188000000E+02 0.  0.
    9900012    2    3    3    0    0  0.64719987258E+00  0.68713450518E+01 -0.40069070691E+02  0.50528872162E+02  0.30000037423E+02 0.  0.
         12    1    3    3    0    0 -0.64719987258E+00 -0.68713450518E+01  0.40069070691E+02  0.40659127838E+02  0.00000000000E+00 0. -1.
         11    1    4    4    0    0  0.62393923825E+01 -0.25619987334E+01 -0.28703448037E+02  0.29485280807E+02  0.51100000000E-03 0. -1.
        -11    1    4    4    0    0 -0.11213016060E+01 -0.39801934686E+00 -0.10099580616E+02  0.10169427987E+02  0.51100000000E-03 0.  1.
        -12    1    4    4    0    0 -0.44708909039E+01  0.98313631321E+01 -0.12660420385E+01  0.10874163368E+02  0.00000000000E+00 0.  1.
</event>
<event>
 8    1  0.1338956E-013  0.9118800E+02  0.7816164E-02  0.1184000E+00
        -11   -1    0    0    0    0  0.00000000000E+00  0.00000000000E+00  0.45593999997E+02  0.45594000000E+02  0.51100000000E-03 0. -1.
         11   -1    0    0    0    0 -0.00000000000E+00 -0.00000000000E+00 -0.45593999997E+02  0.45594000000E+02  0.51100000000E-03 0.  1.
         23    2    1    2    0    0  0.00000000000E+00  0.00000000000E+00  0.00000000000E+00  0.91188000000E+02  0.91188000000E+02 0.  0.
    9900012    2    3    3    0    0 -0.21043513307E+02 -0.69723021430E+01  0.34084053479E+02  0.50528866327E+02  0.30000019688E+02 0.  0.
        -12    1    3    3    0    0  0.21043513307E+02  0.69723021430E+01 -0.34084053479E+02  0.40659133673E+02  0.00000000000E+00 0.  1.
         11    1    4    4    0    0 -0.74155131515E+01 -0.10436558062E+02  0.23740284875E+02  0.26972443450E+02  0.51100000000E-03 0. -1.
        -11    1    4    4    0    0 -0.12903118860E+02 -0.40952627464E+01  0.59976330335E+01  0.14806527464E+02  0.51100000000E-03 0.  1.
        -12    1    4    4    0    0 -0.72488129565E+00  0.75595186654E+01  0.43461355705E+01  0.87498954133E+01  0.00000000000E+00 0.  1.
</event>
<event>
 8    1  0.1551082E-013  0.9118800E+02  0.7816164E-02  0.1184000E+00
        -11   -1    0    0    0    0  0.00000000000E+00  0.00000000000E+00  0.45593999997E+02  0.45594000000E+02  0.51100000000E-03 0. -1.
         11   -1    0    0    0    0 -0.00000000000E+00 -0.00000000000E+00 -0.45593999997E+02  0.45594000000E+02  0.51100000000E-03 0.  1.
         23    2    1    2    0    0  0.17763568394E-14  0.00000000000E+00  0.00000000000E+00  0.91188000000E+02  0.91188000000E+02 0.  0.
    9900012    2    3    3    0    0  0.82657484761E+01 -0.20958260412E+02 -0.33846628207E+02  0.50528861810E+02  0.30000005958E+02 0.  0.
         12    1    3    3    0    0 -0.82657484761E+01  0.20958260412E+02  0.33846628207E+02  0.40659138190E+02  0.00000000000E+00 0. -1.
         11    1    4    4    0    0  0.75682497563E+01 -0.95268693708E+01 -0.14139005464E+01  0.12249030958E+02  0.51100000000E-03 0. -1.
        -11    1    4    4    0    0  0.59263471770E+01 -0.10584897930E+02 -0.11601132517E+02  0.16785348700E+02  0.51100000000E-03 0.  1.
         12    1    4    4    0    0 -0.52288484572E+01 -0.84649311133E+00 -0.20831595144E+02  0.21494482152E+02  0.00000000000E+00 0. -1.
</event>
<event>
 8    1  0.1338956E-013  0.9118800E+02  0.7816164E-02  0.1184000E+00
        -11   -1    0    0    0    0  0.00000000000E+00  0.00000000000E+00  0.45593999997E+02  0.45594000000E+02  0.51100000000E-03 0. -1.
         11   -1    0    0    0    0 -0.00000000000E+00 -0.00000000000E+00 -0.45593999997E+02  0.45594000000E+02  0.51100000000E-03 0.  1.
         23    2    1    2    0    0  0.00000000000E+00  0.00000000000E+00  0.35527136788E-14  0.91188000000E+02  0.91188000000E+02 0.  0.
    9900012    2    3    3    0    0 -0.16107847493E+02 -0.21599898349E+02 -0.30449090170E+02  0.50528862629E+02  0.30000008447E+02 0.  0.
         12    1    3    3    0    0  0.16107847493E+02  0.21599898349E+02  0.30449090170E+02  0.40659137371E+02  0.00000000000E+00 0. -1.
         11    1    4    4    0    0 -0.44240102742E+01 -0.50355394494E+01 -0.76365351975E+01  0.10160964252E+02  0.51100000000E-03 0. -1.
        -11    1    4    4    0    0 -0.18444116546E+02 -0.13897957005E+02 -0.23646693634E+02  0.33053059831E+02  0.51100000000E-03 0.  1.
         12    1    4    4    0    0  0.67602793271E+01 -0.26664018950E+01  0.83413866202E+00  0.73148385459E+01  0.00000000000E+00 0. -1.
</event>
<event>
 8    1  0.1338956E-013  0.9118800E+02  0.7816164E-02  0.1184000E+00
        -11   -1    0    0    0    0  0.00000000000E+00  0.00000000000E+00  0.45593999997E+02  0.45594000000E+02  0.51100000000E-03 0. -1.
         11   -1    0    0    0    0 -0.00000000000E+00 -0.00000000000E+00 -0.45593999997E+02  0.45594000000E+02  0.51100000000E-03 0.  1.
         23    2    1    2    0    0  0.35527136788E-14  0.00000000000E+00  0.00000000000E+00  0.91188000000E+02  0.91188000000E+02 0.  0.
    9900012    2    3    3    0    0  0.22265698779E+02  0.97359510182E+01  0.32597780087E+02  0.50528863869E+02  0.30000012216E+02 0.  0.
        -12    1    3    3    0    0 -0.22265698779E+02 -0.97359510182E+01 -0.32597780087E+02  0.40659136131E+02  0.00000000000E+00 0.  1.
         11    1    4    4    0    0  0.12330929990E+02  0.18919811878E+02  0.17166933315E+02  0.28367493996E+02  0.51100000000E-03 0. -1.
        -11    1    4    4    0    0  0.21946306466E+01  0.14453490723E+01  0.37137463934E+01  0.45494340474E+01  0.51100000000E-03 0.  1.
        -12    1    4    4    0    0  0.77401381431E+01 -0.10629209932E+02  0.11717100378E+02  0.17611935825E+02  0.00000000000E+00 0.  1.
</event>
<event>
 8    1  0.1338956E-013  0.9118800E+02  0.7816164E-02  0.1184000E+00
        -11   -1    0    0    0    0  0.00000000000E+00  0.00000000000E+00  0.45593999997E+02  0.45594000000E+02  0.51100000000E-03 0. -1.
         11   -1    0    0    0    0 -0.00000000000E+00 -0.00000000000E+00 -0.45593999997E+02  0.45594000000E+02  0.51100000000E-03 0.  1.
         23    2    1    2    0    0  0.00000000000E+00  0.00000000000E+00  0.00000000000E+00  0.91188000000E+02  0.91188000000E+02 0.  0.
    9900012    2    3    3    0    0 -0.10459994349E+01  0.21705472265E+02  0.34364865309E+02  0.50528860698E+02  0.30000002578E+02 0.  0.
        -12    1    3    3    0    0  0.10459994349E+01 -0.21705472265E+02 -0.34364865309E+02  0.40659139302E+02  0.00000000000E+00 0.  1.
         11    1    4    4    0    0 -0.31656800836E+00  0.56489646000E+01  0.29259506360E+02  0.29801505482E+02  0.51100000000E-03 0. -1.
        -11    1    4    4    0    0 -0.10266360079E+01  0.15263275284E+02  0.83124401817E+01  0.17410290518E+02  0.51100000000E-03 0.  1.
        -12    1    4    4    0    0  0.29720458133E+00  0.79323238104E+00 -0.32070812326E+01  0.33170646973E+01  0.00000000000E+00 0.  1.
</event>
<event>
 8    1  0.1338956E-013  0.9118800E+02  0.7816164E-02  0.1184000E+00
        -11   -1    0    0    0    0  0.00000000000E+00  0.00000000000E+00  0.45593999997E+02  0.45594000000E+02  0.51100000000E-03 0. -1.
         11   -1    0    0    0    0 -0.00000000000E+00 -0.00000000000E+00 -0.45593999997E+02  0.45594000000E+02  0.51100000000E-03 0.  1.
         23    2    1    2    0    0  0.00000000000E+00 -0.71054273576E-14  0.00000000000E+00  0.91188000000E+02  0.91188000000E+02 0.  0.
    9900012    2    3    3    0    0  0.21640345103E+02 -0.33925193148E+02 -0.58260403281E+01  0.50528855737E+02  0.29999987497E+02 0.  0.
        -12    1    3    3    0    0 -0.21640345103E+02  0.33925193148E+02  0.58260403281E+01  0.40659144263E+02  0.00000000000E+00 0.  1.
         11    1    4    4    0    0  0.98063954189E+01 -0.10899013888E+02 -0.56639007980E+01  0.15717304710E+02  0.51100000000E-03 0.  1.
        -11    1    4    4    0    0 -0.13244910893E+01  0.96401776142E+00  0.64560348644E+01  0.66606300994E+01  0.51100000000E-03 0. -1.
         12    1    4    4    0    0  0.13158440774E+02 -0.23990197022E+02 -0.66181743945E+01  0.28150920927E+02  0.00000000000E+00 0. -1.
</event>
<event>
 8    1  0.1338956E-013  0.9118800E+02  0.7816164E-02  0.1184000E+00
        -11   -1    0    0    0    0  0.00000000000E+00  0.00000000000E+00  0.45593999997E+02  0.45594000000E+02  0.51100000000E-03 0. -1.
         11   -1    0    0    0    0 -0.00000000000E+00 -0.00000000000E+00 -0.45593999997E+02  0.45594000000E+02  0.51100000000E-03 0.  1.
         23    2    1    2    0    0 -0.17763568394E-14  0.17763568394E-14  0.00000000000E+00  0.91188000000E+02  0.91188000000E+02 0.  0.
    9900012    2    3    3    0    0 -0.12982990976E+02  0.15787518386E+02 -0.35147722829E+02  0.50528853286E+02  0.29999980047E+02 0.  0.
         12    1    3    3    0    0  0.12982990976E+02 -0.15787518386E+02  0.35147722829E+02  0.40659146714E+02  0.00000000000E+00 0. -1.
         11    1    4    4    0    0 -0.10841619829E+02  0.11126947415E+02 -0.35123797763E+01  0.15927538769E+02  0.51100000000E-03 0. -1.
        -11    1    4    4    0    0 -0.43149171913E+01 -0.34038578153E+01 -0.10016912257E+02  0.11425554245E+02  0.51100000000E-03 0.  1.
        -12    1    4    4    0    0  0.21735460442E+01  0.80644287864E+01 -0.21618430796E+02  0.23175760271E+02  0.00000000000E+00 0.  1.
</event>
<event>
 8    1  0.1338956E-013  0.9118800E+02  0.7816164E-02  0.1184000E+00
        -11   -1    0    0    0    0  0.00000000000E+00  0.00000000000E+00  0.45593999997E+02  0.45594000000E+02  0.51100000000E-03 0. -1.
         11   -1    0    0    0    0 -0.00000000000E+00 -0.00000000000E+00 -0.45593999997E+02  0.45594000000E+02  0.51100000000E-03 0.  1.
         23    2    1    2    0    0  0.17763568394E-14  0.71054273576E-14  0.00000000000E+00  0.91188000000E+02  0.91188000000E+02 0.  0.
    9900012    2    3    3    0    0  0.13841423381E+02  0.32485741960E+02  0.20155881952E+02  0.50528831180E+02  0.29999912854E+02 0.  0.
        -12    1    3    3    0    0 -0.13841423381E+02 -0.32485741960E+02 -0.20155881952E+02  0.40659168820E+02  0.00000000000E+00 0.  1.
         11    1    4    4    0    0  0.59019291871E+01  0.13730369051E+01  0.32226479044E+01  0.68631959209E+01  0.51100000000E-03 0. -1.
        -11    1    4    4    0    0 -0.32169418373E+01 -0.29647862789E+01  0.22377419590E+01  0.49138744184E+01  0.51100000000E-03 0.  1.
         12    1    4    4    0    0  0.11156436032E+02  0.34077491333E+02  0.14695492089E+02  0.38751760840E+02  0.00000000000E+00 0. -1.
</event>
<event>
 8    1  0.1338956E-013  0.9118800E+02  0.7816164E-02  0.1184000E+00
        -11   -1    0    0    0    0  0.00000000000E+00  0.00000000000E+00  0.45593999997E+02  0.45594000000E+02  0.51100000000E-03 0. -1.
         11   -1    0    0    0    0 -0.00000000000E+00 -0.00000000000E+00 -0.45593999997E+02  0.45594000000E+02  0.51100000000E-03 0.  1.
         23    2    1    2    0    0  0.00000000000E+00  0.22204460493E-15  0.00000000000E+00  0.91188000000E+02  0.91188000000E+02 0.  0.
    9900012    2    3    3    0    0  0.24440175471E+02  0.18756938060E+01 -0.32439527678E+02  0.50528888349E+02  0.30000086625E+02 0.  0.
         12    1    3    3    0    0 -0.24440175471E+02 -0.18756938060E+01  0.32439527678E+02  0.40659111651E+02  0.00000000000E+00 0. -1.
         11    1    4    4    0    0 -0.28017163490E+01  0.41039148909E-01 -0.34731539315E+01  0.44625213954E+01  0.51100000000E-03 0. -1.
        -11    1    4    4    0    0  0.16503129361E+02 -0.32668965461E+01 -0.29722538224E+02  0.34153406425E+02  0.51100000000E-03 0.  1.
         12    1    4    4    0    0  0.10738762459E+02  0.51015512032E+01  0.75616447719E+00  0.11912960528E+02  0.00000000000E+00 0. -1.
</event>
<event>
 8    1  0.1338956E-013  0.9118800E+02  0.7816164E-02  0.1184000E+00
        -11   -1    0    0    0    0  0.00000000000E+00  0.00000000000E+00  0.45593999997E+02  0.45594000000E+02  0.51100000000E-03 0.  1.
         11   -1    0    0    0    0 -0.00000000000E+00 -0.00000000000E+00 -0.45593999997E+02  0.45594000000E+02  0.51100000000E-03 0. -1.
         23    2    1    2    0    0 -0.35527136788E-14 -0.35527136788E-14  0.00000000000E+00  0.91188000000E+02  0.91188000000E+02 0.  0.
    9900012    2    3    3    0    0  0.22990599120E+02  0.29093191730E+02 -0.16678817526E+02  0.50528875477E+02  0.30000047499E+02 0.  0.
         12    1    3    3    0    0 -0.22990599120E+02 -0.29093191730E+02  0.16678817526E+02  0.40659124523E+02  0.00000000000E+00 0. -1.
         11    1    4    4    0    0  0.22534913260E+02  0.12313802499E+02 -0.16953964426E+02  0.30771560858E+02  0.51100000000E-03 0. -1.
        -11    1    4    4    0    0  0.17016925349E-01  0.29615153560E+01 -0.42770385226E+01  0.52022996419E+01  0.51100000000E-03 0.  1.
        -12    1    4    4    0    0  0.43866893473E+00  0.13817873875E+02  0.45521854227E+01  0.14555014977E+02  0.00000000000E+00 0.  1.
</event>
<event>
 8    1  0.1338956E-013  0.9118800E+02  0.7816164E-02  0.1184000E+00
        -11   -1    0    0    0    0  0.00000000000E+00  0.00000000000E+00  0.45593999997E+02  0.45594000000E+02  0.51100000000E-03 0.  1.
         11   -1    0    0    0    0 -0.00000000000E+00 -0.00000000000E+00 -0.45593999997E+02  0.45594000000E+02  0.51100000000E-03 0. -1.
         23    2    1    2    0    0 -0.71054273576E-14 -0.17763568394E-14  0.00000000000E+00  0.91188000000E+02  0.91188000000E+02 0.  0.
    9900012    2    3    3    0    0 -0.39161348956E+02  0.10065122859E+02  0.42717065293E+01  0.50528862935E+02  0.30000009377E+02 0.  0.
        -12    1    3    3    0    0  0.39161348956E+02 -0.10065122859E+02 -0.42717065293E+01  0.40659137065E+02  0.00000000000E+00 0.  1.
         11    1    4    4    0    0 -0.62411793665E+00 -0.17147487436E+01 -0.73607984932E-01  0.18262817004E+01  0.51100000000E-03 0. -1.
        -11    1    4    4    0    0 -0.34645110001E+01 -0.69217568812E+01 -0.29646236350E+01  0.82887000399E+01  0.51100000000E-03 0.  1.
        -12    1    4    4    0    0 -0.35072720019E+02  0.18701628484E+02  0.73099381492E+01  0.40413881195E+02  0.00000000000E+00 0.  1.
</event>
<event>
 8    1  0.1338956E-013  0.9118800E+02  0.7816164E-02  0.1184000E+00
        -11   -1    0    0    0    0  0.00000000000E+00  0.00000000000E+00  0.45593999997E+02  0.45594000000E+02  0.51100000000E-03 0. -1.
         11   -1    0    0    0    0 -0.00000000000E+00 -0.00000000000E+00 -0.45593999997E+02  0.45594000000E+02  0.51100000000E-03 0.  1.
         23    2    1    2    0    0  0.00000000000E+00  0.00000000000E+00  0.00000000000E+00  0.91188000000E+02  0.91188000000E+02 0.  0.
    9900012    2    3    3    0    0 -0.34702290292E+02 -0.17617070427E+02 -0.11771083884E+02  0.50528824680E+02  0.29999893096E+02 0.  0.
        -12    1    3    3    0    0  0.34702290292E+02  0.17617070427E+02  0.11771083884E+02  0.40659175320E+02  0.00000000000E+00 0.  1.
         11    1    4    4    0    0 -0.25111405234E+02 -0.18850087095E+02 -0.58316419184E+01  0.31936131639E+02  0.51100000000E-03 0. -1.
        -11    1    4    4    0    0 -0.52992417481E+01 -0.29290375866E+01 -0.97687875361E+01  0.11493060275E+02  0.51100000000E-03 0.  1.
        -12    1    4    4    0    0 -0.42916433095E+01  0.41620542550E+01  0.38293455702E+01  0.70996327661E+01  0.00000000000E+00 0.  1.
</event>
<event>
 8    1  0.1338956E-013  0.9118800E+02  0.7816164E-02  0.1184000E+00
        -11   -1    0    0    0    0  0.00000000000E+00  0.00000000000E+00  0.45593999997E+02  0.45594000000E+02  0.51100000000E-03 0. -1.
         11   -1    0    0    0    0 -0.00000000000E+00 -0.00000000000E+00 -0.45593999997E+02  0.45594000000E+02  0.51100000000E-03 0.  1.
         23    2    1    2    0    0  0.00000000000E+00  0.00000000000E+00 -0.88817841970E-15  0.91188000000E+02  0.91188000000E+02 0.  0.
    9900012    2    3    3    0    0  0.37882740391E+02 -0.13757699938E+02 -0.53655840607E+01  0.50528858108E+02  0.29999994704E+02 0.  0.
         12    1    3    3    0    0 -0.37882740391E+02  0.13757699938E+02  0.53655840607E+01  0.40659141892E+02  0.00000000000E+00 0. -1.
         11    1    4    4    0    0 -0.18137435696E+01 -0.51774520885E+01  0.46065830973E+01  0.71635385082E+01  0.51100000000E-03 0. -1.
        -11    1    4    4    0    0  0.65643495080E+01 -0.35050957273E+01 -0.61031435887E+01  0.96241748969E+01  0.51100000000E-03 0.  1.
         12    1    4    4    0    0  0.33132134453E+02 -0.50751521219E+01 -0.38690235692E+01  0.33741144702E+02  0.00000000000E+00 0. -1.
</event>
<event>
 8    1  0.1338956E-013  0.9118800E+02  0.7816164E-02  0.1184000E+00
        -11   -1    0    0    0    0  0.00000000000E+00  0.00000000000E+00  0.45593999997E+02  0.45594000000E+02  0.51100000000E-03 0. -1.
         11   -1    0    0    0    0 -0.00000000000E+00 -0.00000000000E+00 -0.45593999997E+02  0.45594000000E+02  0.51100000000E-03 0.  1.
         23    2    1    2    0    0  0.00000000000E+00  0.00000000000E+00  0.35527136788E-14  0.91188000000E+02  0.91188000000E+02 0.  0.
    9900012    2    3    3    0    0  0.21533743870E+02 -0.21159868018E+02  0.27234582963E+02  0.50528872504E+02  0.30000038463E+02 0.  0.
        -12    1    3    3    0    0 -0.21533743870E+02  0.21159868018E+02 -0.27234582963E+02  0.40659127496E+02  0.00000000000E+00 0.  1.
         11    1    4    4    0    0 -0.40004574061E+01  0.86150329016E+00  0.24474284429E+01  0.47682023469E+01  0.51100000000E-03 0. -1.
        -11    1    4    4    0    0 -0.22586423398E+01 -0.55334758579E+01  0.23622030208E+01  0.64265716881E+01  0.51100000000E-03 0.  1.
         12    1    4    4    0    0  0.27792843616E+02 -0.16487895450E+02  0.22424951499E+02  0.39334098469E+02  0.00000000000E+00 0. -1.
</event>
<event>
 8    1  0.1338956E-013  0.9118800E+02  0.7816164E-02  0.1184000E+00
        -11   -1    0    0    0    0  0.00000000000E+00  0.00000000000E+00  0.45593999997E+02  0.45594000000E+02  0.51100000000E-03 0. -1.
         11   -1    0    0    0    0 -0.00000000000E+00 -0.00000000000E+00 -0.45593999997E+02  0.45594000000E+02  0.51100000000E-03 0.  1.
         23    2    1    2    0    0  0.00000000000E+00  0.00000000000E+00  0.35527136788E-14  0.91188000000E+02  0.91188000000E+02 0.  0.
    9900012    2    3    3    0    0 -0.24525640966E+02 -0.57440451762E+01  0.31916525225E+02  0.50528859549E+02  0.29999999085E+02 0.  0.
        -12    1    3    3    0    0  0.24525640966E+02  0.57440451762E+01 -0.31916525225E+02  0.40659140451E+02  0.00000000000E+00 0.  1.
         11    1    4    4    0    0 -0.19175022718E+02  0.11391911187E+01  0.15950615711E+02  0.24968007419E+02  0.51100000000E-03 0. -1.
        -11    1    4    4    0    0 -0.80212200446E+01 -0.17849019777E+01  0.17729503985E+02  0.19541268073E+02  0.51100000000E-03 0.  1.
        -12    1    4    4    0    0  0.26706017964E+01 -0.50983343172E+01 -0.17635944713E+01  0.60195840574E+01  0.00000000000E+00 0.  1.
</event>
<event>
 8    1  0.1338956E-013  0.9118800E+02  0.7816164E-02  0.1184000E+00
        -11   -1    0    0    0    0  0.00000000000E+00  0.00000000000E+00  0.45593999997E+02  0.45594000000E+02  0.51100000000E-03 0. -1.
         11   -1    0    0    0    0 -0.00000000000E+00 -0.00000000000E+00 -0.45593999997E+02  0.45594000000E+02  0.51100000000E-03 0.  1.
         23    2    1    2    0    0  0.00000000000E+00  0.35527136788E-14  0.71054273576E-14  0.91188000000E+02  0.91188000000E+02 0.  0.
    9900012    2    3    3    0    0  0.91950910609E+01 -0.18029951184E+02 -0.35263817590E+02  0.50528859941E+02  0.30000000277E+02 0.  0.
         12    1    3    3    0    0 -0.91950910609E+01  0.18029951184E+02  0.35263817590E+02  0.40659140059E+02  0.00000000000E+00 0. -1.
         11    1    4    4    0    0  0.52791791311E+01 -0.21689819029E+02 -0.11778088592E+02  0.25239678147E+02  0.51100000000E-03 0. -1.
        -11    1    4    4    0    0  0.60031016349E+01  0.12312069506E+01 -0.14166829960E+02  0.15435419371E+02  0.51100000000E-03 0.  1.
        -12    1    4    4    0    0 -0.20871897051E+01  0.24286608951E+01 -0.93188990380E+01  0.98537624230E+01  0.00000000000E+00 0.  1.
</event>
<event>
 8    1  0.1338956E-013  0.9118800E+02  0.7816164E-02  0.1184000E+00
        -11   -1    0    0    0    0  0.00000000000E+00  0.00000000000E+00  0.45593999997E+02  0.45594000000E+02  0.51100000000E-03 0. -1.
         11   -1    0    0    0    0 -0.00000000000E+00 -0.00000000000E+00 -0.45593999997E+02  0.45594000000E+02  0.51100000000E-03 0.  1.
         23    2    1    2    0    0  0.88817841970E-15  0.00000000000E+00  0.00000000000E+00  0.91188000000E+02  0.91188000000E+02 0.  0.
    9900012    2    3    3    0    0  0.45332853552E+01 -0.10811356707E+02  0.38932386100E+02  0.50528846081E+02  0.29999958149E+02 0.  0.
        -12    1    3    3    0    0 -0.45332853552E+01  0.10811356707E+02 -0.38932386100E+02  0.40659153919E+02  0.00000000000E+00 0.  1.
         11    1    4    4    0    0 -0.64653932127E+01 -0.23520721816E+01  0.10335845325E+02  0.12416249506E+02  0.51100000000E-03 0. -1.
        -11    1    4    4    0    0 -0.16453100843E+01 -0.23983214169E+01  0.22726480778E+02  0.22911829253E+02  0.51100000000E-03 0.  1.
        -12    1    4    4    0    0  0.12643988652E+02 -0.60609631085E+01  0.58700599961E+01  0.15200767323E+02  0.00000000000E+00 0.  1.
</event>
<event>
 8    1  0.1338956E-013  0.9118800E+02  0.7816164E-02  0.1184000E+00
        -11   -1    0    0    0    0  0.00000000000E+00  0.00000000000E+00  0.45593999997E+02  0.45594000000E+02  0.51100000000E-03 0. -1.
         11   -1    0    0    0    0 -0.00000000000E+00 -0.00000000000E+00 -0.45593999997E+02  0.45594000000E+02  0.51100000000E-03 0.  1.
         23    2    1    2    0    0  0.00000000000E+00  0.00000000000E+00 -0.35527136788E-14  0.91188000000E+02  0.91188000000E+02 0.  0.
    9900012    2    3    3    0    0  0.68014210581E+01  0.33302988171E+02  0.22311827765E+02  0.50528855792E+02  0.29999987665E+02 0.  0.
        -12    1    3    3    0    0 -0.68014210581E+01 -0.33302988171E+02 -0.22311827765E+02  0.40659144208E+02  0.00000000000E+00 0.  1.
         11    1    4    4    0    0  0.11197413902E+01  0.14175923294E+02  0.14671099262E+02  0.20431636641E+02  0.51100000000E-03 0. -1.
        -11    1    4    4    0    0 -0.41657456487E+01  0.61715711585E+01  0.11190545276E+02  0.13441355259E+02  0.51100000000E-03 0.  1.
        -12    1    4    4    0    0  0.98474253166E+01  0.12955493719E+02 -0.35498167725E+01  0.16655863892E+02  0.00000000000E+00 0.  1.
</event>
<event>
 8    1  0.1338956E-013  0.9118800E+02  0.7816164E-02  0.1184000E+00
        -11   -1    0    0    0    0  0.00000000000E+00  0.00000000000E+00  0.45593999997E+02  0.45594000000E+02  0.51100000000E-03 0. -1.
         11   -1    0    0    0    0 -0.00000000000E+00 -0.00000000000E+00 -0.45593999997E+02  0.45594000000E+02  0.51100000000E-03 0.  1.
         23    2    1    2    0    0  0.00000000000E+00  0.00000000000E+00  0.00000000000E+00  0.91188000000E+02  0.91188000000E+02 0.  0.
    9900012    2    3    3    0    0 -0.17122226069E+02 -0.17508489704E+02  0.32456848637E+02  0.50528869897E+02  0.30000030538E+02 0.  0.
        -12    1    3    3    0    0  0.17122226069E+02  0.17508489704E+02 -0.32456848637E+02  0.40659130103E+02  0.00000000000E+00 0.  1.
         11    1    4    4    0    0 -0.22235385668E+02 -0.11801291758E+02  0.27872540445E+02  0.37557440995E+02  0.51100000000E-03 0. -1.
        -11    1    4    4    0    0 -0.22015247754E+01 -0.27286002236E+01  0.35784966457E+01  0.50097513932E+01  0.51100000000E-03 0.  1.
        -12    1    4    4    0    0  0.73146843742E+01 -0.29785977218E+01  0.10058115465E+01  0.79616775086E+01  0.00000000000E+00 0.  1.
</event>
<event>
 8    1  0.1338956E-013  0.9118800E+02  0.7816164E-02  0.1184000E+00
        -11   -1    0    0    0    0  0.00000000000E+00  0.00000000000E+00  0.45593999997E+02  0.45594000000E+02  0.51100000000E-03 0. -1.
         11   -1    0    0    0    0 -0.00000000000E+00 -0.00000000000E+00 -0.45593999997E+02  0.45594000000E+02  0.51100000000E-03 0.  1.
         23    2    1    2    0    0 -0.77715611724E-15  0.88817841970E-15  0.00000000000E+00  0.91188000000E+02  0.91188000000E+02 0.  0.
    9900012    2    3    3    0    0 -0.45270429796E+00 -0.76965057341E+01  0.39921464363E+02  0.50528874843E+02  0.30000045572E+02 0.  0.
        -12    1    3    3    0    0  0.45270429796E+00  0.76965057341E+01 -0.39921464363E+02  0.40659125157E+02  0.00000000000E+00 0.  1.
         11    1    4    4    0    0  0.94171899754E+01  0.93408133119E+00  0.68603834268E+01  0.11688491605E+02  0.51100000000E-03 0. -1.
        -11    1    4    4    0    0  0.41535131978E+01 -0.15698213795E+01  0.10005107368E+02  0.10946149312E+02  0.51100000000E-03 0.  1.
        -12    1    4    4    0    0 -0.14023407471E+02 -0.70607656858E+01  0.23055973567E+02  0.27894233926E+02  0.00000000000E+00 0.  1.
</event>
<event>
 8    1  0.1338956E-013  0.9118800E+02  0.7816164E-02  0.1184000E+00
        -11   -1    0    0    0    0  0.00000000000E+00  0.00000000000E+00  0.45593999997E+02  0.45594000000E+02  0.51100000000E-03 0. -1.
         11   -1    0    0    0    0 -0.00000000000E+00 -0.00000000000E+00 -0.45593999997E+02  0.45594000000E+02  0.51100000000E-03 0.  1.
         23    2    1    2    0    0  0.00000000000E+00  0.00000000000E+00 -0.35527136788E-14  0.91188000000E+02  0.91188000000E+02 0.  0.
    9900012    2    3    3    0    0  0.17344295464E+02 -0.20374776829E+02 -0.30614067102E+02  0.50528717904E+02  0.29999568539E+02 0.  0.
         12    1    3    3    0    0 -0.17344295464E+02  0.20374776829E+02  0.30614067102E+02  0.40659282096E+02  0.00000000000E+00 0. -1.
         11    1    4    4    0    0  0.91352542005E+01 -0.52379093341E+01  0.32468999988E+01  0.11019570017E+02  0.51100000000E-03 0. -1.
        -11    1    4    4    0    0 -0.17139865127E+01 -0.16671493439E+01 -0.10539952441E+02  0.10807762693E+02  0.51100000000E-03 0.  1.
        -12    1    4    4    0    0  0.99230277765E+01 -0.13469718151E+02 -0.23321014660E+02  0.28701385195E+02  0.00000000000E+00 0.  1.
</event>
<event>
 8    1  0.1338956E-013  0.9118800E+02  0.7816164E-02  0.1184000E+00
        -11   -1    0    0    0    0  0.00000000000E+00  0.00000000000E+00  0.45593999997E+02  0.45594000000E+02  0.51100000000E-03 0. -1.
         11   -1    0    0    0    0 -0.00000000000E+00 -0.00000000000E+00 -0.45593999997E+02  0.45594000000E+02  0.51100000000E-03 0.  1.
         23    2    1    2    0    0  0.00000000000E+00  0.88817841970E-15  0.00000000000E+00  0.91188000000E+02  0.91188000000E+02 0.  0.
    9900012    2    3    3    0    0 -0.19449026258E+02 -0.69032407311E+01 -0.35032070606E+02  0.50528864176E+02  0.30000013150E+02 0.  0.
         12    1    3    3    0    0  0.19449026258E+02  0.69032407311E+01  0.35032070606E+02  0.40659135824E+02  0.00000000000E+00 0. -1.
         11    1    4    4    0    0 -0.15023688545E+02  0.36142703679E+01 -0.67299747729E+01  0.16854279234E+02  0.51100000000E-03 0. -1.
        -11    1    4    4    0    0 -0.46970045282E+01  0.18624813489E+01 -0.13266850526E+02  0.14196478840E+02  0.51100000000E-03 0.  1.
        -12    1    4    4    0    0  0.27166681575E+00 -0.12379992448E+02 -0.15035245308E+02  0.19478106102E+02  0.00000000000E+00 0.  1.
</event>
<event>
 8    1  0.1338956E-013  0.9118800E+02  0.7816164E-02  0.1184000E+00
        -11   -1    0    0    0    0  0.00000000000E+00  0.00000000000E+00  0.45593999997E+02  0.45594000000E+02  0.51100000000E-03 0. -1.
         11   -1    0    0    0    0 -0.00000000000E+00 -0.00000000000E+00 -0.45593999997E+02  0.45594000000E+02  0.51100000000E-03 0.  1.
         23    2    1    2    0    0  0.35527136788E-14  0.00000000000E+00 -0.44408920985E-15  0.91188000000E+02  0.91188000000E+02 0.  0.
    9900012    2    3    3    0    0  0.21953622635E+02  0.34154736034E+02 -0.21581956084E+01  0.50528863897E+02  0.30000012301E+02 0.  0.
        -12    1    3    3    0    0 -0.21953622635E+02 -0.34154736034E+02  0.21581956084E+01  0.40659136103E+02  0.00000000000E+00 0.  1.
         11    1    4    4    0    0  0.11704672261E+01 -0.22837738353E+01  0.18375567062E+01  0.31563002658E+01  0.51100000000E-03 0. -1.
        -11    1    4    4    0    0 -0.42680562685E+01  0.22657002558E+01 -0.38055171586E+00  0.48471147943E+01  0.51100000000E-03 0.  1.
         12    1    4    4    0    0  0.25051211677E+02  0.34172809614E+02 -0.36152005988E+01  0.42525448837E+02  0.00000000000E+00 0. -1.
</event>
<event>
 8    1  0.1338956E-013  0.9118800E+02  0.7816164E-02  0.1184000E+00
        -11   -1    0    0    0    0  0.00000000000E+00  0.00000000000E+00  0.45593999997E+02  0.45594000000E+02  0.51100000000E-03 0. -1.
         11   -1    0    0    0    0 -0.00000000000E+00 -0.00000000000E+00 -0.45593999997E+02  0.45594000000E+02  0.51100000000E-03 0.  1.
         23    2    1    2    0    0  0.17763568394E-14  0.35527136788E-14  0.71054273576E-14  0.91188000000E+02  0.91188000000E+02 0.  0.
    9900012    2    3    3    0    0  0.12362703730E+02  0.12303773903E+02  0.36727999650E+02  0.50528865060E+02  0.30000015835E+02 0.  0.
        -12    1    3    3    0    0 -0.12362703730E+02 -0.12303773903E+02 -0.36727999650E+02  0.40659134940E+02  0.00000000000E+00 0.  1.
         11    1    4    4    0    0 -0.17675826293E+01  0.11514985160E+02  0.14254449485E+02  0.18409469356E+02  0.51100000000E-03 0.  1.
        -11    1    4    4    0    0  0.70419145813E+01  0.90970873805E+01  0.14921502932E+02  0.18841359021E+02  0.51100000000E-03 0. -1.
         12    1    4    4    0    0  0.70883717780E+01 -0.83082986371E+01  0.75520472336E+01  0.13278036682E+02  0.00000000000E+00 0. -1.
</event>
<event>
 8    1  0.1338956E-013  0.9118800E+02  0.7816164E-02  0.1184000E+00
        -11   -1    0    0    0    0  0.00000000000E+00  0.00000000000E+00  0.45593999997E+02  0.45594000000E+02  0.51100000000E-03 0. -1.
         11   -1    0    0    0    0 -0.00000000000E+00 -0.00000000000E+00 -0.45593999997E+02  0.45594000000E+02  0.51100000000E-03 0.  1.
         23    2    1    2    0    0  0.00000000000E+00  0.00000000000E+00 -0.35527136788E-14  0.91188000000E+02  0.91188000000E+02 0.  0.
    9900012    2    3    3    0    0  0.11661420767E+02  0.29017039749E+02 -0.25984339182E+02  0.50528890162E+02  0.30000092136E+02 0.  0.
         12    1    3    3    0    0 -0.11661420767E+02 -0.29017039749E+02  0.25984339182E+02  0.40659109838E+02  0.00000000000E+00 0. -1.
         11    1    4    4    0    0 -0.56424523922E+01  0.51798107831E+01 -0.31131837160E+01  0.82679877756E+01  0.51100000000E-03 0. -1.
        -11    1    4    4    0    0  0.13896872340E+02  0.21703105863E+02 -0.26413385503E+02  0.36902774949E+02  0.51100000000E-03 0.  1.
         12    1    4    4    0    0  0.34070008190E+01  0.21341231032E+01  0.35422300371E+01  0.53581274374E+01  0.00000000000E+00 0. -1.
</event>
<event>
 8    1  0.1338956E-013  0.9118800E+02  0.7816164E-02  0.1184000E+00
        -11   -1    0    0    0    0  0.00000000000E+00  0.00000000000E+00  0.45593999997E+02  0.45594000000E+02  0.51100000000E-03 0.  1.
         11   -1    0    0    0    0 -0.00000000000E+00 -0.00000000000E+00 -0.45593999997E+02  0.45594000000E+02  0.51100000000E-03 0. -1.
         23    2    1    2    0    0  0.00000000000E+00  0.00000000000E+00  0.00000000000E+00  0.91188000000E+02  0.91188000000E+02 0.  0.
    9900012    2    3    3    0    0  0.18947102379E+02 -0.31336086770E+02  0.17669794516E+02  0.50528872355E+02  0.30000038010E+02 0.  0.
        -12    1    3    3    0    0 -0.18947102379E+02  0.31336086770E+02 -0.17669794516E+02  0.40659127645E+02  0.00000000000E+00 0.  1.
         11    1    4    4    0    0 -0.18270258044E+00 -0.10147942885E+02  0.54585745925E+01  0.11524329129E+02  0.51100000000E-03 0. -1.
        -11    1    4    4    0    0  0.45473180288E+01 -0.18351059333E+02 -0.12631330028E+01  0.18948218522E+02  0.51100000000E-03 0.  1.
        -12    1    4    4    0    0  0.14582486930E+02 -0.28370845510E+01  0.13474352927E+02  0.20056324704E+02  0.00000000000E+00 0.  1.
</event>
<event>
 8    1  0.1338956E-013  0.9118800E+02  0.7816164E-02  0.1184000E+00
        -11   -1    0    0    0    0  0.00000000000E+00  0.00000000000E+00  0.45593999997E+02  0.45594000000E+02  0.51100000000E-03 0. -1.
         11   -1    0    0    0    0 -0.00000000000E+00 -0.00000000000E+00 -0.45593999997E+02  0.45594000000E+02  0.51100000000E-03 0.  1.
         23    2    1    2    0    0  0.00000000000E+00 -0.17763568394E-14  0.00000000000E+00  0.91188000000E+02  0.91188000000E+02 0.  0.
    9900012    2    3    3    0    0 -0.31409924589E+02 -0.14442166684E+02 -0.21401059281E+02  0.50528869666E+02  0.30000029836E+02 0.  0.
         12    1    3    3    0    0  0.31409924589E+02  0.14442166684E+02  0.21401059281E+02  0.40659130334E+02  0.00000000000E+00 0. -1.
         11    1    4    4    0    0 -0.14707409765E+02 -0.29614849039E+01  0.45451883325E+01  0.15676001788E+02  0.51100000000E-03 0. -1.
        -11    1    4    4    0    0 -0.31216573360E+01  0.16635383506E+01 -0.12439701953E+01  0.37496088430E+01  0.51100000000E-03 0.  1.
         12    1    4    4    0    0 -0.13580857488E+02 -0.13144220130E+02 -0.24702277418E+02  0.31103259035E+02  0.00000000000E+00 0. -1.
</event>
<event>
 8    1  0.1338956E-013  0.9118800E+02  0.7816164E-02  0.1184000E+00
        -11   -1    0    0    0    0  0.00000000000E+00  0.00000000000E+00  0.45593999997E+02  0.45594000000E+02  0.51100000000E-03 0. -1.
         11   -1    0    0    0    0 -0.00000000000E+00 -0.00000000000E+00 -0.45593999997E+02  0.45594000000E+02  0.51100000000E-03 0.  1.
         23    2    1    2    0    0 -0.26645352591E-14 -0.71054273576E-14 -0.71054273576E-14  0.91188000000E+02  0.91188000000E+02 0.  0.
    9900012    2    3    3    0    0 -0.65892756208E+01 -0.29869490958E+02 -0.26787328366E+02  0.50528855835E+02  0.29999987795E+02 0.  0.
         12    1    3    3    0    0  0.65892756208E+01  0.29869490958E+02  0.26787328366E+02  0.40659144165E+02  0.00000000000E+00 0. -1.
         11    1    4    4    0    0 -0.66895997756E+01 -0.69894411146E+01 -0.14078730567E+02  0.17082555046E+02  0.51100000000E-03 0. -1.
        -11    1    4    4    0    0 -0.96703237448E+01 -0.15741503391E+02 -0.10146228952E+02  0.21077382488E+02  0.51100000000E-03 0.  1.
        -12    1    4    4    0    0  0.97706478995E+01 -0.71385464519E+01 -0.25623688462E+01  0.12368918301E+02  0.00000000000E+00 0.  1.
</event>
<event>
 8    1  0.1338956E-013  0.9118800E+02  0.7816164E-02  0.1184000E+00
        -11   -1    0    0    0    0  0.00000000000E+00  0.00000000000E+00  0.45593999997E+02  0.45594000000E+02  0.51100000000E-03 0. -1.
         11   -1    0    0    0    0 -0.00000000000E+00 -0.00000000000E+00 -0.45593999997E+02  0.45594000000E+02  0.51100000000E-03 0.  1.
         23    2    1    2    0    0 -0.35527136788E-14 -0.17763568394E-14  0.00000000000E+00  0.91188000000E+02  0.91188000000E+02 0.  0.
    9900012    2    3    3    0    0 -0.13053250187E+02 -0.11162000020E+02 -0.36853452877E+02  0.50528996398E+02  0.30000415050E+02 0.  0.
         12    1    3    3    0    0  0.13053250187E+02  0.11162000020E+02  0.36853452877E+02  0.40659003602E+02  0.00000000000E+00 0. -1.
         11    1    4    4    0    0 -0.11581503257E+02 -0.83943904412E+01 -0.10053417377E+02  0.17483369521E+02  0.51100000000E-03 0.  1.
        -11    1    4    4    0    0  0.50565732131E-01 -0.18788839785E+01  0.28113708176E+01  0.33817995259E+01  0.51100000000E-03 0. -1.
        -12    1    4    4    0    0 -0.15223126620E+01 -0.88872559992E+00 -0.29611406318E+02  0.29663827352E+02  0.00000000000E+00 0.  1.
</event>
<event>
 8    1  0.1338956E-013  0.9118800E+02  0.7816164E-02  0.1184000E+00
        -11   -1    0    0    0    0  0.00000000000E+00  0.00000000000E+00  0.45593999997E+02  0.45594000000E+02  0.51100000000E-03 0.  1.
         11   -1    0    0    0    0 -0.00000000000E+00 -0.00000000000E+00 -0.45593999997E+02  0.45594000000E+02  0.51100000000E-03 0. -1.
         23    2    1    2    0    0 -0.71054273576E-14  0.35527136788E-14  0.22204460493E-15  0.91188000000E+02  0.91188000000E+02 0.  0.
    9900012    2    3    3    0    0  0.31294204158E+02 -0.25936650152E+02 -0.10650550047E+01  0.50528789762E+02  0.29999786960E+02 0.  0.
         12    1    3    3    0    0 -0.31294204158E+02  0.25936650152E+02  0.10650550047E+01  0.40659210238E+02  0.00000000000E+00 0. -1.
         11    1    4    4    0    0  0.19225097901E+02 -0.44966974465E+01 -0.62538359746E+01  0.20710749428E+02  0.51100000000E-03 0. -1.
        -11    1    4    4    0    0  0.15444169028E+02 -0.18529046506E+02  0.68278513839E+01  0.25069253602E+02  0.51100000000E-03 0.  1.
        -12    1    4    4    0    0 -0.33750627700E+01 -0.29109061999E+01 -0.16390704140E+01  0.47487867322E+01  0.00000000000E+00 0.  1.
</event>
<event>
 8    1  0.1338956E-013  0.9118800E+02  0.7816164E-02  0.1184000E+00
        -11   -1    0    0    0    0  0.00000000000E+00  0.00000000000E+00  0.45593999997E+02  0.45594000000E+02  0.51100000000E-03 0. -1.
         11   -1    0    0    0    0 -0.00000000000E+00 -0.00000000000E+00 -0.45593999997E+02  0.45594000000E+02  0.51100000000E-03 0.  1.
         23    2    1    2    0    0  0.00000000000E+00  0.00000000000E+00  0.00000000000E+00  0.91188000000E+02  0.91188000000E+02 0.  0.
    9900012    2    3    3    0    0  0.50188277066E+01  0.22773822810E+02  0.33306616288E+02  0.50528851884E+02  0.29999975787E+02 0.  0.
        -12    1    3    3    0    0 -0.50188277066E+01 -0.22773822810E+02 -0.33306616288E+02  0.40659148116E+02  0.00000000000E+00 0.  1.
         11    1    4    4    0    0  0.26916322598E+01 -0.55315609545E+01  0.52102508348E+01  0.80616229655E+01  0.51100000000E-03 0. -1.
        -11    1    4    4    0    0  0.45510712278E+01  0.20169311301E+01  0.20185541138E+01  0.53716684070E+01  0.51100000000E-03 0.  1.
         12    1    4    4    0    0 -0.22238757810E+01  0.26288452635E+02  0.26077811340E+02  0.37095560512E+02  0.00000000000E+00 0. -1.
</event>
<event>
 8    1  0.1338956E-013  0.9118800E+02  0.7816164E-02  0.1184000E+00
        -11   -1    0    0    0    0  0.00000000000E+00  0.00000000000E+00  0.45593999997E+02  0.45594000000E+02  0.51100000000E-03 0. -1.
         11   -1    0    0    0    0 -0.00000000000E+00 -0.00000000000E+00 -0.45593999997E+02  0.45594000000E+02  0.51100000000E-03 0.  1.
         23    2    1    2    0    0 -0.35527136788E-14 -0.35527136788E-14 -0.35527136788E-14  0.91188000000E+02  0.91188000000E+02 0.  0.
    9900012    2    3    3    0    0  0.17864904012E+02  0.26359367094E+02  0.25282301525E+02  0.50528858355E+02  0.29999995455E+02 0.  0.
        -12    1    3    3    0    0 -0.17864904012E+02 -0.26359367094E+02 -0.25282301525E+02  0.40659141645E+02  0.00000000000E+00 0.  1.
         11    1    4    4    0    0  0.12999830178E+01  0.96761499958E+01  0.14650244374E+02  0.17605325758E+02  0.51100000000E-03 0. -1.
        -11    1    4    4    0    0  0.62004809460E+01 -0.42136893020E+01  0.47238576494E+01  0.88609239275E+01  0.51100000000E-03 0.  1.
        -12    1    4    4    0    0  0.10364440048E+02  0.20896906400E+02  0.59081995016E+01  0.24062608669E+02  0.00000000000E+00 0.  1.
</event>
<event>
 8    1  0.1338956E-013  0.9118800E+02  0.7816164E-02  0.1184000E+00
        -11   -1    0    0    0    0  0.00000000000E+00  0.00000000000E+00  0.45593999997E+02  0.45594000000E+02  0.51100000000E-03 0. -1.
         11   -1    0    0    0    0 -0.00000000000E+00 -0.00000000000E+00 -0.45593999997E+02  0.45594000000E+02  0.51100000000E-03 0.  1.
         23    2    1    2    0    0  0.00000000000E+00  0.00000000000E+00  0.00000000000E+00  0.91188000000E+02  0.91188000000E+02 0.  0.
    9900012    2    3    3    0    0  0.43130739979E+01 -0.17411171845E+02 -0.36488538875E+02  0.50528868411E+02  0.30000026023E+02 0.  0.
         12    1    3    3    0    0 -0.43130739979E+01  0.17411171845E+02  0.36488538875E+02  0.40659131589E+02  0.00000000000E+00 0. -1.
         11    1    4    4    0    0 -0.78267639048E+01 -0.36517945532E+01 -0.28846156927E+01  0.91057588721E+01  0.51100000000E-03 0. -1.
        -11    1    4    4    0    0  0.11683350761E+01 -0.11994610187E+02 -0.11377741503E+02  0.16573734714E+02  0.51100000000E-03 0.  1.
        -12    1    4    4    0    0  0.10971502827E+02 -0.17647671048E+01 -0.22226181679E+02  0.24849374826E+02  0.00000000000E+00 0.  1.
</event>
<event>
 8    1  0.1338956E-013  0.9118800E+02  0.7816164E-02  0.1184000E+00
        -11   -1    0    0    0    0  0.00000000000E+00  0.00000000000E+00  0.45593999997E+02  0.45594000000E+02  0.51100000000E-03 0. -1.
         11   -1    0    0    0    0 -0.00000000000E+00 -0.00000000000E+00 -0.45593999997E+02  0.45594000000E+02  0.51100000000E-03 0.  1.
         23    2    1    2    0    0  0.00000000000E+00  0.35527136788E-14  0.00000000000E+00  0.91188000000E+02  0.91188000000E+02 0.  0.
    9900012    2    3    3    0    0 -0.28616893790E+02 -0.17818537201E+02  0.22731914574E+02  0.50528845823E+02  0.29999957364E+02 0.  0.
        -12    1    3    3    0    0  0.28616893790E+02  0.17818537201E+02 -0.22731914574E+02  0.40659154177E+02  0.00000000000E+00 0.  1.
         11    1    4    4    0    0 -0.17198407054E+01 -0.21251444277E+01  0.39937969733E+01  0.48398869218E+01  0.51100000000E-03 0. -1.
        -11    1    4    4    0    0 -0.15186517809E+01 -0.79125791935E+01 -0.54903290607E+01  0.97498167255E+01  0.51100000000E-03 0.  1.
        -12    1    4    4    0    0 -0.25378401304E+02 -0.77808135794E+01  0.24228446661E+02  0.35939142176E+02  0.00000000000E+00 0.  1.
</event>
<event>
 8    1  0.1338956E-013  0.9118800E+02  0.7816164E-02  0.1184000E+00
        -11   -1    0    0    0    0  0.00000000000E+00  0.00000000000E+00  0.45593999997E+02  0.45594000000E+02  0.51100000000E-03 0. -1.
         11   -1    0    0    0    0 -0.00000000000E+00 -0.00000000000E+00 -0.45593999997E+02  0.45594000000E+02  0.51100000000E-03 0.  1.
         23    2    1    2    0    0  0.00000000000E+00  0.00000000000E+00  0.00000000000E+00  0.91188000000E+02  0.91188000000E+02 0.  0.
    9900012    2    3    3    0    0 -0.36620136742E+02 -0.64847282900E+01  0.16434083618E+02  0.50528865474E+02  0.30000017095E+02 0.  0.
        -12    1    3    3    0    0  0.36620136742E+02  0.64847282900E+01 -0.16434083618E+02  0.40659134526E+02  0.00000000000E+00 0.  1.
         11    1    4    4    0    0 -0.18627663657E+02 -0.50822266444E+01  0.15332118414E+02  0.24655480857E+02  0.51100000000E-03 0. -1.
        -11    1    4    4    0    0  0.21610042891E+01 -0.20616543027E+01  0.45238472228E+01  0.54208442108E+01  0.51100000000E-03 0.  1.
         12    1    4    4    0    0 -0.20153477374E+02  0.65915265712E+00 -0.34218820184E+01  0.20452540406E+02  0.00000000000E+00 0. -1.
</event>
<event>
 8    1  0.1338956E-013  0.9118800E+02  0.7816164E-02  0.1184000E+00
        -11   -1    0    0    0    0  0.00000000000E+00  0.00000000000E+00  0.45593999997E+02  0.45594000000E+02  0.51100000000E-03 0. -1.
         11   -1    0    0    0    0 -0.00000000000E+00 -0.00000000000E+00 -0.45593999997E+02  0.45594000000E+02  0.51100000000E-03 0.  1.
         23    2    1    2    0    0  0.00000000000E+00  0.00000000000E+00 -0.35527136788E-14  0.91188000000E+02  0.91188000000E+02 0.  0.
    9900012    2    3    3    0    0 -0.23660542350E+02 -0.21633405235E+02  0.25006649009E+02  0.50528954499E+02  0.30000287694E+02 0.  0.
        -12    1    3    3    0    0  0.23660542350E+02  0.21633405235E+02 -0.25006649009E+02  0.40659045501E+02  0.00000000000E+00 0.  1.
         11    1    4    4    0    0 -0.10245724339E+02 -0.88895107575E+01  0.71464277078E+01  0.15331982846E+02  0.51100000000E-03 0. -1.
        -11    1    4    4    0    0 -0.17494428140E+02 -0.16449253523E+02  0.11042925279E+02  0.26430648051E+02  0.51100000000E-03 0.  1.
        -12    1    4    4    0    0  0.40796101284E+01  0.37053590453E+01  0.68172960222E+01  0.87663236028E+01  0.00000000000E+00 0.  1.
</event>
<event>
 8    1  0.1338956E-013  0.9118800E+02  0.7816164E-02  0.1184000E+00
        -11   -1    0    0    0    0  0.00000000000E+00  0.00000000000E+00  0.45593999997E+02  0.45594000000E+02  0.51100000000E-03 0.  1.
         11   -1    0    0    0    0 -0.00000000000E+00 -0.00000000000E+00 -0.45593999997E+02  0.45594000000E+02  0.51100000000E-03 0. -1.
         23    2    1    2    0    0  0.00000000000E+00  0.00000000000E+00  0.22204460493E-15  0.91188000000E+02  0.91188000000E+02 0.  0.
    9900012    2    3    3    0    0  0.39316911434E+02 -0.10299491379E+02 -0.11257528993E+01  0.50528851374E+02  0.29999974238E+02 0.  0.
        -12    1    3    3    0    0 -0.39316911434E+02  0.10299491379E+02  0.11257528993E+01  0.40659148626E+02  0.00000000000E+00 0.  1.
         11    1    4    4    0    0  0.26622052669E+02 -0.52001315070E+01 -0.81250587744E+00  0.27137339996E+02  0.51100000000E-03 0. -1.
        -11    1    4    4    0    0  0.13971385412E+02 -0.10366844621E+02 -0.24429935765E+01  0.17568132957E+02  0.51100000000E-03 0.  1.
        -12    1    4    4    0    0 -0.12765266472E+01  0.52674847481E+01  0.21297465547E+01  0.58233784214E+01  0.00000000000E+00 0.  1.
</event>
<event>
 8    1  0.1338956E-013  0.9118800E+02  0.7816164E-02  0.1184000E+00
        -11   -1    0    0    0    0  0.00000000000E+00  0.00000000000E+00  0.45593999997E+02  0.45594000000E+02  0.51100000000E-03 0. -1.
         11   -1    0    0    0    0 -0.00000000000E+00 -0.00000000000E+00 -0.45593999997E+02  0.45594000000E+02  0.51100000000E-03 0.  1.
         23    2    1    2    0    0 -0.88817841970E-15  0.00000000000E+00  0.00000000000E+00  0.91188000000E+02  0.91188000000E+02 0.  0.
    9900012    2    3    3    0    0  0.30991932708E+01 -0.19060971400E+02  0.35780473698E+02  0.50528832182E+02  0.29999915900E+02 0.  0.
        -12    1    3    3    0    0 -0.30991932708E+01  0.19060971400E+02 -0.35780473698E+02  0.40659167818E+02  0.00000000000E+00 0.  1.
         11    1    4    4    0    0  0.47842709650E+01  0.29898290126E+00 -0.53375907327E+00  0.48232290482E+01  0.51100000000E-03 0. -1.
        -11    1    4    4    0    0 -0.83892596575E+01 -0.15783036395E+01  0.87391412248E+01  0.12216517900E+02  0.51100000000E-03 0.  1.
        -12    1    4    4    0    0  0.67041819633E+01 -0.17781650662E+02  0.27575091546E+02  0.33489085234E+02  0.00000000000E+00 0.  1.
</event>
<event>
 8    1  0.1338956E-013  0.9118800E+02  0.7816164E-02  0.1184000E+00
        -11   -1    0    0    0    0  0.00000000000E+00  0.00000000000E+00  0.45593999997E+02  0.45594000000E+02  0.51100000000E-03 0. -1.
         11   -1    0    0    0    0 -0.00000000000E+00 -0.00000000000E+00 -0.45593999997E+02  0.45594000000E+02  0.51100000000E-03 0.  1.
         23    2    1    2    0    0 -0.88817841970E-15  0.00000000000E+00 -0.35527136788E-14  0.91188000000E+02  0.91188000000E+02 0.  0.
    9900012    2    3    3    0    0  0.55931058836E+01 -0.33644505536E+02 -0.22134384045E+02  0.50528849207E+02  0.29999967648E+02 0.  0.
         12    1    3    3    0    0 -0.55931058836E+01  0.33644505536E+02  0.22134384045E+02  0.40659150793E+02  0.00000000000E+00 0. -1.
         11    1    4    4    0    0 -0.23402597388E+01 -0.10197417197E+01 -0.34082208692E+00  0.25754317650E+01  0.51100000000E-03 0. -1.
        -11    1    4    4    0    0 -0.14970948887E+01 -0.51341187545E+01 -0.17837823861E+02  0.18622256277E+02  0.51100000000E-03 0.  1.
         12    1    4    4    0    0  0.94304605111E+01 -0.27490645062E+02 -0.39557380972E+01  0.29331161165E+02  0.00000000000E+00 0. -1.
</event>
<event>
 8    1  0.1338956E-013  0.9118800E+02  0.7816164E-02  0.1184000E+00
        -11   -1    0    0    0    0  0.00000000000E+00  0.00000000000E+00  0.45593999997E+02  0.45594000000E+02  0.51100000000E-03 0. -1.
         11   -1    0    0    0    0 -0.00000000000E+00 -0.00000000000E+00 -0.45593999997E+02  0.45594000000E+02  0.51100000000E-03 0.  1.
         23    2    1    2    0    0  0.00000000000E+00  0.00000000000E+00  0.00000000000E+00  0.91188000000E+02  0.91188000000E+02 0.  0.
    9900012    2    3    3    0    0  0.16634419302E+02 -0.16986575283E+01  0.37061786049E+02  0.50528864150E+02  0.30000013071E+02 0.  0.
        -12    1    3    3    0    0 -0.16634419302E+02  0.16986575283E+01 -0.37061786049E+02  0.40659135850E+02  0.00000000000E+00 0.  1.
         11    1    4    4    0    0 -0.42587215542E+00  0.26442574824E+01  0.10180914182E+00  0.26802667943E+01  0.51100000000E-03 0. -1.
        -11    1    4    4    0    0 -0.28952171337E+01 -0.31444945926E+01 -0.14779878181E+01  0.45226736281E+01  0.51100000000E-03 0.  1.
         12    1    4    4    0    0  0.19955508592E+02 -0.11984204181E+01  0.38437964725E+02  0.43325923728E+02  0.00000000000E+00 0. -1.
</event>
<event>
 8    1  0.1338956E-013  0.9118800E+02  0.7816164E-02  0.1184000E+00
        -11   -1    0    0    0    0  0.00000000000E+00  0.00000000000E+00  0.45593999997E+02  0.45594000000E+02  0.51100000000E-03 0. -1.
         11   -1    0    0    0    0 -0.00000000000E+00 -0.00000000000E+00 -0.45593999997E+02  0.45594000000E+02  0.51100000000E-03 0.  1.
         23    2    1    2    0    0  0.00000000000E+00  0.17763568394E-14 -0.71054273576E-14  0.91188000000E+02  0.91188000000E+02 0.  0.
    9900012    2    3    3    0    0 -0.21147231278E+02 -0.11781295820E+02  0.32667430596E+02  0.50528863958E+02  0.30000012486E+02 0.  0.
        -12    1    3    3    0    0  0.21147231278E+02  0.11781295820E+02 -0.32667430596E+02  0.40659136042E+02  0.00000000000E+00 0.  1.
         11    1    4    4    0    0 -0.26016923122E+01 -0.35228740801E+01  0.16487354102E+02  0.17059082338E+02  0.51100000000E-03 0. -1.
        -11    1    4    4    0    0 -0.34409361970E+01  0.51142762239E+01  0.11051636458E+02  0.12654427362E+02  0.51100000000E-03 0.  1.
         12    1    4    4    0    0 -0.15104602769E+02 -0.13372697964E+02  0.51284400359E+01  0.20815354257E+02  0.00000000000E+00 0. -1.
</event>
<event>
 8    1  0.1338956E-013  0.9118800E+02  0.7816164E-02  0.1184000E+00
        -11   -1    0    0    0    0  0.00000000000E+00  0.00000000000E+00  0.45593999997E+02  0.45594000000E+02  0.51100000000E-03 0. -1.
         11   -1    0    0    0    0 -0.00000000000E+00 -0.00000000000E+00 -0.45593999997E+02  0.45594000000E+02  0.51100000000E-03 0.  1.
         23    2    1    2    0    0 -0.88817841970E-15 -0.35527136788E-14  0.00000000000E+00  0.91188000000E+02  0.91188000000E+02 0.  0.
    9900012    2    3    3    0    0 -0.72228315895E+01  0.19890475790E+02  0.34718376797E+02  0.50528855755E+02  0.29999987553E+02 0.  0.
        -12    1    3    3    0    0  0.72228315895E+01 -0.19890475790E+02 -0.34718376797E+02  0.40659144245E+02  0.00000000000E+00 0.  1.
         11    1    4    4    0    0  0.26400757848E+01  0.18107959486E+02  0.27733613437E+02  0.33226819159E+02  0.51100000000E-03 0. -1.
        -11    1    4    4    0    0 -0.25090118539E+00  0.48217309006E+01 -0.34106410550E+00  0.48402856597E+01  0.51100000000E-03 0.  1.
         12    1    4    4    0    0 -0.96120061889E+01 -0.30392145968E+01  0.73258274650E+01  0.12461750936E+02  0.00000000000E+00 0. -1.
</event>
<event>
 8    1  0.1338956E-013  0.9118800E+02  0.7816164E-02  0.1184000E+00
        -11   -1    0    0    0    0  0.00000000000E+00  0.00000000000E+00  0.45593999997E+02  0.45594000000E+02  0.51100000000E-03 0. -1.
         11   -1    0    0    0    0 -0.00000000000E+00 -0.00000000000E+00 -0.45593999997E+02  0.45594000000E+02  0.51100000000E-03 0.  1.
         23    2    1    2    0    0  0.00000000000E+00  0.00000000000E+00 -0.53290705182E-14  0.91188000000E+02  0.91188000000E+02 0.  0.
    9900012    2    3    3    0    0  0.35215533510E+02  0.13065428377E+02  0.15566851159E+02  0.50528854976E+02  0.29999985185E+02 0.  0.
        -12    1    3    3    0    0 -0.35215533510E+02 -0.13065428377E+02 -0.15566851159E+02  0.40659145024E+02  0.00000000000E+00 0.  1.
         11    1    4    4    0    0  0.11421839108E+02  0.35918359159E+01  0.18923558016E+01  0.12121910105E+02  0.51100000000E-03 0. -1.
        -11    1    4    4    0    0  0.60456619199E+01  0.57856544130E+01  0.17930358411E+02  0.19786904206E+02  0.51100000000E-03 0.  1.
         12    1    4    4    0    0  0.17748032483E+02  0.36879380485E+01 -0.42558630535E+01  0.18620040665E+02  0.00000000000E+00 0. -1.
</event>
<event>
 8    1  0.1338956E-013  0.9118800E+02  0.7816164E-02  0.1184000E+00
        -11   -1    0    0    0    0  0.00000000000E+00  0.00000000000E+00  0.45593999997E+02  0.45594000000E+02  0.51100000000E-03 0. -1.
         11   -1    0    0    0    0 -0.00000000000E+00 -0.00000000000E+00 -0.45593999997E+02  0.45594000000E+02  0.51100000000E-03 0.  1.
         23    2    1    2    0    0  0.00000000000E+00 -0.22204460493E-15 -0.35527136788E-14  0.91188000000E+02  0.91188000000E+02 0.  0.
    9900012    2    3    3    0    0 -0.28484232128E+02 -0.11518399268E+01  0.28991159051E+02  0.50528861812E+02  0.30000005963E+02 0.  0.
        -12    1    3    3    0    0  0.28484232128E+02  0.11518399268E+01 -0.28991159051E+02  0.40659138188E+02  0.00000000000E+00 0.  1.
         11    1    4    4    0    0 -0.93367372278E+01  0.28802329434E+01 -0.21165142690E+00  0.97731878349E+01  0.51100000000E-03 0. -1.
        -11    1    4    4    0    0 -0.19223320340E+02 -0.27953079361E+01  0.10634243557E+02  0.22145810611E+02  0.51100000000E-03 0.  1.
        -12    1    4    4    0    0  0.75825439776E-01 -0.12367649341E+01  0.18568566921E+02  0.18609863366E+02  0.00000000000E+00 0.  1.
</event>
<event>
 8    1  0.1338956E-013  0.9118800E+02  0.7816164E-02  0.1184000E+00
        -11   -1    0    0    0    0  0.00000000000E+00  0.00000000000E+00  0.45593999997E+02  0.45594000000E+02  0.51100000000E-03 0. -1.
         11   -1    0    0    0    0 -0.00000000000E+00 -0.00000000000E+00 -0.45593999997E+02  0.45594000000E+02  0.51100000000E-03 0.  1.
         23    2    1    2    0    0 -0.88817841970E-15 -0.17763568394E-14  0.71054273576E-14  0.91188000000E+02  0.91188000000E+02 0.  0.
    9900012    2    3    3    0    0  0.67163347502E+01  0.14253220723E+02 -0.37482007054E+02  0.50528876716E+02  0.30000051265E+02 0.  0.
         12    1    3    3    0    0 -0.67163347502E+01 -0.14253220723E+02  0.37482007054E+02  0.40659123284E+02  0.00000000000E+00 0. -1.
         11    1    4    4    0    0 -0.21768960651E+01 -0.14188081223E+01  0.12605870898E+01  0.28880742785E+01  0.51100000000E-03 0. -1.
        -11    1    4    4    0    0  0.26170607660E+01 -0.68472394756E+00  0.19515620742E+01  0.33356331824E+01  0.51100000000E-03 0.  1.
        -12    1    4    4    0    0  0.62761700493E+01  0.16356752793E+02 -0.40694156218E+02  0.44305169255E+02  0.00000000000E+00 0.  1.
</event>
<event>
 8    1  0.1338956E-013  0.9118800E+02  0.7816164E-02  0.1184000E+00
        -11   -1    0    0    0    0  0.00000000000E+00  0.00000000000E+00  0.45593999997E+02  0.45594000000E+02  0.51100000000E-03 0. -1.
         11   -1    0    0    0    0 -0.00000000000E+00 -0.00000000000E+00 -0.45593999997E+02  0.45594000000E+02  0.51100000000E-03 0.  1.
         23    2    1    2    0    0 -0.88817841970E-15 -0.17763568394E-14  0.00000000000E+00  0.91188000000E+02  0.91188000000E+02 0.  0.
    9900012    2    3    3    0    0  0.78986869881E+01  0.15757900535E+02 -0.36639669951E+02  0.50528854663E+02  0.29999984235E+02 0.  0.
         12    1    3    3    0    0 -0.78986869881E+01 -0.15757900535E+02  0.36639669951E+02  0.40659145337E+02  0.00000000000E+00 0. -1.
         11    1    4    4    0    0  0.93720897819E+01  0.59574308028E+01 -0.77593145367E+01  0.13547472495E+02  0.51100000000E-03 0. -1.
        -11    1    4    4    0    0  0.12920341568E+01  0.73731465630E+01 -0.31556083706E+02  0.32431760076E+02  0.51100000000E-03 0.  1.
         12    1    4    4    0    0 -0.27654369506E+01  0.24273231696E+01  0.26757282919E+01  0.45496220931E+01  0.00000000000E+00 0. -1.
</event>
<event>
 8    1  0.1338956E-013  0.9118800E+02  0.7816164E-02  0.1184000E+00
        -11   -1    0    0    0    0  0.00000000000E+00  0.00000000000E+00  0.45593999997E+02  0.45594000000E+02  0.51100000000E-03 0. -1.
         11   -1    0    0    0    0 -0.00000000000E+00 -0.00000000000E+00 -0.45593999997E+02  0.45594000000E+02  0.51100000000E-03 0.  1.
         23    2    1    2    0    0 -0.49960036108E-15  0.00000000000E+00  0.00000000000E+00  0.91188000000E+02  0.91188000000E+02 0.  0.
    9900012    2    3    3    0    0 -0.43820781460E+00 -0.17295452861E+02 -0.36794579135E+02  0.50528858722E+02  0.29999996571E+02 0.  0.
         12    1    3    3    0    0  0.43820781460E+00  0.17295452861E+02  0.36794579135E+02  0.40659141278E+02  0.00000000000E+00 0. -1.
         11    1    4    4    0    0 -0.20842483747E+00 -0.76703313397E+00  0.53025228947E+00  0.95548338190E+00  0.51100000000E-03 0. -1.
        -11    1    4    4    0    0  0.32447183330E+01  0.68734061292E+00 -0.30580860764E+02  0.30760196350E+02  0.51100000000E-03 0.  1.
        -12    1    4    4    0    0 -0.34745013102E+01 -0.17215760340E+02 -0.67439706607E+01  0.18813178990E+02  0.00000000000E+00 0.  1.
</event>
<event>
 8    1  0.1338956E-013  0.9118800E+02  0.7816164E-02  0.1184000E+00
        -11   -1    0    0    0    0  0.00000000000E+00  0.00000000000E+00  0.45593999997E+02  0.45594000000E+02  0.51100000000E-03 0. -1.
         11   -1    0    0    0    0 -0.00000000000E+00 -0.00000000000E+00 -0.45593999997E+02  0.45594000000E+02  0.51100000000E-03 0.  1.
         23    2    1    2    0    0  0.35527136788E-14  0.00000000000E+00  0.44408920985E-15  0.91188000000E+02  0.91188000000E+02 0.  0.
    9900012    2    3    3    0    0  0.16495603579E+02 -0.37106401536E+02 -0.20434549816E+01  0.50528859814E+02  0.29999999891E+02 0.  0.
        -12    1    3    3    0    0 -0.16495603579E+02  0.37106401536E+02  0.20434549816E+01  0.40659140186E+02  0.00000000000E+00 0.  1.
         11    1    4    4    0    0  0.12498352181E+02 -0.18429220115E+02 -0.81218228487E+01  0.23702509739E+02  0.51100000000E-03 0. -1.
        -11    1    4    4    0    0  0.65505180101E+01 -0.23337086413E+01 -0.34223995189E+01  0.77503742459E+01  0.51100000000E-03 0.  1.
         12    1    4    4    0    0 -0.25532666125E+01 -0.16343472780E+02  0.95007673861E+01  0.19075975829E+02  0.00000000000E+00 0. -1.
</event>
<event>
 8    1  0.1338956E-013  0.9118800E+02  0.7816164E-02  0.1184000E+00
        -11   -1    0    0    0    0  0.00000000000E+00  0.00000000000E+00  0.45593999997E+02  0.45594000000E+02  0.51100000000E-03 0. -1.
         11   -1    0    0    0    0 -0.00000000000E+00 -0.00000000000E+00 -0.45593999997E+02  0.45594000000E+02  0.51100000000E-03 0.  1.
         23    2    1    2    0    0  0.13322676296E-14  0.35527136788E-14  0.71054273576E-14  0.91188000000E+02  0.91188000000E+02 0.  0.
    9900012    2    3    3    0    0  0.38563074112E+01  0.24481646881E+02  0.32232647422E+02  0.50528859568E+02  0.29999999144E+02 0.  0.
        -12    1    3    3    0    0 -0.38563074112E+01 -0.24481646881E+02 -0.32232647422E+02  0.40659140432E+02  0.00000000000E+00 0.  1.
         11    1    4    4    0    0  0.12897598470E+02  0.19270815899E+02  0.25083186564E+02  0.34159605387E+02  0.51100000000E-03 0. -1.
        -11    1    4    4    0    0 -0.33064070087E+01  0.71042667542E+01  0.12656168388E+01  0.79375512386E+01  0.51100000000E-03 0.  1.
        -12    1    4    4    0    0 -0.57348840496E+01 -0.18934357723E+01  0.58838440186E+01  0.84317029431E+01  0.00000000000E+00 0.  1.
</event>
<event>
 8    1  0.1338956E-013  0.9118800E+02  0.7816164E-02  0.1184000E+00
        -11   -1    0    0    0    0  0.00000000000E+00  0.00000000000E+00  0.45593999997E+02  0.45594000000E+02  0.51100000000E-03 0. -1.
         11   -1    0    0    0    0 -0.00000000000E+00 -0.00000000000E+00 -0.45593999997E+02  0.45594000000E+02  0.51100000000E-03 0.  1.
         23    2    1    2    0    0  0.35527136788E-14  0.00000000000E+00  0.00000000000E+00  0.91188000000E+02  0.91188000000E+02 0.  0.
    9900012    2    3    3    0    0  0.25922922583E+02 -0.24730233975E+02  0.19224545557E+02  0.50528861550E+02  0.30000005166E+02 0.  0.
        -12    1    3    3    0    0 -0.25922922583E+02  0.24730233975E+02 -0.19224545557E+02  0.40659138450E+02  0.00000000000E+00 0.  1.
         11    1    4    4    0    0  0.48790779846E+01 -0.28894123131E+01  0.38082418475E+01  0.68305791647E+01  0.51100000000E-03 0. -1.
        -11    1    4    4    0    0  0.18660235993E+02 -0.16693097794E+02  0.23155015214E+02  0.34103059263E+02  0.51100000000E-03 0.  1.
        -12    1    4    4    0    0  0.23836086045E+01 -0.51477238682E+01 -0.77387115049E+01  0.95952231219E+01  0.00000000000E+00 0.  1.
</event>
<event>
 8    1  0.1338956E-013  0.9118800E+02  0.7816164E-02  0.1184000E+00
        -11   -1    0    0    0    0  0.00000000000E+00  0.00000000000E+00  0.45593999997E+02  0.45594000000E+02  0.51100000000E-03 0. -1.
         11   -1    0    0    0    0 -0.00000000000E+00 -0.00000000000E+00 -0.45593999997E+02  0.45594000000E+02  0.51100000000E-03 0.  1.
         23    2    1    2    0    0  0.00000000000E+00  0.00000000000E+00 -0.35527136788E-14  0.91188000000E+02  0.91188000000E+02 0.  0.
    9900012    2    3    3    0    0  0.28461341480E+02 -0.23610842976E+02  0.16901069227E+02  0.50528855815E+02  0.29999987734E+02 0.  0.
        -12    1    3    3    0    0 -0.28461341480E+02  0.23610842976E+02 -0.16901069227E+02  0.40659144185E+02  0.00000000000E+00 0.  1.
         11    1    4    4    0    0  0.11159703240E+01 -0.86975144612E+01  0.70393096011E+01  0.11244733322E+02  0.51100000000E-03 0. -1.
        -11    1    4    4    0    0 -0.40198751134E+00 -0.33030060881E+01  0.85527098891E+01  0.91771613196E+01  0.51100000000E-03 0.  1.
        -12    1    4    4    0    0  0.27747358667E+02 -0.11610322426E+02  0.13090497371E+01  0.30106961173E+02  0.00000000000E+00 0.  1.
</event>
<event>
 8    1  0.1338956E-013  0.9118800E+02  0.7816164E-02  0.1184000E+00
        -11   -1    0    0    0    0  0.00000000000E+00  0.00000000000E+00  0.45593999997E+02  0.45594000000E+02  0.51100000000E-03 0. -1.
         11   -1    0    0    0    0 -0.00000000000E+00 -0.00000000000E+00 -0.45593999997E+02  0.45594000000E+02  0.51100000000E-03 0.  1.
         23    2    1    2    0    0  0.00000000000E+00  0.00000000000E+00  0.00000000000E+00  0.91188000000E+02  0.91188000000E+02 0.  0.
    9900012    2    3    3    0    0  0.10622171171E+02  0.62782749303E+01 -0.38741728304E+02  0.50528821842E+02  0.29999884471E+02 0.  0.
         12    1    3    3    0    0 -0.10622171171E+02 -0.62782749303E+01  0.38741728304E+02  0.40659178158E+02  0.00000000000E+00 0. -1.
         11    1    4    4    0    0 -0.16144344587E+01 -0.22232108529E+01  0.21828250193E+00  0.27562134587E+01  0.51100000000E-03 0. -1.
        -11    1    4    4    0    0  0.66909901433E+01 -0.15814297726E+01  0.27906027455E+00  0.68809987735E+01  0.51100000000E-03 0.  1.
        -12    1    4    4    0    0  0.55456154864E+01  0.10082915556E+02 -0.39239071081E+02  0.40891609610E+02  0.00000000000E+00 0.  1.
</event>
<event>
 8    1  0.1338956E-013  0.9118800E+02  0.7816164E-02  0.1184000E+00
        -11   -1    0    0    0    0  0.00000000000E+00  0.00000000000E+00  0.45593999997E+02  0.45594000000E+02  0.51100000000E-03 0.  1.
         11   -1    0    0    0    0 -0.00000000000E+00 -0.00000000000E+00 -0.45593999997E+02  0.45594000000E+02  0.51100000000E-03 0. -1.
         23    2    1    2    0    0 -0.17763568394E-14  0.00000000000E+00  0.00000000000E+00  0.91188000000E+02  0.91188000000E+02 0.  0.
    9900012    2    3    3    0    0 -0.12982175477E+02  0.37848402494E+02 -0.72199283751E+01  0.50528858135E+02  0.29999994788E+02 0.  0.
        -12    1    3    3    0    0  0.12982175477E+02 -0.37848402494E+02  0.72199283751E+01  0.40659141865E+02  0.00000000000E+00 0.  1.
         11    1    4    4    0    0  0.15804338971E+01  0.14776950048E+02  0.48175928876E+01  0.15622587030E+02  0.51100000000E-03 0.  1.
        -11    1    4    4    0    0 -0.12119613937E+02  0.52630907229E+01  0.10622451900E+00  0.13213494990E+02  0.51100000000E-03 0. -1.
         12    1    4    4    0    0 -0.24429954373E+01  0.17808361723E+02 -0.12143745782E+02  0.21692776115E+02  0.00000000000E+00 0. -1.
</event>
<event>
 8    1  0.1338956E-013  0.9118800E+02  0.7816164E-02  0.1184000E+00
        -11   -1    0    0    0    0  0.00000000000E+00  0.00000000000E+00  0.45593999997E+02  0.45594000000E+02  0.51100000000E-03 0. -1.
         11   -1    0    0    0    0 -0.00000000000E+00 -0.00000000000E+00 -0.45593999997E+02  0.45594000000E+02  0.51100000000E-03 0.  1.
         23    2    1    2    0    0  0.00000000000E+00 -0.88817841970E-15  0.00000000000E+00  0.91188000000E+02  0.91188000000E+02 0.  0.
    9900012    2    3    3    0    0 -0.25589198975E+02 -0.11642573332E+01 -0.31575356346E+02  0.50528859236E+02  0.29999998133E+02 0.  0.
         12    1    3    3    0    0  0.25589198975E+02  0.11642573332E+01  0.31575356346E+02  0.40659140764E+02  0.00000000000E+00 0. -1.
         11    1    4    4    0    0 -0.17810852804E+02  0.45547202413E+01 -0.12779032411E+02  0.22389185418E+02  0.51100000000E-03 0. -1.
        -11    1    4    4    0    0 -0.86619069091E+01  0.19730657199E+01 -0.12632922993E+01  0.89731559293E+01  0.51100000000E-03 0.  1.
         12    1    4    4    0    0  0.88356073751E+00 -0.76920432944E+01 -0.17533031636E+02  0.19166517888E+02  0.00000000000E+00 0. -1.
</event>
<event>
 8    1  0.1338956E-013  0.9118800E+02  0.7816164E-02  0.1184000E+00
        -11   -1    0    0    0    0  0.00000000000E+00  0.00000000000E+00  0.45593999997E+02  0.45594000000E+02  0.51100000000E-03 0. -1.
         11   -1    0    0    0    0 -0.00000000000E+00 -0.00000000000E+00 -0.45593999997E+02  0.45594000000E+02  0.51100000000E-03 0.  1.
         23    2    1    2    0    0  0.00000000000E+00  0.17763568394E-14 -0.35527136788E-14  0.91188000000E+02  0.91188000000E+02 0.  0.
    9900012    2    3    3    0    0 -0.24437834072E+02  0.12960123559E+02 -0.29799205731E+02  0.50528865737E+02  0.30000017895E+02 0.  0.
         12    1    3    3    0    0  0.24437834072E+02 -0.12960123559E+02  0.29799205731E+02  0.40659134263E+02  0.00000000000E+00 0. -1.
         11    1    4    4    0    0 -0.11260299768E+01  0.28094554448E+01 -0.15595997611E+02  0.15886979736E+02  0.51100000000E-03 0. -1.
        -11    1    4    4    0    0 -0.33123505876E+01 -0.46612235386E+01 -0.63496378653E+01  0.85449735267E+01  0.51100000000E-03 0.  1.
         12    1    4    4    0    0 -0.19999453508E+02  0.14811891653E+02 -0.78535702546E+01  0.26096912474E+02  0.00000000000E+00 0. -1.
</event>
<event>
 8    1  0.1338956E-013  0.9118800E+02  0.7816164E-02  0.1184000E+00
        -11   -1    0    0    0    0  0.00000000000E+00  0.00000000000E+00  0.45593999997E+02  0.45594000000E+02  0.51100000000E-03 0.  1.
         11   -1    0    0    0    0 -0.00000000000E+00 -0.00000000000E+00 -0.45593999997E+02  0.45594000000E+02  0.51100000000E-03 0. -1.
         23    2    1    2    0    0  0.17763568394E-14  0.00000000000E+00  0.00000000000E+00  0.91188000000E+02  0.91188000000E+02 0.  0.
    9900012    2    3    3    0    0  0.52625389315E+01 -0.38386693092E+02 -0.12325750721E+02  0.50528970826E+02  0.30000337321E+02 0.  0.
         12    1    3    3    0    0 -0.52625389315E+01  0.38386693092E+02  0.12325750721E+02  0.40659029174E+02  0.00000000000E+00 0. -1.
         11    1    4    4    0    0  0.17163370694E+02 -0.23290449772E+02 -0.87423972002E+01  0.30223432188E+02  0.51100000000E-03 0.  1.
        -11    1    4    4    0    0 -0.46405541543E+01 -0.50205099472E+01  0.13031138368E+01  0.69597678784E+01  0.51100000000E-03 0. -1.
        -12    1    4    4    0    0 -0.72602776080E+01 -0.10075733373E+02 -0.48864673573E+01  0.13345770760E+02  0.00000000000E+00 0.  1.
</event>
<event>
 8    1  0.1338956E-013  0.9118800E+02  0.7816164E-02  0.1184000E+00
        -11   -1    0    0    0    0  0.00000000000E+00  0.00000000000E+00  0.45593999997E+02  0.45594000000E+02  0.51100000000E-03 0.  1.
         11   -1    0    0    0    0 -0.00000000000E+00 -0.00000000000E+00 -0.45593999997E+02  0.45594000000E+02  0.51100000000E-03 0. -1.
         23    2    1    2    0    0  0.00000000000E+00 -0.35527136788E-14  0.35527136788E-14  0.91188000000E+02  0.91188000000E+02 0.  0.
    9900012    2    3    3    0    0  0.49397276338E+00  0.30528778183E+02 -0.26849884442E+02  0.50528848496E+02  0.29999965489E+02 0.  0.
        -12    1    3    3    0    0 -0.49397276338E+00 -0.30528778183E+02  0.26849884442E+02  0.40659151504E+02  0.00000000000E+00 0.  1.
         11    1    4    4    0    0  0.17549523651E+00  0.35952347454E+01  0.10362190660E+01  0.37456990891E+01  0.51100000000E-03 0. -1.
        -11    1    4    4    0    0 -0.17553589258E+01  0.21219044688E+02 -0.34093484821E+01  0.21562764196E+02  0.51100000000E-03 0.  1.
         12    1    4    4    0    0  0.20738364527E+01  0.57144987501E+01 -0.24476755026E+02  0.25220385211E+02  0.00000000000E+00 0. -1.
</event>
<event>
 8    1  0.1338956E-013  0.9118800E+02  0.7816164E-02  0.1184000E+00
        -11   -1    0    0    0    0  0.00000000000E+00  0.00000000000E+00  0.45593999997E+02  0.45594000000E+02  0.51100000000E-03 0. -1.
         11   -1    0    0    0    0 -0.00000000000E+00 -0.00000000000E+00 -0.45593999997E+02  0.45594000000E+02  0.51100000000E-03 0.  1.
         23    2    1    2    0    0 -0.17763568394E-14  0.35527136788E-14  0.00000000000E+00  0.91188000000E+02  0.91188000000E+02 0.  0.
    9900012    2    3    3    0    0  0.75813547185E+01 -0.13743376245E+02  0.37507434932E+02  0.50528868121E+02  0.30000025141E+02 0.  0.
        -12    1    3    3    0    0 -0.75813547185E+01  0.13743376245E+02 -0.37507434932E+02  0.40659131879E+02  0.00000000000E+00 0.  1.
         11    1    4    4    0    0  0.98694939192E+01 -0.20751456652E+02  0.24706877806E+02  0.33741068071E+02  0.51100000000E-03 0. -1.
        -11    1    4    4    0    0  0.82438422630E+00  0.12328677394E+01 -0.80181487882E+00  0.16859654731E+01  0.51100000000E-03 0.  1.
        -12    1    4    4    0    0 -0.31125234269E+01  0.57752126673E+01  0.13602372005E+02  0.15101834577E+02  0.00000000000E+00 0.  1.
</event>
<event>
 8    1  0.1338956E-013  0.9118800E+02  0.7816164E-02  0.1184000E+00
        -11   -1    0    0    0    0  0.00000000000E+00  0.00000000000E+00  0.45593999997E+02  0.45594000000E+02  0.51100000000E-03 0. -1.
         11   -1    0    0    0    0 -0.00000000000E+00 -0.00000000000E+00 -0.45593999997E+02  0.45594000000E+02  0.51100000000E-03 0.  1.
         23    2    1    2    0    0  0.71054273576E-14 -0.88817841970E-15  0.35527136788E-14  0.91188000000E+02  0.91188000000E+02 0.  0.
    9900012    2    3    3    0    0  0.34592294104E+02 -0.74524619506E+01  0.20024969229E+02  0.50528863350E+02  0.30000010640E+02 0.  0.
        -12    1    3    3    0    0 -0.34592294104E+02  0.74524619506E+01 -0.20024969229E+02  0.40659136650E+02  0.00000000000E+00 0.  1.
         11    1    4    4    0    0  0.16864701050E+02 -0.74165081915E+01  0.96998418384E+01  0.20820894967E+02  0.51100000000E-03 0. -1.
        -11    1    4    4    0    0 -0.17022678421E+01 -0.43928704332E+01 -0.31476837780E+01  0.56659456295E+01  0.51100000000E-03 0.  1.
         12    1    4    4    0    0  0.19429860896E+02  0.43569166740E+01  0.13472811168E+02  0.24042022754E+02  0.00000000000E+00 0. -1.
</event>
<event>
 8    1  0.1338956E-013  0.9118800E+02  0.7816164E-02  0.1184000E+00
        -11   -1    0    0    0    0  0.00000000000E+00  0.00000000000E+00  0.45593999997E+02  0.45594000000E+02  0.51100000000E-03 0. -1.
         11   -1    0    0    0    0 -0.00000000000E+00 -0.00000000000E+00 -0.45593999997E+02  0.45594000000E+02  0.51100000000E-03 0.  1.
         23    2    1    2    0    0  0.17763568394E-14  0.00000000000E+00  0.35527136788E-14  0.91188000000E+02  0.91188000000E+02 0.  0.
    9900012    2    3    3    0    0 -0.14278971861E+02  0.23245446845E+02 -0.30148416259E+02  0.50528845565E+02  0.29999956579E+02 0.  0.
         12    1    3    3    0    0  0.14278971861E+02 -0.23245446845E+02  0.30148416259E+02  0.40659154435E+02  0.00000000000E+00 0. -1.
         11    1    4    4    0    0 -0.10319480669E+02  0.69586412899E+01 -0.52721964017E+01  0.13517042022E+02  0.51100000000E-03 0. -1.
        -11    1    4    4    0    0 -0.12186415317E+02  0.45437498350E+01 -0.10600361710E+02  0.16778618820E+02  0.51100000000E-03 0.  1.
         12    1    4    4    0    0  0.82269241247E+01  0.11743055720E+02 -0.14275858147E+02  0.20233184723E+02  0.00000000000E+00 0. -1.
</event>
<event>
 8    1  0.1338956E-013  0.9118800E+02  0.7816164E-02  0.1184000E+00
        -11   -1    0    0    0    0  0.00000000000E+00  0.00000000000E+00  0.45593999997E+02  0.45594000000E+02  0.51100000000E-03 0. -1.
         11   -1    0    0    0    0 -0.00000000000E+00 -0.00000000000E+00 -0.45593999997E+02  0.45594000000E+02  0.51100000000E-03 0.  1.
         23    2    1    2    0    0  0.00000000000E+00  0.00000000000E+00  0.00000000000E+00  0.91188000000E+02  0.91188000000E+02 0.  0.
    9900012    2    3    3    0    0  0.12040899421E+02 -0.11992042961E+02 -0.36937430570E+02  0.50528854284E+02  0.29999983081E+02 0.  0.
         12    1    3    3    0    0 -0.12040899421E+02  0.11992042961E+02  0.36937430570E+02  0.40659145716E+02  0.00000000000E+00 0. -1.
         11    1    4    4    0    0 -0.59179864499E+00 -0.49055013689E+01 -0.18946896688E+01  0.52918823228E+01  0.51100000000E-03 0. -1.
        -11    1    4    4    0    0 -0.36066180474E+01 -0.10960131887E+02 -0.10817185302E+02  0.15815931298E+02  0.51100000000E-03 0.  1.
         12    1    4    4    0    0  0.16239316114E+02  0.38735902942E+01 -0.24225555599E+02  0.29421040663E+02  0.00000000000E+00 0. -1.
</event>
<event>
 8    1  0.1338956E-013  0.9118800E+02  0.7816164E-02  0.1184000E+00
        -11   -1    0    0    0    0  0.00000000000E+00  0.00000000000E+00  0.45593999997E+02  0.45594000000E+02  0.51100000000E-03 0. -1.
         11   -1    0    0    0    0 -0.00000000000E+00 -0.00000000000E+00 -0.45593999997E+02  0.45594000000E+02  0.51100000000E-03 0.  1.
         23    2    1    2    0    0  0.00000000000E+00  0.00000000000E+00  0.00000000000E+00  0.91188000000E+02  0.91188000000E+02 0.  0.
    9900012    2    3    3    0    0 -0.21822000168E+02 -0.92527936480E+01 -0.33035610885E+02  0.50528862428E+02  0.30000007835E+02 0.  0.
         12    1    3    3    0    0  0.21822000168E+02  0.92527936480E+01  0.33035610885E+02  0.40659137572E+02  0.00000000000E+00 0. -1.
         11    1    4    4    0    0 -0.21903896859E+01  0.91434352699E+01 -0.13234044000E+02  0.16233919316E+02  0.51100000000E-03 0. -1.
        -11    1    4    4    0    0 -0.80077915651E+01 -0.10492640403E+02 -0.13533571038E+02  0.18904437936E+02  0.51100000000E-03 0.  1.
        -12    1    4    4    0    0 -0.11623818917E+02 -0.79035885145E+01 -0.62679958469E+01  0.15390505175E+02  0.00000000000E+00 0.  1.
</event>
<event>
 8    1  0.1338956E-013  0.9118800E+02  0.7816164E-02  0.1184000E+00
        -11   -1    0    0    0    0  0.00000000000E+00  0.00000000000E+00  0.45593999997E+02  0.45594000000E+02  0.51100000000E-03 0. -1.
         11   -1    0    0    0    0 -0.00000000000E+00 -0.00000000000E+00 -0.45593999997E+02  0.45594000000E+02  0.51100000000E-03 0.  1.
         23    2    1    2    0    0 -0.88817841970E-15  0.00000000000E+00 -0.35527136788E-14  0.91188000000E+02  0.91188000000E+02 0.  0.
    9900012    2    3    3    0    0 -0.54651629133E+01  0.27137351339E+02 -0.29780223688E+02  0.50528861221E+02  0.30000004166E+02 0.  0.
         12    1    3    3    0    0  0.54651629133E+01 -0.27137351339E+02  0.29780223688E+02  0.40659138779E+02  0.00000000000E+00 0. -1.
         11    1    4    4    0    0 -0.64992453673E+01  0.32347305430E+01  0.26971095668E+01  0.77445511366E+01  0.51100000000E-03 0. -1.
        -11    1    4    4    0    0 -0.55883958495E+01  0.60557425250E+01 -0.60863876402E+01  0.10244330162E+02  0.51100000000E-03 0.  1.
        -12    1    4    4    0    0  0.66224783035E+01  0.17846878271E+02 -0.26390945615E+02  0.32539979922E+02  0.00000000000E+00 0.  1.
</event>
<event>
 8    1  0.1338956E-013  0.9118800E+02  0.7816164E-02  0.1184000E+00
        -11   -1    0    0    0    0  0.00000000000E+00  0.00000000000E+00  0.45593999997E+02  0.45594000000E+02  0.51100000000E-03 0. -1.
         11   -1    0    0    0    0 -0.00000000000E+00 -0.00000000000E+00 -0.45593999997E+02  0.45594000000E+02  0.51100000000E-03 0.  1.
         23    2    1    2    0    0  0.00000000000E+00  0.35527136788E-14  0.00000000000E+00  0.91188000000E+02  0.91188000000E+02 0.  0.
    9900012    2    3    3    0    0 -0.21092270906E+02 -0.26081434676E+02  0.22979044140E+02  0.50528910041E+02  0.30000152559E+02 0.  0.
        -12    1    3    3    0    0  0.21092270906E+02  0.26081434676E+02 -0.22979044140E+02  0.40659089959E+02  0.00000000000E+00 0.  1.
         11    1    4    4    0    0 -0.30659999760E+00  0.76377121914E+00  0.29142176471E+00  0.87308472657E+00  0.51100000000E-03 0. -1.
        -11    1    4    4    0    0 -0.15182618476E+02 -0.12675249865E+02 -0.27853354815E+01  0.19973281076E+02  0.51100000000E-03 0.  1.
         12    1    4    4    0    0 -0.56030524321E+01 -0.14169956030E+02  0.25472957857E+02  0.29682544238E+02  0.00000000000E+00 0. -1.
</event>
<event>
 8    1  0.1338956E-013  0.9118800E+02  0.7816164E-02  0.1184000E+00
        -11   -1    0    0    0    0  0.00000000000E+00  0.00000000000E+00  0.45593999997E+02  0.45594000000E+02  0.51100000000E-03 0. -1.
         11   -1    0    0    0    0 -0.00000000000E+00 -0.00000000000E+00 -0.45593999997E+02  0.45594000000E+02  0.51100000000E-03 0.  1.
         23    2    1    2    0    0 -0.17763568394E-14  0.88817841970E-15  0.00000000000E+00  0.91188000000E+02  0.91188000000E+02 0.  0.
    9900012    2    3    3    0    0 -0.15095473514E+02 -0.76494660824E+01  0.36969960043E+02  0.50528860836E+02  0.30000002997E+02 0.  0.
        -12    1    3    3    0    0  0.15095473514E+02  0.76494660824E+01 -0.36969960043E+02  0.40659139164E+02  0.00000000000E+00 0.  1.
         11    1    4    4    0    0 -0.14532030186E+02 -0.14379825648E+02  0.36185096769E+02  0.41561045649E+02  0.51100000000E-03 0. -1.
        -11    1    4    4    0    0  0.14745530970E+01  0.29138655957E-01  0.12706537569E+01  0.19467195813E+01  0.51100000000E-03 0.  1.
         12    1    4    4    0    0 -0.20379964246E+01  0.67012209098E+01 -0.48579048275E+00  0.70210956055E+01  0.00000000000E+00 0. -1.
</event>
<event>
 8    1  0.1338956E-013  0.9118800E+02  0.7816164E-02  0.1184000E+00
        -11   -1    0    0    0    0  0.00000000000E+00  0.00000000000E+00  0.45593999997E+02  0.45594000000E+02  0.51100000000E-03 0. -1.
         11   -1    0    0    0    0 -0.00000000000E+00 -0.00000000000E+00 -0.45593999997E+02  0.45594000000E+02  0.51100000000E-03 0.  1.
         23    2    1    2    0    0  0.00000000000E+00  0.00000000000E+00  0.00000000000E+00  0.91188000000E+02  0.91188000000E+02 0.  0.
    9900012    2    3    3    0    0 -0.99946950078E+01 -0.21843853891E+02  0.32804237921E+02  0.50528857035E+02  0.29999991443E+02 0.  0.
        -12    1    3    3    0    0  0.99946950078E+01  0.21843853891E+02 -0.32804237921E+02  0.40659142965E+02  0.00000000000E+00 0.  1.
         11    1    4    4    0    0 -0.12427286953E+01 -0.80733788108E+01  0.88972695625E+01  0.12078295656E+02  0.51100000000E-03 0. -1.
        -11    1    4    4    0    0 -0.69808189119E-01 -0.52450211465E+01  0.25629804659E+02  0.26161078095E+02  0.51100000000E-03 0.  1.
         12    1    4    4    0    0 -0.86821581234E+01 -0.85254539332E+01 -0.17228363001E+01  0.12289483283E+02  0.00000000000E+00 0. -1.
</event>
<event>
 8    1  0.1338956E-013  0.9118800E+02  0.7816164E-02  0.1184000E+00
        -11   -1    0    0    0    0  0.00000000000E+00  0.00000000000E+00  0.45593999997E+02  0.45594000000E+02  0.51100000000E-03 0. -1.
         11   -1    0    0    0    0 -0.00000000000E+00 -0.00000000000E+00 -0.45593999997E+02  0.45594000000E+02  0.51100000000E-03 0.  1.
         23    2    1    2    0    0 -0.35527136788E-14  0.33306690739E-15  0.00000000000E+00  0.91188000000E+02  0.91188000000E+02 0.  0.
    9900012    2    3    3    0    0  0.25641624800E+02 -0.55808840977E+00  0.31549306195E+02  0.50528891470E+02  0.30000096113E+02 0.  0.
        -12    1    3    3    0    0 -0.25641624800E+02  0.55808840977E+00 -0.31549306195E+02  0.40659108530E+02  0.00000000000E+00 0.  1.
         11    1    4    4    0    0  0.10789339951E+02 -0.42566261292E+01  0.22042871067E+02  0.24908169096E+02  0.51100000000E-03 0. -1.
        -11    1    4    4    0    0  0.18735618623E+02  0.48798889656E+01  0.94904008024E+01  0.21561642543E+02  0.51100000000E-03 0.  1.
         12    1    4    4    0    0 -0.38833337749E+01 -0.11813512462E+01  0.16034326171E-01  0.40590798309E+01  0.00000000000E+00 0. -1.
</event>
<event>
 8    1  0.1338956E-013  0.9118800E+02  0.7816164E-02  0.1184000E+00
        -11   -1    0    0    0    0  0.00000000000E+00  0.00000000000E+00  0.45593999997E+02  0.45594000000E+02  0.51100000000E-03 0. -1.
         11   -1    0    0    0    0 -0.00000000000E+00 -0.00000000000E+00 -0.45593999997E+02  0.45594000000E+02  0.51100000000E-03 0.  1.
         23    2    1    2    0    0 -0.17763568394E-14  0.00000000000E+00  0.00000000000E+00  0.91188000000E+02  0.91188000000E+02 0.  0.
    9900012    2    3    3    0    0  0.11886044214E+02 -0.97808285979E+01 -0.37632729460E+02  0.50528868410E+02  0.30000026018E+02 0.  0.
         12    1    3    3    0    0 -0.11886044214E+02  0.97808285979E+01  0.37632729460E+02  0.40659131590E+02  0.00000000000E+00 0. -1.
         11    1    4    4    0    0  0.13993741984E+01 -0.11005637279E+01 -0.11810870711E+02  0.11944293863E+02  0.51100000000E-03 0.  1.
        -11    1    4    4    0    0  0.13200434870E+02 -0.59457969302E+01 -0.29748027848E+02  0.33083971089E+02  0.51100000000E-03 0. -1.
         12    1    4    4    0    0 -0.27137648545E+01 -0.27344679397E+01  0.39261690998E+01  0.55006034578E+01  0.00000000000E+00 0. -1.
</event>
<event>
 8    1  0.1338956E-013  0.9118800E+02  0.7816164E-02  0.1184000E+00
        -11   -1    0    0    0    0  0.00000000000E+00  0.00000000000E+00  0.45593999997E+02  0.45594000000E+02  0.51100000000E-03 0. -1.
         11   -1    0    0    0    0 -0.00000000000E+00 -0.00000000000E+00 -0.45593999997E+02  0.45594000000E+02  0.51100000000E-03 0.  1.
         23    2    1    2    0    0  0.17763568394E-14 -0.88817841970E-15  0.71054273576E-14  0.91188000000E+02  0.91188000000E+02 0.  0.
    9900012    2    3    3    0    0  0.90662210048E+01  0.44679869047E+01  0.39382811848E+02  0.50528866471E+02  0.30000020125E+02 0.  0.
        -12    1    3    3    0    0 -0.90662210048E+01 -0.44679869047E+01 -0.39382811848E+02  0.40659133529E+02  0.00000000000E+00 0.  1.
         11    1    4    4    0    0  0.99031975016E+01 -0.40417533329E+00  0.23240822704E+02  0.25266034882E+02  0.51100000000E-03 0. -1.
        -11    1    4    4    0    0  0.52019406209E+00  0.12002617838E+02  0.11601901234E+02  0.16701423572E+02  0.51100000000E-03 0.  1.
        -12    1    4    4    0    0 -0.13571705590E+01 -0.71304556003E+01  0.45400879104E+01  0.85614080167E+01  0.00000000000E+00 0.  1.
</event>
<event>
 8    1  0.1338956E-013  0.9118800E+02  0.7816164E-02  0.1184000E+00
        -11   -1    0    0    0    0  0.00000000000E+00  0.00000000000E+00  0.45593999997E+02  0.45594000000E+02  0.51100000000E-03 0. -1.
         11   -1    0    0    0    0 -0.00000000000E+00 -0.00000000000E+00 -0.45593999997E+02  0.45594000000E+02  0.51100000000E-03 0.  1.
         23    2    1    2    0    0  0.00000000000E+00  0.00000000000E+00 -0.71054273576E-14  0.91188000000E+02  0.91188000000E+02 0.  0.
    9900012    2    3    3    0    0  0.93056380601E+01 -0.17395140522E+02 -0.35552496034E+02  0.50528858497E+02  0.29999995889E+02 0.  0.
         12    1    3    3    0    0 -0.93056380601E+01  0.17395140522E+02  0.35552496034E+02  0.40659141503E+02  0.00000000000E+00 0. -1.
         11    1    4    4    0    0 -0.47691458356E+01 -0.52985686381E+01 -0.18347074329E+02  0.19683361459E+02  0.51100000000E-03 0. -1.
        -11    1    4    4    0    0  0.88705893277E+01 -0.42710406286E+01 -0.18886265311E+02  0.21298360517E+02  0.51100000000E-03 0.  1.
        -12    1    4    4    0    0  0.52041945680E+01 -0.78255312553E+01  0.16808436061E+01  0.95471365214E+01  0.00000000000E+00 0.  1.
</event>
<event>
 8    1  0.1338956E-013  0.9118800E+02  0.7816164E-02  0.1184000E+00
        -11   -1    0    0    0    0  0.00000000000E+00  0.00000000000E+00  0.45593999997E+02  0.45594000000E+02  0.51100000000E-03 0. -1.
         11   -1    0    0    0    0 -0.00000000000E+00 -0.00000000000E+00 -0.45593999997E+02  0.45594000000E+02  0.51100000000E-03 0.  1.
         23    2    1    2    0    0 -0.35527136788E-14  0.00000000000E+00  0.35527136788E-14  0.91188000000E+02  0.91188000000E+02 0.  0.
    9900012    2    3    3    0    0 -0.25856282798E+02 -0.20108578216E+02 -0.24088665356E+02  0.50528854945E+02  0.29999985091E+02 0.  0.
         12    1    3    3    0    0  0.25856282798E+02  0.20108578216E+02  0.24088665356E+02  0.40659145055E+02  0.00000000000E+00 0. -1.
         11    1    4    4    0    0 -0.33779807505E+01 -0.81317102012E+00 -0.50311641469E+01  0.61142958706E+01  0.51100000000E-03 0. -1.
        -11    1    4    4    0    0 -0.18264609485E+02 -0.23695293885E+02 -0.22484382237E+02  0.37424729215E+02  0.51100000000E-03 0.  1.
         12    1    4    4    0    0 -0.42136925618E+01  0.43998866895E+01  0.34268810283E+01  0.69898298597E+01  0.00000000000E+00 0. -1.
</event>
<event>
 8    1  0.1338956E-013  0.9118800E+02  0.7816164E-02  0.1184000E+00
        -11   -1    0    0    0    0  0.00000000000E+00  0.00000000000E+00  0.45593999997E+02  0.45594000000E+02  0.51100000000E-03 0. -1.
         11   -1    0    0    0    0 -0.00000000000E+00 -0.00000000000E+00 -0.45593999997E+02  0.45594000000E+02  0.51100000000E-03 0.  1.
         23    2    1    2    0    0  0.17763568394E-14  0.00000000000E+00 -0.71054273576E-14  0.91188000000E+02  0.91188000000E+02 0.  0.
    9900012    2    3    3    0    0 -0.10440788330E+02 -0.10334881785E+02 -0.37912358648E+02  0.50528846286E+02  0.29999958772E+02 0.  0.
         12    1    3    3    0    0  0.10440788330E+02  0.10334881785E+02  0.37912358648E+02  0.40659153714E+02  0.00000000000E+00 0. -1.
         11    1    4    4    0    0 -0.29483490664E+01  0.11947275306E+01  0.48699236004E+00  0.32182756112E+01  0.51100000000E-03 0. -1.
        -11    1    4    4    0    0 -0.66507583024E+01  0.44255227755E+01 -0.31096398041E+01  0.85724965912E+01  0.51100000000E-03 0.  1.
        -12    1    4    4    0    0 -0.84168096158E+00 -0.15955132091E+02 -0.35289711204E+02  0.38738074084E+02  0.00000000000E+00 0.  1.
</event>
<event>
 8    1  0.1338956E-013  0.9118800E+02  0.7816164E-02  0.1184000E+00
        -11   -1    0    0    0    0  0.00000000000E+00  0.00000000000E+00  0.45593999997E+02  0.45594000000E+02  0.51100000000E-03 0. -1.
         11   -1    0    0    0    0 -0.00000000000E+00 -0.00000000000E+00 -0.45593999997E+02  0.45594000000E+02  0.51100000000E-03 0.  1.
         23    2    1    2    0    0 -0.17763568394E-14  0.00000000000E+00  0.00000000000E+00  0.91188000000E+02  0.91188000000E+02 0.  0.
    9900012    2    3    3    0    0 -0.12466839217E+02  0.27855976073E+02  0.26866119890E+02  0.50528857351E+02  0.29999992403E+02 0.  0.
        -12    1    3    3    0    0  0.12466839217E+02 -0.27855976073E+02 -0.26866119890E+02  0.40659142649E+02  0.00000000000E+00 0.  1.
         11    1    4    4    0    0 -0.79356552301E+01  0.42366537449E+01  0.20002669800E+02  0.21932411137E+02  0.51100000000E-03 0. -1.
        -11    1    4    4    0    0 -0.70224176078E+01  0.65087442885E+01 -0.95030875596E+00  0.96219118819E+01  0.51100000000E-03 0.  1.
        -12    1    4    4    0    0  0.24912336207E+01  0.17110578040E+02  0.78137588458E+01  0.18974534332E+02  0.00000000000E+00 0.  1.
</event>
<event>
 8    1  0.1338956E-013  0.9118800E+02  0.7816164E-02  0.1184000E+00
        -11   -1    0    0    0    0  0.00000000000E+00  0.00000000000E+00  0.45593999997E+02  0.45594000000E+02  0.51100000000E-03 0. -1.
         11   -1    0    0    0    0 -0.00000000000E+00 -0.00000000000E+00 -0.45593999997E+02  0.45594000000E+02  0.51100000000E-03 0.  1.
         23    2    1    2    0    0  0.00000000000E+00  0.00000000000E+00  0.00000000000E+00  0.91188000000E+02  0.91188000000E+02 0.  0.
    9900012    2    3    3    0    0  0.17732302810E+02  0.56247984409E+01 -0.36153736092E+02  0.50528861373E+02  0.30000004629E+02 0.  0.
         12    1    3    3    0    0 -0.17732302810E+02 -0.56247984409E+01  0.36153736092E+02  0.40659138627E+02  0.00000000000E+00 0. -1.
         11    1    4    4    0    0 -0.63851944391E-01  0.54016566602E+01 -0.44616285589E+01  0.70062901313E+01  0.51100000000E-03 0. -1.
        -11    1    4    4    0    0  0.11325596316E+01  0.91109632347E+01 -0.40258703696E+01  0.10024967575E+02  0.51100000000E-03 0.  1.
         12    1    4    4    0    0  0.16663595123E+02 -0.88878214539E+01 -0.27666237164E+02  0.33497603667E+02  0.00000000000E+00 0. -1.
</event>
<event>
 8    1  0.1338956E-013  0.9118800E+02  0.7816164E-02  0.1184000E+00
        -11   -1    0    0    0    0  0.00000000000E+00  0.00000000000E+00  0.45593999997E+02  0.45594000000E+02  0.51100000000E-03 0. -1.
         11   -1    0    0    0    0 -0.00000000000E+00 -0.00000000000E+00 -0.45593999997E+02  0.45594000000E+02  0.51100000000E-03 0.  1.
         23    2    1    2    0    0  0.17763568394E-14  0.00000000000E+00  0.00000000000E+00  0.91188000000E+02  0.91188000000E+02 0.  0.
    9900012    2    3    3    0    0 -0.10588796165E+02  0.35763922435E+02 -0.16185955698E+02  0.50528856944E+02  0.29999991168E+02 0.  0.
         12    1    3    3    0    0  0.10588796165E+02 -0.35763922435E+02  0.16185955698E+02  0.40659143056E+02  0.00000000000E+00 0. -1.
         11    1    4    4    0    0 -0.63172477303E+01  0.94343146065E+01 -0.12751196492E+01  0.11425403335E+02  0.51100000000E-03 0. -1.
        -11    1    4    4    0    0 -0.11448879451E+02  0.26114321521E+02 -0.14295313737E+02  0.31896561324E+02  0.51100000000E-03 0.  1.
         12    1    4    4    0    0  0.71773310160E+01  0.21528630776E+00 -0.61552231130E+00  0.72068922861E+01  0.00000000000E+00 0. -1.
</event>
<event>
 8    1  0.1338956E-013  0.9118800E+02  0.7816164E-02  0.1184000E+00
        -11   -1    0    0    0    0  0.00000000000E+00  0.00000000000E+00  0.45593999997E+02  0.45594000000E+02  0.51100000000E-03 0. -1.
         11   -1    0    0    0    0 -0.00000000000E+00 -0.00000000000E+00 -0.45593999997E+02  0.45594000000E+02  0.51100000000E-03 0.  1.
         23    2    1    2    0    0 -0.13322676296E-14 -0.35527136788E-14  0.00000000000E+00  0.91188000000E+02  0.91188000000E+02 0.  0.
    9900012    2    3    3    0    0  0.36639032129E+01  0.27801313402E+02 -0.29441959459E+02  0.50528853546E+02  0.29999980837E+02 0.  0.
         12    1    3    3    0    0 -0.36639032129E+01 -0.27801313402E+02  0.29441959459E+02  0.40659146454E+02  0.00000000000E+00 0. -1.
         11    1    4    4    0    0  0.35581614868E+00 -0.72799846559E+00 -0.15495886618E+01  0.17486601098E+01  0.51100000000E-03 0. -1.
        -11    1    4    4    0    0 -0.10802801427E+02  0.21697985637E+02 -0.15213086351E+02  0.28617146887E+02  0.51100000000E-03 0.  1.
         12    1    4    4    0    0  0.14110888491E+02  0.68313262310E+01 -0.12679284446E+02  0.20163046549E+02  0.00000000000E+00 0. -1.
</event>
<event>
 8    1  0.1338956E-013  0.9118800E+02  0.7816164E-02  0.1184000E+00
        -11   -1    0    0    0    0  0.00000000000E+00  0.00000000000E+00  0.45593999997E+02  0.45594000000E+02  0.51100000000E-03 0.  1.
         11   -1    0    0    0    0 -0.00000000000E+00 -0.00000000000E+00 -0.45593999997E+02  0.45594000000E+02  0.51100000000E-03 0. -1.
         23    2    1    2    0    0 -0.71054273576E-14  0.44408920985E-15 -0.17763568394E-14  0.91188000000E+02  0.91188000000E+02 0.  0.
    9900012    2    3    3    0    0  0.37811517644E+02 -0.34895474106E+01  0.14535538038E+02  0.50528810710E+02  0.29999850635E+02 0.  0.
        -12    1    3    3    0    0 -0.37811517644E+02  0.34895474106E+01 -0.14535538038E+02  0.40659189290E+02  0.00000000000E+00 0.  1.
         11    1    4    4    0    0  0.18394861188E+02 -0.38585047070E+01 -0.51391608493E+00  0.18802209623E+02  0.51100000000E-03 0. -1.
        -11    1    4    4    0    0  0.15442199850E+02 -0.76807026427E+01  0.44023744045E+01  0.17799877245E+02  0.51100000000E-03 0.  1.
        -12    1    4    4    0    0  0.39744566057E+01  0.80496599391E+01  0.10647079718E+02  0.13926723842E+02  0.00000000000E+00 0.  1.
</event>
<event>
 8    1  0.1338956E-013  0.9118800E+02  0.7816164E-02  0.1184000E+00
        -11   -1    0    0    0    0  0.00000000000E+00  0.00000000000E+00  0.45593999997E+02  0.45594000000E+02  0.51100000000E-03 0. -1.
         11   -1    0    0    0    0 -0.00000000000E+00 -0.00000000000E+00 -0.45593999997E+02  0.45594000000E+02  0.51100000000E-03 0.  1.
         23    2    1    2    0    0 -0.35527136788E-14  0.35527136788E-14  0.00000000000E+00  0.91188000000E+02  0.91188000000E+02 0.  0.
    9900012    2    3    3    0    0  0.26179841639E+02 -0.20834881223E+02  0.23101713297E+02  0.50528861531E+02  0.30000005109E+02 0.  0.
        -12    1    3    3    0    0 -0.26179841639E+02  0.20834881223E+02 -0.23101713297E+02  0.40659138469E+02  0.00000000000E+00 0.  1.
         11    1    4    4    0    0  0.13721040335E+02 -0.56363136389E+01  0.23080773395E+02  0.27436418864E+02  0.51100000000E-03 0. -1.
        -11    1    4    4    0    0  0.52308757106E+00  0.86323823658E+00  0.27190017403E+01  0.29003054296E+01  0.51100000000E-03 0.  1.
         12    1    4    4    0    0  0.11935713732E+02 -0.16061805821E+02 -0.26980618378E+01  0.20192137237E+02  0.00000000000E+00 0. -1.
</event>
<event>
 8    1  0.1338956E-013  0.9118800E+02  0.7816164E-02  0.1184000E+00
        -11   -1    0    0    0    0  0.00000000000E+00  0.00000000000E+00  0.45593999997E+02  0.45594000000E+02  0.51100000000E-03 0. -1.
         11   -1    0    0    0    0 -0.00000000000E+00 -0.00000000000E+00 -0.45593999997E+02  0.45594000000E+02  0.51100000000E-03 0.  1.
         23    2    1    2    0    0 -0.17763568394E-14  0.00000000000E+00 -0.71054273576E-14  0.91188000000E+02  0.91188000000E+02 0.  0.
    9900012    2    3    3    0    0  0.78344775019E+01  0.69983564789E+01  0.39278630629E+02  0.50528845370E+02  0.29999955986E+02 0.  0.
        -12    1    3    3    0    0 -0.78344775019E+01 -0.69983564789E+01 -0.39278630629E+02  0.40659154630E+02  0.00000000000E+00 0.  1.
         11    1    4    4    0    0 -0.41816434741E+01  0.98907777758E-01  0.25463329901E+01  0.48969109499E+01  0.51100000000E-03 0. -1.
        -11    1    4    4    0    0 -0.14608775419E+00  0.43312621150E+01 -0.21308462512E+01  0.48292524420E+01  0.51100000000E-03 0.  1.
         12    1    4    4    0    0  0.12162208730E+02  0.25681865861E+01  0.38863143890E+02  0.40802681978E+02  0.00000000000E+00 0. -1.
</event>
<event>
 8    1  0.1338956E-013  0.9118800E+02  0.7816164E-02  0.1184000E+00
        -11   -1    0    0    0    0  0.00000000000E+00  0.00000000000E+00  0.45593999997E+02  0.45594000000E+02  0.51100000000E-03 0. -1.
         11   -1    0    0    0    0 -0.00000000000E+00 -0.00000000000E+00 -0.45593999997E+02  0.45594000000E+02  0.51100000000E-03 0.  1.
         23    2    1    2    0    0  0.00000000000E+00 -0.88817841970E-15 -0.35527136788E-14  0.91188000000E+02  0.91188000000E+02 0.  0.
    9900012    2    3    3    0    0  0.33668976217E+02 -0.74023251769E+01 -0.21558554457E+02  0.50528860217E+02  0.30000001117E+02 0.  0.
         12    1    3    3    0    0 -0.33668976217E+02  0.74023251769E+01  0.21558554457E+02  0.40659139783E+02  0.00000000000E+00 0. -1.
         11    1    4    4    0    0  0.61365536934E+01 -0.24402665631E+01 -0.55199670396E+01  0.86071033752E+01  0.51100000000E-03 0. -1.
        -11    1    4    4    0    0  0.21958483397E+02 -0.51935419590E+01 -0.23517251568E+02  0.32591547873E+02  0.51100000000E-03 0.  1.
         12    1    4    4    0    0  0.55739391268E+01  0.23148334522E+00  0.74786641505E+01  0.93302089689E+01  0.00000000000E+00 0. -1.
</event>
<event>
 8    1  0.1338956E-013  0.9118800E+02  0.7816164E-02  0.1184000E+00
        -11   -1    0    0    0    0  0.00000000000E+00  0.00000000000E+00  0.45593999997E+02  0.45594000000E+02  0.51100000000E-03 0. -1.
         11   -1    0    0    0    0 -0.00000000000E+00 -0.00000000000E+00 -0.45593999997E+02  0.45594000000E+02  0.51100000000E-03 0.  1.
         23    2    1    2    0    0 -0.22204460493E-15  0.00000000000E+00 -0.71054273576E-14  0.91188000000E+02  0.91188000000E+02 0.  0.
    9900012    2    3    3    0    0 -0.41557947031E+00 -0.17437097600E+02  0.36727908604E+02  0.50528876185E+02  0.30000049650E+02 0.  0.
        -12    1    3    3    0    0  0.41557947031E+00  0.17437097600E+02 -0.36727908604E+02  0.40659123815E+02  0.00000000000E+00 0.  1.
         11    1    4    4    0    0 -0.59556254857E+01 -0.12256158581E+02  0.22705894441E+02  0.26480946748E+02  0.51100000000E-03 0. -1.
        -11    1    4    4    0    0 -0.66350214911E+01 -0.13282420455E+01  0.48727288783E+01  0.83385384871E+01  0.51100000000E-03 0.  1.
        -12    1    4    4    0    0  0.12175067506E+02 -0.38526969738E+01  0.91492852852E+01  0.15709390949E+02  0.00000000000E+00 0.  1.
</event>
<event>
 8    1  0.1338956E-013  0.9118800E+02  0.7816164E-02  0.1184000E+00
        -11   -1    0    0    0    0  0.00000000000E+00  0.00000000000E+00  0.45593999997E+02  0.45594000000E+02  0.51100000000E-03 0. -1.
         11   -1    0    0    0    0 -0.00000000000E+00 -0.00000000000E+00 -0.45593999997E+02  0.45594000000E+02  0.51100000000E-03 0.  1.
         23    2    1    2    0    0 -0.88817841970E-15  0.00000000000E+00 -0.71054273576E-14  0.91188000000E+02  0.91188000000E+02 0.  0.
    9900012    2    3    3    0    0 -0.76384099126E+01  0.16628802233E+02  0.36308461512E+02  0.50528846700E+02  0.29999960030E+02 0.  0.
        -12    1    3    3    0    0  0.76384099126E+01 -0.16628802233E+02 -0.36308461512E+02  0.40659153300E+02  0.00000000000E+00 0.  1.
         11    1    4    4    0    0  0.54988414210E+01  0.12346002628E+01  0.46655933925E+01  0.73163690959E+01  0.51100000000E-03 0. -1.
        -11    1    4    4    0    0  0.45651263076E+01  0.96792560599E+01  0.96768134482E+01  0.14428066220E+02  0.51100000000E-03 0.  1.
         12    1    4    4    0    0 -0.17702377641E+02  0.57149459099E+01  0.21966054671E+02  0.28784411384E+02  0.00000000000E+00 0. -1.
</event>
<event>
 8    1  0.1338956E-013  0.9118800E+02  0.7816164E-02  0.1184000E+00
        -11   -1    0    0    0    0  0.00000000000E+00  0.00000000000E+00  0.45593999997E+02  0.45594000000E+02  0.51100000000E-03 0. -1.
         11   -1    0    0    0    0 -0.00000000000E+00 -0.00000000000E+00 -0.45593999997E+02  0.45594000000E+02  0.51100000000E-03 0.  1.
         23    2    1    2    0    0  0.35527136788E-14  0.00000000000E+00  0.00000000000E+00  0.91188000000E+02  0.91188000000E+02 0.  0.
    9900012    2    3    3    0    0 -0.20150709359E+02 -0.12427711962E+02  0.33055505132E+02  0.50528861645E+02  0.30000005455E+02 0.  0.
        -12    1    3    3    0    0  0.20150709359E+02  0.12427711962E+02 -0.33055505132E+02  0.40659138355E+02  0.00000000000E+00 0.  1.
         11    1    4    4    0    0 -0.20084131404E+02 -0.86320757761E+01  0.23689045246E+02  0.32234390508E+02  0.51100000000E-03 0. -1.
        -11    1    4    4    0    0 -0.59565656182E+01 -0.57981590875E+01  0.87079921615E+01  0.12038623282E+02  0.51100000000E-03 0.  1.
        -12    1    4    4    0    0  0.58899876637E+01  0.20025229012E+01  0.65846772440E+00  0.62558478556E+01  0.00000000000E+00 0.  1.
</event>
<event>
 8    1  0.1338956E-013  0.9118800E+02  0.7816164E-02  0.1184000E+00
        -11   -1    0    0    0    0  0.00000000000E+00  0.00000000000E+00  0.45593999997E+02  0.45594000000E+02  0.51100000000E-03 0. -1.
         11   -1    0    0    0    0 -0.00000000000E+00 -0.00000000000E+00 -0.45593999997E+02  0.45594000000E+02  0.51100000000E-03 0.  1.
         23    2    1    2    0    0  0.00000000000E+00  0.00000000000E+00  0.00000000000E+00  0.91188000000E+02  0.91188000000E+02 0.  0.
    9900012    2    3    3    0    0 -0.14584908138E+02  0.11084738488E+02  0.36298418528E+02  0.50528853915E+02  0.29999981960E+02 0.  0.
        -12    1    3    3    0    0  0.14584908138E+02 -0.11084738488E+02 -0.36298418528E+02  0.40659146085E+02  0.00000000000E+00 0.  1.
         11    1    4    4    0    0 -0.32410673528E+00 -0.20694695913E+01 -0.12432656275E+01  0.24358693001E+01  0.51100000000E-03 0. -1.
        -11    1    4    4    0    0 -0.89786500689E+00  0.16123760231E+02  0.23200127617E+02  0.28267078506E+02  0.51100000000E-03 0.  1.
         12    1    4    4    0    0 -0.13362936396E+02 -0.29695521520E+01  0.14341556539E+02  0.19825906109E+02  0.00000000000E+00 0. -1.
</event>
<event>
 8    1  0.1338956E-013  0.9118800E+02  0.7816164E-02  0.1184000E+00
        -11   -1    0    0    0    0  0.00000000000E+00  0.00000000000E+00  0.45593999997E+02  0.45594000000E+02  0.51100000000E-03 0. -1.
         11   -1    0    0    0    0 -0.00000000000E+00 -0.00000000000E+00 -0.45593999997E+02  0.45594000000E+02  0.51100000000E-03 0.  1.
         23    2    1    2    0    0  0.00000000000E+00 -0.13322676296E-14  0.00000000000E+00  0.91188000000E+02  0.91188000000E+02 0.  0.
    9900012    2    3    3    0    0  0.18072600177E+02 -0.34975090167E+01 -0.36253466771E+02  0.50528864502E+02  0.30000014141E+02 0.  0.
         12    1    3    3    0    0 -0.18072600177E+02  0.34975090167E+01  0.36253466771E+02  0.40659135498E+02  0.00000000000E+00 0. -1.
         11    1    4    4    0    0  0.67825208854E+01 -0.25300477104E+01 -0.29700728942E+01  0.78246446716E+01  0.51100000000E-03 0. -1.
        -11    1    4    4    0    0  0.57031212829E+01 -0.12212587774E+02 -0.12280867752E+02  0.18234379768E+02  0.51100000000E-03 0.  1.
         12    1    4    4    0    0  0.55869580091E+01  0.11245126468E+02 -0.21002526125E+02  0.24469840063E+02  0.00000000000E+00 0. -1.
</event>
<event>
 8    1  0.1338956E-013  0.9118800E+02  0.7816164E-02  0.1184000E+00
        -11   -1    0    0    0    0  0.00000000000E+00  0.00000000000E+00  0.45593999997E+02  0.45594000000E+02  0.51100000000E-03 0. -1.
         11   -1    0    0    0    0 -0.00000000000E+00 -0.00000000000E+00 -0.45593999997E+02  0.45594000000E+02  0.51100000000E-03 0.  1.
         23    2    1    2    0    0  0.35527136788E-14 -0.71054273576E-14 -0.17763568394E-14  0.91188000000E+02  0.91188000000E+02 0.  0.
    9900012    2    3    3    0    0  0.24973123098E+02 -0.30894997680E+02 -0.86607132712E+01  0.50528859413E+02  0.29999998672E+02 0.  0.
         12    1    3    3    0    0 -0.24973123098E+02  0.30894997680E+02  0.86607132712E+01  0.40659140587E+02  0.00000000000E+00 0. -1.
         11    1    4    4    0    0  0.15140864788E+01 -0.75409757793E+01  0.69273923488E+01  0.10351209523E+02  0.51100000000E-03 0. -1.
        -11    1    4    4    0    0  0.14447142934E+01  0.22803566336E+01  0.51292299257E+00  0.27477838385E+01  0.51100000000E-03 0.  1.
        -12    1    4    4    0    0  0.22014322326E+02 -0.25634378534E+02 -0.16101028613E+02  0.37429866052E+02  0.00000000000E+00 0.  1.
</event>
<event>
 8    1  0.1338956E-013  0.9118800E+02  0.7816164E-02  0.1184000E+00
        -11   -1    0    0    0    0  0.00000000000E+00  0.00000000000E+00  0.45593999997E+02  0.45594000000E+02  0.51100000000E-03 0. -1.
         11   -1    0    0    0    0 -0.00000000000E+00 -0.00000000000E+00 -0.45593999997E+02  0.45594000000E+02  0.51100000000E-03 0.  1.
         23    2    1    2    0    0  0.88817841970E-15  0.00000000000E+00  0.35527136788E-14  0.91188000000E+02  0.91188000000E+02 0.  0.
    9900012    2    3    3    0    0 -0.67619127661E+01  0.28877484316E+02  0.27812462985E+02  0.50528860044E+02  0.30000000589E+02 0.  0.
        -12    1    3    3    0    0  0.67619127661E+01 -0.28877484316E+02 -0.27812462985E+02  0.40659139956E+02  0.00000000000E+00 0.  1.
         11    1    4    4    0    0  0.57496907642E+01  0.21992670555E+02  0.16583512317E+02  0.28138041564E+02  0.51100000000E-03 0. -1.
        -11    1    4    4    0    0 -0.31917521249E+01  0.85816557443E+01  0.85956787713E+01  0.12558574391E+02  0.51100000000E-03 0.  1.
         12    1    4    4    0    0 -0.93198514055E+01 -0.16968419831E+01  0.26332718971E+01  0.98322440887E+01  0.00000000000E+00 0. -1.
</event>
<event>
 8    1  0.1338956E-013  0.9118800E+02  0.7816164E-02  0.1184000E+00
        -11   -1    0    0    0    0  0.00000000000E+00  0.00000000000E+00  0.45593999997E+02  0.45594000000E+02  0.51100000000E-03 0. -1.
         11   -1    0    0    0    0 -0.00000000000E+00 -0.00000000000E+00 -0.45593999997E+02  0.45594000000E+02  0.51100000000E-03 0.  1.
         23    2    1    2    0    0  0.00000000000E+00 -0.88817841970E-15  0.71054273576E-14  0.91188000000E+02  0.91188000000E+02 0.  0.
    9900012    2    3    3    0    0 -0.19897545380E+02  0.66544263652E+01  0.34827741349E+02  0.50528864865E+02  0.30000015245E+02 0.  0.
        -12    1    3    3    0    0  0.19897545380E+02 -0.66544263652E+01 -0.34827741349E+02  0.40659135135E+02  0.00000000000E+00 0.  1.
         11    1    4    4    0    0  0.24275534292E+00 -0.27739052515E+01  0.24949626005E+01  0.37387590374E+01  0.51100000000E-03 0. -1.
        -11    1    4    4    0    0 -0.99333024179E+00 -0.55531504277E+01  0.17322875864E+02  0.18218293364E+02  0.51100000000E-03 0.  1.
        -12    1    4    4    0    0 -0.19146970481E+02  0.14981482044E+02  0.15009902885E+02  0.28571812463E+02  0.00000000000E+00 0.  1.
</event>
<event>
 8    1  0.1338956E-013  0.9118800E+02  0.7816164E-02  0.1184000E+00
        -11   -1    0    0    0    0  0.00000000000E+00  0.00000000000E+00  0.45593999997E+02  0.45594000000E+02  0.51100000000E-03 0. -1.
         11   -1    0    0    0    0 -0.00000000000E+00 -0.00000000000E+00 -0.45593999997E+02  0.45594000000E+02  0.51100000000E-03 0.  1.
         23    2    1    2    0    0  0.35527136788E-14 -0.44408920985E-15  0.00000000000E+00  0.91188000000E+02  0.91188000000E+02 0.  0.
    9900012    2    3    3    0    0  0.23611303279E+02 -0.31032692786E+01  0.32955148055E+02  0.50528859501E+02  0.29999998940E+02 0.  0.
        -12    1    3    3    0    0 -0.23611303279E+02  0.31032692786E+01 -0.32955148055E+02  0.40659140499E+02  0.00000000000E+00 0.  1.
         11    1    4    4    0    0  0.49932272219E+01 -0.68491205079E+00  0.17440831131E+02  0.18154448860E+02  0.51100000000E-03 0. -1.
        -11    1    4    4    0    0  0.55851658534E+01 -0.55471134149E+01  0.17151456748E+02  0.18871592770E+02  0.51100000000E-03 0.  1.
        -12    1    4    4    0    0  0.13032910204E+02  0.31287561871E+01 -0.16371398237E+01  0.13502817871E+02  0.00000000000E+00 0.  1.
</event>
<event>
 8    1  0.1338956E-013  0.9118800E+02  0.7816164E-02  0.1184000E+00
        -11   -1    0    0    0    0  0.00000000000E+00  0.00000000000E+00  0.45593999997E+02  0.45594000000E+02  0.51100000000E-03 0. -1.
         11   -1    0    0    0    0 -0.00000000000E+00 -0.00000000000E+00 -0.45593999997E+02  0.45594000000E+02  0.51100000000E-03 0.  1.
         23    2    1    2    0    0  0.00000000000E+00  0.00000000000E+00  0.00000000000E+00  0.91188000000E+02  0.91188000000E+02 0.  0.
    9900012    2    3    3    0    0  0.60354874162E+01  0.24910639557E+02 -0.31562634509E+02  0.50528843975E+02  0.29999951747E+02 0.  0.
         12    1    3    3    0    0 -0.60354874162E+01 -0.24910639557E+02  0.31562634509E+02  0.40659156025E+02  0.00000000000E+00 0. -1.
         11    1    4    4    0    0 -0.45611923472E+01  0.15925936790E+02 -0.14704564167E+02  0.22150940067E+02  0.51100000000E-03 0. -1.
        -11    1    4    4    0    0 -0.21179090186E+01 -0.36803958013E+01 -0.85207631638E+00  0.43309220930E+01  0.51100000000E-03 0.  1.
        -12    1    4    4    0    0  0.12714588782E+02  0.12665098569E+02 -0.16005994026E+02  0.24046981815E+02  0.00000000000E+00 0.  1.
</event>
<event>
 8    1  0.1338956E-013  0.9118800E+02  0.7816164E-02  0.1184000E+00
        -11   -1    0    0    0    0  0.00000000000E+00  0.00000000000E+00  0.45593999997E+02  0.45594000000E+02  0.51100000000E-03 0. -1.
         11   -1    0    0    0    0 -0.00000000000E+00 -0.00000000000E+00 -0.45593999997E+02  0.45594000000E+02  0.51100000000E-03 0.  1.
         23    2    1    2    0    0 -0.17763568394E-14 -0.71054273576E-14  0.17763568394E-14  0.91188000000E+02  0.91188000000E+02 0.  0.
    9900012    2    3    3    0    0  0.69174333324E+01  0.38524397827E+02 -0.11008432658E+02  0.50528859558E+02  0.29999999113E+02 0.  0.
         12    1    3    3    0    0 -0.69174333324E+01 -0.38524397827E+02  0.11008432658E+02  0.40659140442E+02  0.00000000000E+00 0. -1.
         11    1    4    4    0    0  0.17560490434E+01  0.73116301116E+01  0.61960932580E+01  0.97434703804E+01  0.51100000000E-03 0. -1.
        -11    1    4    4    0    0 -0.17305805159E+01 -0.20602478504E+01  0.17924821082E-01  0.26906972493E+01  0.51100000000E-03 0.  1.
        -12    1    4    4    0    0  0.68919648050E+01  0.33273015566E+02 -0.17222450737E+02  0.38094691929E+02  0.00000000000E+00 0.  1.
</event>
<event>
 8    1  0.1338956E-013  0.9118800E+02  0.7816164E-02  0.1184000E+00
        -11   -1    0    0    0    0  0.00000000000E+00  0.00000000000E+00  0.45593999997E+02  0.45594000000E+02  0.51100000000E-03 0. -1.
         11   -1    0    0    0    0 -0.00000000000E+00 -0.00000000000E+00 -0.45593999997E+02  0.45594000000E+02  0.51100000000E-03 0.  1.
         23    2    1    2    0    0 -0.88817841970E-15  0.00000000000E+00  0.71054273576E-14  0.91188000000E+02  0.91188000000E+02 0.  0.
    9900012    2    3    3    0    0 -0.32406247236E+01  0.10499507858E+02  0.39146193038E+02  0.50528859045E+02  0.29999997552E+02 0.  0.
        -12    1    3    3    0    0  0.32406247236E+01 -0.10499507858E+02 -0.39146193038E+02  0.40659140955E+02  0.00000000000E+00 0.  1.
         11    1    4    4    0    0  0.49268443223E+01 -0.73277303462E+01  0.12567065388E+02  0.15359054650E+02  0.51100000000E-03 0. -1.
        -11    1    4    4    0    0  0.15237341758E+01 -0.89508895847E+00  0.34376838920E+01  0.38653099339E+01  0.51100000000E-03 0.  1.
        -12    1    4    4    0    0 -0.96912032217E+01  0.18722327163E+02  0.23141443758E+02  0.31304494461E+02  0.00000000000E+00 0.  1.
</event>
<event>
 8    1  0.1338956E-013  0.9118800E+02  0.7816164E-02  0.1184000E+00
        -11   -1    0    0    0    0  0.00000000000E+00  0.00000000000E+00  0.45593999997E+02  0.45594000000E+02  0.51100000000E-03 0. -1.
         11   -1    0    0    0    0 -0.00000000000E+00 -0.00000000000E+00 -0.45593999997E+02  0.45594000000E+02  0.51100000000E-03 0.  1.
         23    2    1    2    0    0  0.00000000000E+00  0.35527136788E-14  0.00000000000E+00  0.91188000000E+02  0.91188000000E+02 0.  0.
    9900012    2    3    3    0    0 -0.88268718987E+01 -0.19477098251E+02  0.34581728104E+02  0.50528844297E+02  0.29999952725E+02 0.  0.
        -12    1    3    3    0    0  0.88268718987E+01  0.19477098251E+02 -0.34581728104E+02  0.40659155703E+02  0.00000000000E+00 0.  1.
         11    1    4    4    0    0  0.44567170562E+01 -0.32634143714E+01  0.34624927920E+01  0.65192834632E+01  0.51100000000E-03 0. -1.
        -11    1    4    4    0    0 -0.68537989941E+01 -0.36183797211E+01 -0.19942793363E+01  0.80027734437E+01  0.51100000000E-03 0.  1.
        -12    1    4    4    0    0 -0.64297899607E+01 -0.12595304159E+02  0.33113514648E+02  0.36006787390E+02  0.00000000000E+00 0.  1.
</event>
<event>
 8    1  0.1338956E-013  0.9118800E+02  0.7816164E-02  0.1184000E+00
        -11   -1    0    0    0    0  0.00000000000E+00  0.00000000000E+00  0.45593999997E+02  0.45594000000E+02  0.51100000000E-03 0. -1.
         11   -1    0    0    0    0 -0.00000000000E+00 -0.00000000000E+00 -0.45593999997E+02  0.45594000000E+02  0.51100000000E-03 0.  1.
         23    2    1    2    0    0  0.35527136788E-14 -0.44408920985E-15 -0.71054273576E-14  0.91188000000E+02  0.91188000000E+02 0.  0.
    9900012    2    3    3    0    0 -0.20211439129E+02 -0.21516168845E+01  0.35214114707E+02  0.50528860788E+02  0.30000002850E+02 0.  0.
        -12    1    3    3    0    0  0.20211439129E+02  0.21516168845E+01 -0.35214114707E+02  0.40659139212E+02  0.00000000000E+00 0.  1.
         11    1    4    4    0    0 -0.44846914714E+01  0.61346556231E+01  0.11383753165E+02  0.13687084919E+02  0.51100000000E-03 0. -1.
        -11    1    4    4    0    0 -0.15328390516E+01  0.47552528540E+01  0.14675416049E+02  0.15502575971E+02  0.51100000000E-03 0.  1.
        -12    1    4    4    0    0 -0.14193908606E+02 -0.13041525362E+02  0.91549454933E+01  0.21339199897E+02  0.00000000000E+00 0.  1.
</event>
<event>
 8    1  0.1338956E-013  0.9118800E+02  0.7816164E-02  0.1184000E+00
        -11   -1    0    0    0    0  0.00000000000E+00  0.00000000000E+00  0.45593999997E+02  0.45594000000E+02  0.51100000000E-03 0. -1.
         11   -1    0    0    0    0 -0.00000000000E+00 -0.00000000000E+00 -0.45593999997E+02  0.45594000000E+02  0.51100000000E-03 0.  1.
         23    2    1    2    0    0  0.00000000000E+00  0.00000000000E+00  0.00000000000E+00  0.91188000000E+02  0.91188000000E+02 0.  0.
    9900012    2    3    3    0    0 -0.37339645559E+02 -0.25704704019E+01 -0.15884231552E+02  0.50528864980E+02  0.30000015595E+02 0.  0.
         12    1    3    3    0    0  0.37339645559E+02  0.25704704019E+01  0.15884231552E+02  0.40659135020E+02  0.00000000000E+00 0. -1.
         11    1    4    4    0    0 -0.67445667285E+01 -0.50390728038E+01 -0.16506492118E+01  0.85793984730E+01  0.51100000000E-03 0. -1.
        -11    1    4    4    0    0 -0.27492954265E+02 -0.78772828118E+01 -0.92833716481E+01  0.30068174340E+02  0.51100000000E-03 0.  1.
         12    1    4    4    0    0 -0.31021245650E+01  0.10345885214E+02 -0.49502106919E+01  0.11881292167E+02  0.00000000000E+00 0. -1.
</event>
<event>
 8    1  0.1338956E-013  0.9118800E+02  0.7816164E-02  0.1184000E+00
        -11   -1    0    0    0    0  0.00000000000E+00  0.00000000000E+00  0.45593999997E+02  0.45594000000E+02  0.51100000000E-03 0. -1.
         11   -1    0    0    0    0 -0.00000000000E+00 -0.00000000000E+00 -0.45593999997E+02  0.45594000000E+02  0.51100000000E-03 0.  1.
         23    2    1    2    0    0 -0.44408920985E-15  0.71054273576E-14 -0.35527136788E-14  0.91188000000E+02  0.91188000000E+02 0.  0.
    9900012    2    3    3    0    0 -0.31996647798E+01 -0.38177206960E+02 -0.13617205348E+02  0.50528864895E+02  0.30000015335E+02 0.  0.
         12    1    3    3    0    0  0.31996647798E+01  0.38177206960E+02  0.13617205348E+02  0.40659135105E+02  0.00000000000E+00 0. -1.
         11    1    4    4    0    0 -0.31378550182E+00 -0.16545723846E+02 -0.84311869401E+01  0.18572677578E+02  0.51100000000E-03 0. -1.
        -11    1    4    4    0    0  0.27695392270E-01 -0.17382178368E+02 -0.13613400927E+02  0.22078622622E+02  0.51100000000E-03 0.  1.
         12    1    4    4    0    0 -0.29135746702E+01 -0.42493047462E+01  0.84273825188E+01  0.98775646950E+01  0.00000000000E+00 0. -1.
</event>
<event>
 8    1  0.1338956E-013  0.9118800E+02  0.7816164E-02  0.1184000E+00
        -11   -1    0    0    0    0  0.00000000000E+00  0.00000000000E+00  0.45593999997E+02  0.45594000000E+02  0.51100000000E-03 0. -1.
         11   -1    0    0    0    0 -0.00000000000E+00 -0.00000000000E+00 -0.45593999997E+02  0.45594000000E+02  0.51100000000E-03 0.  1.
         23    2    1    2    0    0  0.00000000000E+00 -0.17763568394E-14  0.00000000000E+00  0.91188000000E+02  0.91188000000E+02 0.  0.
    9900012    2    3    3    0    0  0.35015348628E+02 -0.94279219883E+01 -0.18390349503E+02  0.50528864404E+02  0.30000013842E+02 0.  0.
         12    1    3    3    0    0 -0.35015348628E+02  0.94279219883E+01  0.18390349503E+02  0.40659135596E+02  0.00000000000E+00 0. -1.
         11    1    4    4    0    0 -0.35856495994E+01 -0.16012194963E+01 -0.39389327875E+01  0.55620121081E+01  0.51100000000E-03 0. -1.
        -11    1    4    4    0    0  0.24017315879E+01 -0.50770880346E+01 -0.48357427754E+01  0.74114469561E+01  0.51100000000E-03 0.  1.
         12    1    4    4    0    0  0.36199266640E+02 -0.27496144574E+01 -0.96156739401E+01  0.37555405340E+02  0.00000000000E+00 0. -1.
</event>
<event>
 8    1  0.1338956E-013  0.9118800E+02  0.7816164E-02  0.1184000E+00
        -11   -1    0    0    0    0  0.00000000000E+00  0.00000000000E+00  0.45593999997E+02  0.45594000000E+02  0.51100000000E-03 0.  1.
         11   -1    0    0    0    0 -0.00000000000E+00 -0.00000000000E+00 -0.45593999997E+02  0.45594000000E+02  0.51100000000E-03 0. -1.
         23    2    1    2    0    0  0.00000000000E+00  0.00000000000E+00 -0.17763568394E-14  0.91188000000E+02  0.91188000000E+02 0.  0.
    9900012    2    3    3    0    0 -0.62719697277E+01  0.39105079024E+02 -0.91989801405E+01  0.50528855329E+02  0.29999986259E+02 0.  0.
         12    1    3    3    0    0  0.62719697277E+01 -0.39105079024E+02  0.91989801405E+01  0.40659144671E+02  0.00000000000E+00 0. -1.
         11    1    4    4    0    0  0.75251597046E+00 -0.14101756636E+01 -0.36320784205E+01  0.39682325539E+01  0.51100000000E-03 0. -1.
        -11    1    4    4    0    0  0.18972210736E+01 -0.39766584191E+00  0.32348630079E+01  0.37711967418E+01  0.51100000000E-03 0.  1.
        -12    1    4    4    0    0 -0.89217067718E+01  0.40912920529E+02 -0.88017647280E+01  0.42789426034E+02  0.00000000000E+00 0.  1.
</event>
<event>
 8    1  0.1338956E-013  0.9118800E+02  0.7816164E-02  0.1184000E+00
        -11   -1    0    0    0    0  0.00000000000E+00  0.00000000000E+00  0.45593999997E+02  0.45594000000E+02  0.51100000000E-03 0. -1.
         11   -1    0    0    0    0 -0.00000000000E+00 -0.00000000000E+00 -0.45593999997E+02  0.45594000000E+02  0.51100000000E-03 0.  1.
         23    2    1    2    0    0  0.00000000000E+00 -0.13322676296E-14  0.00000000000E+00  0.91188000000E+02  0.91188000000E+02 0.  0.
    9900012    2    3    3    0    0 -0.17755065878E+02  0.32911709877E+01  0.36429247414E+02  0.50528877556E+02  0.30000053818E+02 0.  0.
        -12    1    3    3    0    0  0.17755065878E+02 -0.32911709877E+01 -0.36429247414E+02  0.40659122444E+02  0.00000000000E+00 0.  1.
         11    1    4    4    0    0  0.53839003337E+01  0.20526088119E+01  0.89861614324E+01  0.10674768536E+02  0.51100000000E-03 0. -1.
        -11    1    4    4    0    0 -0.57077202077E+01 -0.64936128079E+01  0.37067832665E+01  0.94066635804E+01  0.51100000000E-03 0.  1.
         12    1    4    4    0    0 -0.17431246004E+02  0.77321749837E+01  0.23736302715E+02  0.30447445440E+02  0.00000000000E+00 0. -1.
</event>
<event>
 8    1  0.1338956E-013  0.9118800E+02  0.7816164E-02  0.1184000E+00
        -11   -1    0    0    0    0  0.00000000000E+00  0.00000000000E+00  0.45593999997E+02  0.45594000000E+02  0.51100000000E-03 0. -1.
         11   -1    0    0    0    0 -0.00000000000E+00 -0.00000000000E+00 -0.45593999997E+02  0.45594000000E+02  0.51100000000E-03 0.  1.
         23    2    1    2    0    0 -0.44408920985E-15  0.00000000000E+00  0.00000000000E+00  0.91188000000E+02  0.91188000000E+02 0.  0.
    9900012    2    3    3    0    0 -0.37854838506E+01  0.10694342527E+02  0.39044429131E+02  0.50528852244E+02  0.29999976881E+02 0.  0.
        -12    1    3    3    0    0  0.37854838506E+01 -0.10694342527E+02 -0.39044429131E+02  0.40659147756E+02  0.00000000000E+00 0.  1.
         11    1    4    4    0    0  0.10143248839E+01  0.65580707115E+01  0.15003763827E+02  0.16405793966E+02  0.51100000000E-03 0. -1.
        -11    1    4    4    0    0 -0.50897229152E+01  0.47732703136E+01  0.28636433245E+02  0.29474305727E+02  0.51100000000E-03 0.  1.
        -12    1    4    4    0    0  0.28991418080E+00 -0.63699849792E+00 -0.45957679403E+01  0.46487525509E+01  0.00000000000E+00 0.  1.
</event>
<event>
 8    1  0.1338956E-013  0.9118800E+02  0.7816164E-02  0.1184000E+00
        -11   -1    0    0    0    0  0.00000000000E+00  0.00000000000E+00  0.45593999997E+02  0.45594000000E+02  0.51100000000E-03 0.  1.
         11   -1    0    0    0    0 -0.00000000000E+00 -0.00000000000E+00 -0.45593999997E+02  0.45594000000E+02  0.51100000000E-03 0. -1.
         23    2    1    2    0    0 -0.35527136788E-14  0.00000000000E+00  0.00000000000E+00  0.91188000000E+02  0.91188000000E+02 0.  0.
    9900012    2    3    3    0    0 -0.29653890201E+02  0.47703340251E+01  0.27405404522E+02  0.50528862187E+02  0.30000007102E+02 0.  0.
        -12    1    3    3    0    0  0.29653890201E+02 -0.47703340251E+01 -0.27405404522E+02  0.40659137813E+02  0.00000000000E+00 0.  1.
         11    1    4    4    0    0 -0.17983596965E+02  0.37946663668E+01  0.22140747940E+02  0.28775370931E+02  0.51100000000E-03 0. -1.
        -11    1    4    4    0    0  0.31578403494E+01 -0.37585349084E+01  0.36238422762E+01  0.61017025029E+01  0.51100000000E-03 0.  1.
        -12    1    4    4    0    0 -0.14828133585E+02  0.47342025667E+01  0.16408143055E+01  0.15651788752E+02  0.00000000000E+00 0.  1.
</event>
<event>
 8    1  0.1338956E-013  0.9118800E+02  0.7816164E-02  0.1184000E+00
        -11   -1    0    0    0    0  0.00000000000E+00  0.00000000000E+00  0.45593999997E+02  0.45594000000E+02  0.51100000000E-03 0. -1.
         11   -1    0    0    0    0 -0.00000000000E+00 -0.00000000000E+00 -0.45593999997E+02  0.45594000000E+02  0.51100000000E-03 0.  1.
         23    2    1    2    0    0  0.00000000000E+00  0.00000000000E+00  0.00000000000E+00  0.91188000000E+02  0.91188000000E+02 0.  0.
    9900012    2    3    3    0    0  0.99315459808E+01  0.12959946817E+02 -0.37236681772E+02  0.50528852241E+02  0.29999976872E+02 0.  0.
         12    1    3    3    0    0 -0.99315459808E+01 -0.12959946817E+02  0.37236681772E+02  0.40659147759E+02  0.00000000000E+00 0. -1.
         11    1    4    4    0    0  0.23054392430E+01  0.79864440753E+01 -0.87905060123E+00  0.83588916305E+01  0.51100000000E-03 0. -1.
        -11    1    4    4    0    0 -0.45313163885E+01  0.51906065481E+00 -0.12179537241E+01  0.47207693982E+01  0.51100000000E-03 0.  1.
        -12    1    4    4    0    0  0.12157423126E+02  0.44544420870E+01 -0.35139677447E+02  0.37449191212E+02  0.00000000000E+00 0.  1.
</event>
<event>
 8    1  0.1338956E-013  0.9118800E+02  0.7816164E-02  0.1184000E+00
        -11   -1    0    0    0    0  0.00000000000E+00  0.00000000000E+00  0.45593999997E+02  0.45594000000E+02  0.51100000000E-03 0. -1.
         11   -1    0    0    0    0 -0.00000000000E+00 -0.00000000000E+00 -0.45593999997E+02  0.45594000000E+02  0.51100000000E-03 0.  1.
         23    2    1    2    0    0 -0.66613381478E-15  0.00000000000E+00  0.71054273576E-14  0.91188000000E+02  0.91188000000E+02 0.  0.
    9900012    2    3    3    0    0 -0.28029320633E+00 -0.20670056534E+02  0.35011926286E+02  0.50528870845E+02  0.30000033421E+02 0.  0.
        -12    1    3    3    0    0  0.28029320633E+00  0.20670056534E+02 -0.35011926286E+02  0.40659129155E+02  0.00000000000E+00 0.  1.
         11    1    4    4    0    0 -0.59466311889E+01 -0.73611301431E+01  0.93002241384E+01  0.13268113233E+02  0.51100000000E-03 0. -1.
        -11    1    4    4    0    0 -0.13806048542E+01 -0.13048088718E+02  0.27067321671E+02  0.30079870207E+02  0.51100000000E-03 0.  1.
        -12    1    4    4    0    0  0.70469428367E+01 -0.26083767281E+00 -0.13556195235E+01  0.71808874053E+01  0.00000000000E+00 0.  1.
</event>
<event>
 8    1  0.1338956E-013  0.9118800E+02  0.7816164E-02  0.1184000E+00
        -11   -1    0    0    0    0  0.00000000000E+00  0.00000000000E+00  0.45593999997E+02  0.45594000000E+02  0.51100000000E-03 0. -1.
         11   -1    0    0    0    0 -0.00000000000E+00 -0.00000000000E+00 -0.45593999997E+02  0.45594000000E+02  0.51100000000E-03 0.  1.
         23    2    1    2    0    0  0.00000000000E+00  0.35527136788E-14  0.00000000000E+00  0.91188000000E+02  0.91188000000E+02 0.  0.
    9900012    2    3    3    0    0 -0.25872349578E+02  0.20403453235E+02  0.23821968081E+02  0.50528861545E+02  0.30000005154E+02 0.  0.
        -12    1    3    3    0    0  0.25872349578E+02 -0.20403453235E+02 -0.23821968081E+02  0.40659138455E+02  0.00000000000E+00 0.  1.
         11    1    4    4    0    0 -0.28320441856E+02  0.21719121348E+02  0.22019223181E+02  0.41935830131E+02  0.51100000000E-03 0. -1.
        -11    1    4    4    0    0 -0.94365846988E+00 -0.23024838247E+01  0.37946257178E+01  0.45377425743E+01  0.51100000000E-03 0.  1.
        -12    1    4    4    0    0  0.33917507475E+01  0.98681571217E+00 -0.19918808181E+01  0.40552888400E+01  0.00000000000E+00 0.  1.
</event>
<event>
 8    1  0.1338956E-013  0.9118800E+02  0.7816164E-02  0.1184000E+00
        -11   -1    0    0    0    0  0.00000000000E+00  0.00000000000E+00  0.45593999997E+02  0.45594000000E+02  0.51100000000E-03 0. -1.
         11   -1    0    0    0    0 -0.00000000000E+00 -0.00000000000E+00 -0.45593999997E+02  0.45594000000E+02  0.51100000000E-03 0.  1.
         23    2    1    2    0    0  0.35527136788E-14 -0.88817841970E-15  0.71054273576E-14  0.91188000000E+02  0.91188000000E+02 0.  0.
    9900012    2    3    3    0    0 -0.16976706690E+02  0.72467378956E+01 -0.36227650110E+02  0.50528850813E+02  0.29999972531E+02 0.  0.
         12    1    3    3    0    0  0.16976706690E+02 -0.72467378956E+01  0.36227650110E+02  0.40659149187E+02  0.00000000000E+00 0. -1.
         11    1    4    4    0    0  0.12158828328E+01 -0.46411335920E+01  0.21987864884E+01  0.52776087734E+01  0.51100000000E-03 0. -1.
        -11    1    4    4    0    0 -0.69267609315E+01  0.41307615926E+01 -0.59816725299E+01  0.10041096297E+02  0.51100000000E-03 0.  1.
        -12    1    4    4    0    0 -0.11265828591E+02  0.77571098951E+01 -0.32444764068E+02  0.35210145742E+02  0.00000000000E+00 0.  1.
</event>
<event>
 8    1  0.1338956E-013  0.9118800E+02  0.7816164E-02  0.1184000E+00
        -11   -1    0    0    0    0  0.00000000000E+00  0.00000000000E+00  0.45593999997E+02  0.45594000000E+02  0.51100000000E-03 0. -1.
         11   -1    0    0    0    0 -0.00000000000E+00 -0.00000000000E+00 -0.45593999997E+02  0.45594000000E+02  0.51100000000E-03 0.  1.
         23    2    1    2    0    0  0.00000000000E+00  0.88817841970E-15 -0.35527136788E-14  0.91188000000E+02  0.91188000000E+02 0.  0.
    9900012    2    3    3    0    0  0.31467302039E+02 -0.67036313595E+01 -0.24860335654E+02  0.50528855151E+02  0.29999985718E+02 0.  0.
         12    1    3    3    0    0 -0.31467302039E+02  0.67036313595E+01  0.24860335654E+02  0.40659144849E+02  0.00000000000E+00 0. -1.
         11    1    4    4    0    0  0.37155658921E+01 -0.23380486616E+01 -0.11251966976E+01  0.45318836384E+01  0.51100000000E-03 0. -1.
        -11    1    4    4    0    0  0.30759066857E+02 -0.10388091823E+02 -0.21342745426E+02  0.38852868983E+02  0.51100000000E-03 0.  1.
         12    1    4    4    0    0 -0.30073307100E+01  0.60225091246E+01 -0.23923935302E+01  0.71441025300E+01  0.00000000000E+00 0. -1.
</event>
<event>
 8    1  0.1338956E-013  0.9118800E+02  0.7816164E-02  0.1184000E+00
        -11   -1    0    0    0    0  0.00000000000E+00  0.00000000000E+00  0.45593999997E+02  0.45594000000E+02  0.51100000000E-03 0. -1.
         11   -1    0    0    0    0 -0.00000000000E+00 -0.00000000000E+00 -0.45593999997E+02  0.45594000000E+02  0.51100000000E-03 0.  1.
         23    2    1    2    0    0  0.00000000000E+00  0.44408920985E-15  0.00000000000E+00  0.91188000000E+02  0.91188000000E+02 0.  0.
    9900012    2    3    3    0    0 -0.33435672001E+02 -0.31402413566E+01  0.22920726763E+02  0.50528868267E+02  0.30000025585E+02 0.  0.
        -12    1    3    3    0    0  0.33435672001E+02  0.31402413566E+01 -0.22920726763E+02  0.40659131733E+02  0.00000000000E+00 0.  1.
         11    1    4    4    0    0  0.16916615550E+01 -0.76593709800E+00  0.26747377346E+01  0.32561634887E+01  0.51100000000E-03 0. -1.
        -11    1    4    4    0    0 -0.97711040058E+01  0.42992307537E+01  0.18038039427E+02  0.20960169971E+02  0.51100000000E-03 0.  1.
        -12    1    4    4    0    0 -0.25356229550E+02 -0.66735350123E+01  0.22079496009E+01  0.26312534808E+02  0.00000000000E+00 0.  1.
</event>
<event>
 8    1  0.1338956E-013  0.9118800E+02  0.7816164E-02  0.1184000E+00
        -11   -1    0    0    0    0  0.00000000000E+00  0.00000000000E+00  0.45593999997E+02  0.45594000000E+02  0.51100000000E-03 0. -1.
         11   -1    0    0    0    0 -0.00000000000E+00 -0.00000000000E+00 -0.45593999997E+02  0.45594000000E+02  0.51100000000E-03 0.  1.
         23    2    1    2    0    0  0.00000000000E+00  0.00000000000E+00  0.00000000000E+00  0.91188000000E+02  0.91188000000E+02 0.  0.
    9900012    2    3    3    0    0  0.36799118640E+02  0.22897901697E+01 -0.17139073773E+02  0.50528854393E+02  0.29999983413E+02 0.  0.
         12    1    3    3    0    0 -0.36799118640E+02 -0.22897901697E+01  0.17139073773E+02  0.40659145607E+02  0.00000000000E+00 0. -1.
         11    1    4    4    0    0 -0.18433245939E+01  0.13775597953E+01 -0.42125357888E+01  0.48001015178E+01  0.51100000000E-03 0.  1.
        -11    1    4    4    0    0 -0.45784371146E+00 -0.43111157107E+01 -0.46815183067E+00  0.43605625706E+01  0.51100000000E-03 0. -1.
         12    1    4    4    0    0  0.39100286945E+02  0.52233460850E+01 -0.12458386153E+02  0.41368190305E+02  0.00000000000E+00 0. -1.
</event>
<event>
 8    1  0.1338956E-013  0.9118800E+02  0.7816164E-02  0.1184000E+00
        -11   -1    0    0    0    0  0.00000000000E+00  0.00000000000E+00  0.45593999997E+02  0.45594000000E+02  0.51100000000E-03 0. -1.
         11   -1    0    0    0    0 -0.00000000000E+00 -0.00000000000E+00 -0.45593999997E+02  0.45594000000E+02  0.51100000000E-03 0.  1.
         23    2    1    2    0    0 -0.17763568394E-14  0.00000000000E+00  0.00000000000E+00  0.91188000000E+02  0.91188000000E+02 0.  0.
    9900012    2    3    3    0    0  0.14289321109E+02 -0.62786435139E+01 -0.37544092368E+02  0.50528868998E+02  0.30000027806E+02 0.  0.
         12    1    3    3    0    0 -0.14289321109E+02  0.62786435139E+01  0.37544092368E+02  0.40659131002E+02  0.00000000000E+00 0. -1.
         11    1    4    4    0    0 -0.21121546351E+01 -0.96005348455E+01 -0.15857418764E+02  0.18657148674E+02  0.51100000000E-03 0. -1.
        -11    1    4    4    0    0  0.55220881912E+01 -0.29826121424E+01  0.57705191122E+00  0.63025726773E+01  0.51100000000E-03 0.  1.
        -12    1    4    4    0    0  0.10879387553E+02  0.63045034740E+01 -0.22263725515E+02  0.25569147647E+02  0.00000000000E+00 0.  1.
</event>
<event>
 8    1  0.1338956E-013  0.9118800E+02  0.7816164E-02  0.1184000E+00
        -11   -1    0    0    0    0  0.00000000000E+00  0.00000000000E+00  0.45593999997E+02  0.45594000000E+02  0.51100000000E-03 0.  1.
         11   -1    0    0    0    0 -0.00000000000E+00 -0.00000000000E+00 -0.45593999997E+02  0.45594000000E+02  0.51100000000E-03 0. -1.
         23    2    1    2    0    0  0.00000000000E+00  0.17763568394E-14  0.00000000000E+00  0.91188000000E+02  0.91188000000E+02 0.  0.
    9900012    2    3    3    0    0  0.37048039555E+02 -0.11685416855E+02  0.12002498937E+02  0.50528853641E+02  0.29999981127E+02 0.  0.
         12    1    3    3    0    0 -0.37048039555E+02  0.11685416855E+02 -0.12002498937E+02  0.40659146359E+02  0.00000000000E+00 0. -1.
         11    1    4    4    0    0  0.18285396680E+02 -0.27417353782E+01  0.16585566144E+02  0.24838555699E+02  0.51100000000E-03 0. -1.
        -11    1    4    4    0    0  0.51551536874E+01  0.31398033606E+01  0.19681391985E+01  0.63488224774E+01  0.51100000000E-03 0.  1.
         12    1    4    4    0    0  0.13607489187E+02 -0.12083484837E+02 -0.65512064053E+01  0.19341475464E+02  0.00000000000E+00 0. -1.
</event>
<event>
 8    1  0.1338956E-013  0.9118800E+02  0.7816164E-02  0.1184000E+00
        -11   -1    0    0    0    0  0.00000000000E+00  0.00000000000E+00  0.45593999997E+02  0.45594000000E+02  0.51100000000E-03 0.  1.
         11   -1    0    0    0    0 -0.00000000000E+00 -0.00000000000E+00 -0.45593999997E+02  0.45594000000E+02  0.51100000000E-03 0. -1.
         23    2    1    2    0    0  0.00000000000E+00 -0.35527136788E-14  0.88817841970E-15  0.91188000000E+02  0.91188000000E+02 0.  0.
    9900012    2    3    3    0    0  0.31108698423E+02 -0.25545129889E+02  0.57324322321E+01  0.50528861323E+02  0.30000004477E+02 0.  0.
        -12    1    3    3    0    0 -0.31108698423E+02  0.25545129889E+02 -0.57324322321E+01  0.40659138677E+02  0.00000000000E+00 0.  1.
         11    1    4    4    0    0  0.20212580502E+02 -0.13826791414E+02  0.63491418006E+01  0.25299015262E+02  0.51100000000E-03 0. -1.
        -11    1    4    4    0    0  0.12893969760E+02 -0.15704593200E+02 -0.23306713541E+01  0.20452890577E+02  0.51100000000E-03 0.  1.
        -12    1    4    4    0    0 -0.19978518386E+01  0.39862547239E+01  0.17139617857E+01  0.47769554839E+01  0.00000000000E+00 0.  1.
</event>
<event>
 8    1  0.1338956E-013  0.9118800E+02  0.7816164E-02  0.1184000E+00
        -11   -1    0    0    0    0  0.00000000000E+00  0.00000000000E+00  0.45593999997E+02  0.45594000000E+02  0.51100000000E-03 0.  1.
         11   -1    0    0    0    0 -0.00000000000E+00 -0.00000000000E+00 -0.45593999997E+02  0.45594000000E+02  0.51100000000E-03 0. -1.
         23    2    1    2    0    0  0.00000000000E+00  0.00000000000E+00  0.00000000000E+00  0.91188000000E+02  0.91188000000E+02 0.  0.
    9900012    2    3    3    0    0 -0.25483533687E+02 -0.29377891121E+02 -0.11861523341E+02  0.50528847133E+02  0.29999961346E+02 0.  0.
         12    1    3    3    0    0  0.25483533687E+02  0.29377891121E+02  0.11861523341E+02  0.40659152867E+02  0.00000000000E+00 0. -1.
         11    1    4    4    0    0  0.43136736143E+01 -0.21198243597E+01 -0.49498687011E+01  0.68994663407E+01  0.51100000000E-03 0. -1.
        -11    1    4    4    0    0 -0.43987289250E+01 -0.38477726473E+01 -0.69593353055E+01  0.90877125096E+01  0.51100000000E-03 0.  1.
        -12    1    4    4    0    0 -0.25398478376E+02 -0.23410294114E+02  0.47680665433E-01  0.34541668283E+02  0.00000000000E+00 0.  1.
</event>
<event>
 8    1  0.1338956E-013  0.9118800E+02  0.7816164E-02  0.1184000E+00
        -11   -1    0    0    0    0  0.00000000000E+00  0.00000000000E+00  0.45593999997E+02  0.45594000000E+02  0.51100000000E-03 0. -1.
         11   -1    0    0    0    0 -0.00000000000E+00 -0.00000000000E+00 -0.45593999997E+02  0.45594000000E+02  0.51100000000E-03 0.  1.
         23    2    1    2    0    0 -0.17763568394E-14  0.00000000000E+00 -0.35527136788E-14  0.91188000000E+02  0.91188000000E+02 0.  0.
    9900012    2    3    3    0    0 -0.15891597543E+02  0.22191489399E+02 -0.30135699207E+02  0.50528862762E+02  0.30000008851E+02 0.  0.
         12    1    3    3    0    0  0.15891597543E+02 -0.22191489399E+02  0.30135699207E+02  0.40659137238E+02  0.00000000000E+00 0. -1.
         11    1    4    4    0    0 -0.77484727922E+00 -0.13399348218E+01 -0.11699554463E+02  0.11801499418E+02  0.51100000000E-03 0. -1.
        -11    1    4    4    0    0 -0.61235103771E+01  0.81978375121E+01 -0.18281589314E+02  0.20950380124E+02  0.51100000000E-03 0.  1.
         12    1    4    4    0    0 -0.89932398865E+01  0.15333586709E+02 -0.15455543031E+00  0.17776983220E+02  0.00000000000E+00 0. -1.
</event>
<event>
 8    1  0.1338956E-013  0.9118800E+02  0.7816164E-02  0.1184000E+00
        -11   -1    0    0    0    0  0.00000000000E+00  0.00000000000E+00  0.45593999997E+02  0.45594000000E+02  0.51100000000E-03 0. -1.
         11   -1    0    0    0    0 -0.00000000000E+00 -0.00000000000E+00 -0.45593999997E+02  0.45594000000E+02  0.51100000000E-03 0.  1.
         23    2    1    2    0    0  0.00000000000E+00  0.35527136788E-14  0.00000000000E+00  0.91188000000E+02  0.91188000000E+02 0.  0.
    9900012    2    3    3    0    0 -0.82795923742E+01 -0.17791300638E+02 -0.35610161008E+02  0.50528860864E+02  0.30000003081E+02 0.  0.
         12    1    3    3    0    0  0.82795923742E+01  0.17791300638E+02  0.35610161008E+02  0.40659139136E+02  0.00000000000E+00 0. -1.
         11    1    4    4    0    0  0.13809951318E+01 -0.23586374013E+01 -0.10231299089E+01  0.29184093299E+01  0.51100000000E-03 0. -1.
        -11    1    4    4    0    0  0.53072228676E+01 -0.15853865254E+02 -0.12280443038E+02  0.20744178449E+02  0.51100000000E-03 0.  1.
        -12    1    4    4    0    0 -0.14967810374E+02  0.42120201728E+00 -0.22306588062E+02  0.26866273085E+02  0.00000000000E+00 0.  1.
</event>
<event>
 8    1  0.1338956E-013  0.9118800E+02  0.7816164E-02  0.1184000E+00
        -11   -1    0    0    0    0  0.00000000000E+00  0.00000000000E+00  0.45593999997E+02  0.45594000000E+02  0.51100000000E-03 0.  1.
         11   -1    0    0    0    0 -0.00000000000E+00 -0.00000000000E+00 -0.45593999997E+02  0.45594000000E+02  0.51100000000E-03 0. -1.
         23    2    1    2    0    0 -0.66613381478E-15  0.71054273576E-14  0.00000000000E+00  0.91188000000E+02  0.91188000000E+02 0.  0.
    9900012    2    3    3    0    0 -0.45162586883E+00 -0.31800294339E+02  0.25331852529E+02  0.50528862792E+02  0.30000008942E+02 0.  0.
        -12    1    3    3    0    0  0.45162586883E+00  0.31800294339E+02 -0.25331852529E+02  0.40659137208E+02  0.00000000000E+00 0.  1.
         11    1    4    4    0    0  0.35107866056E+01  0.10516760516E+01  0.83924409668E+01  0.91577677820E+01  0.51100000000E-03 0. -1.
        -11    1    4    4    0    0 -0.89971590653E+01 -0.70538301137E+01  0.44240300301E+01  0.12258769616E+02  0.51100000000E-03 0.  1.
         12    1    4    4    0    0  0.50347465908E+01 -0.25798140277E+02  0.12515381532E+02  0.29112325394E+02  0.00000000000E+00 0. -1.
</event>
<event>
 8    1  0.1739145E-013  0.9118800E+02  0.7816164E-02  0.1184000E+00
        -11   -1    0    0    0    0  0.00000000000E+00  0.00000000000E+00  0.45593999997E+02  0.45594000000E+02  0.51100000000E-03 0. -1.
         11   -1    0    0    0    0 -0.00000000000E+00 -0.00000000000E+00 -0.45593999997E+02  0.45594000000E+02  0.51100000000E-03 0.  1.
         23    2    1    2    0    0  0.00000000000E+00 -0.17763568394E-14  0.00000000000E+00  0.91188000000E+02  0.91188000000E+02 0.  0.
    9900012    2    3    3    0    0 -0.24745034193E+02 -0.11352466005E+02 -0.30198876500E+02  0.50528839366E+02  0.29999937737E+02 0.  0.
         12    1    3    3    0    0  0.24745034193E+02  0.11352466005E+02  0.30198876500E+02  0.40659160634E+02  0.00000000000E+00 0. -1.
         11    1    4    4    0    0 -0.96762500142E+01  0.39957441905E+01 -0.83087897697E+01  0.13365319812E+02  0.51100000000E-03 0. -1.
        -11    1    4    4    0    0 -0.15920188650E+02 -0.14144528432E+02 -0.25524262253E+02  0.33241661437E+02  0.51100000000E-03 0.  1.
         12    1    4    4    0    0  0.85140447159E+00 -0.12036817635E+01  0.36341755232E+01  0.39218581177E+01  0.00000000000E+00 0. -1.
</event>
<event>
 8    1  0.1338956E-013  0.9118800E+02  0.7816164E-02  0.1184000E+00
        -11   -1    0    0    0    0  0.00000000000E+00  0.00000000000E+00  0.45593999997E+02  0.45594000000E+02  0.51100000000E-03 0. -1.
         11   -1    0    0    0    0 -0.00000000000E+00 -0.00000000000E+00 -0.45593999997E+02  0.45594000000E+02  0.51100000000E-03 0.  1.
         23    2    1    2    0    0  0.88817841970E-15  0.00000000000E+00  0.00000000000E+00  0.91188000000E+02  0.91188000000E+02 0.  0.
    9900012    2    3    3    0    0 -0.54830930658E+01  0.33410433627E+02  0.22513188482E+02  0.50528867688E+02  0.30000023825E+02 0.  0.
        -12    1    3    3    0    0  0.54830930658E+01 -0.33410433627E+02 -0.22513188482E+02  0.40659132312E+02  0.00000000000E+00 0.  1.
         11    1    4    4    0    0 -0.73767139335E+01  0.87090247691E+01  0.78108234015E+01  0.13830111473E+02  0.51100000000E-03 0. -1.
        -11    1    4    4    0    0 -0.73379103546E+01  0.11621360211E+02 -0.16154653614E+01  0.13838738025E+02  0.51100000000E-03 0.  1.
        -12    1    4    4    0    0  0.92315312223E+01  0.13080048647E+02  0.16317830442E+02  0.22860018190E+02  0.00000000000E+00 0.  1.
</event>
<event>
 8    1  0.1338956E-013  0.9118800E+02  0.7816164E-02  0.1184000E+00
        -11   -1    0    0    0    0  0.00000000000E+00  0.00000000000E+00  0.45593999997E+02  0.45594000000E+02  0.51100000000E-03 0. -1.
         11   -1    0    0    0    0 -0.00000000000E+00 -0.00000000000E+00 -0.45593999997E+02  0.45594000000E+02  0.51100000000E-03 0.  1.
         23    2    1    2    0    0  0.00000000000E+00  0.00000000000E+00  0.00000000000E+00  0.91188000000E+02  0.91188000000E+02 0.  0.
    9900012    2    3    3    0    0  0.17916803786E+02 -0.33801985902E+02 -0.13768806290E+02  0.50528854221E+02  0.29999982892E+02 0.  0.
         12    1    3    3    0    0 -0.17916803786E+02  0.33801985902E+02  0.13768806290E+02  0.40659145779E+02  0.00000000000E+00 0. -1.
         11    1    4    4    0    0 -0.44868180363E+01 -0.94444628498E+01  0.30078746244E+01  0.10880106830E+02  0.51100000000E-03 0.  1.
        -11    1    4    4    0    0 -0.58367097689E+00 -0.25480904925E+01  0.15545161419E+01  0.30413743052E+01  0.51100000000E-03 0. -1.
        -12    1    4    4    0    0  0.22987292799E+02 -0.21809432559E+02 -0.18331197056E+02  0.36607373086E+02  0.00000000000E+00 0.  1.
</event>
<event>
 8    1  0.1338956E-013  0.9118800E+02  0.7816164E-02  0.1184000E+00
        -11   -1    0    0    0    0  0.00000000000E+00  0.00000000000E+00  0.45593999997E+02  0.45594000000E+02  0.51100000000E-03 0. -1.
         11   -1    0    0    0    0 -0.00000000000E+00 -0.00000000000E+00 -0.45593999997E+02  0.45594000000E+02  0.51100000000E-03 0.  1.
         23    2    1    2    0    0  0.00000000000E+00  0.00000000000E+00  0.00000000000E+00  0.91188000000E+02  0.91188000000E+02 0.  0.
    9900012    2    3    3    0    0 -0.14965793926E+01 -0.37334646782E+01  0.40459684734E+02  0.50528873138E+02  0.30000040391E+02 0.  0.
        -12    1    3    3    0    0  0.14965793926E+01  0.37334646782E+01 -0.40459684734E+02  0.40659126862E+02  0.00000000000E+00 0.  1.
         11    1    4    4    0    0 -0.33221838146E+01 -0.11836949657E+02  0.15852290687E+02  0.20061041917E+02  0.51100000000E-03 0. -1.
        -11    1    4    4    0    0 -0.55821683719E+01 -0.15534486829E+01  0.80365724547E+01  0.99075881839E+01  0.51100000000E-03 0.  1.
         12    1    4    4    0    0  0.74077727939E+01  0.96569336621E+01  0.16570821592E+02  0.20560243037E+02  0.00000000000E+00 0. -1.
</event>
<event>
 8    1  0.1338956E-013  0.9118800E+02  0.7816164E-02  0.1184000E+00
        -11   -1    0    0    0    0  0.00000000000E+00  0.00000000000E+00  0.45593999997E+02  0.45594000000E+02  0.51100000000E-03 0. -1.
         11   -1    0    0    0    0 -0.00000000000E+00 -0.00000000000E+00 -0.45593999997E+02  0.45594000000E+02  0.51100000000E-03 0.  1.
         23    2    1    2    0    0 -0.35527136788E-14  0.00000000000E+00  0.00000000000E+00  0.91188000000E+02  0.91188000000E+02 0.  0.
    9900012    2    3    3    0    0 -0.26162617756E+02  0.12363203306E+02 -0.28562802726E+02  0.50528867405E+02  0.30000022964E+02 0.  0.
         12    1    3    3    0    0  0.26162617756E+02 -0.12363203306E+02  0.28562802726E+02  0.40659132595E+02  0.00000000000E+00 0. -1.
         11    1    4    4    0    0 -0.19827460310E+02  0.89265527064E+01 -0.89222130817E+01  0.23503561689E+02  0.51100000000E-03 0.  1.
        -11    1    4    4    0    0 -0.10904118591E+02  0.46909938823E+01 -0.76225891878E+01  0.14107058235E+02  0.51100000000E-03 0. -1.
         12    1    4    4    0    0  0.45689611441E+01 -0.12543432832E+01 -0.12018000456E+02  0.12918247481E+02  0.00000000000E+00 0. -1.
</event>
<event>
 8    1  0.1338956E-013  0.9118800E+02  0.7816164E-02  0.1184000E+00
        -11   -1    0    0    0    0  0.00000000000E+00  0.00000000000E+00  0.45593999997E+02  0.45594000000E+02  0.51100000000E-03 0. -1.
         11   -1    0    0    0    0 -0.00000000000E+00 -0.00000000000E+00 -0.45593999997E+02  0.45594000000E+02  0.51100000000E-03 0.  1.
         23    2    1    2    0    0  0.00000000000E+00  0.00000000000E+00 -0.71054273576E-14  0.91188000000E+02  0.91188000000E+02 0.  0.
    9900012    2    3    3    0    0  0.78077377497E+01 -0.86684690550E+01 -0.38949487719E+02  0.50528859354E+02  0.29999998492E+02 0.  0.
         12    1    3    3    0    0 -0.78077377497E+01  0.86684690550E+01  0.38949487719E+02  0.40659140646E+02  0.00000000000E+00 0. -1.
         11    1    4    4    0    0  0.74674155962E+01 -0.64773182803E+01 -0.60419188946E+01  0.11585453465E+02  0.51100000000E-03 0. -1.
        -11    1    4    4    0    0  0.82979564876E+00  0.66182702564E+01 -0.22466715169E+01  0.70382949051E+01  0.51100000000E-03 0.  1.
        -12    1    4    4    0    0 -0.48947349525E+00 -0.88094210311E+01 -0.30660897307E+02  0.31905110984E+02  0.00000000000E+00 0.  1.
</event>
<event>
 8    1  0.1338956E-013  0.9118800E+02  0.7816164E-02  0.1184000E+00
        -11   -1    0    0    0    0  0.00000000000E+00  0.00000000000E+00  0.45593999997E+02  0.45594000000E+02  0.51100000000E-03 0. -1.
         11   -1    0    0    0    0 -0.00000000000E+00 -0.00000000000E+00 -0.45593999997E+02  0.45594000000E+02  0.51100000000E-03 0.  1.
         23    2    1    2    0    0  0.00000000000E+00  0.00000000000E+00  0.00000000000E+00  0.91188000000E+02  0.91188000000E+02 0.  0.
    9900012    2    3    3    0    0 -0.18515258765E+02  0.35796395846E+02  0.53823018433E+01  0.50528856676E+02  0.29999990353E+02 0.  0.
        -12    1    3    3    0    0  0.18515258765E+02 -0.35796395846E+02 -0.53823018433E+01  0.40659143324E+02  0.00000000000E+00 0.  1.
         11    1    4    4    0    0  0.20413362845E+01  0.86476632955E+00  0.19692525990E+01  0.29652707619E+01  0.51100000000E-03 0. -1.
        -11    1    4    4    0    0 -0.59507160235E+00  0.15970158266E+02 -0.78645449832E+01  0.17811544945E+02  0.51100000000E-03 0.  1.
         12    1    4    4    0    0 -0.19961523447E+02  0.18961471250E+02  0.11277594227E+02  0.29752040970E+02  0.00000000000E+00 0. -1.
</event>
<event>
 8    1  0.1338956E-013  0.9118800E+02  0.7816164E-02  0.1184000E+00
        -11   -1    0    0    0    0  0.00000000000E+00  0.00000000000E+00  0.45593999997E+02  0.45594000000E+02  0.51100000000E-03 0. -1.
         11   -1    0    0    0    0 -0.00000000000E+00 -0.00000000000E+00 -0.45593999997E+02  0.45594000000E+02  0.51100000000E-03 0.  1.
         23    2    1    2    0    0  0.00000000000E+00 -0.17763568394E-14  0.71054273576E-14  0.91188000000E+02  0.91188000000E+02 0.  0.
    9900012    2    3    3    0    0  0.14251548500E+02  0.12369138414E+02 -0.36014768941E+02  0.50528858327E+02  0.29999995370E+02 0.  0.
         12    1    3    3    0    0 -0.14251548500E+02 -0.12369138414E+02  0.36014768941E+02  0.40659141673E+02  0.00000000000E+00 0. -1.
         11    1    4    4    0    0 -0.21141158449E+01  0.65060248084E-02 -0.64640463416E+01  0.68009869506E+01  0.51100000000E-03 0. -1.
        -11    1    4    4    0    0  0.35402470025E+01  0.13121648847E+02 -0.27557058707E+02  0.30726251027E+02  0.51100000000E-03 0.  1.
         12    1    4    4    0    0  0.12825417343E+02 -0.75901645764E+00 -0.19936638920E+01  0.13001620350E+02  0.00000000000E+00 0. -1.
</event>
<event>
 8    1  0.1338956E-013  0.9118800E+02  0.7816164E-02  0.1184000E+00
        -11   -1    0    0    0    0  0.00000000000E+00  0.00000000000E+00  0.45593999997E+02  0.45594000000E+02  0.51100000000E-03 0. -1.
         11   -1    0    0    0    0 -0.00000000000E+00 -0.00000000000E+00 -0.45593999997E+02  0.45594000000E+02  0.51100000000E-03 0.  1.
         23    2    1    2    0    0  0.44408920985E-15 -0.35527136788E-14  0.35527136788E-14  0.91188000000E+02  0.91188000000E+02 0.  0.
    9900012    2    3    3    0    0 -0.21633744000E+01  0.30417330498E+02 -0.26893647329E+02  0.50528899542E+02  0.30000120648E+02 0.  0.
         12    1    3    3    0    0  0.21633744000E+01 -0.30417330498E+02  0.26893647329E+02  0.40659100458E+02  0.00000000000E+00 0. -1.
         11    1    4    4    0    0 -0.61559167122E+01  0.11054165533E+02 -0.12355157185E+02  0.17684450670E+02  0.51100000000E-03 0.  1.
        -11    1    4    4    0    0 -0.32867115406E+01  0.15955000928E+02 -0.17837102299E+02  0.24156298268E+02  0.51100000000E-03 0. -1.
         12    1    4    4    0    0  0.72792538528E+01  0.34081640374E+01  0.32986121548E+01  0.86881506033E+01  0.00000000000E+00 0. -1.
</event>
<event>
 8    1  0.1338956E-013  0.9118800E+02  0.7816164E-02  0.1184000E+00
        -11   -1    0    0    0    0  0.00000000000E+00  0.00000000000E+00  0.45593999997E+02  0.45594000000E+02  0.51100000000E-03 0. -1.
         11   -1    0    0    0    0 -0.00000000000E+00 -0.00000000000E+00 -0.45593999997E+02  0.45594000000E+02  0.51100000000E-03 0.  1.
         23    2    1    2    0    0  0.00000000000E+00  0.00000000000E+00  0.00000000000E+00  0.91188000000E+02  0.91188000000E+02 0.  0.
    9900012    2    3    3    0    0 -0.78317945067E+01 -0.40163341943E+01  0.39695050500E+02  0.50528868433E+02  0.30000026090E+02 0.  0.
        -12    1    3    3    0    0  0.78317945067E+01  0.40163341943E+01 -0.39695050500E+02  0.40659131567E+02  0.00000000000E+00 0.  1.
         11    1    4    4    0    0  0.37524763065E+01  0.38054715331E+01  0.37840324527E+01  0.65484039188E+01  0.51100000000E-03 0.  1.
        -11    1    4    4    0    0  0.46351340520E+01 -0.18494716013E+01  0.19564069736E+02  0.20190538324E+02  0.51100000000E-03 0. -1.
        -12    1    4    4    0    0 -0.16219404865E+02 -0.59723341261E+01  0.16346948311E+02  0.23789926191E+02  0.00000000000E+00 0.  1.
</event>
<event>
 8    1  0.1338956E-013  0.9118800E+02  0.7816164E-02  0.1184000E+00
        -11   -1    0    0    0    0  0.00000000000E+00  0.00000000000E+00  0.45593999997E+02  0.45594000000E+02  0.51100000000E-03 0. -1.
         11   -1    0    0    0    0 -0.00000000000E+00 -0.00000000000E+00 -0.45593999997E+02  0.45594000000E+02  0.51100000000E-03 0.  1.
         23    2    1    2    0    0  0.00000000000E+00 -0.17763568394E-14  0.35527136788E-14  0.91188000000E+02  0.91188000000E+02 0.  0.
    9900012    2    3    3    0    0  0.24396741059E+02  0.93635322805E+01 -0.31149460758E+02  0.50528860602E+02  0.30000002287E+02 0.  0.
         12    1    3    3    0    0 -0.24396741059E+02 -0.93635322805E+01  0.31149460758E+02  0.40659139398E+02  0.00000000000E+00 0. -1.
         11    1    4    4    0    0  0.22646436954E+02 -0.83075125593E+00 -0.25798186108E+02  0.34337991512E+02  0.51100000000E-03 0. -1.
        -11    1    4    4    0    0  0.60499675792E+01  0.26705048723E+01 -0.24501000143E+01  0.70524247124E+01  0.51100000000E-03 0.  1.
         12    1    4    4    0    0 -0.42996634745E+01  0.75237786641E+01 -0.29011746358E+01  0.91384443779E+01  0.00000000000E+00 0. -1.
</event>
<event>
 8    1  0.1338956E-013  0.9118800E+02  0.7816164E-02  0.1184000E+00
        -11   -1    0    0    0    0  0.00000000000E+00  0.00000000000E+00  0.45593999997E+02  0.45594000000E+02  0.51100000000E-03 0. -1.
         11   -1    0    0    0    0 -0.00000000000E+00 -0.00000000000E+00 -0.45593999997E+02  0.45594000000E+02  0.51100000000E-03 0.  1.
         23    2    1    2    0    0  0.35527136788E-14  0.00000000000E+00 -0.35527136788E-14  0.91188000000E+02  0.91188000000E+02 0.  0.
    9900012    2    3    3    0    0 -0.24768710747E+02  0.20985860226E+02  0.24479980884E+02  0.50528870330E+02  0.30000031854E+02 0.  0.
        -12    1    3    3    0    0  0.24768710747E+02 -0.20985860226E+02 -0.24479980884E+02  0.40659129670E+02  0.00000000000E+00 0.  1.
         11    1    4    4    0    0 -0.14677516215E+01  0.17089391011E+02  0.13097027028E+02  0.21580864143E+02  0.51100000000E-03 0. -1.
        -11    1    4    4    0    0 -0.89590640653E+01  0.74123690186E+01  0.31750272028E+01  0.12053582098E+02  0.51100000000E-03 0.  1.
         12    1    4    4    0    0 -0.14341895060E+02 -0.35158998035E+01  0.82079266528E+01  0.16894424088E+02  0.00000000000E+00 0. -1.
</event>
<event>
 8    1  0.1338956E-013  0.9118800E+02  0.7816164E-02  0.1184000E+00
        -11   -1    0    0    0    0  0.00000000000E+00  0.00000000000E+00  0.45593999997E+02  0.45594000000E+02  0.51100000000E-03 0. -1.
         11   -1    0    0    0    0 -0.00000000000E+00 -0.00000000000E+00 -0.45593999997E+02  0.45594000000E+02  0.51100000000E-03 0.  1.
         23    2    1    2    0    0  0.00000000000E+00  0.00000000000E+00 -0.71054273576E-14  0.91188000000E+02  0.91188000000E+02 0.  0.
    9900012    2    3    3    0    0 -0.78451010959E+01 -0.93090602142E+01  0.38793827824E+02  0.50528864612E+02  0.30000014473E+02 0.  0.
        -12    1    3    3    0    0  0.78451010959E+01  0.93090602142E+01 -0.38793827824E+02  0.40659135388E+02  0.00000000000E+00 0.  1.
         11    1    4    4    0    0  0.12048416037E+01 -0.54027013390E+01 -0.39952074502E+00  0.55498146037E+01  0.51100000000E-03 0. -1.
        -11    1    4    4    0    0 -0.17121548379E+00 -0.33139084921E+01 -0.12668113598E+01  0.35519171609E+01  0.51100000000E-03 0.  1.
        -12    1    4    4    0    0 -0.88787272158E+01 -0.59245038312E+00  0.40460159929E+02  0.41427132847E+02  0.00000000000E+00 0.  1.
</event>
<event>
 8    1  0.1338956E-013  0.9118800E+02  0.7816164E-02  0.1184000E+00
        -11   -1    0    0    0    0  0.00000000000E+00  0.00000000000E+00  0.45593999997E+02  0.45594000000E+02  0.51100000000E-03 0. -1.
         11   -1    0    0    0    0 -0.00000000000E+00 -0.00000000000E+00 -0.45593999997E+02  0.45594000000E+02  0.51100000000E-03 0.  1.
         23    2    1    2    0    0  0.00000000000E+00  0.00000000000E+00  0.00000000000E+00  0.91188000000E+02  0.91188000000E+02 0.  0.
    9900012    2    3    3    0    0 -0.16969856660E+02  0.25814307485E+02 -0.26435078678E+02  0.50528832636E+02  0.29999917281E+02 0.  0.
         12    1    3    3    0    0  0.16969856660E+02 -0.25814307485E+02  0.26435078678E+02  0.40659167364E+02  0.00000000000E+00 0. -1.
         11    1    4    4    0    0 -0.97657702590E+00  0.16271346905E+02 -0.10609892854E+02  0.19449428254E+02  0.51100000000E-03 0. -1.
        -11    1    4    4    0    0 -0.15463981859E+01  0.11522829392E+02 -0.39663865964E+01  0.12284102224E+02  0.51100000000E-03 0.  1.
         12    1    4    4    0    0 -0.14446881448E+02 -0.19798688122E+01 -0.11858799228E+02  0.18795302158E+02  0.00000000000E+00 0. -1.
</event>
<event>
 8    1  0.1338956E-013  0.9118800E+02  0.7816164E-02  0.1184000E+00
        -11   -1    0    0    0    0  0.00000000000E+00  0.00000000000E+00  0.45593999997E+02  0.45594000000E+02  0.51100000000E-03 0.  1.
         11   -1    0    0    0    0 -0.00000000000E+00 -0.00000000000E+00 -0.45593999997E+02  0.45594000000E+02  0.51100000000E-03 0. -1.
         23    2    1    2    0    0  0.00000000000E+00  0.00000000000E+00 -0.30531133177E-15  0.91188000000E+02  0.91188000000E+02 0.  0.
    9900012    2    3    3    0    0 -0.52303824549E+01 -0.40321190430E+02 -0.13171563360E+00  0.50528774143E+02  0.29999739483E+02 0.  0.
         12    1    3    3    0    0  0.52303824549E+01  0.40321190430E+02  0.13171563360E+00  0.40659225857E+02  0.00000000000E+00 0. -1.
         11    1    4    4    0    0 -0.21565751206E+01 -0.64770329185E+01 -0.58003677957E+01  0.89580711375E+01  0.51100000000E-03 0. -1.
        -11    1    4    4    0    0  0.90735628178E+00  0.17364142761E+01 -0.40271629962E+01  0.44784452681E+01  0.51100000000E-03 0.  1.
        -12    1    4    4    0    0 -0.39811636161E+01 -0.35580571787E+02  0.96958151583E+01  0.37092257737E+02  0.00000000000E+00 0.  1.
</event>
<event>
 8    1  0.1338956E-013  0.9118800E+02  0.7816164E-02  0.1184000E+00
        -11   -1    0    0    0    0  0.00000000000E+00  0.00000000000E+00  0.45593999997E+02  0.45594000000E+02  0.51100000000E-03 0. -1.
         11   -1    0    0    0    0 -0.00000000000E+00 -0.00000000000E+00 -0.45593999997E+02  0.45594000000E+02  0.51100000000E-03 0.  1.
         23    2    1    2    0    0  0.00000000000E+00 -0.66613381478E-15 -0.14210854715E-13  0.91188000000E+02  0.91188000000E+02 0.  0.
    9900012    2    3    3    0    0 -0.82811463476E+01 -0.15543827443E+01 -0.39776524125E+02  0.50528863733E+02  0.30000011801E+02 0.  0.
         12    1    3    3    0    0  0.82811463476E+01  0.15543827443E+01  0.39776524125E+02  0.40659136267E+02  0.00000000000E+00 0. -1.
         11    1    4    4    0    0 -0.32371231133E+01 -0.47318914260E+01 -0.20312440362E+01  0.60824103046E+01  0.51100000000E-03 0. -1.
        -11    1    4    4    0    0  0.17340376661E+01 -0.11324964940E+01 -0.36209429380E+02  0.36268611929E+02  0.51100000000E-03 0.  1.
         12    1    4    4    0    0 -0.67780609003E+01  0.43100051757E+01 -0.15358507084E+01  0.81778414989E+01  0.00000000000E+00 0. -1.
</event>
<event>
 8    1  0.1338956E-013  0.9118800E+02  0.7816164E-02  0.1184000E+00
        -11   -1    0    0    0    0  0.00000000000E+00  0.00000000000E+00  0.45593999997E+02  0.45594000000E+02  0.51100000000E-03 0. -1.
         11   -1    0    0    0    0 -0.00000000000E+00 -0.00000000000E+00 -0.45593999997E+02  0.45594000000E+02  0.51100000000E-03 0.  1.
         23    2    1    2    0    0 -0.22204460493E-15  0.00000000000E+00  0.00000000000E+00  0.91188000000E+02  0.91188000000E+02 0.  0.
    9900012    2    3    3    0    0  0.11260241056E+01 -0.11755723353E+02 -0.38906302676E+02  0.50528863883E+02  0.30000012259E+02 0.  0.
         12    1    3    3    0    0 -0.11260241056E+01  0.11755723353E+02  0.38906302676E+02  0.40659136117E+02  0.00000000000E+00 0. -1.
         11    1    4    4    0    0 -0.46807461612E+01  0.16275562071E+01  0.50010008671E+00  0.49808055765E+01  0.51100000000E-03 0. -1.
        -11    1    4    4    0    0 -0.52924199796E+01 -0.19420016109E+00 -0.63627348014E+01  0.82783946124E+01  0.51100000000E-03 0.  1.
        -12    1    4    4    0    0  0.11099190246E+02 -0.13189079399E+02 -0.33043667962E+02  0.37269663694E+02  0.00000000000E+00 0.  1.
</event>
<event>
 8    1  0.1338956E-013  0.9118800E+02  0.7816164E-02  0.1184000E+00
        -11   -1    0    0    0    0  0.00000000000E+00  0.00000000000E+00  0.45593999997E+02  0.45594000000E+02  0.51100000000E-03 0. -1.
         11   -1    0    0    0    0 -0.00000000000E+00 -0.00000000000E+00 -0.45593999997E+02  0.45594000000E+02  0.51100000000E-03 0.  1.
         23    2    1    2    0    0  0.44408920985E-15  0.00000000000E+00 -0.71054273576E-14  0.91188000000E+02  0.91188000000E+02 0.  0.
    9900012    2    3    3    0    0  0.32427247208E+01  0.32575677629E+01 -0.40398501695E+02  0.50528856495E+02  0.29999989802E+02 0.  0.
         12    1    3    3    0    0 -0.32427247208E+01 -0.32575677629E+01  0.40398501695E+02  0.40659143505E+02  0.00000000000E+00 0. -1.
         11    1    4    4    0    0 -0.30217275004E+01 -0.52922993210E+01 -0.17833409136E+01  0.63497696230E+01  0.51100000000E-03 0. -1.
        -11    1    4    4    0    0 -0.40824612860E+01  0.17574429683E+01 -0.26462301146E+02  0.26832973711E+02  0.51100000000E-03 0.  1.
        -12    1    4    4    0    0  0.10346913507E+02  0.67924241156E+01 -0.12152859635E+02  0.17346113161E+02  0.00000000000E+00 0.  1.
</event>
<event>
 8    1  0.1338956E-013  0.9118800E+02  0.7816164E-02  0.1184000E+00
        -11   -1    0    0    0    0  0.00000000000E+00  0.00000000000E+00  0.45593999997E+02  0.45594000000E+02  0.51100000000E-03 0. -1.
         11   -1    0    0    0    0 -0.00000000000E+00 -0.00000000000E+00 -0.45593999997E+02  0.45594000000E+02  0.51100000000E-03 0.  1.
         23    2    1    2    0    0  0.35527136788E-14 -0.35527136788E-14  0.35527136788E-14  0.91188000000E+02  0.91188000000E+02 0.  0.
    9900012    2    3    3    0    0 -0.11804107950E+02  0.22931366361E+02  0.31432168497E+02  0.50528859034E+02  0.29999997520E+02 0.  0.
        -12    1    3    3    0    0  0.11804107950E+02 -0.22931366361E+02 -0.31432168497E+02  0.40659140966E+02  0.00000000000E+00 0.  1.
         11    1    4    4    0    0 -0.10304666114E+02  0.80622383393E+01  0.16044453223E+02  0.20702905841E+02  0.51100000000E-03 0. -1.
        -11    1    4    4    0    0 -0.10019912177E+02  0.23469959173E+01  0.76133600755E+01  0.12801182827E+02  0.51100000000E-03 0.  1.
         12    1    4    4    0    0  0.85204703413E+01  0.12522132104E+02  0.77743551988E+01  0.17024770366E+02  0.00000000000E+00 0. -1.
</event>
<event>
 8    1  0.1338956E-013  0.9118800E+02  0.7816164E-02  0.1184000E+00
        -11   -1    0    0    0    0  0.00000000000E+00  0.00000000000E+00  0.45593999997E+02  0.45594000000E+02  0.51100000000E-03 0. -1.
         11   -1    0    0    0    0 -0.00000000000E+00 -0.00000000000E+00 -0.45593999997E+02  0.45594000000E+02  0.51100000000E-03 0.  1.
         23    2    1    2    0    0 -0.35527136788E-14  0.53290705182E-14  0.14210854715E-13  0.91188000000E+02  0.91188000000E+02 0.  0.
    9900012    2    3    3    0    0  0.89605955478E+01 -0.11955441291E+02 -0.37814560845E+02  0.50528857598E+02  0.29999993154E+02 0.  0.
         12    1    3    3    0    0 -0.89605955478E+01  0.11955441291E+02  0.37814560845E+02  0.40659142402E+02  0.00000000000E+00 0. -1.
         11    1    4    4    0    0  0.10016169339E+02 -0.83284294996E+01 -0.10449350679E+02  0.16699560354E+02  0.51100000000E-03 0. -1.
        -11    1    4    4    0    0  0.37678004130E+00 -0.11102902953E+02 -0.10325981818E+02  0.15167146005E+02  0.51100000000E-03 0.  1.
        -12    1    4    4    0    0 -0.14323538321E+01  0.74758911617E+01 -0.17039228347E+02  0.18662151238E+02  0.00000000000E+00 0.  1.
</event>
<event>
 8    1  0.1338956E-013  0.9118800E+02  0.7816164E-02  0.1184000E+00
        -11   -1    0    0    0    0  0.00000000000E+00  0.00000000000E+00  0.45593999997E+02  0.45594000000E+02  0.51100000000E-03 0. -1.
         11   -1    0    0    0    0 -0.00000000000E+00 -0.00000000000E+00 -0.45593999997E+02  0.45594000000E+02  0.51100000000E-03 0.  1.
         23    2    1    2    0    0  0.88817841970E-15  0.17763568394E-14 -0.71054273576E-14  0.91188000000E+02  0.91188000000E+02 0.  0.
    9900012    2    3    3    0    0  0.77239908331E+01 -0.12300176276E+02  0.37976449504E+02  0.50528867106E+02  0.30000022055E+02 0.  0.
        -12    1    3    3    0    0 -0.77239908331E+01  0.12300176276E+02 -0.37976449504E+02  0.40659132894E+02  0.00000000000E+00 0.  1.
         11    1    4    4    0    0  0.31165456500E+01 -0.10684276600E+02  0.27274724424E+02  0.29458058591E+02  0.51100000000E-03 0. -1.
        -11    1    4    4    0    0  0.75302622787E+01 -0.72695392534E+01  0.10313988727E+02  0.14694536898E+02  0.51100000000E-03 0.  1.
         12    1    4    4    0    0 -0.29228170956E+01  0.56536395779E+01  0.38773635298E+00  0.63762716167E+01  0.00000000000E+00 0. -1.
</event>
<event>
 8    1  0.1338956E-013  0.9118800E+02  0.7816164E-02  0.1184000E+00
        -11   -1    0    0    0    0  0.00000000000E+00  0.00000000000E+00  0.45593999997E+02  0.45594000000E+02  0.51100000000E-03 0. -1.
         11   -1    0    0    0    0 -0.00000000000E+00 -0.00000000000E+00 -0.45593999997E+02  0.45594000000E+02  0.51100000000E-03 0.  1.
         23    2    1    2    0    0  0.00000000000E+00  0.35527136788E-14 -0.17763568394E-14  0.91188000000E+02  0.91188000000E+02 0.  0.
    9900012    2    3    3    0    0 -0.30105146346E+02 -0.25868203194E+02  0.88137417404E+01  0.50528858144E+02  0.29999994815E+02 0.  0.
        -12    1    3    3    0    0  0.30105146346E+02  0.25868203194E+02 -0.88137417404E+01  0.40659141856E+02  0.00000000000E+00 0.  1.
         11    1    4    4    0    0 -0.58540311799E+01 -0.19506165987E+02  0.40908766056E+01  0.20772468901E+02  0.51100000000E-03 0. -1.
        -11    1    4    4    0    0  0.21405853796E+00 -0.43746397501E+01  0.26594311682E+01  0.51240480482E+01  0.51100000000E-03 0.  1.
         12    1    4    4    0    0 -0.24465173704E+02 -0.19873974565E+01  0.20634339666E+01  0.24632341195E+02  0.00000000000E+00 0. -1.
</event>
<event>
 8    1  0.1338956E-013  0.9118800E+02  0.7816164E-02  0.1184000E+00
        -11   -1    0    0    0    0  0.00000000000E+00  0.00000000000E+00  0.45593999997E+02  0.45594000000E+02  0.51100000000E-03 0. -1.
         11   -1    0    0    0    0 -0.00000000000E+00 -0.00000000000E+00 -0.45593999997E+02  0.45594000000E+02  0.51100000000E-03 0.  1.
         23    2    1    2    0    0  0.00000000000E+00  0.00000000000E+00  0.35527136788E-14  0.91188000000E+02  0.91188000000E+02 0.  0.
    9900012    2    3    3    0    0  0.12473472256E+02 -0.25596511825E+02  0.29024069533E+02  0.50528861544E+02  0.30000005149E+02 0.  0.
        -12    1    3    3    0    0 -0.12473472256E+02  0.25596511825E+02 -0.29024069533E+02  0.40659138456E+02  0.00000000000E+00 0.  1.
         11    1    4    4    0    0  0.82515646510E+01 -0.40303907956E+01  0.10749116667E+02  0.14137746586E+02  0.51100000000E-03 0. -1.
        -11    1    4    4    0    0  0.61423692794E+01 -0.19875806601E+02  0.31369688792E+01  0.21038463880E+02  0.51100000000E-03 0.  1.
         12    1    4    4    0    0 -0.19204616742E+01 -0.16903144275E+01  0.15137983988E+02  0.15352651078E+02  0.00000000000E+00 0. -1.
</event>
<event>
 8    1  0.1338956E-013  0.9118800E+02  0.7816164E-02  0.1184000E+00
        -11   -1    0    0    0    0  0.00000000000E+00  0.00000000000E+00  0.45593999997E+02  0.45594000000E+02  0.51100000000E-03 0.  1.
         11   -1    0    0    0    0 -0.00000000000E+00 -0.00000000000E+00 -0.45593999997E+02  0.45594000000E+02  0.51100000000E-03 0. -1.
         23    2    1    2    0    0  0.00000000000E+00 -0.88817841970E-15  0.00000000000E+00  0.91188000000E+02  0.91188000000E+02 0.  0.
    9900012    2    3    3    0    0 -0.34647739001E+02  0.57394879371E+01 -0.20488000347E+02  0.50528859602E+02  0.29999999247E+02 0.  0.
         12    1    3    3    0    0  0.34647739001E+02 -0.57394879371E+01  0.20488000347E+02  0.40659140398E+02  0.00000000000E+00 0. -1.
         11    1    4    4    0    0 -0.11525207283E+02 -0.32459122339E+01  0.11805785632E+01  0.12031629780E+02  0.51100000000E-03 0. -1.
        -11    1    4    4    0    0 -0.84672545669E+01  0.21183720017E+01  0.27948555824E+01  0.91647759288E+01  0.51100000000E-03 0.  1.
         12    1    4    4    0    0 -0.14655277151E+02  0.68670281692E+01 -0.24463434492E+02  0.29332453893E+02  0.00000000000E+00 0. -1.
</event>
<event>
 8    1  0.1338956E-013  0.9118800E+02  0.7816164E-02  0.1184000E+00
        -11   -1    0    0    0    0  0.00000000000E+00  0.00000000000E+00  0.45593999997E+02  0.45594000000E+02  0.51100000000E-03 0. -1.
         11   -1    0    0    0    0 -0.00000000000E+00 -0.00000000000E+00 -0.45593999997E+02  0.45594000000E+02  0.51100000000E-03 0.  1.
         23    2    1    2    0    0 -0.71054273576E-14 -0.17763568394E-14  0.35527136788E-14  0.91188000000E+02  0.91188000000E+02 0.  0.
    9900012    2    3    3    0    0 -0.29072343065E+02 -0.10320153008E+02  0.26485079442E+02  0.50528854381E+02  0.29999983378E+02 0.  0.
        -12    1    3    3    0    0  0.29072343065E+02  0.10320153008E+02 -0.26485079442E+02  0.40659145619E+02  0.00000000000E+00 0.  1.
         11    1    4    4    0    0 -0.12311935639E+02 -0.13198119011E+02  0.70332039209E+01  0.19371114120E+02  0.51100000000E-03 0. -1.
        -11    1    4    4    0    0 -0.51401853834E+01 -0.12752406675E+01  0.17963807867E+02  0.18728217691E+02  0.51100000000E-03 0.  1.
         12    1    4    4    0    0 -0.11620222043E+02  0.41532066708E+01  0.14880676535E+01  0.12429522570E+02  0.00000000000E+00 0. -1.
</event>
<event>
 8    1  0.1338956E-013  0.9118800E+02  0.7816164E-02  0.1184000E+00
        -11   -1    0    0    0    0  0.00000000000E+00  0.00000000000E+00  0.45593999997E+02  0.45594000000E+02  0.51100000000E-03 0. -1.
         11   -1    0    0    0    0 -0.00000000000E+00 -0.00000000000E+00 -0.45593999997E+02  0.45594000000E+02  0.51100000000E-03 0.  1.
         23    2    1    2    0    0  0.00000000000E+00  0.17763568394E-14  0.00000000000E+00  0.91188000000E+02  0.91188000000E+02 0.  0.
    9900012    2    3    3    0    0  0.17830536431E+02  0.87941977546E+01 -0.35466885033E+02  0.50528857393E+02  0.29999992531E+02 0.  0.
         12    1    3    3    0    0 -0.17830536431E+02 -0.87941977546E+01  0.35466885033E+02  0.40659142607E+02  0.00000000000E+00 0. -1.
         11    1    4    4    0    0  0.82364247192E+01 -0.66992836639E+01 -0.72969124765E+01  0.12882702578E+02  0.51100000000E-03 0. -1.
        -11    1    4    4    0    0  0.91519877068E+01  0.15205763783E+00 -0.14188308777E+02  0.16884611536E+02  0.51100000000E-03 0.  1.
        -12    1    4    4    0    0  0.44212400508E+00  0.15341423781E+02 -0.13981663780E+02  0.20761543278E+02  0.00000000000E+00 0.  1.
</event>
<event>
 8    1  0.1338956E-013  0.9118800E+02  0.7816164E-02  0.1184000E+00
        -11   -1    0    0    0    0  0.00000000000E+00  0.00000000000E+00  0.45593999997E+02  0.45594000000E+02  0.51100000000E-03 0. -1.
         11   -1    0    0    0    0 -0.00000000000E+00 -0.00000000000E+00 -0.45593999997E+02  0.45594000000E+02  0.51100000000E-03 0.  1.
         23    2    1    2    0    0  0.00000000000E+00  0.00000000000E+00  0.00000000000E+00  0.91188000000E+02  0.91188000000E+02 0.  0.
    9900012    2    3    3    0    0 -0.24333048408E+01  0.20661248691E+02  0.34933609824E+02  0.50528864922E+02  0.30000015417E+02 0.  0.
        -12    1    3    3    0    0  0.24333048408E+01 -0.20661248691E+02 -0.34933609824E+02  0.40659135078E+02  0.00000000000E+00 0.  1.
         11    1    4    4    0    0 -0.52862193892E+01 -0.10454132011E+01  0.83817422556E+01  0.99644672558E+01  0.51100000000E-03 0. -1.
        -11    1    4    4    0    0 -0.67038819129E+01  0.23019379111E+01  0.13644116025E+02  0.15375397660E+02  0.51100000000E-03 0.  1.
        -12    1    4    4    0    0  0.95567964613E+01  0.19404723981E+02  0.12907751544E+02  0.25189000006E+02  0.00000000000E+00 0.  1.
</event>
<event>
 8    1  0.1338956E-013  0.9118800E+02  0.7816164E-02  0.1184000E+00
        -11   -1    0    0    0    0  0.00000000000E+00  0.00000000000E+00  0.45593999997E+02  0.45594000000E+02  0.51100000000E-03 0. -1.
         11   -1    0    0    0    0 -0.00000000000E+00 -0.00000000000E+00 -0.45593999997E+02  0.45594000000E+02  0.51100000000E-03 0.  1.
         23    2    1    2    0    0  0.00000000000E+00  0.35527136788E-14  0.35527136788E-14  0.91188000000E+02  0.91188000000E+02 0.  0.
    9900012    2    3    3    0    0  0.51264232239E+01 -0.27728954164E+02 -0.29291480944E+02  0.50528856256E+02  0.29999989075E+02 0.  0.
         12    1    3    3    0    0 -0.51264232239E+01  0.27728954164E+02  0.29291480944E+02  0.40659143744E+02  0.00000000000E+00 0. -1.
         11    1    4    4    0    0  0.52885936295E+01 -0.38625825349E+00 -0.40344094953E+01  0.66629481653E+01  0.51100000000E-03 0.  1.
        -11    1    4    4    0    0  0.60429746273E+01 -0.46979899866E+01  0.19793269935E+01  0.79060981444E+01  0.51100000000E-03 0. -1.
        -12    1    4    4    0    0 -0.62051450329E+01 -0.22644705924E+02 -0.27236398442E+02  0.35959809946E+02  0.00000000000E+00 0.  1.
</event>
<event>
 8    1  0.1338956E-013  0.9118800E+02  0.7816164E-02  0.1184000E+00
        -11   -1    0    0    0    0  0.00000000000E+00  0.00000000000E+00  0.45593999997E+02  0.45594000000E+02  0.51100000000E-03 0. -1.
         11   -1    0    0    0    0 -0.00000000000E+00 -0.00000000000E+00 -0.45593999997E+02  0.45594000000E+02  0.51100000000E-03 0.  1.
         23    2    1    2    0    0  0.44408920985E-15  0.35527136788E-14  0.00000000000E+00  0.91188000000E+02  0.91188000000E+02 0.  0.
    9900012    2    3    3    0    0 -0.39058574303E+01  0.17055431880E+02 -0.36701799607E+02  0.50528861134E+02  0.30000003904E+02 0.  0.
         12    1    3    3    0    0  0.39058574303E+01 -0.17055431880E+02  0.36701799607E+02  0.40659138866E+02  0.00000000000E+00 0. -1.
         11    1    4    4    0    0 -0.69658304155E+01 -0.27966725246E+01 -0.41704006441E+01  0.85869908805E+01  0.51100000000E-03 0. -1.
        -11    1    4    4    0    0 -0.38609949399E+01 -0.47360378669E-01 -0.94775524077E+00  0.39758980355E+01  0.51100000000E-03 0.  1.
        -12    1    4    4    0    0  0.69209679251E+01  0.19899464783E+02 -0.31583643723E+02  0.37965972218E+02  0.00000000000E+00 0.  1.
</event>
<event>
 8    1  0.1338956E-013  0.9118800E+02  0.7816164E-02  0.1184000E+00
        -11   -1    0    0    0    0  0.00000000000E+00  0.00000000000E+00  0.45593999997E+02  0.45594000000E+02  0.51100000000E-03 0. -1.
         11   -1    0    0    0    0 -0.00000000000E+00 -0.00000000000E+00 -0.45593999997E+02  0.45594000000E+02  0.51100000000E-03 0.  1.
         23    2    1    2    0    0  0.17763568394E-14 -0.35527136788E-14  0.00000000000E+00  0.91188000000E+02  0.91188000000E+02 0.  0.
    9900012    2    3    3    0    0 -0.13341667700E+02  0.29739220523E+02 -0.24305241094E+02  0.50528854916E+02  0.29999985002E+02 0.  0.
         12    1    3    3    0    0  0.13341667700E+02 -0.29739220523E+02  0.24305241094E+02  0.40659145084E+02  0.00000000000E+00 0. -1.
         11    1    4    4    0    0 -0.13074211254E+02  0.67137992260E+01 -0.88281320848E+01  0.17144853931E+02  0.51100000000E-03 0. -1.
        -11    1    4    4    0    0 -0.51497294888E+01  0.10786710994E+01 -0.82178546970E+01  0.97578881542E+01  0.51100000000E-03 0.  1.
         12    1    4    4    0    0  0.48822730427E+01  0.21946750198E+02 -0.72592543119E+01  0.23626112830E+02  0.00000000000E+00 0. -1.
</event>
<event>
 8    1  0.1338956E-013  0.9118800E+02  0.7816164E-02  0.1184000E+00
        -11   -1    0    0    0    0  0.00000000000E+00  0.00000000000E+00  0.45593999997E+02  0.45594000000E+02  0.51100000000E-03 0. -1.
         11   -1    0    0    0    0 -0.00000000000E+00 -0.00000000000E+00 -0.45593999997E+02  0.45594000000E+02  0.51100000000E-03 0.  1.
         23    2    1    2    0    0 -0.88817841970E-15 -0.88817841970E-15  0.00000000000E+00  0.91188000000E+02  0.91188000000E+02 0.  0.
    9900012    2    3    3    0    0  0.52326857079E+01 -0.76102293355E+01 -0.39596330478E+02  0.50528856163E+02  0.29999988792E+02 0.  0.
         12    1    3    3    0    0 -0.52326857079E+01  0.76102293355E+01  0.39596330478E+02  0.40659143837E+02  0.00000000000E+00 0. -1.
         11    1    4    4    0    0 -0.49633400853E+01 -0.45266596718E+01 -0.20213594177E+02  0.21300581739E+02  0.51100000000E-03 0. -1.
        -11    1    4    4    0    0  0.63000309564E+01  0.76468435399E+01 -0.12298592009E+02  0.15793035549E+02  0.51100000000E-03 0.  1.
         12    1    4    4    0    0  0.38959948368E+01 -0.10730413204E+02 -0.70841442914E+01  0.13435238875E+02  0.00000000000E+00 0. -1.
</event>
<event>
 8    1  0.1338956E-013  0.9118800E+02  0.7816164E-02  0.1184000E+00
        -11   -1    0    0    0    0  0.00000000000E+00  0.00000000000E+00  0.45593999997E+02  0.45594000000E+02  0.51100000000E-03 0. -1.
         11   -1    0    0    0    0 -0.00000000000E+00 -0.00000000000E+00 -0.45593999997E+02  0.45594000000E+02  0.51100000000E-03 0.  1.
         23    2    1    2    0    0 -0.35527136788E-14  0.17763568394E-14  0.00000000000E+00  0.91188000000E+02  0.91188000000E+02 0.  0.
    9900012    2    3    3    0    0 -0.25938858869E+02  0.12705359167E+02 -0.28616690505E+02  0.50528861710E+02  0.30000005655E+02 0.  0.
         12    1    3    3    0    0  0.25938858869E+02 -0.12705359167E+02  0.28616690505E+02  0.40659138290E+02  0.00000000000E+00 0. -1.
         11    1    4    4    0    0  0.45194334276E+00  0.30557455401E+01  0.33323353353E+01  0.45438191689E+01  0.51100000000E-03 0. -1.
        -11    1    4    4    0    0  0.26050365412E+01  0.10791925935E+01 -0.31673464340E+01  0.42406315248E+01  0.51100000000E-03 0.  1.
        -12    1    4    4    0    0 -0.28995838753E+02  0.85704210331E+01 -0.28781679407E+02  0.41744411017E+02  0.00000000000E+00 0.  1.
</event>
<event>
 8    1  0.1338956E-013  0.9118800E+02  0.7816164E-02  0.1184000E+00
        -11   -1    0    0    0    0  0.00000000000E+00  0.00000000000E+00  0.45593999997E+02  0.45594000000E+02  0.51100000000E-03 0. -1.
         11   -1    0    0    0    0 -0.00000000000E+00 -0.00000000000E+00 -0.45593999997E+02  0.45594000000E+02  0.51100000000E-03 0.  1.
         23    2    1    2    0    0  0.35527136788E-14  0.17763568394E-14 -0.35527136788E-14  0.91188000000E+02  0.91188000000E+02 0.  0.
    9900012    2    3    3    0    0 -0.22481335662E+02 -0.12942415853E+02  0.31308928182E+02  0.50528861234E+02  0.30000004207E+02 0.  0.
        -12    1    3    3    0    0  0.22481335662E+02  0.12942415853E+02 -0.31308928182E+02  0.40659138766E+02  0.00000000000E+00 0.  1.
         11    1    4    4    0    0 -0.13834496364E+02 -0.71022786942E+01  0.15048593807E+02  0.21640143902E+02  0.51100000000E-03 0. -1.
        -11    1    4    4    0    0  0.49947069651E+00 -0.11522528915E+02  0.13533069665E+02  0.17780948186E+02  0.51100000000E-03 0.  1.
         12    1    4    4    0    0 -0.91463099948E+01  0.56823917566E+01  0.27272647106E+01  0.11107769146E+02  0.00000000000E+00 0. -1.
</event>
<event>
 8    1  0.1338956E-013  0.9118800E+02  0.7816164E-02  0.1184000E+00
        -11   -1    0    0    0    0  0.00000000000E+00  0.00000000000E+00  0.45593999997E+02  0.45594000000E+02  0.51100000000E-03 0. -1.
         11   -1    0    0    0    0 -0.00000000000E+00 -0.00000000000E+00 -0.45593999997E+02  0.45594000000E+02  0.51100000000E-03 0.  1.
         23    2    1    2    0    0  0.71054273576E-14  0.00000000000E+00 -0.35527136788E-14  0.91188000000E+02  0.91188000000E+02 0.  0.
    9900012    2    3    3    0    0 -0.33027027878E+02  0.33663895855E+01  0.23474420038E+02  0.50528861477E+02  0.30000004945E+02 0.  0.
        -12    1    3    3    0    0  0.33027027878E+02 -0.33663895855E+01 -0.23474420038E+02  0.40659138523E+02  0.00000000000E+00 0.  1.
         11    1    4    4    0    0 -0.69418548469E+01 -0.10520884646E+01  0.35112420186E+01  0.78501630319E+01  0.51100000000E-03 0. -1.
        -11    1    4    4    0    0 -0.14849703677E+02 -0.30330179065E+01 -0.35574415331E+01  0.15568181893E+02  0.51100000000E-03 0.  1.
        -12    1    4    4    0    0 -0.11235469354E+02  0.74514959567E+01  0.23520619553E+02  0.27110516552E+02  0.00000000000E+00 0.  1.
</event>
<event>
 8    1  0.1338956E-013  0.9118800E+02  0.7816164E-02  0.1184000E+00
        -11   -1    0    0    0    0  0.00000000000E+00  0.00000000000E+00  0.45593999997E+02  0.45594000000E+02  0.51100000000E-03 0. -1.
         11   -1    0    0    0    0 -0.00000000000E+00 -0.00000000000E+00 -0.45593999997E+02  0.45594000000E+02  0.51100000000E-03 0.  1.
         23    2    1    2    0    0  0.00000000000E+00  0.00000000000E+00  0.00000000000E+00  0.91188000000E+02  0.91188000000E+02 0.  0.
    9900012    2    3    3    0    0 -0.19701529991E+02  0.33165959895E+02  0.12846158275E+02  0.50528991623E+02  0.30000400536E+02 0.  0.
        -12    1    3    3    0    0  0.19701529991E+02 -0.33165959895E+02 -0.12846158275E+02  0.40659008377E+02  0.00000000000E+00 0.  1.
         11    1    4    4    0    0  0.37216794659E+01  0.13491113955E+02 -0.33885469142E+00  0.13999138422E+02  0.51100000000E-03 0. -1.
        -11    1    4    4    0    0 -0.14707073800E+02  0.13987618739E+02  0.74475444115E+00  0.20310247590E+02  0.51100000000E-03 0.  1.
         12    1    4    4    0    0 -0.87161356567E+01  0.56872272014E+01  0.12440258525E+02  0.16219605611E+02  0.00000000000E+00 0. -1.
</event>
<event>
 8    1  0.1338956E-013  0.9118800E+02  0.7816164E-02  0.1184000E+00
        -11   -1    0    0    0    0  0.00000000000E+00  0.00000000000E+00  0.45593999997E+02  0.45594000000E+02  0.51100000000E-03 0. -1.
         11   -1    0    0    0    0 -0.00000000000E+00 -0.00000000000E+00 -0.45593999997E+02  0.45594000000E+02  0.51100000000E-03 0.  1.
         23    2    1    2    0    0  0.00000000000E+00 -0.71054273576E-14  0.00000000000E+00  0.91188000000E+02  0.91188000000E+02 0.  0.
    9900012    2    3    3    0    0  0.41223419424E+01 -0.40411211191E+02 -0.17623538907E+01  0.50528860999E+02  0.30000003494E+02 0.  0.
        -12    1    3    3    0    0 -0.41223419424E+01  0.40411211191E+02  0.17623538907E+01  0.40659139001E+02  0.00000000000E+00 0.  1.
         11    1    4    4    0    0  0.25961101679E+01 -0.27184522316E+02  0.25994721444E+01  0.27431647731E+02  0.51100000000E-03 0. -1.
        -11    1    4    4    0    0  0.81446971334E+01 -0.11910962554E+02  0.10207589934E+01  0.14465443980E+02  0.51100000000E-03 0.  1.
        -12    1    4    4    0    0 -0.66184653589E+01 -0.13157263216E+01 -0.53825850284E+01  0.86317692884E+01  0.00000000000E+00 0.  1.
</event>
<event>
 8    1  0.1338956E-013  0.9118800E+02  0.7816164E-02  0.1184000E+00
        -11   -1    0    0    0    0  0.00000000000E+00  0.00000000000E+00  0.45593999997E+02  0.45594000000E+02  0.51100000000E-03 0. -1.
         11   -1    0    0    0    0 -0.00000000000E+00 -0.00000000000E+00 -0.45593999997E+02  0.45594000000E+02  0.51100000000E-03 0.  1.
         23    2    1    2    0    0  0.17763568394E-14  0.00000000000E+00  0.00000000000E+00  0.91188000000E+02  0.91188000000E+02 0.  0.
    9900012    2    3    3    0    0  0.15137212336E+02 -0.18356608223E+01 -0.37691658777E+02  0.50528856018E+02  0.29999988353E+02 0.  0.
         12    1    3    3    0    0 -0.15137212336E+02  0.18356608223E+01  0.37691658777E+02  0.40659143982E+02  0.00000000000E+00 0. -1.
         11    1    4    4    0    0 -0.19273025446E+01 -0.30551184409E+01 -0.12865882183E+02  0.13363351690E+02  0.51100000000E-03 0. -1.
        -11    1    4    4    0    0 -0.50028568656E+01  0.90106051402E+00 -0.77176459060E+01  0.92413497639E+01  0.51100000000E-03 0.  1.
         12    1    4    4    0    0  0.22067371746E+02  0.31839710461E+00 -0.17108130689E+02  0.27924154565E+02  0.00000000000E+00 0. -1.
</event>
<event>
 8    1  0.1338956E-013  0.9118800E+02  0.7816164E-02  0.1184000E+00
        -11   -1    0    0    0    0  0.00000000000E+00  0.00000000000E+00  0.45593999997E+02  0.45594000000E+02  0.51100000000E-03 0. -1.
         11   -1    0    0    0    0 -0.00000000000E+00 -0.00000000000E+00 -0.45593999997E+02  0.45594000000E+02  0.51100000000E-03 0.  1.
         23    2    1    2    0    0 -0.44408920985E-15  0.88817841970E-15  0.71054273576E-14  0.91188000000E+02  0.91188000000E+02 0.  0.
    9900012    2    3    3    0    0  0.11467371612E+01  0.45999041161E+01  0.40381812362E+02  0.50528869493E+02  0.30000029310E+02 0.  0.
        -12    1    3    3    0    0 -0.11467371612E+01 -0.45999041161E+01 -0.40381812362E+02  0.40659130507E+02  0.00000000000E+00 0.  1.
         11    1    4    4    0    0  0.40911070779E+01 -0.34845292553E+00 -0.93217275832E+00  0.42104064978E+01  0.51100000000E-03 0.  1.
        -11    1    4    4    0    0  0.54643509021E+01 -0.42841566248E+00  0.32634553121E+02  0.33091641368E+02  0.51100000000E-03 0. -1.
         12    1    4    4    0    0 -0.84087208189E+01  0.53767727041E+01  0.86794319990E+01  0.13226821627E+02  0.00000000000E+00 0. -1.
</event>
<event>
 8    1  0.1338956E-013  0.9118800E+02  0.7816164E-02  0.1184000E+00
        -11   -1    0    0    0    0  0.00000000000E+00  0.00000000000E+00  0.45593999997E+02  0.45594000000E+02  0.51100000000E-03 0. -1.
         11   -1    0    0    0    0 -0.00000000000E+00 -0.00000000000E+00 -0.45593999997E+02  0.45594000000E+02  0.51100000000E-03 0.  1.
         23    2    1    2    0    0 -0.35527136788E-14  0.00000000000E+00  0.00000000000E+00  0.91188000000E+02  0.91188000000E+02 0.  0.
    9900012    2    3    3    0    0  0.18182851375E+02  0.14008790105E+02  0.33560439134E+02  0.50528863767E+02  0.30000011906E+02 0.  0.
        -12    1    3    3    0    0 -0.18182851375E+02 -0.14008790105E+02 -0.33560439134E+02  0.40659136233E+02  0.00000000000E+00 0.  1.
         11    1    4    4    0    0  0.17545000785E+01  0.76303177542E+00 -0.65193379241E+00  0.20212634530E+01  0.51100000000E-03 0. -1.
        -11    1    4    4    0    0  0.46755027857E+01  0.66743747180E+01 -0.31930867168E+01  0.87523372431E+01  0.51100000000E-03 0.  1.
         12    1    4    4    0    0  0.11752848510E+02  0.65713836116E+01  0.37405459644E+02  0.39755263071E+02  0.00000000000E+00 0. -1.
</event>
<event>
 8    1  0.1338956E-013  0.9118800E+02  0.7816164E-02  0.1184000E+00
        -11   -1    0    0    0    0  0.00000000000E+00  0.00000000000E+00  0.45593999997E+02  0.45594000000E+02  0.51100000000E-03 0.  1.
         11   -1    0    0    0    0 -0.00000000000E+00 -0.00000000000E+00 -0.45593999997E+02  0.45594000000E+02  0.51100000000E-03 0. -1.
         23    2    1    2    0    0  0.17763568394E-14  0.00000000000E+00  0.00000000000E+00  0.91188000000E+02  0.91188000000E+02 0.  0.
    9900012    2    3    3    0    0  0.71193307026E+01 -0.38301558279E+02 -0.11639233775E+02  0.50528855897E+02  0.29999987985E+02 0.  0.
         12    1    3    3    0    0 -0.71193307026E+01  0.38301558279E+02  0.11639233775E+02  0.40659144103E+02  0.00000000000E+00 0. -1.
         11    1    4    4    0    0 -0.27100068036E+01 -0.21520808599E+01  0.32416149963E+01  0.47416934685E+01  0.51100000000E-03 0. -1.
        -11    1    4    4    0    0  0.74596471197E+01 -0.23921495174E+02  0.16236685530E+01  0.25110168584E+02  0.51100000000E-03 0.  1.
        -12    1    4    4    0    0  0.23696903865E+01 -0.12227982246E+02 -0.16504517325E+02  0.20676993845E+02  0.00000000000E+00 0.  1.
</event>
<event>
 8    1  0.1338956E-013  0.9118800E+02  0.7816164E-02  0.1184000E+00
        -11   -1    0    0    0    0  0.00000000000E+00  0.00000000000E+00  0.45593999997E+02  0.45594000000E+02  0.51100000000E-03 0.  1.
         11   -1    0    0    0    0 -0.00000000000E+00 -0.00000000000E+00 -0.45593999997E+02  0.45594000000E+02  0.51100000000E-03 0. -1.
         23    2    1    2    0    0  0.17763568394E-14 -0.35527136788E-14  0.35527136788E-14  0.91188000000E+02  0.91188000000E+02 0.  0.
    9900012    2    3    3    0    0 -0.84210092323E+01  0.31241189487E+02 -0.24621948185E+02  0.50528860198E+02  0.30000001057E+02 0.  0.
         12    1    3    3    0    0  0.84210092323E+01 -0.31241189487E+02  0.24621948185E+02  0.40659139802E+02  0.00000000000E+00 0. -1.
         11    1    4    4    0    0  0.31070494025E+01  0.64708607639E+00 -0.11947127267E+02  0.12361485613E+02  0.51100000000E-03 0. -1.
        -11    1    4    4    0    0 -0.12537304788E+02  0.16306795674E+02 -0.12032297560E+02  0.23830060456E+02  0.51100000000E-03 0.  1.
        -12    1    4    4    0    0  0.10092461537E+01  0.14287307736E+02 -0.64252335832E+00  0.14337314128E+02  0.00000000000E+00 0.  1.
</event>
<event>
 8    1  0.1338956E-013  0.9118800E+02  0.7816164E-02  0.1184000E+00
        -11   -1    0    0    0    0  0.00000000000E+00  0.00000000000E+00  0.45593999997E+02  0.45594000000E+02  0.51100000000E-03 0. -1.
         11   -1    0    0    0    0 -0.00000000000E+00 -0.00000000000E+00 -0.45593999997E+02  0.45594000000E+02  0.51100000000E-03 0.  1.
         23    2    1    2    0    0  0.00000000000E+00  0.00000000000E+00  0.71054273576E-14  0.91188000000E+02  0.91188000000E+02 0.  0.
    9900012    2    3    3    0    0 -0.57872666482E+00 -0.83154873995E+01  0.39795508129E+02  0.50528871597E+02  0.30000035707E+02 0.  0.
        -12    1    3    3    0    0  0.57872666482E+00  0.83154873995E+01 -0.39795508129E+02  0.40659128403E+02  0.00000000000E+00 0.  1.
         11    1    4    4    0    0  0.95575398395E+00  0.21692866747E+01  0.40076981721E+01  0.46562769736E+01  0.51100000000E-03 0. -1.
        -11    1    4    4    0    0 -0.85468064385E+01  0.21410689562E+01  0.18689030615E+01  0.90069348553E+01  0.51100000000E-03 0.  1.
         12    1    4    4    0    0  0.70123257898E+01 -0.12625843030E+02  0.33918906895E+02  0.36865659768E+02  0.00000000000E+00 0. -1.
</event>
<event>
 8    1  0.1338956E-013  0.9118800E+02  0.7816164E-02  0.1184000E+00
        -11   -1    0    0    0    0  0.00000000000E+00  0.00000000000E+00  0.45593999997E+02  0.45594000000E+02  0.51100000000E-03 0. -1.
         11   -1    0    0    0    0 -0.00000000000E+00 -0.00000000000E+00 -0.45593999997E+02  0.45594000000E+02  0.51100000000E-03 0.  1.
         23    2    1    2    0    0  0.00000000000E+00  0.17763568394E-14  0.00000000000E+00  0.91188000000E+02  0.91188000000E+02 0.  0.
    9900012    2    3    3    0    0  0.29518856695E+02  0.15204534799E+02  0.23465372753E+02  0.50528874364E+02  0.30000044117E+02 0.  0.
        -12    1    3    3    0    0 -0.29518856695E+02 -0.15204534799E+02 -0.23465372753E+02  0.40659125636E+02  0.00000000000E+00 0.  1.
         11    1    4    4    0    0  0.13492528477E+02  0.92528243560E+01  0.14125847713E+02  0.21614871203E+02  0.51100000000E-03 0. -1.
        -11    1    4    4    0    0  0.20671614116E+02  0.80573842768E+01  0.67285036252E+01  0.23184258298E+02  0.51100000000E-03 0.  1.
        -12    1    4    4    0    0 -0.46452858972E+01 -0.21056738339E+01  0.26110214146E+01  0.57297448625E+01  0.00000000000E+00 0.  1.
</event>
<event>
 8    1  0.1338956E-013  0.9118800E+02  0.7816164E-02  0.1184000E+00
        -11   -1    0    0    0    0  0.00000000000E+00  0.00000000000E+00  0.45593999997E+02  0.45594000000E+02  0.51100000000E-03 0. -1.
         11   -1    0    0    0    0 -0.00000000000E+00 -0.00000000000E+00 -0.45593999997E+02  0.45594000000E+02  0.51100000000E-03 0.  1.
         23    2    1    2    0    0  0.35527136788E-14  0.44408920985E-15  0.35527136788E-14  0.91188000000E+02  0.91188000000E+02 0.  0.
    9900012    2    3    3    0    0  0.27170958560E+02 -0.26020322297E+01  0.30135226781E+02  0.50528887197E+02  0.30000083123E+02 0.  0.
        -12    1    3    3    0    0 -0.27170958560E+02  0.26020322297E+01 -0.30135226781E+02  0.40659112803E+02  0.00000000000E+00 0.  1.
         11    1    4    4    0    0  0.12071743739E+02  0.30094468105E+00  0.24317999654E+02  0.27151108118E+02  0.51100000000E-03 0. -1.
        -11    1    4    4    0    0  0.11727990876E+02  0.34144930840E+01  0.93598515173E+01  0.15388676152E+02  0.51100000000E-03 0.  1.
         12    1    4    4    0    0  0.33712239441E+01 -0.63174699948E+01 -0.35426243897E+01  0.79891029272E+01  0.00000000000E+00 0. -1.
</event>
<event>
 8    1  0.1338956E-013  0.9118800E+02  0.7816164E-02  0.1184000E+00
        -11   -1    0    0    0    0  0.00000000000E+00  0.00000000000E+00  0.45593999997E+02  0.45594000000E+02  0.51100000000E-03 0. -1.
         11   -1    0    0    0    0 -0.00000000000E+00 -0.00000000000E+00 -0.45593999997E+02  0.45594000000E+02  0.51100000000E-03 0.  1.
         23    2    1    2    0    0  0.00000000000E+00  0.00000000000E+00  0.00000000000E+00  0.91188000000E+02  0.91188000000E+02 0.  0.
    9900012    2    3    3    0    0  0.36324736763E+01 -0.25438823604E+02  0.31509304820E+02  0.50528869394E+02  0.30000029011E+02 0.  0.
        -12    1    3    3    0    0 -0.36324736763E+01  0.25438823604E+02 -0.31509304820E+02  0.40659130606E+02  0.00000000000E+00 0.  1.
         11    1    4    4    0    0  0.26493063490E+01 -0.12548895379E+01  0.18567159901E+02  0.18797154011E+02  0.51100000000E-03 0. -1.
        -11    1    4    4    0    0  0.45092935840E+01 -0.14498713577E+01  0.61135513089E+01  0.77337807991E+01  0.51100000000E-03 0.  1.
        -12    1    4    4    0    0 -0.35261262568E+01 -0.22734062708E+02  0.68285936109E+01  0.23997934584E+02  0.00000000000E+00 0.  1.
</event>
<event>
 8    1  0.1338956E-013  0.9118800E+02  0.7816164E-02  0.1184000E+00
        -11   -1    0    0    0    0  0.00000000000E+00  0.00000000000E+00  0.45593999997E+02  0.45594000000E+02  0.51100000000E-03 0. -1.
         11   -1    0    0    0    0 -0.00000000000E+00 -0.00000000000E+00 -0.45593999997E+02  0.45594000000E+02  0.51100000000E-03 0.  1.
         23    2    1    2    0    0  0.44408920985E-15  0.00000000000E+00  0.00000000000E+00  0.91188000000E+02  0.91188000000E+02 0.  0.
    9900012    2    3    3    0    0  0.36284057547E+01 -0.87974382211E+01  0.39529800269E+02  0.50528863796E+02  0.30000011994E+02 0.  0.
        -12    1    3    3    0    0 -0.36284057547E+01  0.87974382211E+01 -0.39529800269E+02  0.40659136204E+02  0.00000000000E+00 0.  1.
         11    1    4    4    0    0  0.18077218068E+01 -0.32896834387E+01  0.57819200029E+01  0.68935095879E+01  0.51100000000E-03 0. -1.
        -11    1    4    4    0    0  0.75558560738E+01  0.23604311375E+00 -0.12906719635E+01  0.76689315904E+01  0.51100000000E-03 0.  1.
         12    1    4    4    0    0 -0.57351721258E+01 -0.57437978962E+01  0.35038552229E+02  0.35966422618E+02  0.00000000000E+00 0. -1.
</event>
<event>
 8    1  0.1338956E-013  0.9118800E+02  0.7816164E-02  0.1184000E+00
        -11   -1    0    0    0    0  0.00000000000E+00  0.00000000000E+00  0.45593999997E+02  0.45594000000E+02  0.51100000000E-03 0. -1.
         11   -1    0    0    0    0 -0.00000000000E+00 -0.00000000000E+00 -0.45593999997E+02  0.45594000000E+02  0.51100000000E-03 0.  1.
         23    2    1    2    0    0  0.00000000000E+00  0.00000000000E+00 -0.35527136788E-14  0.91188000000E+02  0.91188000000E+02 0.  0.
    9900012    2    3    3    0    0  0.20510495814E+02 -0.15151203287E+02 -0.31669166465E+02  0.50528739011E+02  0.29999632696E+02 0.  0.
         12    1    3    3    0    0 -0.20510495814E+02  0.15151203287E+02  0.31669166465E+02  0.40659260989E+02  0.00000000000E+00 0. -1.
         11    1    4    4    0    0 -0.16545161531E+01  0.65789300796E+00  0.16913109792E+01  0.24557646468E+01  0.51100000000E-03 0. -1.
        -11    1    4    4    0    0  0.18100129651E+02 -0.10257643310E+02 -0.88389935170E+01  0.22604462974E+02  0.51100000000E-03 0.  1.
        -12    1    4    4    0    0  0.40648823159E+01 -0.55514529848E+01 -0.24521483927E+02  0.25468511391E+02  0.00000000000E+00 0.  1.
</event>
<event>
 8    1  0.1338956E-013  0.9118800E+02  0.7816164E-02  0.1184000E+00
        -11   -1    0    0    0    0  0.00000000000E+00  0.00000000000E+00  0.45593999997E+02  0.45594000000E+02  0.51100000000E-03 0. -1.
         11   -1    0    0    0    0 -0.00000000000E+00 -0.00000000000E+00 -0.45593999997E+02  0.45594000000E+02  0.51100000000E-03 0.  1.
         23    2    1    2    0    0 -0.35527136788E-14  0.17763568394E-14  0.00000000000E+00  0.91188000000E+02  0.91188000000E+02 0.  0.
    9900012    2    3    3    0    0  0.90855745042E+01 -0.10142683180E+02 -0.38311144587E+02  0.50528862211E+02  0.30000007177E+02 0.  0.
         12    1    3    3    0    0 -0.90855745042E+01  0.10142683180E+02  0.38311144587E+02  0.40659137789E+02  0.00000000000E+00 0. -1.
         11    1    4    4    0    0  0.17368321874E+01  0.30266281608E-01 -0.41936251947E+01  0.45391623269E+01  0.51100000000E-03 0. -1.
        -11    1    4    4    0    0  0.92319632495E+01  0.31269115398E+00 -0.34107565358E+02  0.35336283564E+02  0.51100000000E-03 0.  1.
         12    1    4    4    0    0 -0.18832209328E+01 -0.10485640616E+02 -0.99540340049E-02  0.10653416320E+02  0.00000000000E+00 0. -1.
</event>
<event>
 8    1  0.1338956E-013  0.9118800E+02  0.7816164E-02  0.1184000E+00
        -11   -1    0    0    0    0  0.00000000000E+00  0.00000000000E+00  0.45593999997E+02  0.45594000000E+02  0.51100000000E-03 0.  1.
         11   -1    0    0    0    0 -0.00000000000E+00 -0.00000000000E+00 -0.45593999997E+02  0.45594000000E+02  0.51100000000E-03 0. -1.
         23    2    1    2    0    0  0.35527136788E-14  0.00000000000E+00  0.00000000000E+00  0.91188000000E+02  0.91188000000E+02 0.  0.
    9900012    2    3    3    0    0 -0.28419372775E+02  0.24681280792E+02  0.15373014649E+02  0.50528979477E+02  0.30000363616E+02 0.  0.
         12    1    3    3    0    0  0.28419372775E+02 -0.24681280792E+02 -0.15373014649E+02  0.40659020523E+02  0.00000000000E+00 0. -1.
         11    1    4    4    0    0 -0.10834785808E+02  0.98161759230E+01  0.13997049929E+02  0.20240239629E+02  0.51100000000E-03 0. -1.
        -11    1    4    4    0    0  0.37838123685E+01  0.55084707201E+01 -0.13016521990E+01  0.68084347997E+01  0.51100000000E-03 0.  1.
         12    1    4    4    0    0 -0.21368399336E+02  0.93566341494E+01  0.26776169186E+01  0.23480305048E+02  0.00000000000E+00 0. -1.
</event>
<event>
 8    1  0.1338956E-013  0.9118800E+02  0.7816164E-02  0.1184000E+00
        -11   -1    0    0    0    0  0.00000000000E+00  0.00000000000E+00  0.45593999997E+02  0.45594000000E+02  0.51100000000E-03 0. -1.
         11   -1    0    0    0    0 -0.00000000000E+00 -0.00000000000E+00 -0.45593999997E+02  0.45594000000E+02  0.51100000000E-03 0.  1.
         23    2    1    2    0    0  0.00000000000E+00  0.44408920985E-15  0.35527136788E-14  0.91188000000E+02  0.91188000000E+02 0.  0.
    9900012    2    3    3    0    0 -0.34105834189E+02  0.24118754746E+01  0.22003198656E+02  0.50528858099E+02  0.29999994676E+02 0.  0.
        -12    1    3    3    0    0  0.34105834189E+02 -0.24118754746E+01 -0.22003198656E+02  0.40659141901E+02  0.00000000000E+00 0.  1.
         11    1    4    4    0    0 -0.20304290937E+02 -0.17122025125E+00  0.12053770293E+01  0.20340759103E+02  0.51100000000E-03 0.  1.
        -11    1    4    4    0    0 -0.13197302328E+02 -0.50347828426E+01  0.11994532470E+02  0.18530694441E+02  0.51100000000E-03 0. -1.
        -12    1    4    4    0    0 -0.60424092368E+00  0.76178785684E+01  0.88032891566E+01  0.11657404555E+02  0.00000000000E+00 0.  1.
</event>
<event>
 8    1  0.1338956E-013  0.9118800E+02  0.7816164E-02  0.1184000E+00
        -11   -1    0    0    0    0  0.00000000000E+00  0.00000000000E+00  0.45593999997E+02  0.45594000000E+02  0.51100000000E-03 0.  1.
         11   -1    0    0    0    0 -0.00000000000E+00 -0.00000000000E+00 -0.45593999997E+02  0.45594000000E+02  0.51100000000E-03 0. -1.
         23    2    1    2    0    0 -0.71054273576E-14  0.35527136788E-14  0.13322676296E-14  0.91188000000E+02  0.91188000000E+02 0.  0.
    9900012    2    3    3    0    0  0.36523499001E+02 -0.17838936772E+02  0.98589743748E+00  0.50528860336E+02  0.30000001477E+02 0.  0.
         12    1    3    3    0    0 -0.36523499001E+02  0.17838936772E+02 -0.98589743748E+00  0.40659139664E+02  0.00000000000E+00 0. -1.
         11    1    4    4    0    0  0.20220671835E+02 -0.31923359324E+01 -0.37839731442E+01  0.20817901700E+02  0.51100000000E-03 0. -1.
        -11    1    4    4    0    0  0.15857295155E+02 -0.61539898507E+01  0.99959061676E+01  0.19729255969E+02  0.51100000000E-03 0.  1.
        -12    1    4    4    0    0  0.44553201130E+00 -0.84926109894E+01 -0.52260355859E+01  0.99817026671E+01  0.00000000000E+00 0.  1.
</event>
<event>
 8    1  0.1338956E-013  0.9118800E+02  0.7816164E-02  0.1184000E+00
        -11   -1    0    0    0    0  0.00000000000E+00  0.00000000000E+00  0.45593999997E+02  0.45594000000E+02  0.51100000000E-03 0. -1.
         11   -1    0    0    0    0 -0.00000000000E+00 -0.00000000000E+00 -0.45593999997E+02  0.45594000000E+02  0.51100000000E-03 0.  1.
         23    2    1    2    0    0 -0.71054273576E-14  0.17763568394E-14  0.00000000000E+00  0.91188000000E+02  0.91188000000E+02 0.  0.
    9900012    2    3    3    0    0  0.37302101171E+02 -0.82031535737E+01  0.13943718969E+02  0.50528858604E+02  0.29999996213E+02 0.  0.
        -12    1    3    3    0    0 -0.37302101171E+02  0.82031535737E+01 -0.13943718969E+02  0.40659141396E+02  0.00000000000E+00 0.  1.
         11    1    4    4    0    0  0.12830272335E+02 -0.89674995562E+01  0.40781564064E+01  0.16176009904E+02  0.51100000000E-03 0.  1.
        -11    1    4    4    0    0  0.24742487724E+02 -0.58204165323E+01  0.44104003437E+01  0.25797666151E+02  0.51100000000E-03 0. -1.
        -12    1    4    4    0    0 -0.27065888790E+00  0.65847625148E+01  0.54551622188E+01  0.85551825488E+01  0.00000000000E+00 0.  1.
</event>
<event>
 8    1  0.1338956E-013  0.9118800E+02  0.7816164E-02  0.1184000E+00
        -11   -1    0    0    0    0  0.00000000000E+00  0.00000000000E+00  0.45593999997E+02  0.45594000000E+02  0.51100000000E-03 0. -1.
         11   -1    0    0    0    0 -0.00000000000E+00 -0.00000000000E+00 -0.45593999997E+02  0.45594000000E+02  0.51100000000E-03 0.  1.
         23    2    1    2    0    0  0.00000000000E+00  0.17763568394E-14 -0.71054273576E-14  0.91188000000E+02  0.91188000000E+02 0.  0.
    9900012    2    3    3    0    0  0.13640623302E+02  0.14848258866E+02  0.35307618214E+02  0.50528864503E+02  0.30000014142E+02 0.  0.
        -12    1    3    3    0    0 -0.13640623302E+02 -0.14848258866E+02 -0.35307618214E+02  0.40659135497E+02  0.00000000000E+00 0.  1.
         11    1    4    4    0    0  0.82789815687E+00  0.84302559132E+01  0.18360606014E+01  0.86675111141E+01  0.51100000000E-03 0.  1.
        -11    1    4    4    0    0  0.94289983822E+01  0.83738966891E+01  0.35344935197E+02  0.37527224792E+02  0.51100000000E-03 0. -1.
         12    1    4    4    0    0  0.33837267629E+01 -0.19558937364E+01 -0.18733775845E+01  0.43341285962E+01  0.00000000000E+00 0. -1.
</event>
<event>
 8    1  0.1338956E-013  0.9118800E+02  0.7816164E-02  0.1184000E+00
        -11   -1    0    0    0    0  0.00000000000E+00  0.00000000000E+00  0.45593999997E+02  0.45594000000E+02  0.51100000000E-03 0. -1.
         11   -1    0    0    0    0 -0.00000000000E+00 -0.00000000000E+00 -0.45593999997E+02  0.45594000000E+02  0.51100000000E-03 0.  1.
         23    2    1    2    0    0  0.35527136788E-14  0.00000000000E+00  0.71054273576E-14  0.91188000000E+02  0.91188000000E+02 0.  0.
    9900012    2    3    3    0    0  0.19947169610E+02 -0.18438289748E+01 -0.35381864220E+02  0.50528860850E+02  0.30000003040E+02 0.  0.
         12    1    3    3    0    0 -0.19947169610E+02  0.18438289748E+01  0.35381864220E+02  0.40659139150E+02  0.00000000000E+00 0. -1.
         11    1    4    4    0    0  0.17880754336E+02  0.52619959315E+01 -0.28508368245E+02  0.34060784445E+02  0.51100000000E-03 0. -1.
        -11    1    4    4    0    0  0.26690233604E+01 -0.65034123850E+01 -0.10559168100E+02  0.12685191744E+02  0.51100000000E-03 0.  1.
         12    1    4    4    0    0 -0.60260808574E+00 -0.60241252133E+00  0.36856721248E+01  0.37828846615E+01  0.00000000000E+00 0. -1.
</event>
<event>
 8    1  0.1338956E-013  0.9118800E+02  0.7816164E-02  0.1184000E+00
        -11   -1    0    0    0    0  0.00000000000E+00  0.00000000000E+00  0.45593999997E+02  0.45594000000E+02  0.51100000000E-03 0. -1.
         11   -1    0    0    0    0 -0.00000000000E+00 -0.00000000000E+00 -0.45593999997E+02  0.45594000000E+02  0.51100000000E-03 0.  1.
         23    2    1    2    0    0 -0.35527136788E-14  0.00000000000E+00  0.00000000000E+00  0.91188000000E+02  0.91188000000E+02 0.  0.
    9900012    2    3    3    0    0  0.22237134653E+02  0.81968036039E+01 -0.33037664452E+02  0.50528867947E+02  0.30000024611E+02 0.  0.
         12    1    3    3    0    0 -0.22237134653E+02 -0.81968036039E+01  0.33037664452E+02  0.40659132053E+02  0.00000000000E+00 0. -1.
         11    1    4    4    0    0 -0.28143207136E+01  0.34990450024E+01  0.29318100817E+01  0.53627630587E+01  0.51100000000E-03 0. -1.
        -11    1    4    4    0    0  0.10721052245E+02  0.68739718668E+01 -0.18617030727E+02  0.22556291446E+02  0.51100000000E-03 0.  1.
        -12    1    4    4    0    0  0.14330403122E+02 -0.21762132653E+01 -0.17352443807E+02  0.22609813442E+02  0.00000000000E+00 0.  1.
</event>
<event>
 8    1  0.1338956E-013  0.9118800E+02  0.7816164E-02  0.1184000E+00
        -11   -1    0    0    0    0  0.00000000000E+00  0.00000000000E+00  0.45593999997E+02  0.45594000000E+02  0.51100000000E-03 0. -1.
         11   -1    0    0    0    0 -0.00000000000E+00 -0.00000000000E+00 -0.45593999997E+02  0.45594000000E+02  0.51100000000E-03 0.  1.
         23    2    1    2    0    0  0.00000000000E+00  0.17763568394E-14  0.00000000000E+00  0.91188000000E+02  0.91188000000E+02 0.  0.
    9900012    2    3    3    0    0 -0.34255420742E+02 -0.14229400020E+02 -0.16651016103E+02  0.50528855734E+02  0.29999987490E+02 0.  0.
         12    1    3    3    0    0  0.34255420742E+02  0.14229400020E+02  0.16651016103E+02  0.40659144266E+02  0.00000000000E+00 0. -1.
         11    1    4    4    0    0  0.96892406976E+00 -0.48788793243E+01 -0.10029809148E+02  0.11195505755E+02  0.51100000000E-03 0. -1.
        -11    1    4    4    0    0 -0.15643681414E+02 -0.10580383750E+02 -0.94426898382E+00  0.18909281653E+02  0.51100000000E-03 0.  1.
        -12    1    4    4    0    0 -0.19580663398E+02  0.12298630549E+01 -0.56769379718E+01  0.20424068326E+02  0.00000000000E+00 0.  1.
</event>
<event>
 8    1  0.1338956E-013  0.9118800E+02  0.7816164E-02  0.1184000E+00
        -11   -1    0    0    0    0  0.00000000000E+00  0.00000000000E+00  0.45593999997E+02  0.45594000000E+02  0.51100000000E-03 0. -1.
         11   -1    0    0    0    0 -0.00000000000E+00 -0.00000000000E+00 -0.45593999997E+02  0.45594000000E+02  0.51100000000E-03 0.  1.
         23    2    1    2    0    0 -0.35527136788E-14  0.00000000000E+00  0.00000000000E+00  0.91188000000E+02  0.91188000000E+02 0.  0.
    9900012    2    3    3    0    0  0.18499250013E+02 -0.33059595377E+02 -0.14765020904E+02  0.50528868924E+02  0.30000027581E+02 0.  0.
         12    1    3    3    0    0 -0.18499250013E+02  0.33059595377E+02  0.14765020904E+02  0.40659131076E+02  0.00000000000E+00 0. -1.
         11    1    4    4    0    0  0.55074161217E+01 -0.10469553257E+02  0.19395830530E+01  0.11987708723E+02  0.51100000000E-03 0. -1.
        -11    1    4    4    0    0  0.94785274457E+01 -0.14466816287E+02  0.24238658090E+01  0.17464431904E+02  0.51100000000E-03 0.  1.
         12    1    4    4    0    0  0.35133064457E+01 -0.81232258333E+01 -0.19128469766E+02  0.21076728297E+02  0.00000000000E+00 0. -1.
</event>
<event>
 8    1  0.1338956E-013  0.9118800E+02  0.7816164E-02  0.1184000E+00
        -11   -1    0    0    0    0  0.00000000000E+00  0.00000000000E+00  0.45593999997E+02  0.45594000000E+02  0.51100000000E-03 0.  1.
         11   -1    0    0    0    0 -0.00000000000E+00 -0.00000000000E+00 -0.45593999997E+02  0.45594000000E+02  0.51100000000E-03 0. -1.
         23    2    1    2    0    0  0.13322676296E-14  0.71054273576E-14  0.00000000000E+00  0.91188000000E+02  0.91188000000E+02 0.  0.
    9900012    2    3    3    0    0  0.15709702260E+01 -0.33258097762E+02 -0.23336593839E+02  0.50528860484E+02  0.30000001926E+02 0.  0.
         12    1    3    3    0    0 -0.15709702260E+01  0.33258097762E+02  0.23336593839E+02  0.40659139516E+02  0.00000000000E+00 0. -1.
         11    1    4    4    0    0  0.63825496217E-01  0.17384862600E+01 -0.38426264846E+01  0.42180785592E+01  0.51100000000E-03 0. -1.
        -11    1    4    4    0    0  0.11785837387E+02 -0.15200780548E+02 -0.56043666676E+01  0.20034435809E+02  0.51100000000E-03 0.  1.
        -12    1    4    4    0    0 -0.10278692657E+02 -0.19795803474E+02 -0.13889600687E+02  0.26276346115E+02  0.00000000000E+00 0.  1.
</event>
<event>
 8    1  0.1338956E-013  0.9118800E+02  0.7816164E-02  0.1184000E+00
        -11   -1    0    0    0    0  0.00000000000E+00  0.00000000000E+00  0.45593999997E+02  0.45594000000E+02  0.51100000000E-03 0. -1.
         11   -1    0    0    0    0 -0.00000000000E+00 -0.00000000000E+00 -0.45593999997E+02  0.45594000000E+02  0.51100000000E-03 0.  1.
         23    2    1    2    0    0  0.17763568394E-14  0.71054273576E-14 -0.44408920985E-15  0.91188000000E+02  0.91188000000E+02 0.  0.
    9900012    2    3    3    0    0  0.15450447761E+02  0.37456204806E+02 -0.33886222435E+01  0.50528851273E+02  0.29999973930E+02 0.  0.
         12    1    3    3    0    0 -0.15450447761E+02 -0.37456204806E+02  0.33886222435E+01  0.40659148727E+02  0.00000000000E+00 0. -1.
         11    1    4    4    0    0 -0.38378796679E+01  0.11373582164E+02 -0.47656749441E+01  0.12915082250E+02  0.51100000000E-03 0. -1.
        -11    1    4    4    0    0  0.16380964688E+02  0.10085711808E+02 -0.54281951444E+01  0.19988068681E+02  0.51100000000E-03 0.  1.
         12    1    4    4    0    0  0.29073627405E+01  0.15996910834E+02  0.68052478450E+01  0.17625700343E+02  0.00000000000E+00 0. -1.
</event>
<event>
 8    1  0.1338956E-013  0.9118800E+02  0.7816164E-02  0.1184000E+00
        -11   -1    0    0    0    0  0.00000000000E+00  0.00000000000E+00  0.45593999997E+02  0.45594000000E+02  0.51100000000E-03 0. -1.
         11   -1    0    0    0    0 -0.00000000000E+00 -0.00000000000E+00 -0.45593999997E+02  0.45594000000E+02  0.51100000000E-03 0.  1.
         23    2    1    2    0    0 -0.17763568394E-14  0.00000000000E+00 -0.17763568394E-14  0.91188000000E+02  0.91188000000E+02 0.  0.
    9900012    2    3    3    0    0 -0.10286452751E+02 -0.39172002948E+02  0.35929949797E+01  0.50528849270E+02  0.29999967841E+02 0.  0.
        -12    1    3    3    0    0  0.10286452751E+02  0.39172002948E+02 -0.35929949797E+01  0.40659150730E+02  0.00000000000E+00 0.  1.
         11    1    4    4    0    0 -0.89210211613E+00 -0.16807237340E+02  0.67045706611E+01  0.18117128393E+02  0.51100000000E-03 0. -1.
        -11    1    4    4    0    0 -0.87987948413E+01 -0.23791338735E+02  0.35137283259E+01  0.25608453223E+02  0.51100000000E-03 0.  1.
        -12    1    4    4    0    0 -0.59555579375E+00  0.14265731266E+01 -0.66253040073E+01  0.68032676544E+01  0.00000000000E+00 0.  1.
</event>
<event>
 8    1  0.1338956E-013  0.9118800E+02  0.7816164E-02  0.1184000E+00
        -11   -1    0    0    0    0  0.00000000000E+00  0.00000000000E+00  0.45593999997E+02  0.45594000000E+02  0.51100000000E-03 0. -1.
         11   -1    0    0    0    0 -0.00000000000E+00 -0.00000000000E+00 -0.45593999997E+02  0.45594000000E+02  0.51100000000E-03 0.  1.
         23    2    1    2    0    0  0.13322676296E-14  0.00000000000E+00  0.00000000000E+00  0.91188000000E+02  0.91188000000E+02 0.  0.
    9900012    2    3    3    0    0  0.29338177023E+01  0.63706822830E+01  0.40049666348E+02  0.50528823254E+02  0.29999888762E+02 0.  0.
        -12    1    3    3    0    0 -0.29338177023E+01 -0.63706822830E+01 -0.40049666348E+02  0.40659176746E+02  0.00000000000E+00 0.  1.
         11    1    4    4    0    0 -0.57128009911E+01 -0.57618002562E+01  0.28427428193E+02  0.29562697971E+02  0.51100000000E-03 0. -1.
        -11    1    4    4    0    0  0.11325459609E+01  0.19385780060E+01  0.72164247909E+01  0.75576141779E+01  0.51100000000E-03 0.  1.
        -12    1    4    4    0    0  0.75140727324E+01  0.10193904533E+02  0.44058133644E+01  0.13408511105E+02  0.00000000000E+00 0.  1.
</event>
<event>
 8    1  0.1338956E-013  0.9118800E+02  0.7816164E-02  0.1184000E+00
        -11   -1    0    0    0    0  0.00000000000E+00  0.00000000000E+00  0.45593999997E+02  0.45594000000E+02  0.51100000000E-03 0. -1.
         11   -1    0    0    0    0 -0.00000000000E+00 -0.00000000000E+00 -0.45593999997E+02  0.45594000000E+02  0.51100000000E-03 0.  1.
         23    2    1    2    0    0  0.00000000000E+00  0.00000000000E+00  0.35527136788E-14  0.91188000000E+02  0.91188000000E+02 0.  0.
    9900012    2    3    3    0    0  0.31672180638E+02 -0.18048626846E+02 -0.18007837078E+02  0.50528903187E+02  0.30000131726E+02 0.  0.
         12    1    3    3    0    0 -0.31672180638E+02  0.18048626846E+02  0.18007837078E+02  0.40659096813E+02  0.00000000000E+00 0. -1.
         11    1    4    4    0    0  0.18812002432E+01 -0.78640821414E+01  0.17982017374E+01  0.82834915362E+01  0.51100000000E-03 0. -1.
        -11    1    4    4    0    0 -0.21077090511E+01 -0.21397097050E+01  0.11768909702E+01  0.32258127166E+01  0.51100000000E-03 0.  1.
        -12    1    4    4    0    0  0.31898689446E+02 -0.80448349997E+01 -0.20982929786E+02  0.39019598934E+02  0.00000000000E+00 0.  1.
</event>
<event>
 8    1  0.1338956E-013  0.9118800E+02  0.7816164E-02  0.1184000E+00
        -11   -1    0    0    0    0  0.00000000000E+00  0.00000000000E+00  0.45593999997E+02  0.45594000000E+02  0.51100000000E-03 0. -1.
         11   -1    0    0    0    0 -0.00000000000E+00 -0.00000000000E+00 -0.45593999997E+02  0.45594000000E+02  0.51100000000E-03 0.  1.
         23    2    1    2    0    0  0.00000000000E+00 -0.88817841970E-15  0.00000000000E+00  0.91188000000E+02  0.91188000000E+02 0.  0.
    9900012    2    3    3    0    0  0.22306407688E+02  0.22369651886E+01  0.33920299713E+02  0.50528848879E+02  0.29999966653E+02 0.  0.
        -12    1    3    3    0    0 -0.22306407688E+02 -0.22369651886E+01 -0.33920299713E+02  0.40659151121E+02  0.00000000000E+00 0.  1.
         11    1    4    4    0    0  0.35622214063E+01 -0.88167345832E+01  0.19438909959E+02  0.21640135183E+02  0.51100000000E-03 0.  1.
        -11    1    4    4    0    0  0.26016612835E+01  0.77315320338E+01  0.71630282013E+01  0.10856067534E+02  0.51100000000E-03 0. -1.
        -12    1    4    4    0    0  0.16142524999E+02  0.33221677380E+01  0.73183615529E+01  0.18032646163E+02  0.00000000000E+00 0.  1.
</event>
<event>
 8    1  0.1338956E-013  0.9118800E+02  0.7816164E-02  0.1184000E+00
        -11   -1    0    0    0    0  0.00000000000E+00  0.00000000000E+00  0.45593999997E+02  0.45594000000E+02  0.51100000000E-03 0. -1.
         11   -1    0    0    0    0 -0.00000000000E+00 -0.00000000000E+00 -0.45593999997E+02  0.45594000000E+02  0.51100000000E-03 0.  1.
         23    2    1    2    0    0 -0.35527136788E-14  0.00000000000E+00 -0.35527136788E-14  0.91188000000E+02  0.91188000000E+02 0.  0.
    9900012    2    3    3    0    0 -0.21062368755E+02 -0.27128323909E+02 -0.21762212993E+02  0.50528889704E+02  0.30000090744E+02 0.  0.
         12    1    3    3    0    0  0.21062368755E+02  0.27128323909E+02  0.21762212993E+02  0.40659110296E+02  0.00000000000E+00 0. -1.
         11    1    4    4    0    0  0.68485649159E+00  0.30645415711E+00  0.34244057489E+00  0.82474746009E+00  0.51100000000E-03 0. -1.
        -11    1    4    4    0    0 -0.86363247288E+01 -0.26966127833E+02 -0.60209552801E+01  0.28948403373E+02  0.51100000000E-03 0.  1.
        -12    1    4    4    0    0 -0.13110900518E+02 -0.46865023339E+00 -0.16083698288E+02  0.20755738870E+02  0.00000000000E+00 0.  1.
</event>
<event>
 8    1  0.1338956E-013  0.9118800E+02  0.7816164E-02  0.1184000E+00
        -11   -1    0    0    0    0  0.00000000000E+00  0.00000000000E+00  0.45593999997E+02  0.45594000000E+02  0.51100000000E-03 0.  1.
         11   -1    0    0    0    0 -0.00000000000E+00 -0.00000000000E+00 -0.45593999997E+02  0.45594000000E+02  0.51100000000E-03 0. -1.
         23    2    1    2    0    0  0.00000000000E+00  0.00000000000E+00 -0.17763568394E-14  0.91188000000E+02  0.91188000000E+02 0.  0.
    9900012    2    3    3    0    0 -0.38623761693E+02  0.85183402700E+00 -0.12674555321E+02  0.50528868908E+02  0.30000027533E+02 0.  0.
         12    1    3    3    0    0  0.38623761693E+02 -0.85183402700E+00  0.12674555321E+02  0.40659131092E+02  0.00000000000E+00 0. -1.
         11    1    4    4    0    0  0.16508051778E+01  0.62553972181E+01 -0.21376747970E+01  0.68135751181E+01  0.51100000000E-03 0. -1.
        -11    1    4    4    0    0 -0.78070403852E+01 -0.25591181664E+01 -0.72514761936E+01  0.10958233097E+02  0.51100000000E-03 0.  1.
        -12    1    4    4    0    0 -0.32467526486E+02 -0.28444450247E+01 -0.32854043302E+01  0.32757060693E+02  0.00000000000E+00 0.  1.
</event>
<event>
 8    1  0.1338956E-013  0.9118800E+02  0.7816164E-02  0.1184000E+00
        -11   -1    0    0    0    0  0.00000000000E+00  0.00000000000E+00  0.45593999997E+02  0.45594000000E+02  0.51100000000E-03 0. -1.
         11   -1    0    0    0    0 -0.00000000000E+00 -0.00000000000E+00 -0.45593999997E+02  0.45594000000E+02  0.51100000000E-03 0.  1.
         23    2    1    2    0    0  0.00000000000E+00 -0.35527136788E-14  0.00000000000E+00  0.91188000000E+02  0.91188000000E+02 0.  0.
    9900012    2    3    3    0    0  0.25716696061E+02 -0.19603324513E+02  0.24648067785E+02  0.50528855471E+02  0.29999986690E+02 0.  0.
        -12    1    3    3    0    0 -0.25716696061E+02  0.19603324513E+02 -0.24648067785E+02  0.40659144529E+02  0.00000000000E+00 0.  1.
         11    1    4    4    0    0  0.90717727762E+01 -0.22435474489E+02  0.14220526180E+02  0.28069038850E+02  0.51100000000E-03 0. -1.
        -11    1    4    4    0    0  0.21746509877E+01 -0.34568132611E+01  0.16492434152E+01  0.44043920062E+01  0.51100000000E-03 0.  1.
         12    1    4    4    0    0  0.14470272297E+02  0.62889632364E+01  0.87782981895E+01  0.18055424615E+02  0.00000000000E+00 0. -1.
</event>
<event>
 8    1  0.1338956E-013  0.9118800E+02  0.7816164E-02  0.1184000E+00
        -11   -1    0    0    0    0  0.00000000000E+00  0.00000000000E+00  0.45593999997E+02  0.45594000000E+02  0.51100000000E-03 0. -1.
         11   -1    0    0    0    0 -0.00000000000E+00 -0.00000000000E+00 -0.45593999997E+02  0.45594000000E+02  0.51100000000E-03 0.  1.
         23    2    1    2    0    0  0.00000000000E+00 -0.35527136788E-14  0.17763568394E-14  0.91188000000E+02  0.91188000000E+02 0.  0.
    9900012    2    3    3    0    0  0.38193714592E+02  0.80299241618E+01 -0.11398403719E+02  0.50528891258E+02  0.30000095467E+02 0.  0.
         12    1    3    3    0    0 -0.38193714592E+02 -0.80299241618E+01  0.11398403719E+02  0.40659108742E+02  0.00000000000E+00 0. -1.
         11    1    4    4    0    0 -0.15744571719E+01  0.31261478977E+01 -0.12226598272E+01  0.37076425635E+01  0.51100000000E-03 0. -1.
        -11    1    4    4    0    0  0.22123034318E+02  0.12986146443E+02 -0.96442442274E+01  0.27405840506E+02  0.51100000000E-03 0.  1.
         12    1    4    4    0    0  0.17645137446E+02 -0.80823701793E+01 -0.53149966397E+00  0.19415408188E+02  0.00000000000E+00 0. -1.
</event>
<event>
 8    1  0.1338956E-013  0.9118800E+02  0.7816164E-02  0.1184000E+00
        -11   -1    0    0    0    0  0.00000000000E+00  0.00000000000E+00  0.45593999997E+02  0.45594000000E+02  0.51100000000E-03 0. -1.
         11   -1    0    0    0    0 -0.00000000000E+00 -0.00000000000E+00 -0.45593999997E+02  0.45594000000E+02  0.51100000000E-03 0.  1.
         23    2    1    2    0    0  0.00000000000E+00  0.00000000000E+00 -0.35527136788E-14  0.91188000000E+02  0.91188000000E+02 0.  0.
    9900012    2    3    3    0    0  0.16519031470E+02 -0.24460547011E+02 -0.27963700521E+02  0.50528864402E+02  0.30000013837E+02 0.  0.
         12    1    3    3    0    0 -0.16519031470E+02  0.24460547011E+02  0.27963700521E+02  0.40659135598E+02  0.00000000000E+00 0. -1.
         11    1    4    4    0    0 -0.31316077784E+01  0.31943487199E+01 -0.23840697240E+00  0.44796952092E+01  0.51100000000E-03 0. -1.
        -11    1    4    4    0    0  0.57326519725E+01 -0.18701062742E+02 -0.19299187180E+02  0.27478203588E+02  0.51100000000E-03 0.  1.
        -12    1    4    4    0    0  0.13917987276E+02 -0.89538329885E+01 -0.84261063679E+01  0.18570965605E+02  0.00000000000E+00 0.  1.
</event>
<event>
 8    1  0.1338956E-013  0.9118800E+02  0.7816164E-02  0.1184000E+00
        -11   -1    0    0    0    0  0.00000000000E+00  0.00000000000E+00  0.45593999997E+02  0.45594000000E+02  0.51100000000E-03 0. -1.
         11   -1    0    0    0    0 -0.00000000000E+00 -0.00000000000E+00 -0.45593999997E+02  0.45594000000E+02  0.51100000000E-03 0.  1.
         23    2    1    2    0    0  0.00000000000E+00 -0.35527136788E-14  0.00000000000E+00  0.91188000000E+02  0.91188000000E+02 0.  0.
    9900012    2    3    3    0    0 -0.22537766280E+01 -0.20185258989E+02 -0.35222742249E+02  0.50528858825E+02  0.29999996883E+02 0.  0.
         12    1    3    3    0    0  0.22537766280E+01  0.20185258989E+02  0.35222742249E+02  0.40659141175E+02  0.00000000000E+00 0. -1.
         11    1    4    4    0    0 -0.68142472138E+01 -0.13864944207E+02 -0.16150614843E+02  0.22349787539E+02  0.51100000000E-03 0. -1.
        -11    1    4    4    0    0  0.47701518857E+00 -0.11599423301E+02 -0.50706969464E+01  0.12668312128E+02  0.51100000000E-03 0.  1.
        -12    1    4    4    0    0  0.40834553973E+01  0.52791085179E+01 -0.14001430460E+02  0.15510759158E+02  0.00000000000E+00 0.  1.
</event>
<event>
 8    1  0.1338956E-013  0.9118800E+02  0.7816164E-02  0.1184000E+00
        -11   -1    0    0    0    0  0.00000000000E+00  0.00000000000E+00  0.45593999997E+02  0.45594000000E+02  0.51100000000E-03 0.  1.
         11   -1    0    0    0    0 -0.00000000000E+00 -0.00000000000E+00 -0.45593999997E+02  0.45594000000E+02  0.51100000000E-03 0. -1.
         23    2    1    2    0    0  0.00000000000E+00 -0.17763568394E-14  0.17763568394E-14  0.91188000000E+02  0.91188000000E+02 0.  0.
    9900012    2    3    3    0    0  0.36965911772E+02 -0.76666801341E+01  0.15096691620E+02  0.50528847091E+02  0.29999961218E+02 0.  0.
        -12    1    3    3    0    0 -0.36965911772E+02  0.76666801341E+01 -0.15096691620E+02  0.40659152909E+02  0.00000000000E+00 0.  1.
         11    1    4    4    0    0  0.17246117450E+01 -0.19960764756E+01 -0.17478823472E+01  0.31644430676E+01  0.51100000000E-03 0. -1.
        -11    1    4    4    0    0  0.14111686795E+02 -0.14699111253E+02  0.31592238080E+01  0.20619996876E+02  0.51100000000E-03 0.  1.
         12    1    4    4    0    0  0.21129613231E+02  0.90285075945E+01  0.13685350159E+02  0.26744407148E+02  0.00000000000E+00 0. -1.
</event>
<event>
 8    1  0.1338956E-013  0.9118800E+02  0.7816164E-02  0.1184000E+00
        -11   -1    0    0    0    0  0.00000000000E+00  0.00000000000E+00  0.45593999997E+02  0.45594000000E+02  0.51100000000E-03 0. -1.
         11   -1    0    0    0    0 -0.00000000000E+00 -0.00000000000E+00 -0.45593999997E+02  0.45594000000E+02  0.51100000000E-03 0.  1.
         23    2    1    2    0    0 -0.88817841970E-15  0.35527136788E-14  0.00000000000E+00  0.91188000000E+02  0.91188000000E+02 0.  0.
    9900012    2    3    3    0    0 -0.48112665759E+01  0.23299408099E+02  0.32972053481E+02  0.50528843410E+02  0.29999950029E+02 0.  0.
        -12    1    3    3    0    0  0.48112665759E+01 -0.23299408099E+02 -0.32972053481E+02  0.40659156590E+02  0.00000000000E+00 0.  1.
         11    1    4    4    0    0 -0.50704048718E+01  0.12688868128E+02  0.14548945300E+02  0.19959664064E+02  0.51100000000E-03 0. -1.
        -11    1    4    4    0    0  0.88246561935E+01  0.10885423040E+02  0.54809857457E+01  0.15046866674E+02  0.51100000000E-03 0.  1.
        -12    1    4    4    0    0 -0.85655178976E+01 -0.27488306917E+00  0.12942122436E+02  0.15522312672E+02  0.00000000000E+00 0.  1.
</event>
<event>
 8    1  0.1338956E-013  0.9118800E+02  0.7816164E-02  0.1184000E+00
        -11   -1    0    0    0    0  0.00000000000E+00  0.00000000000E+00  0.45593999997E+02  0.45594000000E+02  0.51100000000E-03 0. -1.
         11   -1    0    0    0    0 -0.00000000000E+00 -0.00000000000E+00 -0.45593999997E+02  0.45594000000E+02  0.51100000000E-03 0.  1.
         23    2    1    2    0    0 -0.88817841970E-15  0.00000000000E+00  0.00000000000E+00  0.91188000000E+02  0.91188000000E+02 0.  0.
    9900012    2    3    3    0    0  0.49478455060E+01 -0.11833199084E+02  0.38583157607E+02  0.50528858019E+02  0.29999994435E+02 0.  0.
        -12    1    3    3    0    0 -0.49478455060E+01  0.11833199084E+02 -0.38583157607E+02  0.40659141981E+02  0.00000000000E+00 0.  1.
         11    1    4    4    0    0 -0.54191201360E+01 -0.30077200076E+00  0.17921829447E+02  0.18725632108E+02  0.51100000000E-03 0. -1.
        -11    1    4    4    0    0  0.63348556952E+00  0.32001311790E+01  0.11413502657E+02  0.11870559662E+02  0.51100000000E-03 0.  1.
         12    1    4    4    0    0  0.97334800725E+01 -0.14732558262E+02  0.92478255025E+01  0.19932666249E+02  0.00000000000E+00 0. -1.
</event>
<event>
 8    1  0.1338956E-013  0.9118800E+02  0.7816164E-02  0.1184000E+00
        -11   -1    0    0    0    0  0.00000000000E+00  0.00000000000E+00  0.45593999997E+02  0.45594000000E+02  0.51100000000E-03 0. -1.
         11   -1    0    0    0    0 -0.00000000000E+00 -0.00000000000E+00 -0.45593999997E+02  0.45594000000E+02  0.51100000000E-03 0.  1.
         23    2    1    2    0    0  0.17763568394E-14 -0.17763568394E-14  0.00000000000E+00  0.91188000000E+02  0.91188000000E+02 0.  0.
    9900012    2    3    3    0    0 -0.11474646634E+02  0.14111788701E+02 -0.36364214934E+02  0.50528853139E+02  0.29999979600E+02 0.  0.
         12    1    3    3    0    0  0.11474646634E+02 -0.14111788701E+02  0.36364214934E+02  0.40659146861E+02  0.00000000000E+00 0. -1.
         11    1    4    4    0    0 -0.71305826969E+01 -0.45023979417E+01 -0.46925600301E+01  0.96507469514E+01  0.51100000000E-03 0. -1.
        -11    1    4    4    0    0 -0.22288407715E+01 -0.17125387104E+01 -0.12651850979E+02  0.12960318417E+02  0.51100000000E-03 0.  1.
         12    1    4    4    0    0 -0.21152231656E+01  0.20326725353E+02 -0.19019803925E+02  0.27917787770E+02  0.00000000000E+00 0. -1.
</event>
<event>
 8    1  0.1338956E-013  0.9118800E+02  0.7816164E-02  0.1184000E+00
        -11   -1    0    0    0    0  0.00000000000E+00  0.00000000000E+00  0.45593999997E+02  0.45594000000E+02  0.51100000000E-03 0. -1.
         11   -1    0    0    0    0 -0.00000000000E+00 -0.00000000000E+00 -0.45593999997E+02  0.45594000000E+02  0.51100000000E-03 0.  1.
         23    2    1    2    0    0  0.35527136788E-14  0.17763568394E-14 -0.35527136788E-14  0.91188000000E+02  0.91188000000E+02 0.  0.
    9900012    2    3    3    0    0 -0.23458398645E+02  0.12595469857E+02  0.30728219909E+02  0.50528858019E+02  0.29999994434E+02 0.  0.
        -12    1    3    3    0    0  0.23458398645E+02 -0.12595469857E+02 -0.30728219909E+02  0.40659141981E+02  0.00000000000E+00 0.  1.
         11    1    4    4    0    0 -0.88038308450E+01  0.15954798357E+02  0.18429747116E+02  0.25917534744E+02  0.51100000000E-03 0. -1.
        -11    1    4    4    0    0 -0.10295256053E+02  0.97333704623E+00 -0.56327577279E+00  0.10356493714E+02  0.51100000000E-03 0.  1.
         12    1    4    4    0    0 -0.43593117475E+01 -0.43326655470E+01  0.12861748565E+02  0.14254829561E+02  0.00000000000E+00 0. -1.
</event>
<event>
 8    1  0.1609045E-013  0.9118800E+02  0.7816164E-02  0.1184000E+00
        -11   -1    0    0    0    0  0.00000000000E+00  0.00000000000E+00  0.45593999997E+02  0.45594000000E+02  0.51100000000E-03 0. -1.
         11   -1    0    0    0    0 -0.00000000000E+00 -0.00000000000E+00 -0.45593999997E+02  0.45594000000E+02  0.51100000000E-03 0.  1.
         23    2    1    2    0    0 -0.17763568394E-14  0.00000000000E+00  0.71054273576E-14  0.91188000000E+02  0.91188000000E+02 0.  0.
    9900012    2    3    3    0    0  0.88614620548E+01 -0.25994740813E+02 -0.29981898280E+02  0.50528852393E+02  0.29999977332E+02 0.  0.
         12    1    3    3    0    0 -0.88614620548E+01  0.25994740813E+02  0.29981898280E+02  0.40659147607E+02  0.00000000000E+00 0. -1.
         11    1    4    4    0    0 -0.47029690694E+01 -0.97742697148E+01 -0.14820374588E+02  0.18365668235E+02  0.51100000000E-03 0. -1.
        -11    1    4    4    0    0  0.87494019132E+00 -0.13666131816E+02 -0.13293200886E+02  0.19085016877E+02  0.51100000000E-03 0.  1.
         12    1    4    4    0    0  0.12689490933E+02 -0.25543392820E+01 -0.18683228064E+01  0.13078167280E+02  0.00000000000E+00 0. -1.
</event>
<event>
 8    1  0.1338956E-013  0.9118800E+02  0.7816164E-02  0.1184000E+00
        -11   -1    0    0    0    0  0.00000000000E+00  0.00000000000E+00  0.45593999997E+02  0.45594000000E+02  0.51100000000E-03 0. -1.
         11   -1    0    0    0    0 -0.00000000000E+00 -0.00000000000E+00 -0.45593999997E+02  0.45594000000E+02  0.51100000000E-03 0.  1.
         23    2    1    2    0    0  0.35527136788E-14  0.00000000000E+00  0.00000000000E+00  0.91188000000E+02  0.91188000000E+02 0.  0.
    9900012    2    3    3    0    0 -0.27128405290E+02  0.24655849958E+02  0.17586898116E+02  0.50528926030E+02  0.30000201161E+02 0.  0.
        -12    1    3    3    0    0  0.27128405290E+02 -0.24655849958E+02 -0.17586898116E+02  0.40659073970E+02  0.00000000000E+00 0.  1.
         11    1    4    4    0    0  0.25043239840E+00  0.14390578881E+01 -0.12467353918E+01  0.19204044860E+01  0.51100000000E-03 0. -1.
        -11    1    4    4    0    0 -0.46107435285E+01  0.17435702991E+02 -0.71296333071E+00  0.18049127726E+02  0.51100000000E-03 0.  1.
         12    1    4    4    0    0 -0.22768094160E+02  0.57810890788E+01  0.19546596838E+02  0.30559393819E+02  0.00000000000E+00 0. -1.
</event>
<event>
 8    1  0.1338956E-013  0.9118800E+02  0.7816164E-02  0.1184000E+00
        -11   -1    0    0    0    0  0.00000000000E+00  0.00000000000E+00  0.45593999997E+02  0.45594000000E+02  0.51100000000E-03 0. -1.
         11   -1    0    0    0    0 -0.00000000000E+00 -0.00000000000E+00 -0.45593999997E+02  0.45594000000E+02  0.51100000000E-03 0.  1.
         23    2    1    2    0    0 -0.22204460493E-15  0.35527136788E-14 -0.71054273576E-14  0.91188000000E+02  0.91188000000E+02 0.  0.
    9900012    2    3    3    0    0  0.50498444463E+00  0.26380895465E+02 -0.30934740150E+02  0.50528870607E+02  0.30000032698E+02 0.  0.
         12    1    3    3    0    0 -0.50498444463E+00 -0.26380895465E+02  0.30934740150E+02  0.40659129393E+02  0.00000000000E+00 0. -1.
         11    1    4    4    0    0 -0.58177807213E+01  0.10393821218E+02 -0.89550352338E+01  0.14902038395E+02  0.51100000000E-03 0. -1.
        -11    1    4    4    0    0 -0.75232660890E+01  0.10851095203E+02 -0.91522301991E+01  0.16065774729E+02  0.51100000000E-03 0.  1.
        -12    1    4    4    0    0  0.13846031255E+02  0.51359790444E+01 -0.12827474717E+02  0.19561057483E+02  0.00000000000E+00 0.  1.
</event>
<event>
 8    1  0.1338956E-013  0.9118800E+02  0.7816164E-02  0.1184000E+00
        -11   -1    0    0    0    0  0.00000000000E+00  0.00000000000E+00  0.45593999997E+02  0.45594000000E+02  0.51100000000E-03 0. -1.
         11   -1    0    0    0    0 -0.00000000000E+00 -0.00000000000E+00 -0.45593999997E+02  0.45594000000E+02  0.51100000000E-03 0.  1.
         23    2    1    2    0    0  0.44408920985E-15  0.00000000000E+00  0.00000000000E+00  0.91188000000E+02  0.91188000000E+02 0.  0.
    9900012    2    3    3    0    0 -0.19366668765E+01  0.20469369694E+02 -0.35077327892E+02  0.50528871796E+02  0.30000036311E+02 0.  0.
         12    1    3    3    0    0  0.19366668765E+01 -0.20469369694E+02  0.35077327892E+02  0.40659128204E+02  0.00000000000E+00 0. -1.
         11    1    4    4    0    0 -0.32231320196E-01  0.95804114730E+01 -0.41786012228E+01  0.10452082629E+02  0.51100000000E-03 0. -1.
        -11    1    4    4    0    0 -0.71046550393E+01  0.12477803203E+02 -0.31488113061E+02  0.34607411929E+02  0.51100000000E-03 0.  1.
         12    1    4    4    0    0  0.52002194831E+01 -0.15888449819E+01  0.58938639186E+00  0.54693772376E+01  0.00000000000E+00 0. -1.
</event>
<event>
 8    1  0.1338956E-013  0.9118800E+02  0.7816164E-02  0.1184000E+00
        -11   -1    0    0    0    0  0.00000000000E+00  0.00000000000E+00  0.45593999997E+02  0.45594000000E+02  0.51100000000E-03 0. -1.
         11   -1    0    0    0    0 -0.00000000000E+00 -0.00000000000E+00 -0.45593999997E+02  0.45594000000E+02  0.51100000000E-03 0.  1.
         23    2    1    2    0    0  0.00000000000E+00  0.00000000000E+00  0.00000000000E+00  0.91188000000E+02  0.91188000000E+02 0.  0.
    9900012    2    3    3    0    0  0.36389822820E+02 -0.17776462122E+02 -0.35978669963E+01  0.50528850262E+02  0.29999970858E+02 0.  0.
         12    1    3    3    0    0 -0.36389822820E+02  0.17776462122E+02  0.35978669963E+01  0.40659149738E+02  0.00000000000E+00 0. -1.
         11    1    4    4    0    0  0.19149820896E+02 -0.18605981775E+02  0.45677669887E+01  0.27088054446E+02  0.51100000000E-03 0. -1.
        -11    1    4    4    0    0  0.18695125618E+02 -0.14667131951E+01 -0.52918112516E+01  0.19484923301E+02  0.51100000000E-03 0.  1.
        -12    1    4    4    0    0 -0.14551236939E+01  0.22962328474E+01 -0.28738227334E+01  0.39558725153E+01  0.00000000000E+00 0.  1.
</event>
<event>
 8    1  0.1338956E-013  0.9118800E+02  0.7816164E-02  0.1184000E+00
        -11   -1    0    0    0    0  0.00000000000E+00  0.00000000000E+00  0.45593999997E+02  0.45594000000E+02  0.51100000000E-03 0. -1.
         11   -1    0    0    0    0 -0.00000000000E+00 -0.00000000000E+00 -0.45593999997E+02  0.45594000000E+02  0.51100000000E-03 0.  1.
         23    2    1    2    0    0  0.00000000000E+00  0.00000000000E+00 -0.71054273576E-14  0.91188000000E+02  0.91188000000E+02 0.  0.
    9900012    2    3    3    0    0 -0.49318896237E+01 -0.12814098086E+02 -0.38270725569E+02  0.50528768815E+02  0.29999723288E+02 0.  0.
         12    1    3    3    0    0  0.49318896237E+01  0.12814098086E+02  0.38270725569E+02  0.40659231185E+02  0.00000000000E+00 0. -1.
         11    1    4    4    0    0  0.35814376905E+01 -0.98043422408E+01 -0.18244333434E+02  0.21019218002E+02  0.51100000000E-03 0. -1.
        -11    1    4    4    0    0  0.20811711399E+01  0.52569748209E+01 -0.32724289783E+00  0.56634040785E+01  0.51100000000E-03 0.  1.
         12    1    4    4    0    0 -0.10594498454E+02 -0.82667306660E+01 -0.19699149237E+02  0.23846146734E+02  0.00000000000E+00 0. -1.
</event>
<event>
 8    1  0.1338956E-013  0.9118800E+02  0.7816164E-02  0.1184000E+00
        -11   -1    0    0    0    0  0.00000000000E+00  0.00000000000E+00  0.45593999997E+02  0.45594000000E+02  0.51100000000E-03 0. -1.
         11   -1    0    0    0    0 -0.00000000000E+00 -0.00000000000E+00 -0.45593999997E+02  0.45594000000E+02  0.51100000000E-03 0.  1.
         23    2    1    2    0    0  0.00000000000E+00 -0.17763568394E-14  0.00000000000E+00  0.91188000000E+02  0.91188000000E+02 0.  0.
    9900012    2    3    3    0    0 -0.11743313860E+02 -0.94172742557E+01  0.37770015317E+02  0.50528873941E+02  0.30000042831E+02 0.  0.
        -12    1    3    3    0    0  0.11743313860E+02  0.94172742557E+01 -0.37770015317E+02  0.40659126059E+02  0.00000000000E+00 0.  1.
         11    1    4    4    0    0 -0.32913589549E+01 -0.87671916013E+01  0.25846707850E+02  0.27490889387E+02  0.51100000000E-03 0. -1.
        -11    1    4    4    0    0  0.19705752452E+01  0.46480080954E+01  0.99820600170E+01  0.11186092638E+02  0.51100000000E-03 0.  1.
        -12    1    4    4    0    0 -0.10422530151E+02 -0.52980907498E+01  0.19412474497E+01  0.11851891916E+02  0.00000000000E+00 0.  1.
</event>
<event>
 8    1  0.1338956E-013  0.9118800E+02  0.7816164E-02  0.1184000E+00
        -11   -1    0    0    0    0  0.00000000000E+00  0.00000000000E+00  0.45593999997E+02  0.45594000000E+02  0.51100000000E-03 0. -1.
         11   -1    0    0    0    0 -0.00000000000E+00 -0.00000000000E+00 -0.45593999997E+02  0.45594000000E+02  0.51100000000E-03 0.  1.
         23    2    1    2    0    0  0.00000000000E+00  0.00000000000E+00 -0.71054273576E-14  0.91188000000E+02  0.91188000000E+02 0.  0.
    9900012    2    3    3    0    0  0.20904928736E+02 -0.12068242662E+02  0.32718606077E+02  0.50528859453E+02  0.29999998794E+02 0.  0.
        -12    1    3    3    0    0 -0.20904928736E+02  0.12068242662E+02 -0.32718606077E+02  0.40659140547E+02  0.00000000000E+00 0.  1.
         11    1    4    4    0    0  0.91286021812E+01 -0.13123133076E+02  0.18998503337E+02  0.24829239392E+02  0.51100000000E-03 0. -1.
        -11    1    4    4    0    0 -0.34731805193E+01  0.36138529978E+01  0.75261893256E+01  0.90424798831E+01  0.51100000000E-03 0.  1.
        -12    1    4    4    0    0  0.15249507074E+02 -0.25589625842E+01  0.61939134140E+01  0.16657140178E+02  0.00000000000E+00 0.  1.
</event>
<event>
 8    1  0.1338956E-013  0.9118800E+02  0.7816164E-02  0.1184000E+00
        -11   -1    0    0    0    0  0.00000000000E+00  0.00000000000E+00  0.45593999997E+02  0.45594000000E+02  0.51100000000E-03 0. -1.
         11   -1    0    0    0    0 -0.00000000000E+00 -0.00000000000E+00 -0.45593999997E+02  0.45594000000E+02  0.51100000000E-03 0.  1.
         23    2    1    2    0    0  0.17763568394E-14 -0.71054273576E-14  0.00000000000E+00  0.91188000000E+02  0.91188000000E+02 0.  0.
    9900012    2    3    3    0    0 -0.70150081824E+01  0.31990085501E+02  0.24095424237E+02  0.50528863520E+02  0.30000011154E+02 0.  0.
        -12    1    3    3    0    0  0.70150081824E+01 -0.31990085501E+02 -0.24095424237E+02  0.40659136480E+02  0.00000000000E+00 0.  1.
         11    1    4    4    0    0 -0.12612565078E+02  0.10537248192E+02  0.17386783468E+02  0.23925104742E+02  0.51100000000E-03 0. -1.
        -11    1    4    4    0    0 -0.34141330464E+01  0.17283937893E+01 -0.23425543324E+00  0.38338655974E+01  0.51100000000E-03 0.  1.
         12    1    4    4    0    0  0.90116899416E+01  0.19724443520E+02  0.69428962023E+01  0.22769893180E+02  0.00000000000E+00 0. -1.
</event>
<event>
 8    1  0.1338956E-013  0.9118800E+02  0.7816164E-02  0.1184000E+00
        -11   -1    0    0    0    0  0.00000000000E+00  0.00000000000E+00  0.45593999997E+02  0.45594000000E+02  0.51100000000E-03 0. -1.
         11   -1    0    0    0    0 -0.00000000000E+00 -0.00000000000E+00 -0.45593999997E+02  0.45594000000E+02  0.51100000000E-03 0.  1.
         23    2    1    2    0    0  0.00000000000E+00  0.00000000000E+00  0.00000000000E+00  0.91188000000E+02  0.91188000000E+02 0.  0.
    9900012    2    3    3    0    0 -0.10228610191E+02 -0.85175661170E+01  0.38418640649E+02  0.50528863901E+02  0.30000012314E+02 0.  0.
        -12    1    3    3    0    0  0.10228610191E+02  0.85175661170E+01 -0.38418640649E+02  0.40659136099E+02  0.00000000000E+00 0.  1.
         11    1    4    4    0    0  0.60016433486E+00 -0.87838855688E+01  0.57599963886E+01  0.10521140697E+02  0.51100000000E-03 0. -1.
        -11    1    4    4    0    0  0.11227318238E+01  0.76976244331E+01  0.58629942704E+01  0.97410805734E+01  0.51100000000E-03 0.  1.
         12    1    4    4    0    0 -0.11951506350E+02 -0.74313049812E+01  0.26795649990E+02  0.30266642631E+02  0.00000000000E+00 0. -1.
</event>
<event>
 8    1  0.1338956E-013  0.9118800E+02  0.7816164E-02  0.1184000E+00
        -11   -1    0    0    0    0  0.00000000000E+00  0.00000000000E+00  0.45593999997E+02  0.45594000000E+02  0.51100000000E-03 0.  1.
         11   -1    0    0    0    0 -0.00000000000E+00 -0.00000000000E+00 -0.45593999997E+02  0.45594000000E+02  0.51100000000E-03 0. -1.
         23    2    1    2    0    0  0.00000000000E+00  0.00000000000E+00  0.00000000000E+00  0.91188000000E+02  0.91188000000E+02 0.  0.
    9900012    2    3    3    0    0 -0.20662748212E+02  0.26601785475E+02 -0.22771949633E+02  0.50528857803E+02  0.29999993777E+02 0.  0.
         12    1    3    3    0    0  0.20662748212E+02 -0.26601785475E+02  0.22771949633E+02  0.40659142197E+02  0.00000000000E+00 0. -1.
         11    1    4    4    0    0 -0.10063607427E+01  0.15123119416E+02 -0.13879554341E+01  0.15219984342E+02  0.51100000000E-03 0. -1.
        -11    1    4    4    0    0 -0.87334322423E+01 -0.14212485405E+01 -0.11176030275E+01  0.89186222553E+01  0.51100000000E-03 0.  1.
         12    1    4    4    0    0 -0.10922955227E+02  0.12899914599E+02 -0.20266391172E+02  0.26390251205E+02  0.00000000000E+00 0. -1.
</event>
<event>
 8    1  0.1338956E-013  0.9118800E+02  0.7816164E-02  0.1184000E+00
        -11   -1    0    0    0    0  0.00000000000E+00  0.00000000000E+00  0.45593999997E+02  0.45594000000E+02  0.51100000000E-03 0. -1.
         11   -1    0    0    0    0 -0.00000000000E+00 -0.00000000000E+00 -0.45593999997E+02  0.45594000000E+02  0.51100000000E-03 0.  1.
         23    2    1    2    0    0  0.15543122345E-14  0.00000000000E+00  0.00000000000E+00  0.91188000000E+02  0.91188000000E+02 0.  0.
    9900012    2    3    3    0    0  0.18580648423E+01 -0.20479995158E+02  0.35075378145E+02  0.50528871152E+02  0.30000034355E+02 0.  0.
        -12    1    3    3    0    0 -0.18580648423E+01  0.20479995158E+02 -0.35075378145E+02  0.40659128848E+02  0.00000000000E+00 0.  1.
         11    1    4    4    0    0 -0.12962570032E+01 -0.29732948861E+01 -0.21220608355E+01  0.38760685170E+01  0.51100000000E-03 0. -1.
        -11    1    4    4    0    0 -0.54119496167E+01 -0.95075366075E+01  0.43431266165E+01  0.11770522506E+02  0.51100000000E-03 0.  1.
         12    1    4    4    0    0  0.85662714621E+01 -0.79991636642E+01  0.32854312364E+02  0.34882280129E+02  0.00000000000E+00 0. -1.
</event>
<event>
 8    1  0.1338956E-013  0.9118800E+02  0.7816164E-02  0.1184000E+00
        -11   -1    0    0    0    0  0.00000000000E+00  0.00000000000E+00  0.45593999997E+02  0.45594000000E+02  0.51100000000E-03 0. -1.
         11   -1    0    0    0    0 -0.00000000000E+00 -0.00000000000E+00 -0.45593999997E+02  0.45594000000E+02  0.51100000000E-03 0.  1.
         23    2    1    2    0    0  0.44408920985E-15  0.00000000000E+00 -0.71054273576E-14  0.91188000000E+02  0.91188000000E+02 0.  0.
    9900012    2    3    3    0    0  0.27287911820E+01 -0.24468779810E+01 -0.40493603076E+02  0.50528863225E+02  0.30000010259E+02 0.  0.
         12    1    3    3    0    0 -0.27287911820E+01  0.24468779810E+01  0.40493603076E+02  0.40659136775E+02  0.00000000000E+00 0. -1.
         11    1    4    4    0    0 -0.50753395643E+01  0.61592482110E+00 -0.26609819802E+01  0.57636152229E+01  0.51100000000E-03 0. -1.
        -11    1    4    4    0    0  0.21985861637E+01  0.61029742879E+01 -0.31776671900E+02  0.32432035915E+02  0.51100000000E-03 0.  1.
         12    1    4    4    0    0  0.56055445826E+01 -0.91657770899E+01 -0.60559491961E+01  0.12333212088E+02  0.00000000000E+00 0. -1.
</event>
<event>
 8    1  0.1338956E-013  0.9118800E+02  0.7816164E-02  0.1184000E+00
        -11   -1    0    0    0    0  0.00000000000E+00  0.00000000000E+00  0.45593999997E+02  0.45594000000E+02  0.51100000000E-03 0. -1.
         11   -1    0    0    0    0 -0.00000000000E+00 -0.00000000000E+00 -0.45593999997E+02  0.45594000000E+02  0.51100000000E-03 0.  1.
         23    2    1    2    0    0  0.00000000000E+00  0.35527136788E-14  0.00000000000E+00  0.91188000000E+02  0.91188000000E+02 0.  0.
    9900012    2    3    3    0    0  0.31903198745E+02 -0.20766038406E+02  0.14287145409E+02  0.50528868612E+02  0.30000026633E+02 0.  0.
        -12    1    3    3    0    0 -0.31903198745E+02  0.20766038406E+02 -0.14287145409E+02  0.40659131388E+02  0.00000000000E+00 0.  1.
         11    1    4    4    0    0  0.51138667603E+01 -0.13567167225E+02  0.87532753053E+01  0.16936336339E+02  0.51100000000E-03 0. -1.
        -11    1    4    4    0    0 -0.26086495225E+01 -0.79681855575E+00  0.18156053912E+01  0.32766439141E+01  0.51100000000E-03 0.  1.
         12    1    4    4    0    0  0.29397981507E+02 -0.64020526257E+01  0.37182647124E+01  0.30315888359E+02  0.00000000000E+00 0. -1.
</event>
<event>
 8    1  0.1338956E-013  0.9118800E+02  0.7816164E-02  0.1184000E+00
        -11   -1    0    0    0    0  0.00000000000E+00  0.00000000000E+00  0.45593999997E+02  0.45594000000E+02  0.51100000000E-03 0. -1.
         11   -1    0    0    0    0 -0.00000000000E+00 -0.00000000000E+00 -0.45593999997E+02  0.45594000000E+02  0.51100000000E-03 0.  1.
         23    2    1    2    0    0  0.00000000000E+00  0.00000000000E+00  0.00000000000E+00  0.91188000000E+02  0.91188000000E+02 0.  0.
    9900012    2    3    3    0    0 -0.31120261418E+01 -0.17128961236E+02 -0.36743415728E+02  0.50528872869E+02  0.30000039572E+02 0.  0.
         12    1    3    3    0    0  0.31120261418E+01  0.17128961236E+02  0.36743415728E+02  0.40659127131E+02  0.00000000000E+00 0. -1.
         11    1    4    4    0    0  0.53195080961E+01 -0.14632248628E+02 -0.27796063660E+02  0.31859394558E+02  0.51100000000E-03 0. -1.
        -11    1    4    4    0    0 -0.52374212547E+00 -0.51917344460E+01 -0.88976957211E+01  0.10314911622E+02  0.51100000000E-03 0.  1.
         12    1    4    4    0    0 -0.79077921125E+01  0.26950218384E+01 -0.49656346315E-01  0.83545666887E+01  0.00000000000E+00 0. -1.
</event>
<event>
 8    1  0.1338956E-013  0.9118800E+02  0.7816164E-02  0.1184000E+00
        -11   -1    0    0    0    0  0.00000000000E+00  0.00000000000E+00  0.45593999997E+02  0.45594000000E+02  0.51100000000E-03 0. -1.
         11   -1    0    0    0    0 -0.00000000000E+00 -0.00000000000E+00 -0.45593999997E+02  0.45594000000E+02  0.51100000000E-03 0.  1.
         23    2    1    2    0    0 -0.88817841970E-15 -0.17763568394E-14  0.00000000000E+00  0.91188000000E+02  0.91188000000E+02 0.  0.
    9900012    2    3    3    0    0 -0.51556880658E+01  0.15972602698E+02  0.37033228391E+02  0.50528866199E+02  0.30000019299E+02 0.  0.
        -12    1    3    3    0    0  0.51556880658E+01 -0.15972602698E+02 -0.37033228391E+02  0.40659133801E+02  0.00000000000E+00 0.  1.
         11    1    4    4    0    0  0.60301106392E-01 -0.14733662316E+01 -0.15648303173E+01  0.21501484737E+01  0.51100000000E-03 0.  1.
        -11    1    4    4    0    0  0.50246105190E+01  0.18202713844E+02  0.25727672699E+02  0.31913925564E+02  0.51100000000E-03 0. -1.
         12    1    4    4    0    0 -0.10240599691E+02 -0.75674491378E+00  0.12870386009E+02  0.16464792161E+02  0.00000000000E+00 0. -1.
</event>
<event>
 8    1  0.1338956E-013  0.9118800E+02  0.7816164E-02  0.1184000E+00
        -11   -1    0    0    0    0  0.00000000000E+00  0.00000000000E+00  0.45593999997E+02  0.45594000000E+02  0.51100000000E-03 0.  1.
         11   -1    0    0    0    0 -0.00000000000E+00 -0.00000000000E+00 -0.45593999997E+02  0.45594000000E+02  0.51100000000E-03 0. -1.
         23    2    1    2    0    0  0.00000000000E+00  0.55511151231E-16  0.00000000000E+00  0.91188000000E+02  0.91188000000E+02 0.  0.
    9900012    2    3    3    0    0  0.37364011538E+02  0.45926875649E+00 -0.16027654010E+02  0.50528856144E+02  0.29999988736E+02 0.  0.
         12    1    3    3    0    0 -0.37364011538E+02 -0.45926875649E+00  0.16027654010E+02  0.40659143856E+02  0.00000000000E+00 0. -1.
         11    1    4    4    0    0  0.36170714898E+01  0.14215920416E+01  0.30055971178E+01  0.49130178496E+01  0.51100000000E-03 0. -1.
        -11    1    4    4    0    0  0.77103730385E+00 -0.49957074867E-01  0.48360997534E+01  0.48974335441E+01  0.51100000000E-03 0.  1.
        -12    1    4    4    0    0  0.32975902744E+02 -0.91236621023E+00 -0.23869350882E+02  0.40718404750E+02  0.00000000000E+00 0.  1.
</event>
<event>
 8    1  0.1338956E-013  0.9118800E+02  0.7816164E-02  0.1184000E+00
        -11   -1    0    0    0    0  0.00000000000E+00  0.00000000000E+00  0.45593999997E+02  0.45594000000E+02  0.51100000000E-03 0. -1.
         11   -1    0    0    0    0 -0.00000000000E+00 -0.00000000000E+00 -0.45593999997E+02  0.45594000000E+02  0.51100000000E-03 0.  1.
         23    2    1    2    0    0  0.00000000000E+00  0.00000000000E+00  0.00000000000E+00  0.91188000000E+02  0.91188000000E+02 0.  0.
    9900012    2    3    3    0    0  0.16647204514E+02 -0.54703870130E+01  0.36689385328E+02  0.50528861446E+02  0.30000004851E+02 0.  0.
        -12    1    3    3    0    0 -0.16647204514E+02  0.54703870130E+01 -0.36689385328E+02  0.40659138554E+02  0.00000000000E+00 0.  1.
         11    1    4    4    0    0 -0.69733394359E+01 -0.48902337173E-01  0.95993566082E+01  0.11864969527E+02  0.51100000000E-03 0. -1.
        -11    1    4    4    0    0  0.16507803839E+01  0.16728644785E+00  0.10353467896E+02  0.10485578590E+02  0.51100000000E-03 0.  1.
        -12    1    4    4    0    0  0.21969763566E+02 -0.55887711237E+01  0.16736560823E+02  0.28178313328E+02  0.00000000000E+00 0.  1.
</event>
<event>
 8    1  0.1338956E-013  0.9118800E+02  0.7816164E-02  0.1184000E+00
        -11   -1    0    0    0    0  0.00000000000E+00  0.00000000000E+00  0.45593999997E+02  0.45594000000E+02  0.51100000000E-03 0. -1.
         11   -1    0    0    0    0 -0.00000000000E+00 -0.00000000000E+00 -0.45593999997E+02  0.45594000000E+02  0.51100000000E-03 0.  1.
         23    2    1    2    0    0 -0.22204460493E-15  0.44408920985E-15 -0.71054273576E-14  0.91188000000E+02  0.91188000000E+02 0.  0.
    9900012    2    3    3    0    0  0.14737451832E+01 -0.29365111555E+01  0.40526180477E+02  0.50528851870E+02  0.29999975744E+02 0.  0.
        -12    1    3    3    0    0 -0.14737451832E+01  0.29365111555E+01 -0.40526180477E+02  0.40659148130E+02  0.00000000000E+00 0.  1.
         11    1    4    4    0    0  0.74127720805E+01  0.11419436762E+01  0.86659620407E+01  0.11460895411E+02  0.51100000000E-03 0. -1.
        -11    1    4    4    0    0  0.23675375382E+00  0.36049776211E+01 -0.17697907962E+01  0.40229436625E+01  0.51100000000E-03 0.  1.
         12    1    4    4    0    0 -0.61757806511E+01 -0.76834324528E+01  0.33630009232E+02  0.35045012796E+02  0.00000000000E+00 0. -1.
</event>
<event>
 8    1  0.1338956E-013  0.9118800E+02  0.7816164E-02  0.1184000E+00
        -11   -1    0    0    0    0  0.00000000000E+00  0.00000000000E+00  0.45593999997E+02  0.45594000000E+02  0.51100000000E-03 0. -1.
         11   -1    0    0    0    0 -0.00000000000E+00 -0.00000000000E+00 -0.45593999997E+02  0.45594000000E+02  0.51100000000E-03 0.  1.
         23    2    1    2    0    0 -0.35527136788E-14 -0.71054273576E-14  0.00000000000E+00  0.91188000000E+02  0.91188000000E+02 0.  0.
    9900012    2    3    3    0    0  0.16767832130E+02  0.35897147225E+02 -0.91323657140E+01  0.50528862321E+02  0.30000007512E+02 0.  0.
         12    1    3    3    0    0 -0.16767832130E+02 -0.35897147225E+02  0.91323657140E+01  0.40659137679E+02  0.00000000000E+00 0. -1.
         11    1    4    4    0    0  0.49174950403E+01 -0.94082738804E+00  0.31023794621E+01  0.58899636870E+01  0.51100000000E-03 0. -1.
        -11    1    4    4    0    0  0.92919121923E+01  0.20868098327E+02 -0.16177697095E+02  0.27991695975E+02  0.51100000000E-03 0.  1.
         12    1    4    4    0    0  0.25584248975E+01  0.15969876286E+02  0.39429519194E+01  0.16647202660E+02  0.00000000000E+00 0. -1.
</event>
<event>
 8    1  0.1338956E-013  0.9118800E+02  0.7816164E-02  0.1184000E+00
        -11   -1    0    0    0    0  0.00000000000E+00  0.00000000000E+00  0.45593999997E+02  0.45594000000E+02  0.51100000000E-03 0. -1.
         11   -1    0    0    0    0 -0.00000000000E+00 -0.00000000000E+00 -0.45593999997E+02  0.45594000000E+02  0.51100000000E-03 0.  1.
         23    2    1    2    0    0 -0.17763568394E-14  0.00000000000E+00  0.00000000000E+00  0.91188000000E+02  0.91188000000E+02 0.  0.
    9900012    2    3    3    0    0 -0.12383288454E+02 -0.27891940797E+02 -0.26867447734E+02  0.50528856599E+02  0.29999990120E+02 0.  0.
         12    1    3    3    0    0  0.12383288454E+02  0.27891940797E+02  0.26867447734E+02  0.40659143401E+02  0.00000000000E+00 0. -1.
         11    1    4    4    0    0 -0.59172156167E+01 -0.19951992748E+02 -0.57617393591E+01  0.21593820783E+02  0.51100000000E-03 0. -1.
        -11    1    4    4    0    0  0.37789688385E+01  0.33228678026E+00  0.29794303557E+00  0.38052319640E+01  0.51100000000E-03 0.  1.
        -12    1    4    4    0    0 -0.10245041675E+02 -0.82722348288E+01 -0.21403651410E+02  0.25129803853E+02  0.00000000000E+00 0.  1.
</event>
<event>
 8    1  0.1338956E-013  0.9118800E+02  0.7816164E-02  0.1184000E+00
        -11   -1    0    0    0    0  0.00000000000E+00  0.00000000000E+00  0.45593999997E+02  0.45594000000E+02  0.51100000000E-03 0. -1.
         11   -1    0    0    0    0 -0.00000000000E+00 -0.00000000000E+00 -0.45593999997E+02  0.45594000000E+02  0.51100000000E-03 0.  1.
         23    2    1    2    0    0  0.00000000000E+00  0.00000000000E+00  0.00000000000E+00  0.91188000000E+02  0.91188000000E+02 0.  0.
    9900012    2    3    3    0    0 -0.18571918988E+02  0.62117709658E+01  0.35632335425E+02  0.50528860791E+02  0.30000002859E+02 0.  0.
        -12    1    3    3    0    0  0.18571918988E+02 -0.62117709658E+01 -0.35632335425E+02  0.40659139209E+02  0.00000000000E+00 0.  1.
         11    1    4    4    0    0  0.38149148703E+01  0.70314097286E+01  0.92485505697E+01  0.12228245424E+02  0.51100000000E-03 0. -1.
        -11    1    4    4    0    0 -0.13227346406E+02  0.53432000220E+01  0.67639753132E+01  0.15788091769E+02  0.51100000000E-03 0.  1.
        -12    1    4    4    0    0 -0.91594874522E+01 -0.61628387848E+01  0.19619809542E+02  0.22512523598E+02  0.00000000000E+00 0.  1.
</event>
<event>
 8    1  0.1338956E-013  0.9118800E+02  0.7816164E-02  0.1184000E+00
        -11   -1    0    0    0    0  0.00000000000E+00  0.00000000000E+00  0.45593999997E+02  0.45594000000E+02  0.51100000000E-03 0. -1.
         11   -1    0    0    0    0 -0.00000000000E+00 -0.00000000000E+00 -0.45593999997E+02  0.45594000000E+02  0.51100000000E-03 0.  1.
         23    2    1    2    0    0  0.35527136788E-14 -0.17763568394E-14 -0.35527136788E-14  0.91188000000E+02  0.91188000000E+02 0.  0.
    9900012    2    3    3    0    0 -0.25244123425E+02  0.92600102859E+01  0.30498396344E+02  0.50528859115E+02  0.29999997766E+02 0.  0.
        -12    1    3    3    0    0  0.25244123425E+02 -0.92600102859E+01 -0.30498396344E+02  0.40659140885E+02  0.00000000000E+00 0.  1.
         11    1    4    4    0    0 -0.77562176123E+00 -0.21814875182E+01 -0.25011815049E+01  0.34082819851E+01  0.51100000000E-03 0. -1.
        -11    1    4    4    0    0  0.14054253950E+01  0.60387671601E+01  0.11435321731E+02  0.13008017247E+02  0.51100000000E-03 0.  1.
         12    1    4    4    0    0 -0.25873927058E+02  0.54027306440E+01  0.21564256118E+02  0.34112559883E+02  0.00000000000E+00 0. -1.
</event>
<event>
 8    1  0.1338956E-013  0.9118800E+02  0.7816164E-02  0.1184000E+00
        -11   -1    0    0    0    0  0.00000000000E+00  0.00000000000E+00  0.45593999997E+02  0.45594000000E+02  0.51100000000E-03 0. -1.
         11   -1    0    0    0    0 -0.00000000000E+00 -0.00000000000E+00 -0.45593999997E+02  0.45594000000E+02  0.51100000000E-03 0.  1.
         23    2    1    2    0    0  0.17763568394E-14 -0.35527136788E-14  0.00000000000E+00  0.91188000000E+02  0.91188000000E+02 0.  0.
    9900012    2    3    3    0    0 -0.10970176543E+02 -0.20239523836E+02 -0.33513919864E+02  0.50528856832E+02  0.29999990828E+02 0.  0.
         12    1    3    3    0    0  0.10970176543E+02  0.20239523836E+02  0.33513919864E+02  0.40659143168E+02  0.00000000000E+00 0. -1.
         11    1    4    4    0    0 -0.33294795010E+01 -0.19836080178E+02 -0.16746160642E+02  0.26172302289E+02  0.51100000000E-03 0. -1.
        -11    1    4    4    0    0 -0.11564655297E+02 -0.30592261304E+01 -0.15248287266E+02  0.19380670305E+02  0.51100000000E-03 0.  1.
        -12    1    4    4    0    0  0.39239582550E+01  0.26557824731E+01 -0.15194719555E+01  0.49758842385E+01  0.00000000000E+00 0.  1.
</event>
<event>
 8    1  0.1338956E-013  0.9118800E+02  0.7816164E-02  0.1184000E+00
        -11   -1    0    0    0    0  0.00000000000E+00  0.00000000000E+00  0.45593999997E+02  0.45594000000E+02  0.51100000000E-03 0.  1.
         11   -1    0    0    0    0 -0.00000000000E+00 -0.00000000000E+00 -0.45593999997E+02  0.45594000000E+02  0.51100000000E-03 0. -1.
         23    2    1    2    0    0  0.00000000000E+00  0.00000000000E+00  0.00000000000E+00  0.91188000000E+02  0.91188000000E+02 0.  0.
    9900012    2    3    3    0    0 -0.29215079676E+01 -0.31750355557E+02  0.25229855782E+02  0.50528856998E+02  0.29999991332E+02 0.  0.
        -12    1    3    3    0    0  0.29215079676E+01  0.31750355557E+02 -0.25229855782E+02  0.40659143002E+02  0.00000000000E+00 0.  1.
         11    1    4    4    0    0 -0.47105385372E+01 -0.13800081535E+02  0.20137819734E+02  0.24862888158E+02  0.51100000000E-03 0. -1.
        -11    1    4    4    0    0 -0.50629604707E+01 -0.11352298068E+02  0.90371114679E+01  0.15368071580E+02  0.51100000000E-03 0.  1.
         12    1    4    4    0    0  0.68519910404E+01 -0.65979759542E+01 -0.39450754190E+01  0.10297897260E+02  0.00000000000E+00 0. -1.
</event>
<event>
 8    1  0.1338956E-013  0.9118800E+02  0.7816164E-02  0.1184000E+00
        -11   -1    0    0    0    0  0.00000000000E+00  0.00000000000E+00  0.45593999997E+02  0.45594000000E+02  0.51100000000E-03 0. -1.
         11   -1    0    0    0    0 -0.00000000000E+00 -0.00000000000E+00 -0.45593999997E+02  0.45594000000E+02  0.51100000000E-03 0.  1.
         23    2    1    2    0    0  0.00000000000E+00  0.00000000000E+00  0.71054273576E-14  0.91188000000E+02  0.91188000000E+02 0.  0.
    9900012    2    3    3    0    0 -0.17657464656E+02  0.14860201943E+02  0.33474692618E+02  0.50528847208E+02  0.29999961575E+02 0.  0.
        -12    1    3    3    0    0  0.17657464656E+02 -0.14860201943E+02 -0.33474692618E+02  0.40659152792E+02  0.00000000000E+00 0.  1.
         11    1    4    4    0    0 -0.61869268642E+01  0.20817504815E+01 -0.18930720578E+00  0.65305119684E+01  0.51100000000E-03 0.  1.
        -11    1    4    4    0    0 -0.11473782075E+02  0.14156769571E+02  0.36527386109E+02  0.40820481820E+02  0.51100000000E-03 0. -1.
         12    1    4    4    0    0  0.32442829410E-02 -0.13783181096E+01 -0.28633862857E+01  0.31778534198E+01  0.00000000000E+00 0. -1.
</event>
<event>
 8    1  0.1338956E-013  0.9118800E+02  0.7816164E-02  0.1184000E+00
        -11   -1    0    0    0    0  0.00000000000E+00  0.00000000000E+00  0.45593999997E+02  0.45594000000E+02  0.51100000000E-03 0. -1.
         11   -1    0    0    0    0 -0.00000000000E+00 -0.00000000000E+00 -0.45593999997E+02  0.45594000000E+02  0.51100000000E-03 0.  1.
         23    2    1    2    0    0  0.35527136788E-14  0.00000000000E+00 -0.71054273576E-14  0.91188000000E+02  0.91188000000E+02 0.  0.
    9900012    2    3    3    0    0  0.16029254897E+02 -0.11109120368E+02 -0.35676538649E+02  0.50528868457E+02  0.30000026161E+02 0.  0.
         12    1    3    3    0    0 -0.16029254897E+02  0.11109120368E+02  0.35676538649E+02  0.40659131543E+02  0.00000000000E+00 0. -1.
         11    1    4    4    0    0  0.34102974282E+01 -0.10894209441E+02 -0.46826974355E+01  0.12338621618E+02  0.51100000000E-03 0. -1.
        -11    1    4    4    0    0  0.67029451560E+01 -0.16361364700E+01 -0.30755766635E+00  0.69065916552E+01  0.51100000000E-03 0.  1.
        -12    1    4    4    0    0  0.59160123130E+01  0.14212255428E+01 -0.30686283547E+02  0.31283655184E+02  0.00000000000E+00 0.  1.
</event>
<event>
 8    1  0.1338956E-013  0.9118800E+02  0.7816164E-02  0.1184000E+00
        -11   -1    0    0    0    0  0.00000000000E+00  0.00000000000E+00  0.45593999997E+02  0.45594000000E+02  0.51100000000E-03 0. -1.
         11   -1    0    0    0    0 -0.00000000000E+00 -0.00000000000E+00 -0.45593999997E+02  0.45594000000E+02  0.51100000000E-03 0.  1.
         23    2    1    2    0    0  0.00000000000E+00 -0.26645352591E-14 -0.17763568394E-14  0.91188000000E+02  0.91188000000E+02 0.  0.
    9900012    2    3    3    0    0  0.37619779131E+02 -0.61508873872E+01 -0.14145113238E+02  0.50528862946E+02  0.30000009409E+02 0.  0.
         12    1    3    3    0    0 -0.37619779131E+02  0.61508873872E+01  0.14145113238E+02  0.40659137054E+02  0.00000000000E+00 0. -1.
         11    1    4    4    0    0  0.69694696126E+01 -0.56908616126E+01 -0.26615763335E+01  0.93831445377E+01  0.51100000000E-03 0. -1.
        -11    1    4    4    0    0  0.91062332449E+00 -0.62477959424E+01 -0.86593369744E+01  0.10716730195E+02  0.51100000000E-03 0.  1.
         12    1    4    4    0    0  0.29739686194E+02  0.57877701678E+01 -0.28241999303E+01  0.30428988213E+02  0.00000000000E+00 0. -1.
</event>
<event>
 8    1  0.1338956E-013  0.9118800E+02  0.7816164E-02  0.1184000E+00
        -11   -1    0    0    0    0  0.00000000000E+00  0.00000000000E+00  0.45593999997E+02  0.45594000000E+02  0.51100000000E-03 0. -1.
         11   -1    0    0    0    0 -0.00000000000E+00 -0.00000000000E+00 -0.45593999997E+02  0.45594000000E+02  0.51100000000E-03 0.  1.
         23    2    1    2    0    0  0.88817841970E-15  0.35527136788E-14  0.71054273576E-14  0.91188000000E+02  0.91188000000E+02 0.  0.
    9900012    2    3    3    0    0 -0.20210987843E+01  0.18680763400E+02  0.36057019422E+02  0.50528875427E+02  0.30000047347E+02 0.  0.
        -12    1    3    3    0    0  0.20210987843E+01 -0.18680763400E+02 -0.36057019422E+02  0.40659124573E+02  0.00000000000E+00 0.  1.
         11    1    4    4    0    0  0.37083154602E+01  0.24950930751E+01  0.13722950226E+01  0.46754985719E+01  0.51100000000E-03 0. -1.
        -11    1    4    4    0    0 -0.13443924394E+02  0.80390363950E+01  0.95949155245E+01  0.18369202853E+02  0.51100000000E-03 0.  1.
         12    1    4    4    0    0  0.77145101491E+01  0.81466339294E+01  0.25089808875E+02  0.27484174002E+02  0.00000000000E+00 0. -1.
</event>
<event>
 8    1  0.1338956E-013  0.9118800E+02  0.7816164E-02  0.1184000E+00
        -11   -1    0    0    0    0  0.00000000000E+00  0.00000000000E+00  0.45593999997E+02  0.45594000000E+02  0.51100000000E-03 0.  1.
         11   -1    0    0    0    0 -0.00000000000E+00 -0.00000000000E+00 -0.45593999997E+02  0.45594000000E+02  0.51100000000E-03 0. -1.
         23    2    1    2    0    0 -0.35527136788E-14 -0.35527136788E-14 -0.17763568394E-14  0.91188000000E+02  0.91188000000E+02 0.  0.
    9900012    2    3    3    0    0 -0.26352976032E+02 -0.28143815078E+02 -0.12907930197E+02  0.50528827175E+02  0.29999900680E+02 0.  0.
         12    1    3    3    0    0  0.26352976032E+02  0.28143815078E+02  0.12907930197E+02  0.40659172825E+02  0.00000000000E+00 0. -1.
         11    1    4    4    0    0 -0.29075560129E+00 -0.99344686346E+01 -0.28913741227E+00  0.99429274651E+01  0.51100000000E-03 0. -1.
        -11    1    4    4    0    0 -0.10720393861E+02 -0.16549427941E+02  0.13590657164E+01  0.19765056782E+02  0.51100000000E-03 0.  1.
         12    1    4    4    0    0 -0.15341826570E+02 -0.16599185015E+01 -0.13977858501E+02  0.20820842927E+02  0.00000000000E+00 0. -1.
</event>
<event>
 8    1  0.1338956E-013  0.9118800E+02  0.7816164E-02  0.1184000E+00
        -11   -1    0    0    0    0  0.00000000000E+00  0.00000000000E+00  0.45593999997E+02  0.45594000000E+02  0.51100000000E-03 0. -1.
         11   -1    0    0    0    0 -0.00000000000E+00 -0.00000000000E+00 -0.45593999997E+02  0.45594000000E+02  0.51100000000E-03 0.  1.
         23    2    1    2    0    0  0.17763568394E-14 -0.88817841970E-15  0.00000000000E+00  0.91188000000E+02  0.91188000000E+02 0.  0.
    9900012    2    3    3    0    0  0.66294066282E+01  0.58881978590E+01 -0.39680546637E+02  0.50528859728E+02  0.29999999629E+02 0.  0.
         12    1    3    3    0    0 -0.66294066282E+01 -0.58881978590E+01  0.39680546637E+02  0.40659140272E+02  0.00000000000E+00 0. -1.
         11    1    4    4    0    0 -0.89153889444E+01 -0.69525809203E-01 -0.21696896962E+02  0.23457287394E+02  0.51100000000E-03 0. -1.
        -11    1    4    4    0    0  0.42074371619E+01  0.68097615963E+01 -0.37082014037E+01  0.88219123993E+01  0.51100000000E-03 0.  1.
         12    1    4    4    0    0  0.11337358411E+02 -0.85203792806E+00 -0.14275448272E+02  0.18249659934E+02  0.00000000000E+00 0. -1.
</event>
<event>
 8    1  0.1338956E-013  0.9118800E+02  0.7816164E-02  0.1184000E+00
        -11   -1    0    0    0    0  0.00000000000E+00  0.00000000000E+00  0.45593999997E+02  0.45594000000E+02  0.51100000000E-03 0. -1.
         11   -1    0    0    0    0 -0.00000000000E+00 -0.00000000000E+00 -0.45593999997E+02  0.45594000000E+02  0.51100000000E-03 0.  1.
         23    2    1    2    0    0  0.00000000000E+00  0.00000000000E+00  0.35527136788E-14  0.91188000000E+02  0.91188000000E+02 0.  0.
    9900012    2    3    3    0    0  0.54516560618E+00  0.27133484694E+02  0.30276111341E+02  0.50528854471E+02  0.29999983651E+02 0.  0.
        -12    1    3    3    0    0 -0.54516560618E+00 -0.27133484694E+02 -0.30276111341E+02  0.40659145529E+02  0.00000000000E+00 0.  1.
         11    1    4    4    0    0  0.10876846556E+01  0.16546548205E+02  0.22142759429E+02  0.27663570102E+02  0.51100000000E-03 0. -1.
        -11    1    4    4    0    0 -0.25229645040E+00  0.13973266748E+02  0.11486994762E+02  0.18090519230E+02  0.51100000000E-03 0.  1.
        -12    1    4    4    0    0 -0.29022259906E+00 -0.33863302582E+01 -0.33536428491E+01  0.47747651392E+01  0.00000000000E+00 0.  1.
</event>
<event>
 8    1  0.1338956E-013  0.9118800E+02  0.7816164E-02  0.1184000E+00
        -11   -1    0    0    0    0  0.00000000000E+00  0.00000000000E+00  0.45593999997E+02  0.45594000000E+02  0.51100000000E-03 0. -1.
         11   -1    0    0    0    0 -0.00000000000E+00 -0.00000000000E+00 -0.45593999997E+02  0.45594000000E+02  0.51100000000E-03 0.  1.
         23    2    1    2    0    0 -0.35527136788E-14 -0.71054273576E-14 -0.88817841970E-15  0.91188000000E+02  0.91188000000E+02 0.  0.
    9900012    2    3    3    0    0  0.30578580525E+02  0.26197893748E+02  0.56371862399E+01  0.50528965426E+02  0.30000320908E+02 0.  0.
         12    1    3    3    0    0 -0.30578580525E+02 -0.26197893748E+02 -0.56371862399E+01  0.40659034574E+02  0.00000000000E+00 0. -1.
         11    1    4    4    0    0  0.50678411006E+01  0.13212766162E+02  0.39964853705E+01  0.14704832493E+02  0.51100000000E-03 0. -1.
        -11    1    4    4    0    0 -0.49152313534E+00 -0.39212927246E+01 -0.22792894748E+01  0.45621587429E+01  0.51100000000E-03 0.  1.
         12    1    4    4    0    0  0.26002262560E+02  0.16906420310E+02  0.39199903442E+01  0.31261974190E+02  0.00000000000E+00 0. -1.
</event>
<event>
 8    1  0.1338956E-013  0.9118800E+02  0.7816164E-02  0.1184000E+00
        -11   -1    0    0    0    0  0.00000000000E+00  0.00000000000E+00  0.45593999997E+02  0.45594000000E+02  0.51100000000E-03 0. -1.
         11   -1    0    0    0    0 -0.00000000000E+00 -0.00000000000E+00 -0.45593999997E+02  0.45594000000E+02  0.51100000000E-03 0.  1.
         23    2    1    2    0    0  0.88817841970E-15  0.22204460493E-15  0.71054273576E-14  0.91188000000E+02  0.91188000000E+02 0.  0.
    9900012    2    3    3    0    0  0.60964909503E+01 -0.18079499514E+01  0.40158809017E+02  0.50528858019E+02  0.29999994436E+02 0.  0.
        -12    1    3    3    0    0 -0.60964909503E+01  0.18079499514E+01 -0.40158809017E+02  0.40659141981E+02  0.00000000000E+00 0.  1.
         11    1    4    4    0    0  0.39029572051E+01 -0.27604242860E+01  0.12198903674E+02  0.13102147469E+02  0.51100000000E-03 0. -1.
        -11    1    4    4    0    0  0.12530662767E+02  0.52953178685E+01  0.16653467888E+02  0.21503392608E+02  0.51100000000E-03 0.  1.
        -12    1    4    4    0    0 -0.10337129022E+02 -0.43428435338E+01  0.11306437455E+02  0.15923317942E+02  0.00000000000E+00 0.  1.
</event>
<event>
 8    1  0.1338956E-013  0.9118800E+02  0.7816164E-02  0.1184000E+00
        -11   -1    0    0    0    0  0.00000000000E+00  0.00000000000E+00  0.45593999997E+02  0.45594000000E+02  0.51100000000E-03 0.  1.
         11   -1    0    0    0    0 -0.00000000000E+00 -0.00000000000E+00 -0.45593999997E+02  0.45594000000E+02  0.51100000000E-03 0. -1.
         23    2    1    2    0    0 -0.35527136788E-14 -0.71054273576E-14  0.44408920985E-15  0.91188000000E+02  0.91188000000E+02 0.  0.
    9900012    2    3    3    0    0  0.18190877689E+02 -0.36355292953E+02 -0.74219079707E+00  0.50528853379E+02  0.29999980331E+02 0.  0.
        -12    1    3    3    0    0 -0.18190877689E+02  0.36355292953E+02  0.74219079707E+00  0.40659146621E+02  0.00000000000E+00 0.  1.
         11    1    4    4    0    0  0.19241994674E+02 -0.26231717306E+02  0.70448721279E+00  0.32540031567E+02  0.51100000000E-03 0. -1.
        -11    1    4    4    0    0 -0.16835933052E+01 -0.89076751273E+01  0.57022764962E+01  0.10709674136E+02  0.51100000000E-03 0.  1.
         12    1    4    4    0    0  0.63247632017E+00 -0.12159005193E+01 -0.71489545061E+01  0.72791476766E+01  0.00000000000E+00 0. -1.
</event>
<event>
 8    1  0.1338956E-013  0.9118800E+02  0.7816164E-02  0.1184000E+00
        -11   -1    0    0    0    0  0.00000000000E+00  0.00000000000E+00  0.45593999997E+02  0.45594000000E+02  0.51100000000E-03 0. -1.
         11   -1    0    0    0    0 -0.00000000000E+00 -0.00000000000E+00 -0.45593999997E+02  0.45594000000E+02  0.51100000000E-03 0.  1.
         23    2    1    2    0    0  0.17763568394E-14  0.00000000000E+00  0.00000000000E+00  0.91188000000E+02  0.91188000000E+02 0.  0.
    9900012    2    3    3    0    0  0.54612094024E+01 -0.21892436162E+02 -0.33823990434E+02  0.50528857139E+02  0.29999991760E+02 0.  0.
         12    1    3    3    0    0 -0.54612094024E+01  0.21892436162E+02  0.33823990434E+02  0.40659142861E+02  0.00000000000E+00 0. -1.
         11    1    4    4    0    0 -0.96475752849E+01 -0.10460127419E+02 -0.77357281198E+01  0.16196649787E+02  0.51100000000E-03 0. -1.
        -11    1    4    4    0    0 -0.90283219628E+00 -0.87239097477E+00 -0.75624311390E+01  0.76659335362E+01  0.51100000000E-03 0.  1.
        -12    1    4    4    0    0  0.16011616884E+02 -0.10559917768E+02 -0.18525831176E+02  0.26666273816E+02  0.00000000000E+00 0.  1.
</event>
<event>
 8    1  0.1338956E-013  0.9118800E+02  0.7816164E-02  0.1184000E+00
        -11   -1    0    0    0    0  0.00000000000E+00  0.00000000000E+00  0.45593999997E+02  0.45594000000E+02  0.51100000000E-03 0.  1.
         11   -1    0    0    0    0 -0.00000000000E+00 -0.00000000000E+00 -0.45593999997E+02  0.45594000000E+02  0.51100000000E-03 0. -1.
         23    2    1    2    0    0  0.00000000000E+00  0.00000000000E+00  0.44408920985E-15  0.91188000000E+02  0.91188000000E+02 0.  0.
    9900012    2    3    3    0    0  0.23560565853E+02  0.33077026337E+02 -0.19940240735E+01  0.50528855068E+02  0.29999985465E+02 0.  0.
         12    1    3    3    0    0 -0.23560565853E+02 -0.33077026337E+02  0.19940240735E+01  0.40659144932E+02  0.00000000000E+00 0. -1.
         11    1    4    4    0    0  0.60564978745E+01  0.43026730174E+01 -0.58305201564E+01  0.94439995317E+01  0.51100000000E-03 0. -1.
        -11    1    4    4    0    0  0.21236902501E+02  0.14145389380E+02  0.38031866547E-01  0.25516651725E+02  0.51100000000E-03 0.  1.
        -12    1    4    4    0    0 -0.37328345227E+01  0.14628963939E+02  0.37984642164E+01  0.15568203811E+02  0.00000000000E+00 0.  1.
</event>
<event>
 8    1  0.1338956E-013  0.9118800E+02  0.7816164E-02  0.1184000E+00
        -11   -1    0    0    0    0  0.00000000000E+00  0.00000000000E+00  0.45593999997E+02  0.45594000000E+02  0.51100000000E-03 0. -1.
         11   -1    0    0    0    0 -0.00000000000E+00 -0.00000000000E+00 -0.45593999997E+02  0.45594000000E+02  0.51100000000E-03 0.  1.
         23    2    1    2    0    0  0.00000000000E+00  0.44408920985E-15  0.00000000000E+00  0.91188000000E+02  0.91188000000E+02 0.  0.
    9900012    2    3    3    0    0 -0.21948336391E+02 -0.44727615432E+00  0.34223322301E+02  0.50528864304E+02  0.30000013537E+02 0.  0.
        -12    1    3    3    0    0  0.21948336391E+02  0.44727615432E+00 -0.34223322301E+02  0.40659135696E+02  0.00000000000E+00 0.  1.
         11    1    4    4    0    0 -0.34784060343E+01 -0.53921851095E+01 -0.23489129684E+01  0.68331808983E+01  0.51100000000E-03 0. -1.
        -11    1    4    4    0    0 -0.18458482930E+01 -0.10370067638E+00 -0.11413143095E+01  0.21726730921E+01  0.51100000000E-03 0.  1.
         12    1    4    4    0    0 -0.16624082063E+02  0.50486096316E+01  0.37713549579E+02  0.41523010313E+02  0.00000000000E+00 0. -1.
</event>
<event>
 8    1  0.1338956E-013  0.9118800E+02  0.7816164E-02  0.1184000E+00
        -11   -1    0    0    0    0  0.00000000000E+00  0.00000000000E+00  0.45593999997E+02  0.45594000000E+02  0.51100000000E-03 0. -1.
         11   -1    0    0    0    0 -0.00000000000E+00 -0.00000000000E+00 -0.45593999997E+02  0.45594000000E+02  0.51100000000E-03 0.  1.
         23    2    1    2    0    0 -0.35527136788E-14  0.00000000000E+00  0.00000000000E+00  0.91188000000E+02  0.91188000000E+02 0.  0.
    9900012    2    3    3    0    0  0.26954772782E+02  0.23541091569E+02 -0.19298275808E+02  0.50528853216E+02  0.29999979836E+02 0.  0.
         12    1    3    3    0    0 -0.26954772782E+02 -0.23541091569E+02  0.19298275808E+02  0.40659146784E+02  0.00000000000E+00 0. -1.
         11    1    4    4    0    0  0.20446567695E+02  0.87491338282E+01 -0.26816215075E+01  0.22400905505E+02  0.51100000000E-03 0. -1.
        -11    1    4    4    0    0  0.90684073992E+01  0.42229390848E+01 -0.25050777281E+01  0.10312353851E+02  0.51100000000E-03 0.  1.
        -12    1    4    4    0    0 -0.25602023120E+01  0.10569018656E+02 -0.14111576572E+02  0.17815593860E+02  0.00000000000E+00 0.  1.
</event>
<event>
 8    1  0.1338956E-013  0.9118800E+02  0.7816164E-02  0.1184000E+00
        -11   -1    0    0    0    0  0.00000000000E+00  0.00000000000E+00  0.45593999997E+02  0.45594000000E+02  0.51100000000E-03 0. -1.
         11   -1    0    0    0    0 -0.00000000000E+00 -0.00000000000E+00 -0.45593999997E+02  0.45594000000E+02  0.51100000000E-03 0.  1.
         23    2    1    2    0    0 -0.11934897515E-14  0.88817841970E-15  0.00000000000E+00  0.91188000000E+02  0.91188000000E+02 0.  0.
    9900012    2    3    3    0    0 -0.20657699790E+00  0.65502489870E+01  0.40127517993E+02  0.50528854213E+02  0.29999982865E+02 0.  0.
        -12    1    3    3    0    0  0.20657699790E+00 -0.65502489870E+01 -0.40127517993E+02  0.40659145787E+02  0.00000000000E+00 0.  1.
         11    1    4    4    0    0  0.14404200009E+01 -0.37472542639E+01  0.24725953477E+02  0.25049740516E+02  0.51100000000E-03 0. -1.
        -11    1    4    4    0    0 -0.69970104555E+01  0.30490801659E+01 -0.42565320805E-02  0.76325004783E+01  0.51100000000E-03 0.  1.
         12    1    4    4    0    0  0.53500134567E+01  0.72484230851E+01  0.15405821048E+02  0.17846613219E+02  0.00000000000E+00 0. -1.
</event>
<event>
 8    1  0.1338956E-013  0.9118800E+02  0.7816164E-02  0.1184000E+00
        -11   -1    0    0    0    0  0.00000000000E+00  0.00000000000E+00  0.45593999997E+02  0.45594000000E+02  0.51100000000E-03 0. -1.
         11   -1    0    0    0    0 -0.00000000000E+00 -0.00000000000E+00 -0.45593999997E+02  0.45594000000E+02  0.51100000000E-03 0.  1.
         23    2    1    2    0    0  0.71054273576E-14 -0.88817841970E-15  0.00000000000E+00  0.91188000000E+02  0.91188000000E+02 0.  0.
    9900012    2    3    3    0    0  0.35621762878E+02 -0.54400006194E+01 -0.18832473108E+02  0.50528860306E+02  0.30000001387E+02 0.  0.
         12    1    3    3    0    0 -0.35621762878E+02  0.54400006194E+01  0.18832473108E+02  0.40659139694E+02  0.00000000000E+00 0. -1.
         11    1    4    4    0    0  0.15441214400E+02  0.33806792356E+01 -0.95796289099E+01  0.18483218998E+02  0.51100000000E-03 0.  1.
        -11    1    4    4    0    0  0.19519731367E+02 -0.83193731306E+01  0.14899112071E+01  0.21270912477E+02  0.51100000000E-03 0. -1.
         12    1    4    4    0    0  0.66081711119E+00 -0.50130672441E+00 -0.10742755405E+02  0.10774728831E+02  0.00000000000E+00 0. -1.
</event>
<event>
 8    1  0.1338956E-013  0.9118800E+02  0.7816164E-02  0.1184000E+00
        -11   -1    0    0    0    0  0.00000000000E+00  0.00000000000E+00  0.45593999997E+02  0.45594000000E+02  0.51100000000E-03 0. -1.
         11   -1    0    0    0    0 -0.00000000000E+00 -0.00000000000E+00 -0.45593999997E+02  0.45594000000E+02  0.51100000000E-03 0.  1.
         23    2    1    2    0    0 -0.35527136788E-14  0.00000000000E+00  0.00000000000E+00  0.91188000000E+02  0.91188000000E+02 0.  0.
    9900012    2    3    3    0    0 -0.28393625776E+02 -0.16481038409E+02  0.23986320178E+02  0.50528853828E+02  0.29999981696E+02 0.  0.
        -12    1    3    3    0    0  0.28393625776E+02  0.16481038409E+02 -0.23986320178E+02  0.40659146172E+02  0.00000000000E+00 0.  1.
         11    1    4    4    0    0 -0.64710984679E+01 -0.11287437335E+02  0.33732672072E+00  0.13015189071E+02  0.51100000000E-03 0. -1.
        -11    1    4    4    0    0 -0.10557360799E+02 -0.55048000754E+01  0.72890111495E+00  0.11928620541E+02  0.51100000000E-03 0.  1.
        -12    1    4    4    0    0 -0.11365166509E+02  0.31119900142E+00  0.22920092342E+02  0.25585044217E+02  0.00000000000E+00 0.  1.
</event>
<event>
 8    1  0.1338956E-013  0.9118800E+02  0.7816164E-02  0.1184000E+00
        -11   -1    0    0    0    0  0.00000000000E+00  0.00000000000E+00  0.45593999997E+02  0.45594000000E+02  0.51100000000E-03 0. -1.
         11   -1    0    0    0    0 -0.00000000000E+00 -0.00000000000E+00 -0.45593999997E+02  0.45594000000E+02  0.51100000000E-03 0.  1.
         23    2    1    2    0    0 -0.17763568394E-14  0.00000000000E+00  0.00000000000E+00  0.91188000000E+02  0.91188000000E+02 0.  0.
    9900012    2    3    3    0    0  0.10421140231E+02  0.34242666544E+02 -0.19287432100E+02  0.50528863109E+02  0.30000009906E+02 0.  0.
         12    1    3    3    0    0 -0.10421140231E+02 -0.34242666544E+02  0.19287432100E+02  0.40659136891E+02  0.00000000000E+00 0. -1.
         11    1    4    4    0    0  0.36074429393E+00 -0.23467630292E+01 -0.40419763558E+00  0.24084869007E+01  0.51100000000E-03 0. -1.
        -11    1    4    4    0    0  0.10081210468E+01  0.25268483190E+02 -0.21737271576E+02  0.33346986769E+02  0.51100000000E-03 0.  1.
        -12    1    4    4    0    0  0.90522748898E+01  0.11320946383E+02  0.28540371119E+01  0.14773389439E+02  0.00000000000E+00 0.  1.
</event>
<event>
 8    1  0.1338956E-013  0.9118800E+02  0.7816164E-02  0.1184000E+00
        -11   -1    0    0    0    0  0.00000000000E+00  0.00000000000E+00  0.45593999997E+02  0.45594000000E+02  0.51100000000E-03 0. -1.
         11   -1    0    0    0    0 -0.00000000000E+00 -0.00000000000E+00 -0.45593999997E+02  0.45594000000E+02  0.51100000000E-03 0.  1.
         23    2    1    2    0    0  0.00000000000E+00  0.00000000000E+00  0.00000000000E+00  0.91188000000E+02  0.91188000000E+02 0.  0.
    9900012    2    3    3    0    0  0.14347886471E+02 -0.13152921961E+02  0.35697417001E+02  0.50528846260E+02  0.29999958692E+02 0.  0.
        -12    1    3    3    0    0 -0.14347886471E+02  0.13152921961E+02 -0.35697417001E+02  0.40659153740E+02  0.00000000000E+00 0.  1.
         11    1    4    4    0    0  0.13465051351E+01 -0.62109598025E+01  0.19514633589E+02  0.20523401816E+02  0.51100000000E-03 0. -1.
        -11    1    4    4    0    0 -0.15118730966E+01  0.56413853924E+01  0.21777153758E+01  0.62332522751E+01  0.51100000000E-03 0.  1.
        -12    1    4    4    0    0  0.14513254433E+02 -0.12583347551E+02  0.14005068037E+02  0.23772192169E+02  0.00000000000E+00 0.  1.
</event>
<event>
 8    1  0.1748353E-013  0.9118800E+02  0.7816164E-02  0.1184000E+00
        -11   -1    0    0    0    0  0.00000000000E+00  0.00000000000E+00  0.45593999997E+02  0.45594000000E+02  0.51100000000E-03 0. -1.
         11   -1    0    0    0    0 -0.00000000000E+00 -0.00000000000E+00 -0.45593999997E+02  0.45594000000E+02  0.51100000000E-03 0.  1.
         23    2    1    2    0    0  0.00000000000E+00  0.27755575616E-15  0.00000000000E+00  0.91188000000E+02  0.91188000000E+02 0.  0.
    9900012    2    3    3    0    0 -0.13792686030E+02  0.32380423940E+00 -0.38246866988E+02  0.50528857467E+02  0.29999992757E+02 0.  0.
         12    1    3    3    0    0  0.13792686030E+02 -0.32380423940E+00  0.38246866988E+02  0.40659142533E+02  0.00000000000E+00 0. -1.
         11    1    4    4    0    0 -0.69057314833E+01  0.22489696427E+01 -0.56466939740E+00  0.72846306401E+01  0.51100000000E-03 0. -1.
        -11    1    4    4    0    0 -0.85802367265E+01 -0.89261808842E+01 -0.31150213526E+02  0.33520634995E+02  0.51100000000E-03 0.  1.
         12    1    4    4    0    0  0.16932821795E+01  0.70010154809E+01 -0.65319840645E+01  0.97235918323E+01  0.00000000000E+00 0. -1.
</event>
<event>
 8    1  0.1338956E-013  0.9118800E+02  0.7816164E-02  0.1184000E+00
        -11   -1    0    0    0    0  0.00000000000E+00  0.00000000000E+00  0.45593999997E+02  0.45594000000E+02  0.51100000000E-03 0. -1.
         11   -1    0    0    0    0 -0.00000000000E+00 -0.00000000000E+00 -0.45593999997E+02  0.45594000000E+02  0.51100000000E-03 0.  1.
         23    2    1    2    0    0  0.00000000000E+00  0.17763568394E-14  0.00000000000E+00  0.91188000000E+02  0.91188000000E+02 0.  0.
    9900012    2    3    3    0    0 -0.30904210800E+02  0.10288908934E+02  0.24335727745E+02  0.50528935364E+02  0.30000229531E+02 0.  0.
        -12    1    3    3    0    0  0.30904210800E+02 -0.10288908934E+02 -0.24335727745E+02  0.40659064636E+02  0.00000000000E+00 0.  1.
         11    1    4    4    0    0 -0.10235088126E+02  0.10286270438E+02  0.27019465901E+00  0.14513352262E+02  0.51100000000E-03 0. -1.
        -11    1    4    4    0    0 -0.13486520996E+02  0.77397272378E+01  0.10232720193E+02  0.18614461827E+02  0.51100000000E-03 0.  1.
        -12    1    4    4    0    0 -0.71826016779E+01 -0.77370887425E+01  0.13832812893E+02  0.17401121274E+02  0.00000000000E+00 0.  1.
</event>
<event>
 8    1  0.1338956E-013  0.9118800E+02  0.7816164E-02  0.1184000E+00
        -11   -1    0    0    0    0  0.00000000000E+00  0.00000000000E+00  0.45593999997E+02  0.45594000000E+02  0.51100000000E-03 0. -1.
         11   -1    0    0    0    0 -0.00000000000E+00 -0.00000000000E+00 -0.45593999997E+02  0.45594000000E+02  0.51100000000E-03 0.  1.
         23    2    1    2    0    0 -0.88817841970E-15  0.00000000000E+00  0.00000000000E+00  0.91188000000E+02  0.91188000000E+02 0.  0.
    9900012    2    3    3    0    0 -0.28898889938E+01  0.21348241926E+02 -0.34482841933E+02  0.50528864748E+02  0.30000014887E+02 0.  0.
         12    1    3    3    0    0  0.28898889938E+01 -0.21348241926E+02  0.34482841933E+02  0.40659135252E+02  0.00000000000E+00 0. -1.
         11    1    4    4    0    0  0.42288451061E+01  0.12983086721E+02 -0.68877730499E+01  0.15293302115E+02  0.51100000000E-03 0. -1.
        -11    1    4    4    0    0  0.40950521086E+01  0.15953127237E+01  0.31340863836E+00  0.44059845318E+01  0.51100000000E-03 0.  1.
        -12    1    4    4    0    0 -0.11213786208E+02  0.67698424815E+01 -0.27908477521E+02  0.30829578101E+02  0.00000000000E+00 0.  1.
</event>
<event>
 8    1  0.1338956E-013  0.9118800E+02  0.7816164E-02  0.1184000E+00
        -11   -1    0    0    0    0  0.00000000000E+00  0.00000000000E+00  0.45593999997E+02  0.45594000000E+02  0.51100000000E-03 0. -1.
         11   -1    0    0    0    0 -0.00000000000E+00 -0.00000000000E+00 -0.45593999997E+02  0.45594000000E+02  0.51100000000E-03 0.  1.
         23    2    1    2    0    0  0.55511151231E-16  0.71054273576E-14 -0.35527136788E-14  0.91188000000E+02  0.91188000000E+02 0.  0.
    9900012    2    3    3    0    0  0.28545890613E+00 -0.38178014107E+02  0.13982974531E+02  0.50528858044E+02  0.29999994509E+02 0.  0.
        -12    1    3    3    0    0 -0.28545890613E+00  0.38178014107E+02 -0.13982974531E+02  0.40659141956E+02  0.00000000000E+00 0.  1.
         11    1    4    4    0    0 -0.69453872467E+00 -0.17519024391E+02  0.77172147874E+01  0.19156043537E+02  0.51100000000E-03 0. -1.
        -11    1    4    4    0    0 -0.70789356030E+01 -0.19820105478E+02  0.89030063511E+01  0.22851945930E+02  0.51100000000E-03 0.  1.
        -12    1    4    4    0    0  0.80589332338E+01 -0.83888423727E+00 -0.26372466079E+01  0.85208685767E+01  0.00000000000E+00 0.  1.
</event>
<event>
 8    1  0.1338956E-013  0.9118800E+02  0.7816164E-02  0.1184000E+00
        -11   -1    0    0    0    0  0.00000000000E+00  0.00000000000E+00  0.45593999997E+02  0.45594000000E+02  0.51100000000E-03 0. -1.
         11   -1    0    0    0    0 -0.00000000000E+00 -0.00000000000E+00 -0.45593999997E+02  0.45594000000E+02  0.51100000000E-03 0.  1.
         23    2    1    2    0    0 -0.17763568394E-14  0.00000000000E+00  0.00000000000E+00  0.91188000000E+02  0.91188000000E+02 0.  0.
    9900012    2    3    3    0    0  0.75970882328E+01  0.16069514096E+02 -0.36568029269E+02  0.50528858377E+02  0.29999995522E+02 0.  0.
         12    1    3    3    0    0 -0.75970882328E+01 -0.16069514096E+02  0.36568029269E+02  0.40659141623E+02  0.00000000000E+00 0. -1.
         11    1    4    4    0    0 -0.41468783519E+01  0.49552551753E+01 -0.15019546468E+02  0.16350471867E+02  0.51100000000E-03 0. -1.
        -11    1    4    4    0    0  0.88560691672E+01  0.17407291863E+02 -0.14749053685E+02  0.24474034321E+02  0.51100000000E-03 0.  1.
         12    1    4    4    0    0  0.28878974175E+01 -0.62930329415E+01 -0.67994291159E+01  0.97043521885E+01  0.00000000000E+00 0. -1.
</event>
<event>
 8    1  0.1338956E-013  0.9118800E+02  0.7816164E-02  0.1184000E+00
        -11   -1    0    0    0    0  0.00000000000E+00  0.00000000000E+00  0.45593999997E+02  0.45594000000E+02  0.51100000000E-03 0. -1.
         11   -1    0    0    0    0 -0.00000000000E+00 -0.00000000000E+00 -0.45593999997E+02  0.45594000000E+02  0.51100000000E-03 0.  1.
         23    2    1    2    0    0  0.44408920985E-15  0.88817841970E-15  0.00000000000E+00  0.91188000000E+02  0.91188000000E+02 0.  0.
    9900012    2    3    3    0    0  0.37662967797E+01 -0.35951939928E+01 -0.40324370630E+02  0.50528864766E+02  0.30000014941E+02 0.  0.
         12    1    3    3    0    0 -0.37662967797E+01  0.35951939928E+01  0.40324370630E+02  0.40659135234E+02  0.00000000000E+00 0. -1.
         11    1    4    4    0    0 -0.51578124845E+00  0.40684943788E+01  0.14410830649E+01  0.43468836501E+01  0.51100000000E-03 0. -1.
        -11    1    4    4    0    0 -0.23422690830E+01  0.27504295565E+01 -0.25547436104E+02  0.25801600318E+02  0.51100000000E-03 0.  1.
        -12    1    4    4    0    0  0.66243471112E+01 -0.10414117928E+02 -0.16218017591E+02  0.20380380798E+02  0.00000000000E+00 0.  1.
</event>
<event>
 8    1  0.1338956E-013  0.9118800E+02  0.7816164E-02  0.1184000E+00
        -11   -1    0    0    0    0  0.00000000000E+00  0.00000000000E+00  0.45593999997E+02  0.45594000000E+02  0.51100000000E-03 0. -1.
         11   -1    0    0    0    0 -0.00000000000E+00 -0.00000000000E+00 -0.45593999997E+02  0.45594000000E+02  0.51100000000E-03 0.  1.
         23    2    1    2    0    0  0.00000000000E+00  0.00000000000E+00  0.00000000000E+00  0.91188000000E+02  0.91188000000E+02 0.  0.
    9900012    2    3    3    0    0 -0.54841617352E+01  0.18657117591E+02 -0.35707116830E+02  0.50528901891E+02  0.30000127787E+02 0.  0.
         12    1    3    3    0    0  0.54841617352E+01 -0.18657117591E+02  0.35707116830E+02  0.40659098109E+02  0.00000000000E+00 0. -1.
         11    1    4    4    0    0 -0.16385270694E-01 -0.27548066310E+01 -0.80702465516E+01  0.85274912908E+01  0.51100000000E-03 0. -1.
        -11    1    4    4    0    0  0.25089995378E+01  0.44587876251E+01 -0.21777728494E+02  0.22370635315E+02  0.51100000000E-03 0.  1.
         12    1    4    4    0    0 -0.79767760023E+01  0.16953136597E+02 -0.58591417847E+01  0.19630775285E+02  0.00000000000E+00 0. -1.
</event>
<event>
 8    1  0.1338956E-013  0.9118800E+02  0.7816164E-02  0.1184000E+00
        -11   -1    0    0    0    0  0.00000000000E+00  0.00000000000E+00  0.45593999997E+02  0.45594000000E+02  0.51100000000E-03 0. -1.
         11   -1    0    0    0    0 -0.00000000000E+00 -0.00000000000E+00 -0.45593999997E+02  0.45594000000E+02  0.51100000000E-03 0.  1.
         23    2    1    2    0    0  0.00000000000E+00  0.17763568394E-14  0.00000000000E+00  0.91188000000E+02  0.91188000000E+02 0.  0.
    9900012    2    3    3    0    0 -0.13815748930E+02  0.95272376480E+01  0.37034075183E+02  0.50528857112E+02  0.29999991679E+02 0.  0.
        -12    1    3    3    0    0  0.13815748930E+02 -0.95272376480E+01 -0.37034075183E+02  0.40659142888E+02  0.00000000000E+00 0.  1.
         11    1    4    4    0    0 -0.63148818079E+01  0.17638388598E+01  0.12104423039E+02  0.13766114817E+02  0.51100000000E-03 0. -1.
        -11    1    4    4    0    0 -0.78634239701E+01  0.13148591281E+02  0.50009761304E+01  0.16116099147E+02  0.51100000000E-03 0.  1.
         12    1    4    4    0    0  0.36255684791E+00 -0.53851924927E+01  0.19928676014E+02  0.20646643149E+02  0.00000000000E+00 0. -1.
</event>
<event>
 8    1  0.1338956E-013  0.9118800E+02  0.7816164E-02  0.1184000E+00
        -11   -1    0    0    0    0  0.00000000000E+00  0.00000000000E+00  0.45593999997E+02  0.45594000000E+02  0.51100000000E-03 0. -1.
         11   -1    0    0    0    0 -0.00000000000E+00 -0.00000000000E+00 -0.45593999997E+02  0.45594000000E+02  0.51100000000E-03 0.  1.
         23    2    1    2    0    0  0.35527136788E-14  0.35527136788E-14 -0.35527136788E-14  0.91188000000E+02  0.91188000000E+02 0.  0.
    9900012    2    3    3    0    0  0.20262566930E+02  0.30903062533E+02 -0.16958608419E+02  0.50528864593E+02  0.30000014418E+02 0.  0.
         12    1    3    3    0    0 -0.20262566930E+02 -0.30903062533E+02  0.16958608419E+02  0.40659135407E+02  0.00000000000E+00 0. -1.
         11    1    4    4    0    0 -0.43969526348E+00 -0.21169924765E+01  0.25249586788E+01  0.33242150444E+01  0.51100000000E-03 0. -1.
        -11    1    4    4    0    0 -0.26073895705E+01  0.35049661189E+01 -0.56270475079E+01  0.71236880747E+01  0.51100000000E-03 0.  1.
        -12    1    4    4    0    0  0.23309651764E+02  0.29515088890E+02 -0.13856519590E+02  0.40080961474E+02  0.00000000000E+00 0.  1.
</event>
<event>
 8    1  0.1338956E-013  0.9118800E+02  0.7816164E-02  0.1184000E+00
        -11   -1    0    0    0    0  0.00000000000E+00  0.00000000000E+00  0.45593999997E+02  0.45594000000E+02  0.51100000000E-03 0. -1.
         11   -1    0    0    0    0 -0.00000000000E+00 -0.00000000000E+00 -0.45593999997E+02  0.45594000000E+02  0.51100000000E-03 0.  1.
         23    2    1    2    0    0  0.16653345369E-15  0.35527136788E-14  0.71054273576E-14  0.91188000000E+02  0.91188000000E+02 0.  0.
    9900012    2    3    3    0    0 -0.44160611001E+00 -0.22618644848E+02 -0.33784130582E+02  0.50528860930E+02  0.30000003283E+02 0.  0.
         12    1    3    3    0    0  0.44160611001E+00  0.22618644848E+02  0.33784130582E+02  0.40659139070E+02  0.00000000000E+00 0. -1.
         11    1    4    4    0    0 -0.10523908815E+02 -0.16526865710E+02 -0.92952800021E+01  0.21686220913E+02  0.51100000000E-03 0. -1.
        -11    1    4    4    0    0  0.15197421153E+01 -0.55190896313E+01 -0.52115483762E+01  0.77414600170E+01  0.51100000000E-03 0.  1.
         12    1    4    4    0    0  0.85625605894E+01 -0.57268950715E+00 -0.19277302204E+02  0.21101180000E+02  0.00000000000E+00 0. -1.
</event>
<event>
 8    1  0.1338956E-013  0.9118800E+02  0.7816164E-02  0.1184000E+00
        -11   -1    0    0    0    0  0.00000000000E+00  0.00000000000E+00  0.45593999997E+02  0.45594000000E+02  0.51100000000E-03 0. -1.
         11   -1    0    0    0    0 -0.00000000000E+00 -0.00000000000E+00 -0.45593999997E+02  0.45594000000E+02  0.51100000000E-03 0.  1.
         23    2    1    2    0    0  0.00000000000E+00 -0.11102230246E-14  0.00000000000E+00  0.91188000000E+02  0.91188000000E+02 0.  0.
    9900012    2    3    3    0    0 -0.92447262046E+01 -0.85403096129E+00  0.39584873603E+02  0.50528972101E+02  0.30000341198E+02 0.  0.
        -12    1    3    3    0    0  0.92447262046E+01  0.85403096129E+00 -0.39584873603E+02  0.40659027899E+02  0.00000000000E+00 0.  1.
         11    1    4    4    0    0 -0.70758700344E+00  0.16133169512E+01  0.11465261840E+01  0.21019023536E+01  0.51100000000E-03 0. -1.
        -11    1    4    4    0    0 -0.26020540265E+01  0.93286201176E+01  0.23033004223E+01  0.99548496499E+01  0.51100000000E-03 0.  1.
         12    1    4    4    0    0 -0.59350851747E+01 -0.11795968030E+02  0.36135046997E+02  0.38472220098E+02  0.00000000000E+00 0. -1.
</event>
<event>
 8    1  0.1338956E-013  0.9118800E+02  0.7816164E-02  0.1184000E+00
        -11   -1    0    0    0    0  0.00000000000E+00  0.00000000000E+00  0.45593999997E+02  0.45594000000E+02  0.51100000000E-03 0. -1.
         11   -1    0    0    0    0 -0.00000000000E+00 -0.00000000000E+00 -0.45593999997E+02  0.45594000000E+02  0.51100000000E-03 0.  1.
         23    2    1    2    0    0  0.88817841970E-15  0.00000000000E+00  0.00000000000E+00  0.91188000000E+02  0.91188000000E+02 0.  0.
    9900012    2    3    3    0    0  0.11312960386E+01  0.21843699223E+02 -0.34274473372E+02  0.50528849106E+02  0.29999967343E+02 0.  0.
         12    1    3    3    0    0 -0.11312960386E+01 -0.21843699223E+02  0.34274473372E+02  0.40659150894E+02  0.00000000000E+00 0. -1.
         11    1    4    4    0    0 -0.58728070755E+01 -0.22583125891E+01 -0.22206703948E+01  0.66724220459E+01  0.51100000000E-03 0. -1.
        -11    1    4    4    0    0  0.91377225251E+00  0.18231080857E+02 -0.11359480661E+02  0.21499885816E+02  0.51100000000E-03 0.  1.
         12    1    4    4    0    0  0.60903308616E+01  0.58709309547E+01 -0.20694322316E+02  0.22356541244E+02  0.00000000000E+00 0. -1.
</event>
<event>
 8    1  0.1338956E-013  0.9118800E+02  0.7816164E-02  0.1184000E+00
        -11   -1    0    0    0    0  0.00000000000E+00  0.00000000000E+00  0.45593999997E+02  0.45594000000E+02  0.51100000000E-03 0. -1.
         11   -1    0    0    0    0 -0.00000000000E+00 -0.00000000000E+00 -0.45593999997E+02  0.45594000000E+02  0.51100000000E-03 0.  1.
         23    2    1    2    0    0  0.71054273576E-14  0.35527136788E-14  0.00000000000E+00  0.91188000000E+02  0.91188000000E+02 0.  0.
    9900012    2    3    3    0    0 -0.29533188169E+02 -0.25025239297E+02 -0.12437685008E+02  0.50528833584E+02  0.29999920162E+02 0.  0.
         12    1    3    3    0    0  0.29533188169E+02  0.25025239297E+02  0.12437685008E+02  0.40659166416E+02  0.00000000000E+00 0. -1.
         11    1    4    4    0    0 -0.13675843384E+02 -0.12761135343E+02 -0.15148060373E+02  0.24069461997E+02  0.51100000000E-03 0.  1.
        -11    1    4    4    0    0 -0.87332073601E+01  0.31982634070E+00 -0.50034008813E+01  0.10070015905E+02  0.51100000000E-03 0. -1.
        -12    1    4    4    0    0 -0.71241374246E+01 -0.12583930295E+02  0.77137762461E+01  0.16389355683E+02  0.00000000000E+00 0.  1.
</event>
<event>
 8    1  0.1338956E-013  0.9118800E+02  0.7816164E-02  0.1184000E+00
        -11   -1    0    0    0    0  0.00000000000E+00  0.00000000000E+00  0.45593999997E+02  0.45594000000E+02  0.51100000000E-03 0. -1.
         11   -1    0    0    0    0 -0.00000000000E+00 -0.00000000000E+00 -0.45593999997E+02  0.45594000000E+02  0.51100000000E-03 0.  1.
         23    2    1    2    0    0  0.00000000000E+00  0.00000000000E+00  0.00000000000E+00  0.91188000000E+02  0.91188000000E+02 0.  0.
    9900012    2    3    3    0    0 -0.12684527166E+02 -0.36755252923E+02 -0.11887828508E+02  0.50528852032E+02  0.29999976236E+02 0.  0.
         12    1    3    3    0    0  0.12684527166E+02  0.36755252923E+02  0.11887828508E+02  0.40659147968E+02  0.00000000000E+00 0. -1.
         11    1    4    4    0    0  0.50607845200E+01 -0.90790146674E+01 -0.88738125425E+00  0.10432041652E+02  0.51100000000E-03 0. -1.
        -11    1    4    4    0    0  0.39073252095E+01 -0.31051992686E+01 -0.44739918477E+01  0.67026902140E+01  0.51100000000E-03 0.  1.
         12    1    4    4    0    0 -0.21652636896E+02 -0.24571038987E+02 -0.65264554059E+01  0.33394120165E+02  0.00000000000E+00 0. -1.
</event>
<event>
 8    1  0.1338956E-013  0.9118800E+02  0.7816164E-02  0.1184000E+00
        -11   -1    0    0    0    0  0.00000000000E+00  0.00000000000E+00  0.45593999997E+02  0.45594000000E+02  0.51100000000E-03 0.  1.
         11   -1    0    0    0    0 -0.00000000000E+00 -0.00000000000E+00 -0.45593999997E+02  0.45594000000E+02  0.51100000000E-03 0. -1.
         23    2    1    2    0    0  0.71054273576E-14  0.00000000000E+00 -0.22204460493E-15  0.91188000000E+02  0.91188000000E+02 0.  0.
    9900012    2    3    3    0    0 -0.37157017645E+02  0.16443890357E+02  0.14561895581E+01  0.50528856153E+02  0.29999988764E+02 0.  0.
         12    1    3    3    0    0  0.37157017645E+02 -0.16443890357E+02 -0.14561895581E+01  0.40659143847E+02  0.00000000000E+00 0. -1.
         11    1    4    4    0    0 -0.55207050832E+01  0.22269370272E+01 -0.22557335796E+01  0.63659851855E+01  0.51100000000E-03 0. -1.
        -11    1    4    4    0    0 -0.33664944248E+02  0.13485311836E+02 -0.36904804977E+01  0.36452733136E+02  0.51100000000E-03 0.  1.
        -12    1    4    4    0    0  0.20286316870E+01  0.73164149412E+00  0.74024036354E+01  0.77101378314E+01  0.00000000000E+00 0.  1.
</event>
<event>
 8    1  0.1338956E-013  0.9118800E+02  0.7816164E-02  0.1184000E+00
        -11   -1    0    0    0    0  0.00000000000E+00  0.00000000000E+00  0.45593999997E+02  0.45594000000E+02  0.51100000000E-03 0. -1.
         11   -1    0    0    0    0 -0.00000000000E+00 -0.00000000000E+00 -0.45593999997E+02  0.45594000000E+02  0.51100000000E-03 0.  1.
         23    2    1    2    0    0 -0.17763568394E-14 -0.71054273576E-14  0.00000000000E+00  0.91188000000E+02  0.91188000000E+02 0.  0.
    9900012    2    3    3    0    0  0.60668258807E+01  0.35157856112E+02 -0.19500863890E+02  0.50528869229E+02  0.30000028507E+02 0.  0.
         12    1    3    3    0    0 -0.60668258807E+01 -0.35157856112E+02  0.19500863890E+02  0.40659130771E+02  0.00000000000E+00 0. -1.
         11    1    4    4    0    0  0.60177421952E+01 -0.48877391024E+00  0.15008491520E+01  0.62213077002E+01  0.51100000000E-03 0. -1.
        -11    1    4    4    0    0  0.66871023024E+01  0.73013794085E+01 -0.51972127366E+01  0.11182061481E+02  0.51100000000E-03 0.  1.
         12    1    4    4    0    0 -0.66380186168E+01  0.28345250614E+02 -0.15804500305E+02  0.33125500047E+02  0.00000000000E+00 0. -1.
</event>
<event>
 8    1  0.1338956E-013  0.9118800E+02  0.7816164E-02  0.1184000E+00
        -11   -1    0    0    0    0  0.00000000000E+00  0.00000000000E+00  0.45593999997E+02  0.45594000000E+02  0.51100000000E-03 0. -1.
         11   -1    0    0    0    0 -0.00000000000E+00 -0.00000000000E+00 -0.45593999997E+02  0.45594000000E+02  0.51100000000E-03 0.  1.
         23    2    1    2    0    0  0.71054273576E-14  0.00000000000E+00  0.00000000000E+00  0.91188000000E+02  0.91188000000E+02 0.  0.
    9900012    2    3    3    0    0 -0.39116298873E+02  0.74189875219E+01 -0.82486005013E+01  0.50528860516E+02  0.30000002024E+02 0.  0.
         12    1    3    3    0    0  0.39116298873E+02 -0.74189875219E+01  0.82486005013E+01  0.40659139484E+02  0.00000000000E+00 0. -1.
         11    1    4    4    0    0 -0.68643088156E+01  0.19187880458E+01 -0.12073770534E+01  0.72289862838E+01  0.51100000000E-03 0. -1.
        -11    1    4    4    0    0 -0.16476258556E+02  0.15608618028E+02  0.14229703073E+01  0.22740292380E+02  0.51100000000E-03 0.  1.
         12    1    4    4    0    0 -0.15775731501E+02 -0.10108418552E+02 -0.84641937552E+01  0.20559581853E+02  0.00000000000E+00 0. -1.
</event>
<event>
 8    1  0.1338956E-013  0.9118800E+02  0.7816164E-02  0.1184000E+00
        -11   -1    0    0    0    0  0.00000000000E+00  0.00000000000E+00  0.45593999997E+02  0.45594000000E+02  0.51100000000E-03 0. -1.
         11   -1    0    0    0    0 -0.00000000000E+00 -0.00000000000E+00 -0.45593999997E+02  0.45594000000E+02  0.51100000000E-03 0.  1.
         23    2    1    2    0    0  0.00000000000E+00  0.00000000000E+00  0.00000000000E+00  0.91188000000E+02  0.91188000000E+02 0.  0.
    9900012    2    3    3    0    0  0.23555850935E+02 -0.84050620081E+01  0.32056870747E+02  0.50528854132E+02  0.29999982620E+02 0.  0.
        -12    1    3    3    0    0 -0.23555850935E+02  0.84050620081E+01 -0.32056870747E+02  0.40659145868E+02  0.00000000000E+00 0.  1.
         11    1    4    4    0    0  0.29082176661E+02 -0.85586266002E+01  0.26695110890E+02  0.40393712807E+02  0.51100000000E-03 0. -1.
        -11    1    4    4    0    0  0.54246436947E+00 -0.65406504729E+00 -0.99573644111E+00  0.13090301752E+01  0.51100000000E-03 0.  1.
        -12    1    4    4    0    0 -0.60687900954E+01  0.80762963940E+00  0.63574962976E+01  0.88261111499E+01  0.00000000000E+00 0.  1.
</event>
<event>
 8    1  0.1338956E-013  0.9118800E+02  0.7816164E-02  0.1184000E+00
        -11   -1    0    0    0    0  0.00000000000E+00  0.00000000000E+00  0.45593999997E+02  0.45594000000E+02  0.51100000000E-03 0. -1.
         11   -1    0    0    0    0 -0.00000000000E+00 -0.00000000000E+00 -0.45593999997E+02  0.45594000000E+02  0.51100000000E-03 0.  1.
         23    2    1    2    0    0  0.00000000000E+00  0.71054273576E-14  0.00000000000E+00  0.91188000000E+02  0.91188000000E+02 0.  0.
    9900012    2    3    3    0    0 -0.33039858468E+02  0.21433776012E+02  0.10105769503E+02  0.50528861064E+02  0.30000003692E+02 0.  0.
        -12    1    3    3    0    0  0.33039858468E+02 -0.21433776012E+02 -0.10105769503E+02  0.40659138936E+02  0.00000000000E+00 0.  1.
         11    1    4    4    0    0 -0.13110380065E+02  0.20706783577E+02  0.32105788124E+01  0.24717620600E+02  0.51100000000E-03 0. -1.
        -11    1    4    4    0    0  0.62037263017E+00 -0.37810167554E+01  0.91496045144E+00  0.39393023232E+01  0.51100000000E-03 0.  1.
        -12    1    4    4    0    0 -0.20549851033E+02  0.45080091907E+01  0.59802302393E+01  0.21871938142E+02  0.00000000000E+00 0.  1.
</event>
<event>
 8    1  0.1338956E-013  0.9118800E+02  0.7816164E-02  0.1184000E+00
        -11   -1    0    0    0    0  0.00000000000E+00  0.00000000000E+00  0.45593999997E+02  0.45594000000E+02  0.51100000000E-03 0. -1.
         11   -1    0    0    0    0 -0.00000000000E+00 -0.00000000000E+00 -0.45593999997E+02  0.45594000000E+02  0.51100000000E-03 0.  1.
         23    2    1    2    0    0  0.00000000000E+00  0.44408920985E-15  0.00000000000E+00  0.91188000000E+02  0.91188000000E+02 0.  0.
    9900012    2    3    3    0    0 -0.21459154578E+02  0.63909479824E+00 -0.34529149838E+02  0.50528856552E+02  0.29999989975E+02 0.  0.
         12    1    3    3    0    0  0.21459154578E+02 -0.63909479824E+00  0.34529149838E+02  0.40659143448E+02  0.00000000000E+00 0. -1.
         11    1    4    4    0    0 -0.58935739080E+01 -0.10679056416E+01 -0.10697410539E+02  0.12260066410E+02  0.51100000000E-03 0.  1.
        -11    1    4    4    0    0 -0.13994013482E+02  0.84014429386E+01 -0.26307986457E+02  0.30960084116E+02  0.51100000000E-03 0. -1.
         12    1    4    4    0    0 -0.15715671879E+01 -0.66944424988E+01  0.24762471574E+01  0.73087060264E+01  0.00000000000E+00 0. -1.
</event>
<event>
 8    1  0.1592415E-013  0.9118800E+02  0.7816164E-02  0.1184000E+00
        -11   -1    0    0    0    0  0.00000000000E+00  0.00000000000E+00  0.45593999997E+02  0.45594000000E+02  0.51100000000E-03 0. -1.
         11   -1    0    0    0    0 -0.00000000000E+00 -0.00000000000E+00 -0.45593999997E+02  0.45594000000E+02  0.51100000000E-03 0.  1.
         23    2    1    2    0    0  0.00000000000E+00 -0.88817841970E-15 -0.35527136788E-14  0.91188000000E+02  0.91188000000E+02 0.  0.
    9900012    2    3    3    0    0 -0.25584326142E+02 -0.20460168594E+01 -0.31534450270E+02  0.50528862245E+02  0.30000007281E+02 0.  0.
         12    1    3    3    0    0  0.25584326142E+02  0.20460168594E+01  0.31534450270E+02  0.40659137755E+02  0.00000000000E+00 0. -1.
         11    1    4    4    0    0  0.21883455624E+01  0.71762282101E+01 -0.49911563048E+01  0.90110348542E+01  0.51100000000E-03 0. -1.
        -11    1    4    4    0    0 -0.15996183116E+02 -0.13454921101E+01 -0.20693287643E+02  0.26189699827E+02  0.51100000000E-03 0.  1.
        -12    1    4    4    0    0 -0.11776488588E+02 -0.78767529594E+01 -0.58500063224E+01  0.15328127564E+02  0.00000000000E+00 0.  1.
</event>
<event>
 8    1  0.1338956E-013  0.9118800E+02  0.7816164E-02  0.1184000E+00
        -11   -1    0    0    0    0  0.00000000000E+00  0.00000000000E+00  0.45593999997E+02  0.45594000000E+02  0.51100000000E-03 0. -1.
         11   -1    0    0    0    0 -0.00000000000E+00 -0.00000000000E+00 -0.45593999997E+02  0.45594000000E+02  0.51100000000E-03 0.  1.
         23    2    1    2    0    0 -0.17763568394E-14  0.00000000000E+00  0.00000000000E+00  0.91188000000E+02  0.91188000000E+02 0.  0.
    9900012    2    3    3    0    0  0.11994712548E+02  0.20736797625E+01  0.38794228910E+02  0.50528862361E+02  0.30000007631E+02 0.  0.
        -12    1    3    3    0    0 -0.11994712548E+02 -0.20736797625E+01 -0.38794228910E+02  0.40659137639E+02  0.00000000000E+00 0.  1.
         11    1    4    4    0    0 -0.33945984036E+01  0.33477921503E+00  0.25775581144E+01  0.42754159492E+01  0.51100000000E-03 0. -1.
        -11    1    4    4    0    0  0.13177262762E+01 -0.87383535003E+00 -0.36057812774E+01  0.39372134359E+01  0.51100000000E-03 0.  1.
         12    1    4    4    0    0  0.14071584675E+02  0.26127358975E+01  0.39822452073E+02  0.42316232976E+02  0.00000000000E+00 0. -1.
</event>
<event>
 8    1  0.1338956E-013  0.9118800E+02  0.7816164E-02  0.1184000E+00
        -11   -1    0    0    0    0  0.00000000000E+00  0.00000000000E+00  0.45593999997E+02  0.45594000000E+02  0.51100000000E-03 0. -1.
         11   -1    0    0    0    0 -0.00000000000E+00 -0.00000000000E+00 -0.45593999997E+02  0.45594000000E+02  0.51100000000E-03 0.  1.
         23    2    1    2    0    0  0.00000000000E+00  0.35527136788E-14 -0.43021142204E-15  0.91188000000E+02  0.91188000000E+02 0.  0.
    9900012    2    3    3    0    0  0.34602555401E+02 -0.21349863001E+02 -0.11245431299E+00  0.50528854209E+02  0.29999982854E+02 0.  0.
        -12    1    3    3    0    0 -0.34602555401E+02  0.21349863001E+02  0.11245431299E+00  0.40659145791E+02  0.00000000000E+00 0.  1.
         11    1    4    4    0    0  0.16428036666E+02 -0.18229139286E+02  0.75257393126E+01  0.25667463066E+02  0.51100000000E-03 0. -1.
        -11    1    4    4    0    0  0.39300936857E+01 -0.76619914644E+01 -0.17164780659E+01  0.87805493445E+01  0.51100000000E-03 0.  1.
         12    1    4    4    0    0  0.14244425050E+02  0.45412677495E+01 -0.59217155597E+01  0.16080841799E+02  0.00000000000E+00 0. -1.
</event>
<event>
 8    1  0.1338956E-013  0.9118800E+02  0.7816164E-02  0.1184000E+00
        -11   -1    0    0    0    0  0.00000000000E+00  0.00000000000E+00  0.45593999997E+02  0.45594000000E+02  0.51100000000E-03 0. -1.
         11   -1    0    0    0    0 -0.00000000000E+00 -0.00000000000E+00 -0.45593999997E+02  0.45594000000E+02  0.51100000000E-03 0.  1.
         23    2    1    2    0    0 -0.35527136788E-14  0.00000000000E+00  0.00000000000E+00  0.91188000000E+02  0.91188000000E+02 0.  0.
    9900012    2    3    3    0    0 -0.31462639316E+02 -0.16193979576E+02 -0.20025560164E+02  0.50528859489E+02  0.29999998903E+02 0.  0.
         12    1    3    3    0    0  0.31462639316E+02  0.16193979576E+02  0.20025560164E+02  0.40659140511E+02  0.00000000000E+00 0. -1.
         11    1    4    4    0    0 -0.23335656863E+01 -0.37722035589E+00 -0.20198720165E+00  0.23724719387E+01  0.51100000000E-03 0. -1.
        -11    1    4    4    0    0 -0.14860389166E+02  0.33238210594E+01  0.25473682603E+01  0.15439172190E+02  0.51100000000E-03 0.  1.
         12    1    4    4    0    0 -0.14268684464E+02 -0.19140580279E+02 -0.22370941223E+02  0.32717215360E+02  0.00000000000E+00 0. -1.
</event>
<event>
 8    1  0.1338956E-013  0.9118800E+02  0.7816164E-02  0.1184000E+00
        -11   -1    0    0    0    0  0.00000000000E+00  0.00000000000E+00  0.45593999997E+02  0.45594000000E+02  0.51100000000E-03 0. -1.
         11   -1    0    0    0    0 -0.00000000000E+00 -0.00000000000E+00 -0.45593999997E+02  0.45594000000E+02  0.51100000000E-03 0.  1.
         23    2    1    2    0    0  0.00000000000E+00  0.00000000000E+00 -0.35527136788E-14  0.91188000000E+02  0.91188000000E+02 0.  0.
    9900012    2    3    3    0    0  0.23395158544E+02 -0.17556145848E+02 -0.28242064476E+02  0.50528857041E+02  0.29999991461E+02 0.  0.
         12    1    3    3    0    0 -0.23395158544E+02  0.17556145848E+02  0.28242064476E+02  0.40659142959E+02  0.00000000000E+00 0. -1.
         11    1    4    4    0    0  0.77052814432E+01 -0.13787251560E+02 -0.22642585322E+02  0.27606997990E+02  0.51100000000E-03 0. -1.
        -11    1    4    4    0    0  0.44909597390E+01 -0.58186043005E+01 -0.84359979801E+01  0.11188875617E+02  0.51100000000E-03 0.  1.
        -12    1    4    4    0    0  0.11198917361E+02  0.20497100127E+01  0.28365188263E+01  0.11732983434E+02  0.00000000000E+00 0.  1.
</event>
<event>
 8    1  0.1338956E-013  0.9118800E+02  0.7816164E-02  0.1184000E+00
        -11   -1    0    0    0    0  0.00000000000E+00  0.00000000000E+00  0.45593999997E+02  0.45594000000E+02  0.51100000000E-03 0. -1.
         11   -1    0    0    0    0 -0.00000000000E+00 -0.00000000000E+00 -0.45593999997E+02  0.45594000000E+02  0.51100000000E-03 0.  1.
         23    2    1    2    0    0  0.35527136788E-14  0.00000000000E+00  0.00000000000E+00  0.91188000000E+02  0.91188000000E+02 0.  0.
    9900012    2    3    3    0    0 -0.18735850691E+02  0.21396361040E+02 -0.29057341077E+02  0.50528862807E+02  0.30000008988E+02 0.  0.
         12    1    3    3    0    0  0.18735850691E+02 -0.21396361040E+02  0.29057341077E+02  0.40659137193E+02  0.00000000000E+00 0. -1.
         11    1    4    4    0    0  0.34683768965E+01  0.35823623304E+01 -0.48628933641E+01  0.69649616147E+01  0.51100000000E-03 0. -1.
        -11    1    4    4    0    0 -0.56588906096E+01  0.15363166648E+02 -0.20845052866E+02  0.26505964643E+02  0.51100000000E-03 0.  1.
        -12    1    4    4    0    0 -0.16545336978E+02  0.24508320607E+01 -0.33493948467E+01  0.17057936550E+02  0.00000000000E+00 0.  1.
</event>
<event>
 8    1  0.1338956E-013  0.9118800E+02  0.7816164E-02  0.1184000E+00
        -11   -1    0    0    0    0  0.00000000000E+00  0.00000000000E+00  0.45593999997E+02  0.45594000000E+02  0.51100000000E-03 0.  1.
         11   -1    0    0    0    0 -0.00000000000E+00 -0.00000000000E+00 -0.45593999997E+02  0.45594000000E+02  0.51100000000E-03 0. -1.
         23    2    1    2    0    0  0.35527136788E-14  0.00000000000E+00 -0.35527136788E-14  0.91188000000E+02  0.91188000000E+02 0.  0.
    9900012    2    3    3    0    0  0.17464208757E+02  0.30374166268E+02 -0.20629488164E+02  0.50528876228E+02  0.30000049784E+02 0.  0.
         12    1    3    3    0    0 -0.17464208757E+02 -0.30374166268E+02  0.20629488164E+02  0.40659123772E+02  0.00000000000E+00 0. -1.
         11    1    4    4    0    0  0.20444931053E+01 -0.13897182992E-01  0.95749997507E+00  0.22576429418E+01  0.51100000000E-03 0. -1.
        -11    1    4    4    0    0 -0.59837945607E+01  0.89266689936E+00 -0.27978625081E+00  0.60564785267E+01  0.51100000000E-03 0.  1.
         12    1    4    4    0    0  0.21403510212E+02  0.29495396552E+02 -0.21307201888E+02  0.42214754760E+02  0.00000000000E+00 0. -1.
</event>
<event>
 8    1  0.1338956E-013  0.9118800E+02  0.7816164E-02  0.1184000E+00
        -11   -1    0    0    0    0  0.00000000000E+00  0.00000000000E+00  0.45593999997E+02  0.45594000000E+02  0.51100000000E-03 0. -1.
         11   -1    0    0    0    0 -0.00000000000E+00 -0.00000000000E+00 -0.45593999997E+02  0.45594000000E+02  0.51100000000E-03 0.  1.
         23    2    1    2    0    0  0.00000000000E+00  0.00000000000E+00  0.00000000000E+00  0.91188000000E+02  0.91188000000E+02 0.  0.
    9900012    2    3    3    0    0  0.38874741596E+02 -0.20768462796E+01  0.11730625560E+02  0.50528850960E+02  0.29999972977E+02 0.  0.
        -12    1    3    3    0    0 -0.38874741596E+02  0.20768462796E+01 -0.11730625560E+02  0.40659149040E+02  0.00000000000E+00 0.  1.
         11    1    4    4    0    0  0.23658939973E+01 -0.18199944145E+01  0.20123041371E+01  0.35998892034E+01  0.51100000000E-03 0. -1.
        -11    1    4    4    0    0 -0.62939088235E+00 -0.66786650703E+01 -0.27220986045E+01  0.72395111077E+01  0.51100000000E-03 0.  1.
         12    1    4    4    0    0  0.37138238481E+02  0.64218132053E+01  0.12440420028E+02  0.39689450649E+02  0.00000000000E+00 0. -1.
</event>
<event>
 8    1  0.1338956E-013  0.9118800E+02  0.7816164E-02  0.1184000E+00
        -11   -1    0    0    0    0  0.00000000000E+00  0.00000000000E+00  0.45593999997E+02  0.45594000000E+02  0.51100000000E-03 0. -1.
         11   -1    0    0    0    0 -0.00000000000E+00 -0.00000000000E+00 -0.45593999997E+02  0.45594000000E+02  0.51100000000E-03 0.  1.
         23    2    1    2    0    0  0.00000000000E+00  0.00000000000E+00 -0.35527136788E-14  0.91188000000E+02  0.91188000000E+02 0.  0.
    9900012    2    3    3    0    0  0.22637724901E+02  0.18139349162E+02 -0.28489706258E+02  0.50528856633E+02  0.29999990222E+02 0.  0.
         12    1    3    3    0    0 -0.22637724901E+02 -0.18139349162E+02  0.28489706258E+02  0.40659143367E+02  0.00000000000E+00 0. -1.
         11    1    4    4    0    0  0.88050458781E+01  0.15506306084E+02 -0.45311523665E+01  0.18398524488E+02  0.51100000000E-03 0. -1.
        -11    1    4    4    0    0  0.13128493606E+02 -0.47542704147E+01 -0.14890692198E+02  0.20413063120E+02  0.51100000000E-03 0.  1.
         12    1    4    4    0    0  0.70418541679E+00  0.73873134921E+01 -0.90678616927E+01  0.11717269025E+02  0.00000000000E+00 0. -1.
</event>
<event>
 8    1  0.1338956E-013  0.9118800E+02  0.7816164E-02  0.1184000E+00
        -11   -1    0    0    0    0  0.00000000000E+00  0.00000000000E+00  0.45593999997E+02  0.45594000000E+02  0.51100000000E-03 0. -1.
         11   -1    0    0    0    0 -0.00000000000E+00 -0.00000000000E+00 -0.45593999997E+02  0.45594000000E+02  0.51100000000E-03 0.  1.
         23    2    1    2    0    0 -0.53290705182E-14  0.00000000000E+00  0.00000000000E+00  0.91188000000E+02  0.91188000000E+02 0.  0.
    9900012    2    3    3    0    0 -0.14234228565E+02  0.13512860597E+02 -0.35608356249E+02  0.50528859587E+02  0.29999999201E+02 0.  0.
         12    1    3    3    0    0  0.14234228565E+02 -0.13512860597E+02  0.35608356249E+02  0.40659140413E+02  0.00000000000E+00 0. -1.
         11    1    4    4    0    0 -0.61901380870E+01 -0.90883978352E-01 -0.22043176206E+01  0.65715360356E+01  0.51100000000E-03 0. -1.
        -11    1    4    4    0    0 -0.14268939508E+02  0.10485108800E+01 -0.13960167657E+02  0.19989704626E+02  0.51100000000E-03 0.  1.
        -12    1    4    4    0    0  0.62248490303E+01  0.12555233696E+02 -0.19443870972E+02  0.23967618926E+02  0.00000000000E+00 0.  1.
</event>
<event>
 8    1  0.1338956E-013  0.9118800E+02  0.7816164E-02  0.1184000E+00
        -11   -1    0    0    0    0  0.00000000000E+00  0.00000000000E+00  0.45593999997E+02  0.45594000000E+02  0.51100000000E-03 0. -1.
         11   -1    0    0    0    0 -0.00000000000E+00 -0.00000000000E+00 -0.45593999997E+02  0.45594000000E+02  0.51100000000E-03 0.  1.
         23    2    1    2    0    0  0.00000000000E+00  0.00000000000E+00  0.00000000000E+00  0.91188000000E+02  0.91188000000E+02 0.  0.
    9900012    2    3    3    0    0  0.20005700755E+02 -0.44525429640E+01 -0.35115706089E+02  0.50528855694E+02  0.29999987368E+02 0.  0.
         12    1    3    3    0    0 -0.20005700755E+02  0.44525429640E+01  0.35115706089E+02  0.40659144306E+02  0.00000000000E+00 0. -1.
         11    1    4    4    0    0  0.11821376630E+01 -0.48635214733E+01 -0.10272292976E+01  0.51094511316E+01  0.51100000000E-03 0. -1.
        -11    1    4    4    0    0 -0.44547427143E+01  0.28340952965E+01 -0.18777761996E+01  0.56038265959E+01  0.51100000000E-03 0.  1.
        -12    1    4    4    0    0  0.23278305806E+02 -0.24231167872E+01 -0.32210700592E+02  0.39815577966E+02  0.00000000000E+00 0.  1.
</event>
<event>
 8    1  0.1338956E-013  0.9118800E+02  0.7816164E-02  0.1184000E+00
        -11   -1    0    0    0    0  0.00000000000E+00  0.00000000000E+00  0.45593999997E+02  0.45594000000E+02  0.51100000000E-03 0. -1.
         11   -1    0    0    0    0 -0.00000000000E+00 -0.00000000000E+00 -0.45593999997E+02  0.45594000000E+02  0.51100000000E-03 0.  1.
         23    2    1    2    0    0  0.00000000000E+00 -0.88817841970E-15  0.00000000000E+00  0.91188000000E+02  0.91188000000E+02 0.  0.
    9900012    2    3    3    0    0 -0.16127177292E+02 -0.46718593493E+01  0.37030441296E+02  0.50528859579E+02  0.29999999176E+02 0.  0.
        -12    1    3    3    0    0  0.16127177292E+02  0.46718593493E+01 -0.37030441296E+02  0.40659140421E+02  0.00000000000E+00 0.  1.
         11    1    4    4    0    0  0.15787441011E+01  0.15917215103E+01  0.13395097633E+02  0.13581408291E+02  0.51100000000E-03 0. -1.
        -11    1    4    4    0    0 -0.62916140254E+01  0.75882041150E+01  0.12119597136E+02  0.15622096010E+02  0.51100000000E-03 0.  1.
        -12    1    4    4    0    0 -0.11414307368E+02 -0.13851784974E+02  0.11515746526E+02  0.21325355278E+02  0.00000000000E+00 0.  1.
</event>
<event>
 8    1  0.1338956E-013  0.9118800E+02  0.7816164E-02  0.1184000E+00
        -11   -1    0    0    0    0  0.00000000000E+00  0.00000000000E+00  0.45593999997E+02  0.45594000000E+02  0.51100000000E-03 0. -1.
         11   -1    0    0    0    0 -0.00000000000E+00 -0.00000000000E+00 -0.45593999997E+02  0.45594000000E+02  0.51100000000E-03 0.  1.
         23    2    1    2    0    0  0.00000000000E+00  0.00000000000E+00  0.21649348980E-14  0.91188000000E+02  0.91188000000E+02 0.  0.
    9900012    2    3    3    0    0 -0.40349592226E+02  0.49885178300E+01  0.43789920152E+00  0.50528847788E+02  0.29999963335E+02 0.  0.
        -12    1    3    3    0    0  0.40349592226E+02 -0.49885178300E+01 -0.43789920152E+00  0.40659152212E+02  0.00000000000E+00 0.  1.
         11    1    4    4    0    0 -0.52922809634E+01 -0.14469936661E+01  0.42277028265E+01  0.69264348633E+01  0.51100000000E-03 0. -1.
        -11    1    4    4    0    0 -0.24892791287E+02 -0.21389238565E+01  0.75771704823E+01  0.26108227939E+02  0.51100000000E-03 0.  1.
        -12    1    4    4    0    0 -0.10164519975E+02  0.85744353526E+01 -0.11366974107E+02  0.17494184985E+02  0.00000000000E+00 0.  1.
</event>
<event>
 8    1  0.1338956E-013  0.9118800E+02  0.7816164E-02  0.1184000E+00
        -11   -1    0    0    0    0  0.00000000000E+00  0.00000000000E+00  0.45593999997E+02  0.45594000000E+02  0.51100000000E-03 0. -1.
         11   -1    0    0    0    0 -0.00000000000E+00 -0.00000000000E+00 -0.45593999997E+02  0.45594000000E+02  0.51100000000E-03 0.  1.
         23    2    1    2    0    0  0.00000000000E+00 -0.35527136788E-14  0.35527136788E-14  0.91188000000E+02  0.91188000000E+02 0.  0.
    9900012    2    3    3    0    0 -0.28148313118E+02  0.59347704068E+01 -0.28733547809E+02  0.50528858336E+02  0.29999995397E+02 0.  0.
         12    1    3    3    0    0  0.28148313118E+02 -0.59347704068E+01  0.28733547809E+02  0.40659141664E+02  0.00000000000E+00 0. -1.
         11    1    4    4    0    0 -0.61616572469E+01  0.28358500866E+01 -0.28059013759E+01  0.73403779558E+01  0.51100000000E-03 0. -1.
        -11    1    4    4    0    0 -0.97282798113E+01  0.10114117027E+02 -0.25442865693E+02  0.29056396994E+02  0.51100000000E-03 0.  1.
         12    1    4    4    0    0 -0.12258376060E+02 -0.70151967072E+01 -0.48478074075E+00  0.14132083386E+02  0.00000000000E+00 0. -1.
</event>
<event>
 8    1  0.1338956E-013  0.9118800E+02  0.7816164E-02  0.1184000E+00
        -11   -1    0    0    0    0  0.00000000000E+00  0.00000000000E+00  0.45593999997E+02  0.45594000000E+02  0.51100000000E-03 0. -1.
         11   -1    0    0    0    0 -0.00000000000E+00 -0.00000000000E+00 -0.45593999997E+02  0.45594000000E+02  0.51100000000E-03 0.  1.
         23    2    1    2    0    0 -0.35527136788E-14  0.00000000000E+00  0.35527136788E-14  0.91188000000E+02  0.91188000000E+02 0.  0.
    9900012    2    3    3    0    0  0.23350807465E+02 -0.96902003600E+01 -0.31843465532E+02  0.50528849869E+02  0.29999969662E+02 0.  0.
         12    1    3    3    0    0 -0.23350807465E+02  0.96902003600E+01  0.31843465532E+02  0.40659150131E+02  0.00000000000E+00 0. -1.
         11    1    4    4    0    0  0.45728422862E+01  0.12182573177E+01  0.17099287253E+01  0.50317883474E+01  0.51100000000E-03 0. -1.
        -11    1    4    4    0    0  0.28571170212E+01  0.55572103736E+01 -0.21081734629E+01  0.65947024512E+01  0.51100000000E-03 0.  1.
        -12    1    4    4    0    0  0.15920848157E+02 -0.16465668051E+02 -0.31445220795E+02  0.38902359070E+02  0.00000000000E+00 0.  1.
</event>
<event>
 8    1  0.1338956E-013  0.9118800E+02  0.7816164E-02  0.1184000E+00
        -11   -1    0    0    0    0  0.00000000000E+00  0.00000000000E+00  0.45593999997E+02  0.45594000000E+02  0.51100000000E-03 0. -1.
         11   -1    0    0    0    0 -0.00000000000E+00 -0.00000000000E+00 -0.45593999997E+02  0.45594000000E+02  0.51100000000E-03 0.  1.
         23    2    1    2    0    0  0.00000000000E+00  0.35527136788E-14  0.35527136788E-14  0.91188000000E+02  0.91188000000E+02 0.  0.
    9900012    2    3    3    0    0  0.73760170882E+01  0.30418542328E+02  0.25951341180E+02  0.50528862595E+02  0.30000008344E+02 0.  0.
        -12    1    3    3    0    0 -0.73760170882E+01 -0.30418542328E+02 -0.25951341180E+02  0.40659137405E+02  0.00000000000E+00 0.  1.
         11    1    4    4    0    0  0.89107180420E+01 -0.13500460583E+01  0.46820569332E+01  0.10156041442E+02  0.51100000000E-03 0.  1.
        -11    1    4    4    0    0  0.47725475103E+01  0.56158367243E+01  0.37536503942E+01  0.82707148056E+01  0.51100000000E-03 0. -1.
        -12    1    4    4    0    0 -0.63072484641E+01  0.26152751662E+02  0.17515633853E+02  0.32102106348E+02  0.00000000000E+00 0.  1.
</event>
<event>
 8    1  0.1385651E-013  0.9118800E+02  0.7816164E-02  0.1184000E+00
        -11   -1    0    0    0    0  0.00000000000E+00  0.00000000000E+00  0.45593999997E+02  0.45594000000E+02  0.51100000000E-03 0. -1.
         11   -1    0    0    0    0 -0.00000000000E+00 -0.00000000000E+00 -0.45593999997E+02  0.45594000000E+02  0.51100000000E-03 0.  1.
         23    2    1    2    0    0  0.00000000000E+00  0.00000000000E+00  0.35527136788E-14  0.91188000000E+02  0.91188000000E+02 0.  0.
    9900012    2    3    3    0    0  0.19307939947E+02 -0.24748758961E+02 -0.25843171618E+02  0.50528841937E+02  0.29999945552E+02 0.  0.
         12    1    3    3    0    0 -0.19307939947E+02  0.24748758961E+02  0.25843171618E+02  0.40659158063E+02  0.00000000000E+00 0. -1.
         11    1    4    4    0    0  0.98528896381E+00 -0.14162867665E+02 -0.44432593299E+01  0.14876161083E+02  0.51100000000E-03 0. -1.
        -11    1    4    4    0    0  0.39316300492E+01 -0.12383337266E+02 -0.14873361551E+02  0.19748965563E+02  0.51100000000E-03 0.  1.
        -12    1    4    4    0    0  0.14391020934E+02  0.17974459707E+01 -0.65265507372E+01  0.15903715291E+02  0.00000000000E+00 0.  1.
</event>
<event>
 8    1  0.1338956E-013  0.9118800E+02  0.7816164E-02  0.1184000E+00
        -11   -1    0    0    0    0  0.00000000000E+00  0.00000000000E+00  0.45593999997E+02  0.45594000000E+02  0.51100000000E-03 0.  1.
         11   -1    0    0    0    0 -0.00000000000E+00 -0.00000000000E+00 -0.45593999997E+02  0.45594000000E+02  0.51100000000E-03 0. -1.
         23    2    1    2    0    0  0.66613381478E-15 -0.35527136788E-14  0.35527136788E-14  0.91188000000E+02  0.91188000000E+02 0.  0.
    9900012    2    3    3    0    0  0.16300644350E+01 -0.28852840502E+02  0.28601089603E+02  0.50528857835E+02  0.29999993875E+02 0.  0.
        -12    1    3    3    0    0 -0.16300644350E+01  0.28852840502E+02 -0.28601089603E+02  0.40659142165E+02  0.00000000000E+00 0.  1.
         11    1    4    4    0    0 -0.51240386458E+00 -0.17786087879E+02  0.12053697053E+01  0.17834247843E+02  0.51100000000E-03 0. -1.
        -11    1    4    4    0    0  0.78281401425E+01 -0.84105039581E+01  0.16216041617E+02  0.19874012199E+02  0.51100000000E-03 0.  1.
        -12    1    4    4    0    0 -0.56856718430E+01 -0.26562486655E+01  0.11179678281E+02  0.12820597792E+02  0.00000000000E+00 0.  1.
</event>
<event>
 8    1  0.1338956E-013  0.9118800E+02  0.7816164E-02  0.1184000E+00
        -11   -1    0    0    0    0  0.00000000000E+00  0.00000000000E+00  0.45593999997E+02  0.45594000000E+02  0.51100000000E-03 0. -1.
         11   -1    0    0    0    0 -0.00000000000E+00 -0.00000000000E+00 -0.45593999997E+02  0.45594000000E+02  0.51100000000E-03 0.  1.
         23    2    1    2    0    0  0.88817841970E-15  0.35527136788E-14  0.00000000000E+00  0.91188000000E+02  0.91188000000E+02 0.  0.
    9900012    2    3    3    0    0 -0.72165560423E+01  0.20161323240E+02  0.34563062218E+02  0.50528893937E+02  0.30000103612E+02 0.  0.
        -12    1    3    3    0    0  0.72165560423E+01 -0.20161323240E+02 -0.34563062218E+02  0.40659106063E+02  0.00000000000E+00 0.  1.
         11    1    4    4    0    0 -0.41708925122E+01 -0.40303501460E+01  0.15919487351E+01  0.60145130878E+01  0.51100000000E-03 0. -1.
        -11    1    4    4    0    0 -0.62722503126E+01  0.17052072277E+02  0.11121757397E+02  0.21302764628E+02  0.51100000000E-03 0.  1.
        -12    1    4    4    0    0  0.32265867825E+01  0.71396011096E+01  0.21849356086E+02  0.23211616222E+02  0.00000000000E+00 0.  1.
</event>
<event>
 8    1  0.1338956E-013  0.9118800E+02  0.7816164E-02  0.1184000E+00
        -11   -1    0    0    0    0  0.00000000000E+00  0.00000000000E+00  0.45593999997E+02  0.45594000000E+02  0.51100000000E-03 0. -1.
         11   -1    0    0    0    0 -0.00000000000E+00 -0.00000000000E+00 -0.45593999997E+02  0.45594000000E+02  0.51100000000E-03 0.  1.
         23    2    1    2    0    0  0.11102230246E-15  0.17763568394E-14  0.00000000000E+00  0.91188000000E+02  0.91188000000E+02 0.  0.
    9900012    2    3    3    0    0 -0.57142760824E+00  0.13896079381E+02  0.38206516708E+02  0.50528862397E+02  0.30000007742E+02 0.  0.
        -12    1    3    3    0    0  0.57142760824E+00 -0.13896079381E+02 -0.38206516708E+02  0.40659137603E+02  0.00000000000E+00 0.  1.
         11    1    4    4    0    0 -0.17913508489E+01  0.94196972794E+01  0.16172033460E+02  0.18800912244E+02  0.51100000000E-03 0. -1.
        -11    1    4    4    0    0 -0.77056245958E+01  0.95028656624E+01  0.92042832749E+01  0.15310125312E+02  0.51100000000E-03 0.  1.
        -12    1    4    4    0    0  0.89255478365E+01 -0.50264835605E+01  0.12830199973E+02  0.16417824841E+02  0.00000000000E+00 0.  1.
</event>
<event>
 8    1  0.1338956E-013  0.9118800E+02  0.7816164E-02  0.1184000E+00
        -11   -1    0    0    0    0  0.00000000000E+00  0.00000000000E+00  0.45593999997E+02  0.45594000000E+02  0.51100000000E-03 0. -1.
         11   -1    0    0    0    0 -0.00000000000E+00 -0.00000000000E+00 -0.45593999997E+02  0.45594000000E+02  0.51100000000E-03 0.  1.
         23    2    1    2    0    0 -0.88817841970E-15  0.00000000000E+00  0.00000000000E+00  0.91188000000E+02  0.91188000000E+02 0.  0.
    9900012    2    3    3    0    0 -0.22469753007E+01  0.83920733670E+01 -0.39720144505E+02  0.50528859910E+02  0.30000000182E+02 0.  0.
         12    1    3    3    0    0  0.22469753007E+01 -0.83920733670E+01  0.39720144505E+02  0.40659140090E+02  0.00000000000E+00 0. -1.
         11    1    4    4    0    0  0.84927647474E-02  0.70524847306E+01 -0.36879198880E+01  0.79585404670E+01  0.51100000000E-03 0.  1.
        -11    1    4    4    0    0 -0.83442712047E+01  0.26030782194E+01 -0.34453071140E+01  0.93953722398E+01  0.51100000000E-03 0. -1.
        -12    1    4    4    0    0  0.60888031393E+01 -0.12634895831E+01 -0.32586917503E+02  0.33174947203E+02  0.00000000000E+00 0.  1.
</event>
<event>
 8    1  0.1338956E-013  0.9118800E+02  0.7816164E-02  0.1184000E+00
        -11   -1    0    0    0    0  0.00000000000E+00  0.00000000000E+00  0.45593999997E+02  0.45594000000E+02  0.51100000000E-03 0. -1.
         11   -1    0    0    0    0 -0.00000000000E+00 -0.00000000000E+00 -0.45593999997E+02  0.45594000000E+02  0.51100000000E-03 0.  1.
         23    2    1    2    0    0  0.00000000000E+00  0.38857805862E-15  0.00000000000E+00  0.91188000000E+02  0.91188000000E+02 0.  0.
    9900012    2    3    3    0    0 -0.18287321057E+02  0.15287358688E+00  0.36314189662E+02  0.50528808510E+02  0.29999843947E+02 0.  0.
        -12    1    3    3    0    0  0.18287321057E+02 -0.15287358688E+00 -0.36314189662E+02  0.40659191490E+02  0.00000000000E+00 0.  1.
         11    1    4    4    0    0 -0.13149657410E+02 -0.90349068780E+01  0.28004452252E+02  0.32230302178E+02  0.51100000000E-03 0.  1.
        -11    1    4    4    0    0  0.11666787184E+01  0.81678503988E+01  0.85840096255E+01  0.11906306769E+02  0.51100000000E-03 0. -1.
        -12    1    4    4    0    0 -0.63043423660E+01  0.10199300661E+01 -0.27427221506E+00  0.63921995632E+01  0.00000000000E+00 0.  1.
</event>
<event>
 8    1  0.1338956E-013  0.9118800E+02  0.7816164E-02  0.1184000E+00
        -11   -1    0    0    0    0  0.00000000000E+00  0.00000000000E+00  0.45593999997E+02  0.45594000000E+02  0.51100000000E-03 0.  1.
         11   -1    0    0    0    0 -0.00000000000E+00 -0.00000000000E+00 -0.45593999997E+02  0.45594000000E+02  0.51100000000E-03 0. -1.
         23    2    1    2    0    0  0.17763568394E-14  0.00000000000E+00  0.00000000000E+00  0.91188000000E+02  0.91188000000E+02 0.  0.
    9900012    2    3    3    0    0 -0.11226949611E+02  0.33494426954E+02 -0.20130704881E+02  0.50528852031E+02  0.29999976233E+02 0.  0.
        -12    1    3    3    0    0  0.11226949611E+02 -0.33494426954E+02  0.20130704881E+02  0.40659147969E+02  0.00000000000E+00 0.  1.
         11    1    4    4    0    0  0.22462233575E+01  0.42707848225E+00 -0.50264158207E+01  0.55220260472E+01  0.51100000000E-03 0. -1.
        -11    1    4    4    0    0  0.43134247165E+01  0.63787499210E+01 -0.98565994566E+01  0.12507862985E+02  0.51100000000E-03 0.  1.
         12    1    4    4    0    0 -0.17786597685E+02  0.26688598551E+02 -0.52476896037E+01  0.32498962999E+02  0.00000000000E+00 0. -1.
</event>
<event>
 8    1  0.1338956E-013  0.9118800E+02  0.7816164E-02  0.1184000E+00
        -11   -1    0    0    0    0  0.00000000000E+00  0.00000000000E+00  0.45593999997E+02  0.45594000000E+02  0.51100000000E-03 0. -1.
         11   -1    0    0    0    0 -0.00000000000E+00 -0.00000000000E+00 -0.45593999997E+02  0.45594000000E+02  0.51100000000E-03 0.  1.
         23    2    1    2    0    0  0.22204460493E-14  0.00000000000E+00  0.71054273576E-14  0.91188000000E+02  0.91188000000E+02 0.  0.
    9900012    2    3    3    0    0  0.35950970456E+01 -0.24312074792E+02 -0.32390754306E+02  0.50528896862E+02  0.30000112503E+02 0.  0.
         12    1    3    3    0    0 -0.35950970456E+01  0.24312074792E+02  0.32390754306E+02  0.40659103138E+02  0.00000000000E+00 0. -1.
         11    1    4    4    0    0  0.13416100354E+02 -0.92809413942E+01 -0.75777271616E+01  0.17987483733E+02  0.51100000000E-03 0. -1.
        -11    1    4    4    0    0  0.16562252713E+01 -0.18989166714E+01 -0.41962736804E+00  0.25544185373E+01  0.51100000000E-03 0.  1.
        -12    1    4    4    0    0 -0.11477228579E+02 -0.13132216726E+02 -0.24393399776E+02  0.29986994592E+02  0.00000000000E+00 0.  1.
</event>
<event>
 8    1  0.1338956E-013  0.9118800E+02  0.7816164E-02  0.1184000E+00
        -11   -1    0    0    0    0  0.00000000000E+00  0.00000000000E+00  0.45593999997E+02  0.45594000000E+02  0.51100000000E-03 0. -1.
         11   -1    0    0    0    0 -0.00000000000E+00 -0.00000000000E+00 -0.45593999997E+02  0.45594000000E+02  0.51100000000E-03 0.  1.
         23    2    1    2    0    0  0.35527136788E-14  0.17763568394E-14  0.71054273576E-14  0.91188000000E+02  0.91188000000E+02 0.  0.
    9900012    2    3    3    0    0 -0.16778954550E+02 -0.14615888588E+02 -0.34029508302E+02  0.50528868796E+02  0.30000027192E+02 0.  0.
         12    1    3    3    0    0  0.16778954550E+02  0.14615888588E+02  0.34029508302E+02  0.40659131204E+02  0.00000000000E+00 0. -1.
         11    1    4    4    0    0 -0.21183618214E+01 -0.88115776937E+01 -0.42846752721E+01  0.10024460120E+02  0.51100000000E-03 0. -1.
        -11    1    4    4    0    0  0.52071650443E+01 -0.39334021764E+01 -0.31258367557E+01  0.72358189698E+01  0.51100000000E-03 0.  1.
        -12    1    4    4    0    0 -0.19867757772E+02 -0.18709087180E+01 -0.26618996274E+02  0.33268589705E+02  0.00000000000E+00 0.  1.
</event>
<event>
 8    1  0.1338956E-013  0.9118800E+02  0.7816164E-02  0.1184000E+00
        -11   -1    0    0    0    0  0.00000000000E+00  0.00000000000E+00  0.45593999997E+02  0.45594000000E+02  0.51100000000E-03 0. -1.
         11   -1    0    0    0    0 -0.00000000000E+00 -0.00000000000E+00 -0.45593999997E+02  0.45594000000E+02  0.51100000000E-03 0.  1.
         23    2    1    2    0    0  0.17763568394E-14  0.35527136788E-14 -0.35527136788E-14  0.91188000000E+02  0.91188000000E+02 0.  0.
    9900012    2    3    3    0    0  0.13418204716E+02 -0.21942910101E+02  0.31490126140E+02  0.50528836632E+02  0.29999929425E+02 0.  0.
        -12    1    3    3    0    0 -0.13418204716E+02  0.21942910101E+02 -0.31490126140E+02  0.40659163368E+02  0.00000000000E+00 0.  1.
         11    1    4    4    0    0 -0.77813099078E+00 -0.59335643570E+01  0.18411662954E+02  0.19359803894E+02  0.51100000000E-03 0.  1.
        -11    1    4    4    0    0 -0.24911276089E+01 -0.54562661573E+00 -0.25193776450E+01  0.35847857882E+01  0.51100000000E-03 0. -1.
         12    1    4    4    0    0  0.16687463315E+02 -0.15463719129E+02  0.15597840831E+02  0.27584246950E+02  0.00000000000E+00 0. -1.
</event>
<event>
 8    1  0.1338956E-013  0.9118800E+02  0.7816164E-02  0.1184000E+00
        -11   -1    0    0    0    0  0.00000000000E+00  0.00000000000E+00  0.45593999997E+02  0.45594000000E+02  0.51100000000E-03 0.  1.
         11   -1    0    0    0    0 -0.00000000000E+00 -0.00000000000E+00 -0.45593999997E+02  0.45594000000E+02  0.51100000000E-03 0. -1.
         23    2    1    2    0    0  0.00000000000E+00 -0.17763568394E-14  0.00000000000E+00  0.91188000000E+02  0.91188000000E+02 0.  0.
    9900012    2    3    3    0    0  0.31381604574E+02  0.11610790561E+02 -0.23098692867E+02  0.50528866030E+02  0.30000018784E+02 0.  0.
         12    1    3    3    0    0 -0.31381604574E+02 -0.11610790561E+02  0.23098692867E+02  0.40659133970E+02  0.00000000000E+00 0. -1.
         11    1    4    4    0    0  0.40489795841E+01  0.75341011741E+01 -0.14713585474E+02  0.17019004493E+02  0.51100000000E-03 0. -1.
        -11    1    4    4    0    0  0.37837206578E+00  0.53498146175E+01 -0.44493496853E+00  0.53816028513E+01  0.51100000000E-03 0.  1.
        -12    1    4    4    0    0  0.26954252924E+02 -0.12731252303E+01 -0.79401724237E+01  0.28128258685E+02  0.00000000000E+00 0.  1.
</event>
<event>
 8    1  0.1338956E-013  0.9118800E+02  0.7816164E-02  0.1184000E+00
        -11   -1    0    0    0    0  0.00000000000E+00  0.00000000000E+00  0.45593999997E+02  0.45594000000E+02  0.51100000000E-03 0. -1.
         11   -1    0    0    0    0 -0.00000000000E+00 -0.00000000000E+00 -0.45593999997E+02  0.45594000000E+02  0.51100000000E-03 0.  1.
         23    2    1    2    0    0 -0.17763568394E-14 -0.55511151231E-16  0.00000000000E+00  0.91188000000E+02  0.91188000000E+02 0.  0.
    9900012    2    3    3    0    0 -0.12894625433E+02  0.24042809191E+00 -0.38559517015E+02  0.50528861751E+02  0.30000005777E+02 0.  0.
         12    1    3    3    0    0  0.12894625433E+02 -0.24042809191E+00  0.38559517015E+02  0.40659138249E+02  0.00000000000E+00 0. -1.
         11    1    4    4    0    0 -0.57562063545E+01 -0.25860688446E+01 -0.23591120800E+02  0.24420537351E+02  0.51100000000E-03 0. -1.
        -11    1    4    4    0    0 -0.63170362887E+01 -0.49860831254E+00 -0.19456633435E+02  0.20462505775E+02  0.51100000000E-03 0.  1.
         12    1    4    4    0    0 -0.82138278941E+00  0.33251052490E+01  0.44882372192E+01  0.56458186244E+01  0.00000000000E+00 0. -1.
</event>
<event>
 8    1  0.1338956E-013  0.9118800E+02  0.7816164E-02  0.1184000E+00
        -11   -1    0    0    0    0  0.00000000000E+00  0.00000000000E+00  0.45593999997E+02  0.45594000000E+02  0.51100000000E-03 0. -1.
         11   -1    0    0    0    0 -0.00000000000E+00 -0.00000000000E+00 -0.45593999997E+02  0.45594000000E+02  0.51100000000E-03 0.  1.
         23    2    1    2    0    0  0.26645352591E-14  0.00000000000E+00 -0.71054273576E-14  0.91188000000E+02  0.91188000000E+02 0.  0.
    9900012    2    3    3    0    0  0.19572757379E+01  0.16725519129E+02 -0.37007996910E+02  0.50528858916E+02  0.29999997160E+02 0.  0.
         12    1    3    3    0    0 -0.19572757379E+01 -0.16725519129E+02  0.37007996910E+02  0.40659141084E+02  0.00000000000E+00 0. -1.
         11    1    4    4    0    0  0.10169707318E+02  0.25568278205E+01 -0.38363723404E+01  0.11165933388E+02  0.51100000000E-03 0. -1.
        -11    1    4    4    0    0  0.27577055717E+01 -0.56437487990E+00 -0.47860916227E+01  0.55524888389E+01  0.51100000000E-03 0.  1.
        -12    1    4    4    0    0 -0.10970137151E+02  0.14733066188E+02 -0.28385532947E+02  0.33810436689E+02  0.00000000000E+00 0.  1.
</event>
<event>
 8    1  0.1338956E-013  0.9118800E+02  0.7816164E-02  0.1184000E+00
        -11   -1    0    0    0    0  0.00000000000E+00  0.00000000000E+00  0.45593999997E+02  0.45594000000E+02  0.51100000000E-03 0. -1.
         11   -1    0    0    0    0 -0.00000000000E+00 -0.00000000000E+00 -0.45593999997E+02  0.45594000000E+02  0.51100000000E-03 0.  1.
         23    2    1    2    0    0 -0.17763568394E-14  0.00000000000E+00  0.00000000000E+00  0.91188000000E+02  0.91188000000E+02 0.  0.
    9900012    2    3    3    0    0 -0.14681415668E+02 -0.18143076921E+02  0.33293382640E+02  0.50528873918E+02  0.30000042761E+02 0.  0.
        -12    1    3    3    0    0  0.14681415668E+02  0.18143076921E+02 -0.33293382640E+02  0.40659126082E+02  0.00000000000E+00 0.  1.
         11    1    4    4    0    0 -0.12463991801E+01 -0.30120795015E+01  0.22537156676E+02  0.22771683406E+02  0.51100000000E-03 0.  1.
        -11    1    4    4    0    0 -0.60237918426E+01  0.18817488785E+00  0.87456383845E+01  0.10621095469E+02  0.51100000000E-03 0. -1.
        -12    1    4    4    0    0 -0.74112246451E+01 -0.15319172307E+02  0.20105875795E+01  0.17136095043E+02  0.00000000000E+00 0.  1.
</event>
<event>
 8    1  0.1338956E-013  0.9118800E+02  0.7816164E-02  0.1184000E+00
        -11   -1    0    0    0    0  0.00000000000E+00  0.00000000000E+00  0.45593999997E+02  0.45594000000E+02  0.51100000000E-03 0.  1.
         11   -1    0    0    0    0 -0.00000000000E+00 -0.00000000000E+00 -0.45593999997E+02  0.45594000000E+02  0.51100000000E-03 0. -1.
         23    2    1    2    0    0  0.00000000000E+00 -0.71054273576E-14  0.17763568394E-14  0.91188000000E+02  0.91188000000E+02 0.  0.
    9900012    2    3    3    0    0 -0.29124679192E+01 -0.38702307653E+02  0.12116708742E+02  0.50528859358E+02  0.29999998503E+02 0.  0.
        -12    1    3    3    0    0  0.29124679192E+01  0.38702307653E+02 -0.12116708742E+02  0.40659140642E+02  0.00000000000E+00 0.  1.
         11    1    4    4    0    0  0.25051053929E-01 -0.11898903368E+02 -0.19206783138E+00  0.11900479790E+02  0.51100000000E-03 0. -1.
        -11    1    4    4    0    0 -0.45929106860E+01 -0.50033418760E+01 -0.67859835271E+01  0.96009286628E+01  0.51100000000E-03 0.  1.
         12    1    4    4    0    0  0.16553917129E+01 -0.21800062409E+02  0.19094760100E+02  0.29027450905E+02  0.00000000000E+00 0. -1.
</event>
<event>
 8    1  0.1338956E-013  0.9118800E+02  0.7816164E-02  0.1184000E+00
        -11   -1    0    0    0    0  0.00000000000E+00  0.00000000000E+00  0.45593999997E+02  0.45594000000E+02  0.51100000000E-03 0. -1.
         11   -1    0    0    0    0 -0.00000000000E+00 -0.00000000000E+00 -0.45593999997E+02  0.45594000000E+02  0.51100000000E-03 0.  1.
         23    2    1    2    0    0 -0.35527136788E-14 -0.35527136788E-14  0.00000000000E+00  0.91188000000E+02  0.91188000000E+02 0.  0.
    9900012    2    3    3    0    0  0.20906973704E+02  0.17238937406E+02  0.30313095639E+02  0.50528852450E+02  0.29999977506E+02 0.  0.
        -12    1    3    3    0    0 -0.20906973704E+02 -0.17238937406E+02 -0.30313095639E+02  0.40659147550E+02  0.00000000000E+00 0.  1.
         11    1    4    4    0    0  0.12079873020E+02 -0.17267147098E+01  0.15465325279E+02  0.19699775687E+02  0.51100000000E-03 0. -1.
        -11    1    4    4    0    0  0.96044184701E+01  0.21330153762E+01  0.78368539109E+01  0.12578190976E+02  0.51100000000E-03 0.  1.
         12    1    4    4    0    0 -0.77731778667E+00  0.16832636739E+02  0.70109164488E+01  0.18250885786E+02  0.00000000000E+00 0. -1.
</event>
<event>
 8    1  0.1338956E-013  0.9118800E+02  0.7816164E-02  0.1184000E+00
        -11   -1    0    0    0    0  0.00000000000E+00  0.00000000000E+00  0.45593999997E+02  0.45594000000E+02  0.51100000000E-03 0. -1.
         11   -1    0    0    0    0 -0.00000000000E+00 -0.00000000000E+00 -0.45593999997E+02  0.45594000000E+02  0.51100000000E-03 0.  1.
         23    2    1    2    0    0  0.00000000000E+00  0.00000000000E+00 -0.17763568394E-14  0.91188000000E+02  0.91188000000E+02 0.  0.
    9900012    2    3    3    0    0  0.35274345141E+02  0.16477672328E+02 -0.11720619354E+02  0.50528855536E+02  0.29999986887E+02 0.  0.
         12    1    3    3    0    0 -0.35274345141E+02 -0.16477672328E+02  0.11720619354E+02  0.40659144464E+02  0.00000000000E+00 0. -1.
         11    1    4    4    0    0  0.66649366643E+01  0.37709999713E+01 -0.37975387160E+01  0.85476968877E+01  0.51100000000E-03 0.  1.
        -11    1    4    4    0    0  0.14751688448E+02  0.19821345187E+02 -0.91674941717E+01  0.26354145532E+02  0.51100000000E-03 0. -1.
        -12    1    4    4    0    0  0.13857720030E+02 -0.71146728298E+01  0.12444135336E+01  0.15627013116E+02  0.00000000000E+00 0.  1.
</event>
<event>
 8    1  0.1389774E-013  0.9118800E+02  0.7816164E-02  0.1184000E+00
        -11   -1    0    0    0    0  0.00000000000E+00  0.00000000000E+00  0.45593999997E+02  0.45594000000E+02  0.51100000000E-03 0. -1.
         11   -1    0    0    0    0 -0.00000000000E+00 -0.00000000000E+00 -0.45593999997E+02  0.45594000000E+02  0.51100000000E-03 0.  1.
         23    2    1    2    0    0  0.00000000000E+00  0.88817841970E-15  0.00000000000E+00  0.91188000000E+02  0.91188000000E+02 0.  0.
    9900012    2    3    3    0    0 -0.18971442310E+02  0.33323631246E+01 -0.35807080065E+02  0.50528840514E+02  0.29999941227E+02 0.  0.
         12    1    3    3    0    0  0.18971442310E+02 -0.33323631246E+01  0.35807080065E+02  0.40659159486E+02  0.00000000000E+00 0. -1.
         11    1    4    4    0    0 -0.10459945294E+02  0.11136590765E+02 -0.20914231683E+02  0.25900563635E+02  0.51100000000E-03 0. -1.
        -11    1    4    4    0    0 -0.91468097649E+01  0.22129684612E+01 -0.56072339311E+01  0.10954562105E+02  0.51100000000E-03 0.  1.
         12    1    4    4    0    0  0.63531274904E+00 -0.10017196102E+02 -0.92856144504E+01  0.13673714775E+02  0.00000000000E+00 0. -1.
</event>
<event>
 8    1  0.1338956E-013  0.9118800E+02  0.7816164E-02  0.1184000E+00
        -11   -1    0    0    0    0  0.00000000000E+00  0.00000000000E+00  0.45593999997E+02  0.45594000000E+02  0.51100000000E-03 0. -1.
         11   -1    0    0    0    0 -0.00000000000E+00 -0.00000000000E+00 -0.45593999997E+02  0.45594000000E+02  0.51100000000E-03 0.  1.
         23    2    1    2    0    0  0.35527136788E-14  0.17763568394E-14 -0.71054273576E-14  0.91188000000E+02  0.91188000000E+02 0.  0.
    9900012    2    3    3    0    0  0.11212844272E+02  0.78032528992E+01 -0.38295513500E+02  0.50528868348E+02  0.30000025829E+02 0.  0.
         12    1    3    3    0    0 -0.11212844272E+02 -0.78032528992E+01  0.38295513500E+02  0.40659131652E+02  0.00000000000E+00 0. -1.
         11    1    4    4    0    0  0.11257420338E+02  0.37361164977E+01 -0.21440685634E+02  0.24502879012E+02  0.51100000000E-03 0.  1.
        -11    1    4    4    0    0  0.39454102776E+01 -0.30583111553E+01  0.20778373667E+01  0.54071191743E+01  0.51100000000E-03 0. -1.
        -12    1    4    4    0    0 -0.39899863439E+01  0.71254475568E+01 -0.18932665233E+02  0.20618870161E+02  0.00000000000E+00 0.  1.
</event>
<event>
 8    1  0.1338956E-013  0.9118800E+02  0.7816164E-02  0.1184000E+00
        -11   -1    0    0    0    0  0.00000000000E+00  0.00000000000E+00  0.45593999997E+02  0.45594000000E+02  0.51100000000E-03 0. -1.
         11   -1    0    0    0    0 -0.00000000000E+00 -0.00000000000E+00 -0.45593999997E+02  0.45594000000E+02  0.51100000000E-03 0.  1.
         23    2    1    2    0    0  0.13322676296E-14  0.17763568394E-14  0.00000000000E+00  0.91188000000E+02  0.91188000000E+02 0.  0.
    9900012    2    3    3    0    0 -0.20589885434E+01  0.96759295646E+01  0.39437326035E+02  0.50528859189E+02  0.29999997989E+02 0.  0.
        -12    1    3    3    0    0  0.20589885434E+01 -0.96759295646E+01 -0.39437326035E+02  0.40659140811E+02  0.00000000000E+00 0.  1.
         11    1    4    4    0    0  0.85322574354E+01  0.13922427438E+01  0.44345584848E+01  0.97161240224E+01  0.51100000000E-03 0.  1.
        -11    1    4    4    0    0  0.15456354351E+01  0.75628136696E+01  0.75942336812E+01  0.10828551379E+02  0.51100000000E-03 0. -1.
        -12    1    4    4    0    0 -0.12136881414E+02  0.72087315115E+00  0.27408533869E+02  0.29984183787E+02  0.00000000000E+00 0.  1.
</event>
<event>
 8    1  0.1338956E-013  0.9118800E+02  0.7816164E-02  0.1184000E+00
        -11   -1    0    0    0    0  0.00000000000E+00  0.00000000000E+00  0.45593999997E+02  0.45594000000E+02  0.51100000000E-03 0.  1.
         11   -1    0    0    0    0 -0.00000000000E+00 -0.00000000000E+00 -0.45593999997E+02  0.45594000000E+02  0.51100000000E-03 0. -1.
         23    2    1    2    0    0  0.00000000000E+00  0.35527136788E-14  0.00000000000E+00  0.91188000000E+02  0.91188000000E+02 0.  0.
    9900012    2    3    3    0    0  0.23210853919E+02 -0.23804731763E+02 -0.23404209906E+02  0.50528855453E+02  0.29999986636E+02 0.  0.
         12    1    3    3    0    0 -0.23210853919E+02  0.23804731763E+02  0.23404209906E+02  0.40659144547E+02  0.00000000000E+00 0. -1.
         11    1    4    4    0    0  0.19499196595E+02 -0.16595239473E+02 -0.10462382619E+02  0.27660117342E+02  0.51100000000E-03 0. -1.
        -11    1    4    4    0    0 -0.10486521840E+01 -0.10732382948E+01  0.39780521640E+01  0.42516362875E+01  0.51100000000E-03 0.  1.
         12    1    4    4    0    0  0.47603095072E+01 -0.61362539954E+01 -0.16919879451E+02  0.18617101824E+02  0.00000000000E+00 0. -1.
</event>
<event>
 8    1  0.1338956E-013  0.9118800E+02  0.7816164E-02  0.1184000E+00
        -11   -1    0    0    0    0  0.00000000000E+00  0.00000000000E+00  0.45593999997E+02  0.45594000000E+02  0.51100000000E-03 0. -1.
         11   -1    0    0    0    0 -0.00000000000E+00 -0.00000000000E+00 -0.45593999997E+02  0.45594000000E+02  0.51100000000E-03 0.  1.
         23    2    1    2    0    0  0.00000000000E+00  0.35527136788E-14  0.00000000000E+00  0.91188000000E+02  0.91188000000E+02 0.  0.
    9900012    2    3    3    0    0 -0.90166740106E+01  0.30513069458E+02 -0.25314383001E+02  0.50528858289E+02  0.29999995255E+02 0.  0.
         12    1    3    3    0    0  0.90166740106E+01 -0.30513069458E+02  0.25314383001E+02  0.40659141711E+02  0.00000000000E+00 0. -1.
         11    1    4    4    0    0  0.45583577000E+01  0.35155555327E+01 -0.10550840477E+02  0.12019067795E+02  0.51100000000E-03 0.  1.
        -11    1    4    4    0    0 -0.24119325909E+01 -0.24764129622E+01 -0.38075888536E+01  0.51427398458E+01  0.51100000000E-03 0. -1.
        -12    1    4    4    0    0 -0.11163099120E+02  0.29473926887E+02 -0.10955953670E+02  0.33367050648E+02  0.00000000000E+00 0.  1.
</event>
<event>
 8    1  0.1338956E-013  0.9118800E+02  0.7816164E-02  0.1184000E+00
        -11   -1    0    0    0    0  0.00000000000E+00  0.00000000000E+00  0.45593999997E+02  0.45594000000E+02  0.51100000000E-03 0. -1.
         11   -1    0    0    0    0 -0.00000000000E+00 -0.00000000000E+00 -0.45593999997E+02  0.45594000000E+02  0.51100000000E-03 0.  1.
         23    2    1    2    0    0  0.00000000000E+00  0.00000000000E+00 -0.71054273576E-14  0.91188000000E+02  0.91188000000E+02 0.  0.
    9900012    2    3    3    0    0 -0.47039357903E+01  0.14270925008E+02  0.37780656199E+02  0.50528876850E+02  0.30000051672E+02 0.  0.
        -12    1    3    3    0    0  0.47039357903E+01 -0.14270925008E+02 -0.37780656199E+02  0.40659123150E+02  0.00000000000E+00 0.  1.
         11    1    4    4    0    0 -0.53033815380E+01  0.29318411317E+01  0.10528836300E+02  0.12148166210E+02  0.51100000000E-03 0. -1.
        -11    1    4    4    0    0 -0.44520829213E+01 -0.56168154783E+01  0.15678983395E+02  0.17239494744E+02  0.51100000000E-03 0.  1.
         12    1    4    4    0    0  0.50515286690E+01  0.16955899355E+02  0.11572836504E+02  0.21141215896E+02  0.00000000000E+00 0. -1.
</event>
<event>
 8    1  0.1338956E-013  0.9118800E+02  0.7816164E-02  0.1184000E+00
        -11   -1    0    0    0    0  0.00000000000E+00  0.00000000000E+00  0.45593999997E+02  0.45594000000E+02  0.51100000000E-03 0. -1.
         11   -1    0    0    0    0 -0.00000000000E+00 -0.00000000000E+00 -0.45593999997E+02  0.45594000000E+02  0.51100000000E-03 0.  1.
         23    2    1    2    0    0  0.71054273576E-14 -0.88817841970E-15  0.00000000000E+00  0.91188000000E+02  0.91188000000E+02 0.  0.
    9900012    2    3    3    0    0 -0.22176090428E+02 -0.65677928741E+01 -0.33440257235E+02  0.50528859652E+02  0.29999999397E+02 0.  0.
         12    1    3    3    0    0  0.22176090428E+02  0.65677928741E+01  0.33440257235E+02  0.40659140348E+02  0.00000000000E+00 0. -1.
         11    1    4    4    0    0 -0.14992858011E+02 -0.32793656871E+01 -0.12614477287E+02  0.19866179001E+02  0.51100000000E-03 0. -1.
        -11    1    4    4    0    0 -0.12213720837E+02 -0.41993150617E+01 -0.21913078755E+02  0.25436042232E+02  0.51100000000E-03 0.  1.
         12    1    4    4    0    0  0.50304884196E+01  0.91088787474E+00  0.10872988059E+01  0.52266384181E+01  0.00000000000E+00 0. -1.
</event>
<event>
 8    1  0.1338956E-013  0.9118800E+02  0.7816164E-02  0.1184000E+00
        -11   -1    0    0    0    0  0.00000000000E+00  0.00000000000E+00  0.45593999997E+02  0.45594000000E+02  0.51100000000E-03 0.  1.
         11   -1    0    0    0    0 -0.00000000000E+00 -0.00000000000E+00 -0.45593999997E+02  0.45594000000E+02  0.51100000000E-03 0. -1.
         23    2    1    2    0    0  0.35527136788E-14  0.35527136788E-14  0.88817841970E-15  0.91188000000E+02  0.91188000000E+02 0.  0.
    9900012    2    3    3    0    0 -0.24107155499E+02 -0.31959099659E+02  0.71153000456E+01  0.50528849836E+02  0.29999969562E+02 0.  0.
        -12    1    3    3    0    0  0.24107155499E+02  0.31959099659E+02 -0.71153000456E+01  0.40659150164E+02  0.00000000000E+00 0.  1.
         11    1    4    4    0    0 -0.33553997442E+00 -0.11097411144E+02 -0.14755692153E+01  0.11200108301E+02  0.51100000000E-03 0. -1.
        -11    1    4    4    0    0 -0.27541472301E+02 -0.20941973559E+02  0.80008659346E+01  0.35512150160E+02  0.51100000000E-03 0.  1.
         12    1    4    4    0    0  0.37698567759E+01  0.80285043921E-01  0.59000332625E+00  0.38165913750E+01  0.00000000000E+00 0. -1.
</event>
<event>
 8    1  0.1338956E-013  0.9118800E+02  0.7816164E-02  0.1184000E+00
        -11   -1    0    0    0    0  0.00000000000E+00  0.00000000000E+00  0.45593999997E+02  0.45594000000E+02  0.51100000000E-03 0. -1.
         11   -1    0    0    0    0 -0.00000000000E+00 -0.00000000000E+00 -0.45593999997E+02  0.45594000000E+02  0.51100000000E-03 0.  1.
         23    2    1    2    0    0  0.00000000000E+00  0.00000000000E+00 -0.35527136788E-14  0.91188000000E+02  0.91188000000E+02 0.  0.
    9900012    2    3    3    0    0 -0.25946059525E+02 -0.24272892875E+02 -0.19768533708E+02  0.50528852710E+02  0.29999978297E+02 0.  0.
         12    1    3    3    0    0  0.25946059525E+02  0.24272892875E+02  0.19768533708E+02  0.40659147290E+02  0.00000000000E+00 0. -1.
         11    1    4    4    0    0 -0.13356394342E+02 -0.14992104463E+02 -0.13695917366E+02  0.24305032788E+02  0.51100000000E-03 0.  1.
        -11    1    4    4    0    0  0.44910205366E+01  0.17671391764E+00  0.22183774472E+01  0.50121544298E+01  0.51100000000E-03 0. -1.
         12    1    4    4    0    0 -0.17080685719E+02 -0.94575023292E+01 -0.82909937897E+01  0.21211665493E+02  0.00000000000E+00 0. -1.
</event>
<event>
 8    1  0.1338956E-013  0.9118800E+02  0.7816164E-02  0.1184000E+00
        -11   -1    0    0    0    0  0.00000000000E+00  0.00000000000E+00  0.45593999997E+02  0.45594000000E+02  0.51100000000E-03 0. -1.
         11   -1    0    0    0    0 -0.00000000000E+00 -0.00000000000E+00 -0.45593999997E+02  0.45594000000E+02  0.51100000000E-03 0.  1.
         23    2    1    2    0    0  0.00000000000E+00  0.00000000000E+00  0.00000000000E+00  0.91188000000E+02  0.91188000000E+02 0.  0.
    9900012    2    3    3    0    0 -0.10689657628E+02  0.10015127180E+02  0.37928800282E+02  0.50528862731E+02  0.30000008757E+02 0.  0.
        -12    1    3    3    0    0  0.10689657628E+02 -0.10015127180E+02 -0.37928800282E+02  0.40659137269E+02  0.00000000000E+00 0.  1.
         11    1    4    4    0    0 -0.49693326202E+01 -0.76998172501E+01  0.46554161042E+01  0.10278830271E+02  0.51100000000E-03 0.  1.
        -11    1    4    4    0    0 -0.44692923843E+01 -0.34782059630E+00  0.54913044637E+01  0.70887219269E+01  0.51100000000E-03 0. -1.
        -12    1    4    4    0    0 -0.12510326239E+01  0.18062765026E+02  0.27782079714E+02  0.33161310533E+02  0.00000000000E+00 0.  1.
</event>
<event>
 8    1  0.1338956E-013  0.9118800E+02  0.7816164E-02  0.1184000E+00
        -11   -1    0    0    0    0  0.00000000000E+00  0.00000000000E+00  0.45593999997E+02  0.45594000000E+02  0.51100000000E-03 0. -1.
         11   -1    0    0    0    0 -0.00000000000E+00 -0.00000000000E+00 -0.45593999997E+02  0.45594000000E+02  0.51100000000E-03 0.  1.
         23    2    1    2    0    0 -0.88817841970E-15 -0.35527136788E-14  0.00000000000E+00  0.91188000000E+02  0.91188000000E+02 0.  0.
    9900012    2    3    3    0    0 -0.55293527670E+01 -0.25137285970E+02  0.31475501144E+02  0.50528879741E+02  0.30000060460E+02 0.  0.
        -12    1    3    3    0    0  0.55293527670E+01  0.25137285970E+02 -0.31475501144E+02  0.40659120259E+02  0.00000000000E+00 0.  1.
         11    1    4    4    0    0 -0.18403670627E+00  0.11202695611E+01  0.10597646010E+02  0.10658281973E+02  0.51100000000E-03 0. -1.
        -11    1    4    4    0    0  0.19172946326E+01  0.22411820869E+01 -0.11087643435E+01  0.31509164516E+01  0.51100000000E-03 0.  1.
         12    1    4    4    0    0 -0.72626106933E+01 -0.28498737618E+02  0.21986619478E+02  0.36719681316E+02  0.00000000000E+00 0. -1.
</event>
<event>
 8    1  0.1338956E-013  0.9118800E+02  0.7816164E-02  0.1184000E+00
        -11   -1    0    0    0    0  0.00000000000E+00  0.00000000000E+00  0.45593999997E+02  0.45594000000E+02  0.51100000000E-03 0.  1.
         11   -1    0    0    0    0 -0.00000000000E+00 -0.00000000000E+00 -0.45593999997E+02  0.45594000000E+02  0.51100000000E-03 0. -1.
         23    2    1    2    0    0  0.00000000000E+00  0.17763568394E-14  0.17763568394E-14  0.91188000000E+02  0.91188000000E+02 0.  0.
    9900012    2    3    3    0    0 -0.38914019290E+02 -0.78886565468E+01 -0.87540570767E+01  0.50528864314E+02  0.30000013570E+02 0.  0.
         12    1    3    3    0    0  0.38914019290E+02  0.78886565468E+01  0.87540570767E+01  0.40659135686E+02  0.00000000000E+00 0. -1.
         11    1    4    4    0    0 -0.56747403364E+00 -0.33157839768E+01  0.25617604646E+01  0.42283645891E+01  0.51100000000E-03 0. -1.
        -11    1    4    4    0    0 -0.21851500922E+02  0.80500142643E+01 -0.10415477407E+02  0.25510252685E+02  0.51100000000E-03 0.  1.
         12    1    4    4    0    0 -0.16495044335E+02 -0.12622886834E+02 -0.90034013447E+00  0.20790247040E+02  0.00000000000E+00 0. -1.
</event>
<event>
 8    1  0.1338956E-013  0.9118800E+02  0.7816164E-02  0.1184000E+00
        -11   -1    0    0    0    0  0.00000000000E+00  0.00000000000E+00  0.45593999997E+02  0.45594000000E+02  0.51100000000E-03 0. -1.
         11   -1    0    0    0    0 -0.00000000000E+00 -0.00000000000E+00 -0.45593999997E+02  0.45594000000E+02  0.51100000000E-03 0.  1.
         23    2    1    2    0    0  0.00000000000E+00  0.00000000000E+00  0.00000000000E+00  0.91188000000E+02  0.91188000000E+02 0.  0.
    9900012    2    3    3    0    0  0.33657141063E+02  0.94639745434E+01 -0.20755616979E+02  0.50528860869E+02  0.30000003098E+02 0.  0.
         12    1    3    3    0    0 -0.33657141063E+02 -0.94639745434E+01  0.20755616979E+02  0.40659139131E+02  0.00000000000E+00 0. -1.
         11    1    4    4    0    0  0.30958060424E+01  0.60407244340E+01  0.16470918784E+01  0.69847890917E+01  0.51100000000E-03 0. -1.
        -11    1    4    4    0    0  0.12728462930E+02  0.63381367737E+01 -0.21078419979E+02  0.25426079827E+02  0.51100000000E-03 0.  1.
         12    1    4    4    0    0  0.17832872091E+02 -0.29148866643E+01 -0.13242888786E+01  0.18117991950E+02  0.00000000000E+00 0. -1.
</event>
<event>
 8    1  0.1338956E-013  0.9118800E+02  0.7816164E-02  0.1184000E+00
        -11   -1    0    0    0    0  0.00000000000E+00  0.00000000000E+00  0.45593999997E+02  0.45594000000E+02  0.51100000000E-03 0. -1.
         11   -1    0    0    0    0 -0.00000000000E+00 -0.00000000000E+00 -0.45593999997E+02  0.45594000000E+02  0.51100000000E-03 0.  1.
         23    2    1    2    0    0 -0.35527136788E-14  0.00000000000E+00 -0.71054273576E-14  0.91188000000E+02  0.91188000000E+02 0.  0.
    9900012    2    3    3    0    0 -0.14810151064E+02  0.14348500432E+02 -0.35042053365E+02  0.50528861504E+02  0.30000005028E+02 0.  0.
         12    1    3    3    0    0  0.14810151064E+02 -0.14348500432E+02  0.35042053365E+02  0.40659138496E+02  0.00000000000E+00 0. -1.
         11    1    4    4    0    0  0.27658037477E+01  0.17167279449E+01  0.53918303550E-02  0.32552810233E+01  0.51100000000E-03 0. -1.
        -11    1    4    4    0    0  0.11634830364E+01 -0.51101750786E+01 -0.27059628083E+01  0.58982893360E+01  0.51100000000E-03 0.  1.
        -12    1    4    4    0    0 -0.18739437848E+02  0.17741947566E+02 -0.32341482387E+02  0.41375291145E+02  0.00000000000E+00 0.  1.
</event>
<event>
 8    1  0.1338956E-013  0.9118800E+02  0.7816164E-02  0.1184000E+00
        -11   -1    0    0    0    0  0.00000000000E+00  0.00000000000E+00  0.45593999997E+02  0.45594000000E+02  0.51100000000E-03 0. -1.
         11   -1    0    0    0    0 -0.00000000000E+00 -0.00000000000E+00 -0.45593999997E+02  0.45594000000E+02  0.51100000000E-03 0.  1.
         23    2    1    2    0    0  0.00000000000E+00  0.00000000000E+00  0.17763568394E-14  0.91188000000E+02  0.91188000000E+02 0.  0.
    9900012    2    3    3    0    0  0.35910221167E+02 -0.13604887479E+02  0.13361443898E+02  0.50528866579E+02  0.30000020452E+02 0.  0.
        -12    1    3    3    0    0 -0.35910221167E+02  0.13604887479E+02 -0.13361443898E+02  0.40659133421E+02  0.00000000000E+00 0.  1.
         11    1    4    4    0    0  0.16305770906E+02 -0.64810946890E+01 -0.68258322805E+01  0.18827499563E+02  0.51100000000E-03 0. -1.
        -11    1    4    4    0    0  0.19800740310E+01  0.79793645912E+00 -0.15343656991E+01  0.26290062991E+01  0.51100000000E-03 0.  1.
         12    1    4    4    0    0  0.17624376229E+02 -0.79217292486E+01  0.21721641878E+02  0.29072360716E+02  0.00000000000E+00 0. -1.
</event>
<event>
 8    1  0.1338956E-013  0.9118800E+02  0.7816164E-02  0.1184000E+00
        -11   -1    0    0    0    0  0.00000000000E+00  0.00000000000E+00  0.45593999997E+02  0.45594000000E+02  0.51100000000E-03 0. -1.
         11   -1    0    0    0    0 -0.00000000000E+00 -0.00000000000E+00 -0.45593999997E+02  0.45594000000E+02  0.51100000000E-03 0.  1.
         23    2    1    2    0    0 -0.17763568394E-14  0.00000000000E+00  0.00000000000E+00  0.91188000000E+02  0.91188000000E+02 0.  0.
    9900012    2    3    3    0    0  0.92860450856E+01  0.33134516229E+02  0.21657297513E+02  0.50528864070E+02  0.30000012827E+02 0.  0.
        -12    1    3    3    0    0 -0.92860450856E+01 -0.33134516229E+02 -0.21657297513E+02  0.40659135930E+02  0.00000000000E+00 0.  1.
         11    1    4    4    0    0  0.93774970597E+01  0.11872883747E+02  0.23154445833E+02  0.27659197054E+02  0.51100000000E-03 0.  1.
        -11    1    4    4    0    0  0.24699498875E+01  0.15947417882E+02  0.15823882180E+01  0.16214954279E+02  0.51100000000E-03 0. -1.
        -12    1    4    4    0    0 -0.25614018616E+01  0.53142145995E+01 -0.30795365388E+01  0.66547127360E+01  0.00000000000E+00 0.  1.
</event>
<event>
 8    1  0.1338956E-013  0.9118800E+02  0.7816164E-02  0.1184000E+00
        -11   -1    0    0    0    0  0.00000000000E+00  0.00000000000E+00  0.45593999997E+02  0.45594000000E+02  0.51100000000E-03 0.  1.
         11   -1    0    0    0    0 -0.00000000000E+00 -0.00000000000E+00 -0.45593999997E+02  0.45594000000E+02  0.51100000000E-03 0. -1.
         23    2    1    2    0    0  0.71054273576E-14  0.00000000000E+00 -0.35527136788E-14  0.91188000000E+02  0.91188000000E+02 0.  0.
    9900012    2    3    3    0    0 -0.33152740626E+02  0.16826735876E+02  0.16459845190E+02  0.50528809711E+02  0.29999847598E+02 0.  0.
        -12    1    3    3    0    0  0.33152740626E+02 -0.16826735876E+02 -0.16459845190E+02  0.40659190289E+02  0.00000000000E+00 0.  1.
         11    1    4    4    0    0 -0.90554005329E+01  0.86520034053E+01 -0.56761537709E+01  0.13750496850E+02  0.51100000000E-03 0.  1.
        -11    1    4    4    0    0 -0.12439395540E+02  0.79688106158E+01  0.41520892714E+01  0.15345368995E+02  0.51100000000E-03 0. -1.
        -12    1    4    4    0    0 -0.11657944553E+02  0.20592185460E+00  0.17983909690E+02  0.21432943866E+02  0.00000000000E+00 0.  1.
</event>
<event>
 8    1  0.1338956E-013  0.9118800E+02  0.7816164E-02  0.1184000E+00
        -11   -1    0    0    0    0  0.00000000000E+00  0.00000000000E+00  0.45593999997E+02  0.45594000000E+02  0.51100000000E-03 0. -1.
         11   -1    0    0    0    0 -0.00000000000E+00 -0.00000000000E+00 -0.45593999997E+02  0.45594000000E+02  0.51100000000E-03 0.  1.
         23    2    1    2    0    0  0.00000000000E+00  0.00000000000E+00  0.00000000000E+00  0.91188000000E+02  0.91188000000E+02 0.  0.
    9900012    2    3    3    0    0  0.13776772348E+02  0.34490065942E+02 -0.16546915955E+02  0.50528873932E+02  0.30000042803E+02 0.  0.
         12    1    3    3    0    0 -0.13776772348E+02 -0.34490065942E+02  0.16546915955E+02  0.40659126068E+02  0.00000000000E+00 0. -1.
         11    1    4    4    0    0  0.48346990882E+01  0.76295379778E+01  0.61781564497E+01  0.10943207135E+02  0.51100000000E-03 0.  1.
        -11    1    4    4    0    0  0.51306360868E+00  0.81796212959E+01  0.97477224901E+00  0.82534610928E+01  0.51100000000E-03 0. -1.
        -12    1    4    4    0    0  0.84290096511E+01  0.18680906668E+02 -0.23699844654E+02  0.31332205704E+02  0.00000000000E+00 0.  1.
</event>
<event>
 8    1  0.1338956E-013  0.9118800E+02  0.7816164E-02  0.1184000E+00
        -11   -1    0    0    0    0  0.00000000000E+00  0.00000000000E+00  0.45593999997E+02  0.45594000000E+02  0.51100000000E-03 0. -1.
         11   -1    0    0    0    0 -0.00000000000E+00 -0.00000000000E+00 -0.45593999997E+02  0.45594000000E+02  0.51100000000E-03 0.  1.
         23    2    1    2    0    0 -0.66613381478E-15 -0.88817841970E-15  0.00000000000E+00  0.91188000000E+02  0.91188000000E+02 0.  0.
    9900012    2    3    3    0    0  0.54600109487E+00  0.20223370599E+01 -0.40605145699E+02  0.50528858081E+02  0.29999994622E+02 0.  0.
         12    1    3    3    0    0 -0.54600109487E+00 -0.20223370599E+01  0.40605145699E+02  0.40659141919E+02  0.00000000000E+00 0. -1.
         11    1    4    4    0    0 -0.88546405857E+00 -0.68516846487E+01 -0.71225267946E+01  0.99227021181E+01  0.51100000000E-03 0. -1.
        -11    1    4    4    0    0  0.52938775215E+01 -0.56371874338E+01 -0.14165877202E+02  0.16139240953E+02  0.51100000000E-03 0.  1.
         12    1    4    4    0    0 -0.38624123681E+01  0.14511209142E+02 -0.19316741703E+02  0.24466915010E+02  0.00000000000E+00 0. -1.
</event>
<event>
 8    1  0.1338956E-013  0.9118800E+02  0.7816164E-02  0.1184000E+00
        -11   -1    0    0    0    0  0.00000000000E+00  0.00000000000E+00  0.45593999997E+02  0.45594000000E+02  0.51100000000E-03 0. -1.
         11   -1    0    0    0    0 -0.00000000000E+00 -0.00000000000E+00 -0.45593999997E+02  0.45594000000E+02  0.51100000000E-03 0.  1.
         23    2    1    2    0    0  0.00000000000E+00  0.88817841970E-15  0.00000000000E+00  0.91188000000E+02  0.91188000000E+02 0.  0.
    9900012    2    3    3    0    0 -0.14330860937E+02  0.21632495752E+01 -0.37988321911E+02  0.50528858032E+02  0.29999994475E+02 0.  0.
         12    1    3    3    0    0  0.14330860937E+02 -0.21632495752E+01  0.37988321911E+02  0.40659141968E+02  0.00000000000E+00 0. -1.
         11    1    4    4    0    0 -0.44911601514E+01  0.74312566450E+01 -0.93605640569E+01  0.12767703574E+02  0.51100000000E-03 0.  1.
        -11    1    4    4    0    0 -0.84893574873E+01  0.77692398166E+01 -0.13907274473E+02  0.18051109700E+02  0.51100000000E-03 0. -1.
         12    1    4    4    0    0 -0.13503432981E+01 -0.13037246886E+02 -0.14720483381E+02  0.19710044758E+02  0.00000000000E+00 0. -1.
</event>
<event>
 8    1  0.1338956E-013  0.9118800E+02  0.7816164E-02  0.1184000E+00
        -11   -1    0    0    0    0  0.00000000000E+00  0.00000000000E+00  0.45593999997E+02  0.45594000000E+02  0.51100000000E-03 0. -1.
         11   -1    0    0    0    0 -0.00000000000E+00 -0.00000000000E+00 -0.45593999997E+02  0.45594000000E+02  0.51100000000E-03 0.  1.
         23    2    1    2    0    0  0.00000000000E+00  0.00000000000E+00  0.35527136788E-14  0.91188000000E+02  0.91188000000E+02 0.  0.
    9900012    2    3    3    0    0 -0.17119549661E+02  0.23822486431E+02  0.28152730036E+02  0.50528855287E+02  0.29999986129E+02 0.  0.
        -12    1    3    3    0    0  0.17119549661E+02 -0.23822486431E+02 -0.28152730036E+02  0.40659144713E+02  0.00000000000E+00 0.  1.
         11    1    4    4    0    0  0.42580342368E+01  0.75821846026E+01  0.16949020221E+02  0.19049663137E+02  0.51100000000E-03 0. -1.
        -11    1    4    4    0    0  0.12662140115E+01  0.13928026656E+01  0.23072186645E+01  0.29776593854E+01  0.51100000000E-03 0.  1.
        -12    1    4    4    0    0 -0.22643797909E+02  0.14847499163E+02  0.88964911502E+01  0.28501532764E+02  0.00000000000E+00 0.  1.
</event>
<event>
 8    1  0.1338956E-013  0.9118800E+02  0.7816164E-02  0.1184000E+00
        -11   -1    0    0    0    0  0.00000000000E+00  0.00000000000E+00  0.45593999997E+02  0.45594000000E+02  0.51100000000E-03 0. -1.
         11   -1    0    0    0    0 -0.00000000000E+00 -0.00000000000E+00 -0.45593999997E+02  0.45594000000E+02  0.51100000000E-03 0.  1.
         23    2    1    2    0    0  0.88817841970E-15  0.00000000000E+00  0.71054273576E-14  0.91188000000E+02  0.91188000000E+02 0.  0.
    9900012    2    3    3    0    0  0.45517810282E+01 -0.45717392251E+01 -0.40144076484E+02  0.50528851130E+02  0.29999973496E+02 0.  0.
         12    1    3    3    0    0 -0.45517810282E+01  0.45717392251E+01  0.40144076484E+02  0.40659148870E+02  0.00000000000E+00 0. -1.
         11    1    4    4    0    0  0.24023134526E+00 -0.16912775892E+00  0.13540165882E+00  0.32349523708E+00  0.51100000000E-03 0. -1.
        -11    1    4    4    0    0 -0.11857916182E+02 -0.64119992857E+01 -0.15417503016E+02  0.20479826916E+02  0.51100000000E-03 0.  1.
         12    1    4    4    0    0  0.16169465865E+02  0.20093878195E+01 -0.24861975127E+02  0.29725528977E+02  0.00000000000E+00 0. -1.
</event>
<event>
 8    1  0.1338956E-013  0.9118800E+02  0.7816164E-02  0.1184000E+00
        -11   -1    0    0    0    0  0.00000000000E+00  0.00000000000E+00  0.45593999997E+02  0.45594000000E+02  0.51100000000E-03 0. -1.
         11   -1    0    0    0    0 -0.00000000000E+00 -0.00000000000E+00 -0.45593999997E+02  0.45594000000E+02  0.51100000000E-03 0.  1.
         23    2    1    2    0    0  0.00000000000E+00 -0.35527136788E-14  0.00000000000E+00  0.91188000000E+02  0.91188000000E+02 0.  0.
    9900012    2    3    3    0    0  0.17442138799E+02  0.18812195704E+02  0.31544236301E+02  0.50528858877E+02  0.29999997042E+02 0.  0.
        -12    1    3    3    0    0 -0.17442138799E+02 -0.18812195704E+02 -0.31544236301E+02  0.40659141123E+02  0.00000000000E+00 0.  1.
         11    1    4    4    0    0 -0.11928217272E+01  0.23011448886E+01  0.76756913757E+01  0.81015017020E+01  0.51100000000E-03 0. -1.
        -11    1    4    4    0    0  0.15855126133E+02  0.21438115148E+02  0.25120242957E+02  0.36633378390E+02  0.51100000000E-03 0.  1.
        -12    1    4    4    0    0  0.27798343935E+01 -0.49270643325E+01 -0.12516980323E+01  0.57939787846E+01  0.00000000000E+00 0.  1.
</event>
<event>
 8    1  0.1338956E-013  0.9118800E+02  0.7816164E-02  0.1184000E+00
        -11   -1    0    0    0    0  0.00000000000E+00  0.00000000000E+00  0.45593999997E+02  0.45594000000E+02  0.51100000000E-03 0. -1.
         11   -1    0    0    0    0 -0.00000000000E+00 -0.00000000000E+00 -0.45593999997E+02  0.45594000000E+02  0.51100000000E-03 0.  1.
         23    2    1    2    0    0 -0.35527136788E-14 -0.88817841970E-15 -0.71054273576E-14  0.91188000000E+02  0.91188000000E+02 0.  0.
    9900012    2    3    3    0    0  0.17927494347E+02  0.48583700376E+01  0.36168561690E+02  0.50528884568E+02  0.30000075134E+02 0.  0.
        -12    1    3    3    0    0 -0.17927494347E+02 -0.48583700376E+01 -0.36168561690E+02  0.40659115432E+02  0.00000000000E+00 0.  1.
         11    1    4    4    0    0  0.20980826197E+01 -0.52936529176E+01  0.10649129104E+02  0.12075953910E+02  0.51100000000E-03 0. -1.
        -11    1    4    4    0    0  0.41073369148E+01 -0.48689903336E+01 -0.28494567199E+00  0.63764000579E+01  0.51100000000E-03 0.  1.
        -12    1    4    4    0    0  0.11722074812E+02  0.15021013289E+02  0.25804378258E+02  0.32076530601E+02  0.00000000000E+00 0.  1.
</event>
<event>
 8    1  0.1338956E-013  0.9118800E+02  0.7816164E-02  0.1184000E+00
        -11   -1    0    0    0    0  0.00000000000E+00  0.00000000000E+00  0.45593999997E+02  0.45594000000E+02  0.51100000000E-03 0. -1.
         11   -1    0    0    0    0 -0.00000000000E+00 -0.00000000000E+00 -0.45593999997E+02  0.45594000000E+02  0.51100000000E-03 0.  1.
         23    2    1    2    0    0  0.00000000000E+00  0.00000000000E+00  0.00000000000E+00  0.91188000000E+02  0.91188000000E+02 0.  0.
    9900012    2    3    3    0    0  0.26517402127E+01  0.12360679797E+02  0.38643859281E+02  0.50528855994E+02  0.29999988278E+02 0.  0.
        -12    1    3    3    0    0 -0.26517402127E+01 -0.12360679797E+02 -0.38643859281E+02  0.40659144006E+02  0.00000000000E+00 0.  1.
         11    1    4    4    0    0  0.42137638957E+01  0.81348549336E+01  0.28921881002E+02  0.30338208119E+02  0.51100000000E-03 0. -1.
        -11    1    4    4    0    0 -0.29649645221E+01 -0.46872174141E+01  0.96932564976E+01  0.11167821788E+02  0.51100000000E-03 0.  1.
         12    1    4    4    0    0  0.14029408391E+01  0.89130422774E+01  0.28721781867E-01  0.90228260860E+01  0.00000000000E+00 0. -1.
</event>
<event>
 8    1  0.1338956E-013  0.9118800E+02  0.7816164E-02  0.1184000E+00
        -11   -1    0    0    0    0  0.00000000000E+00  0.00000000000E+00  0.45593999997E+02  0.45594000000E+02  0.51100000000E-03 0.  1.
         11   -1    0    0    0    0 -0.00000000000E+00 -0.00000000000E+00 -0.45593999997E+02  0.45594000000E+02  0.51100000000E-03 0. -1.
         23    2    1    2    0    0 -0.71054273576E-14 -0.35527136788E-14  0.00000000000E+00  0.91188000000E+02  0.91188000000E+02 0.  0.
    9900012    2    3    3    0    0  0.28488063626E+02  0.13525861324E+02  0.25664123707E+02  0.50528856633E+02  0.29999990221E+02 0.  0.
        -12    1    3    3    0    0 -0.28488063626E+02 -0.13525861324E+02 -0.25664123707E+02  0.40659143367E+02  0.00000000000E+00 0.  1.
         11    1    4    4    0    0  0.14554557054E+02  0.11003474848E+01  0.37507009889E+01  0.15070290435E+02  0.51100000000E-03 0. -1.
        -11    1    4    4    0    0  0.16925169349E+02  0.11180395319E+02  0.90830334803E+01  0.22225303022E+02  0.51100000000E-03 0.  1.
        -12    1    4    4    0    0 -0.29916627764E+01  0.12451185202E+01  0.12830389238E+02  0.13233263176E+02  0.00000000000E+00 0.  1.
</event>
<event>
 8    1  0.1341336E-013  0.9118800E+02  0.7816164E-02  0.1184000E+00
        -11   -1    0    0    0    0  0.00000000000E+00  0.00000000000E+00  0.45593999997E+02  0.45594000000E+02  0.51100000000E-03 0. -1.
         11   -1    0    0    0    0 -0.00000000000E+00 -0.00000000000E+00 -0.45593999997E+02  0.45594000000E+02  0.51100000000E-03 0.  1.
         23    2    1    2    0    0  0.00000000000E+00  0.00000000000E+00  0.00000000000E+00  0.91188000000E+02  0.91188000000E+02 0.  0.
    9900012    2    3    3    0    0  0.69493415165E+01 -0.22337278744E+02 -0.33255349191E+02  0.50528860572E+02  0.30000002196E+02 0.  0.
         12    1    3    3    0    0 -0.69493415165E+01  0.22337278744E+02  0.33255349191E+02  0.40659139428E+02  0.00000000000E+00 0. -1.
         11    1    4    4    0    0  0.56540251115E+01  0.22688784915E+01 -0.14493981751E+02  0.15722319066E+02  0.51100000000E-03 0. -1.
        -11    1    4    4    0    0  0.38842004945E-01  0.18919829927E+01  0.57673602183E+00  0.19783157094E+01  0.51100000000E-03 0.  1.
        -12    1    4    4    0    0  0.12564744000E+01 -0.26498140228E+02 -0.19338103462E+02  0.32828225797E+02  0.00000000000E+00 0.  1.
</event>
<event>
 8    1  0.1338956E-013  0.9118800E+02  0.7816164E-02  0.1184000E+00
        -11   -1    0    0    0    0  0.00000000000E+00  0.00000000000E+00  0.45593999997E+02  0.45594000000E+02  0.51100000000E-03 0. -1.
         11   -1    0    0    0    0 -0.00000000000E+00 -0.00000000000E+00 -0.45593999997E+02  0.45594000000E+02  0.51100000000E-03 0.  1.
         23    2    1    2    0    0 -0.88817841970E-15  0.00000000000E+00 -0.35527136788E-14  0.91188000000E+02  0.91188000000E+02 0.  0.
    9900012    2    3    3    0    0  0.60627794174E+01  0.28165381808E+02  0.28690086116E+02  0.50528842754E+02  0.29999948035E+02 0.  0.
        -12    1    3    3    0    0 -0.60627794174E+01 -0.28165381808E+02 -0.28690086116E+02  0.40659157246E+02  0.00000000000E+00 0.  1.
         11    1    4    4    0    0  0.18820118819E+01  0.10942350138E+02  0.11465427369E+02  0.15960357775E+02  0.51100000000E-03 0. -1.
        -11    1    4    4    0    0 -0.42025493756E+01  0.11062347438E+02 -0.26579229158E+01  0.12128540991E+02  0.51100000000E-03 0.  1.
        -12    1    4    4    0    0  0.83833169111E+01  0.61606842316E+01  0.19882581662E+02  0.22439943988E+02  0.00000000000E+00 0.  1.
</event>
<event>
 8    1  0.1338956E-013  0.9118800E+02  0.7816164E-02  0.1184000E+00
        -11   -1    0    0    0    0  0.00000000000E+00  0.00000000000E+00  0.45593999997E+02  0.45594000000E+02  0.51100000000E-03 0. -1.
         11   -1    0    0    0    0 -0.00000000000E+00 -0.00000000000E+00 -0.45593999997E+02  0.45594000000E+02  0.51100000000E-03 0.  1.
         23    2    1    2    0    0  0.35527136788E-14 -0.71054273576E-14  0.00000000000E+00  0.91188000000E+02  0.91188000000E+02 0.  0.
    9900012    2    3    3    0    0 -0.18025438620E+02  0.26315805663E+02  0.25213651085E+02  0.50528852614E+02  0.29999978005E+02 0.  0.
        -12    1    3    3    0    0  0.18025438620E+02 -0.26315805663E+02 -0.25213651085E+02  0.40659147386E+02  0.00000000000E+00 0.  1.
         11    1    4    4    0    0 -0.32024803268E+00 -0.78849472066E+00  0.89522053263E+01  0.89925671080E+01  0.51100000000E-03 0. -1.
        -11    1    4    4    0    0 -0.18456570273E+02  0.16369034921E+02  0.18128157668E+02  0.30614055452E+02  0.51100000000E-03 0.  1.
        -12    1    4    4    0    0  0.75137968592E+00  0.10735265463E+02 -0.18667119100E+01  0.10922230054E+02  0.00000000000E+00 0.  1.
</event>
<event>
 8    1  0.1338956E-013  0.9118800E+02  0.7816164E-02  0.1184000E+00
        -11   -1    0    0    0    0  0.00000000000E+00  0.00000000000E+00  0.45593999997E+02  0.45594000000E+02  0.51100000000E-03 0. -1.
         11   -1    0    0    0    0 -0.00000000000E+00 -0.00000000000E+00 -0.45593999997E+02  0.45594000000E+02  0.51100000000E-03 0.  1.
         23    2    1    2    0    0  0.00000000000E+00  0.00000000000E+00  0.00000000000E+00  0.91188000000E+02  0.91188000000E+02 0.  0.
    9900012    2    3    3    0    0  0.10983008608E+02 -0.27619267704E+02 -0.27743715369E+02  0.50528878403E+02  0.30000056394E+02 0.  0.
         12    1    3    3    0    0 -0.10983008608E+02  0.27619267704E+02  0.27743715369E+02  0.40659121597E+02  0.00000000000E+00 0. -1.
         11    1    4    4    0    0  0.13165045636E+01  0.20093707860E+00 -0.16830557504E+01  0.21462145502E+01  0.51100000000E-03 0. -1.
        -11    1    4    4    0    0  0.61509989490E+01 -0.21974601526E+02 -0.32023862490E+02  0.39322330416E+02  0.51100000000E-03 0.  1.
         12    1    4    4    0    0  0.35155050953E+01 -0.58456032559E+01  0.59632028712E+01  0.90603334367E+01  0.00000000000E+00 0. -1.
</event>
<event>
 8    1  0.1338956E-013  0.9118800E+02  0.7816164E-02  0.1184000E+00
        -11   -1    0    0    0    0  0.00000000000E+00  0.00000000000E+00  0.45593999997E+02  0.45594000000E+02  0.51100000000E-03 0. -1.
         11   -1    0    0    0    0 -0.00000000000E+00 -0.00000000000E+00 -0.45593999997E+02  0.45594000000E+02  0.51100000000E-03 0.  1.
         23    2    1    2    0    0 -0.71054273576E-14 -0.17763568394E-14  0.00000000000E+00  0.91188000000E+02  0.91188000000E+02 0.  0.
    9900012    2    3    3    0    0 -0.25826593242E+02 -0.13685037583E+02 -0.28264357023E+02  0.50528842974E+02  0.29999948704E+02 0.  0.
         12    1    3    3    0    0  0.25826593242E+02  0.13685037583E+02  0.28264357023E+02  0.40659157026E+02  0.00000000000E+00 0. -1.
         11    1    4    4    0    0 -0.26113204858E+02 -0.11555640709E+02 -0.89986012505E+01  0.29940058865E+02  0.51100000000E-03 0. -1.
        -11    1    4    4    0    0 -0.24020547875E+01 -0.34846728892E+00 -0.15232648049E+02  0.15424813241E+02  0.51100000000E-03 0.  1.
        -12    1    4    4    0    0  0.26886664037E+01 -0.17809295856E+01 -0.40331077232E+01  0.51639708680E+01  0.00000000000E+00 0.  1.
</event>
<event>
 8    1  0.1338956E-013  0.9118800E+02  0.7816164E-02  0.1184000E+00
        -11   -1    0    0    0    0  0.00000000000E+00  0.00000000000E+00  0.45593999997E+02  0.45594000000E+02  0.51100000000E-03 0.  1.
         11   -1    0    0    0    0 -0.00000000000E+00 -0.00000000000E+00 -0.45593999997E+02  0.45594000000E+02  0.51100000000E-03 0. -1.
         23    2    1    2    0    0 -0.71054273576E-14  0.17763568394E-14  0.00000000000E+00  0.91188000000E+02  0.91188000000E+02 0.  0.
    9900012    2    3    3    0    0 -0.36561507233E+02  0.11533942306E+02 -0.13542142789E+02  0.50528864894E+02  0.30000015332E+02 0.  0.
         12    1    3    3    0    0  0.36561507233E+02 -0.11533942306E+02  0.13542142789E+02  0.40659135106E+02  0.00000000000E+00 0. -1.
         11    1    4    4    0    0  0.15332829372E+01  0.85374374299E+01 -0.21716121894E+01  0.89417388800E+01  0.51100000000E-03 0. -1.
        -11    1    4    4    0    0 -0.58039804087E+01  0.32726393486E+01  0.14913948204E+01  0.68279290903E+01  0.51100000000E-03 0.  1.
         12    1    4    4    0    0 -0.32290809761E+02 -0.27613447304E+00 -0.12861925420E+02  0.34759196924E+02  0.00000000000E+00 0. -1.
</event>
<event>
 8    1  0.1338956E-013  0.9118800E+02  0.7816164E-02  0.1184000E+00
        -11   -1    0    0    0    0  0.00000000000E+00  0.00000000000E+00  0.45593999997E+02  0.45594000000E+02  0.51100000000E-03 0.  1.
         11   -1    0    0    0    0 -0.00000000000E+00 -0.00000000000E+00 -0.45593999997E+02  0.45594000000E+02  0.51100000000E-03 0. -1.
         23    2    1    2    0    0  0.00000000000E+00  0.00000000000E+00  0.00000000000E+00  0.91188000000E+02  0.91188000000E+02 0.  0.
    9900012    2    3    3    0    0  0.16859538153E+02  0.23718289372E+02 -0.28396556604E+02  0.50528859522E+02  0.29999999002E+02 0.  0.
         12    1    3    3    0    0 -0.16859538153E+02 -0.23718289372E+02  0.28396556604E+02  0.40659140478E+02  0.00000000000E+00 0. -1.
         11    1    4    4    0    0  0.22827219608E+01  0.41316481363E+01 -0.37325730745E+01  0.60177602055E+01  0.51100000000E-03 0. -1.
        -11    1    4    4    0    0  0.15120210703E+02  0.60412239300E+01  0.96241511883E-01  0.16282703122E+02  0.51100000000E-03 0.  1.
         12    1    4    4    0    0 -0.54339451119E+00  0.13545417306E+02 -0.24760225042E+02  0.28228396194E+02  0.00000000000E+00 0. -1.
</event>
<event>
 8    1  0.1338956E-013  0.9118800E+02  0.7816164E-02  0.1184000E+00
        -11   -1    0    0    0    0  0.00000000000E+00  0.00000000000E+00  0.45593999997E+02  0.45594000000E+02  0.51100000000E-03 0.  1.
         11   -1    0    0    0    0 -0.00000000000E+00 -0.00000000000E+00 -0.45593999997E+02  0.45594000000E+02  0.51100000000E-03 0. -1.
         23    2    1    2    0    0  0.00000000000E+00  0.00000000000E+00  0.00000000000E+00  0.91188000000E+02  0.91188000000E+02 0.  0.
    9900012    2    3    3    0    0  0.38916977226E+02 -0.63647359636E+01 -0.99057799547E+01  0.50528862567E+02  0.30000008259E+02 0.  0.
        -12    1    3    3    0    0 -0.38916977226E+02  0.63647359636E+01  0.99057799547E+01  0.40659137433E+02  0.00000000000E+00 0.  1.
         11    1    4    4    0    0  0.16260418128E+02  0.47488312191E+01 -0.48954421251E+01  0.17632865607E+02  0.51100000000E-03 0. -1.
        -11    1    4    4    0    0 -0.32647725820E+01 -0.40863244272E+01 -0.28394740089E+01  0.59514200192E+01  0.51100000000E-03 0.  1.
         12    1    4    4    0    0  0.25921331680E+02 -0.70272427555E+01 -0.21708638207E+01  0.26944576941E+02  0.00000000000E+00 0. -1.
</event>
<event>
 8    1  0.1338956E-013  0.9118800E+02  0.7816164E-02  0.1184000E+00
        -11   -1    0    0    0    0  0.00000000000E+00  0.00000000000E+00  0.45593999997E+02  0.45594000000E+02  0.51100000000E-03 0. -1.
         11   -1    0    0    0    0 -0.00000000000E+00 -0.00000000000E+00 -0.45593999997E+02  0.45594000000E+02  0.51100000000E-03 0.  1.
         23    2    1    2    0    0 -0.35527136788E-14 -0.71054273576E-14  0.00000000000E+00  0.91188000000E+02  0.91188000000E+02 0.  0.
    9900012    2    3    3    0    0  0.24241200190E+02  0.30919602220E+02  0.10464511316E+02  0.50528885583E+02  0.30000078218E+02 0.  0.
        -12    1    3    3    0    0 -0.24241200190E+02 -0.30919602220E+02 -0.10464511316E+02  0.40659114417E+02  0.00000000000E+00 0.  1.
         11    1    4    4    0    0  0.10280784013E+02  0.22552097696E+02  0.36581904254E+01  0.25053422678E+02  0.51100000000E-03 0. -1.
        -11    1    4    4    0    0  0.42933364298E+01  0.99019393236E+01 -0.34182287424E+01  0.11321017095E+02  0.51100000000E-03 0.  1.
        -12    1    4    4    0    0  0.96670797472E+01 -0.15344347995E+01  0.10224549633E+02  0.14154445810E+02  0.00000000000E+00 0.  1.
</event>
<event>
 8    1  0.1338956E-013  0.9118800E+02  0.7816164E-02  0.1184000E+00
        -11   -1    0    0    0    0  0.00000000000E+00  0.00000000000E+00  0.45593999997E+02  0.45594000000E+02  0.51100000000E-03 0. -1.
         11   -1    0    0    0    0 -0.00000000000E+00 -0.00000000000E+00 -0.45593999997E+02  0.45594000000E+02  0.51100000000E-03 0.  1.
         23    2    1    2    0    0  0.00000000000E+00  0.71054273576E-14 -0.35527136788E-14  0.91188000000E+02  0.91188000000E+02 0.  0.
    9900012    2    3    3    0    0  0.20269427714E+02  0.25571894230E+02  0.24256855608E+02  0.50528849513E+02  0.29999968578E+02 0.  0.
        -12    1    3    3    0    0 -0.20269427714E+02 -0.25571894230E+02 -0.24256855608E+02  0.40659150487E+02  0.00000000000E+00 0.  1.
         11    1    4    4    0    0  0.73597174775E+01  0.17372503490E+02  0.95357486295E+01  0.21140005228E+02  0.51100000000E-03 0. -1.
        -11    1    4    4    0    0  0.13410807117E+02  0.13806564263E+02  0.13802152469E+02  0.23684813221E+02  0.51100000000E-03 0.  1.
        -12    1    4    4    0    0 -0.50109688042E+00 -0.56071735221E+01  0.91895450985E+00  0.57040310642E+01  0.00000000000E+00 0.  1.
</event>
<event>
 8    1  0.1338956E-013  0.9118800E+02  0.7816164E-02  0.1184000E+00
        -11   -1    0    0    0    0  0.00000000000E+00  0.00000000000E+00  0.45593999997E+02  0.45594000000E+02  0.51100000000E-03 0.  1.
         11   -1    0    0    0    0 -0.00000000000E+00 -0.00000000000E+00 -0.45593999997E+02  0.45594000000E+02  0.51100000000E-03 0. -1.
         23    2    1    2    0    0  0.00000000000E+00 -0.71054273576E-14  0.00000000000E+00  0.91188000000E+02  0.91188000000E+02 0.  0.
    9900012    2    3    3    0    0  0.98534078203E+01 -0.38372878042E+02  0.91432091709E+01  0.50528859714E+02  0.29999999585E+02 0.  0.
         12    1    3    3    0    0 -0.98534078203E+01  0.38372878042E+02 -0.91432091709E+01  0.40659140286E+02  0.00000000000E+00 0. -1.
         11    1    4    4    0    0  0.29416443720E+01  0.14962758452E+01 -0.34633283432E+01  0.47840105027E+01  0.51100000000E-03 0. -1.
        -11    1    4    4    0    0 -0.53285607208E+01 -0.13404487315E+02  0.13446484627E+01  0.14487302001E+02  0.51100000000E-03 0.  1.
        -12    1    4    4    0    0  0.12240324169E+02 -0.26464666572E+02  0.11261889051E+02  0.31257547209E+02  0.00000000000E+00 0.  1.
</event>
<event>
 8    1  0.1338956E-013  0.9118800E+02  0.7816164E-02  0.1184000E+00
        -11   -1    0    0    0    0  0.00000000000E+00  0.00000000000E+00  0.45593999997E+02  0.45594000000E+02  0.51100000000E-03 0. -1.
         11   -1    0    0    0    0 -0.00000000000E+00 -0.00000000000E+00 -0.45593999997E+02  0.45594000000E+02  0.51100000000E-03 0.  1.
         23    2    1    2    0    0  0.00000000000E+00  0.00000000000E+00  0.35527136788E-14  0.91188000000E+02  0.91188000000E+02 0.  0.
    9900012    2    3    3    0    0  0.33096279312E+02  0.22518064179E+01  0.23510281734E+02  0.50528835182E+02  0.29999925019E+02 0.  0.
        -12    1    3    3    0    0 -0.33096279312E+02 -0.22518064179E+01 -0.23510281734E+02  0.40659164818E+02  0.00000000000E+00 0.  1.
         11    1    4    4    0    0 -0.19656886247E+01  0.38001416018E-01  0.34070005340E+00  0.19953577785E+01  0.51100000000E-03 0. -1.
        -11    1    4    4    0    0  0.69450761857E+01 -0.30747891342E+01 -0.44200821387E+01  0.87878062006E+01  0.51100000000E-03 0.  1.
         12    1    4    4    0    0  0.28116891751E+02  0.52885941361E+01  0.27589663820E+02  0.39745671203E+02  0.00000000000E+00 0. -1.
</event>
<event>
 8    1  0.1338956E-013  0.9118800E+02  0.7816164E-02  0.1184000E+00
        -11   -1    0    0    0    0  0.00000000000E+00  0.00000000000E+00  0.45593999997E+02  0.45594000000E+02  0.51100000000E-03 0. -1.
         11   -1    0    0    0    0 -0.00000000000E+00 -0.00000000000E+00 -0.45593999997E+02  0.45594000000E+02  0.51100000000E-03 0.  1.
         23    2    1    2    0    0  0.88817841970E-15 -0.17763568394E-14  0.71054273576E-14  0.91188000000E+02  0.91188000000E+02 0.  0.
    9900012    2    3    3    0    0 -0.76885836635E+01  0.80207826143E+01 -0.39111585890E+02  0.50528887574E+02  0.30000084269E+02 0.  0.
         12    1    3    3    0    0  0.76885836635E+01 -0.80207826143E+01  0.39111585890E+02  0.40659112426E+02  0.00000000000E+00 0. -1.
         11    1    4    4    0    0  0.96834712651E-01  0.26137645766E+01 -0.35303718475E+02  0.35400475712E+02  0.51100000000E-03 0. -1.
        -11    1    4    4    0    0 -0.24689814607E+01 -0.25448848635E+01 -0.42719453072E+01  0.55517407532E+01  0.51100000000E-03 0.  1.
         12    1    4    4    0    0 -0.53164369155E+01  0.79519029012E+01  0.46407789259E+00  0.95766711083E+01  0.00000000000E+00 0. -1.
</event>
<event>
 8    1  0.1338956E-013  0.9118800E+02  0.7816164E-02  0.1184000E+00
        -11   -1    0    0    0    0  0.00000000000E+00  0.00000000000E+00  0.45593999997E+02  0.45594000000E+02  0.51100000000E-03 0. -1.
         11   -1    0    0    0    0 -0.00000000000E+00 -0.00000000000E+00 -0.45593999997E+02  0.45594000000E+02  0.51100000000E-03 0.  1.
         23    2    1    2    0    0  0.00000000000E+00  0.17763568394E-14 -0.71054273576E-14  0.91188000000E+02  0.91188000000E+02 0.  0.
    9900012    2    3    3    0    0 -0.14599974433E+01  0.13756349224E+02  0.38233453720E+02  0.50528859332E+02  0.29999998424E+02 0.  0.
        -12    1    3    3    0    0  0.14599974433E+01 -0.13756349224E+02 -0.38233453720E+02  0.40659140668E+02  0.00000000000E+00 0.  1.
         11    1    4    4    0    0 -0.22902823153E+01  0.75389869273E+01  0.61279624903E+01  0.99816652677E+01  0.51100000000E-03 0. -1.
        -11    1    4    4    0    0 -0.15713790903E+00  0.83575974350E+01  0.37876634777E-02  0.83590754163E+01  0.51100000000E-03 0.  1.
        -12    1    4    4    0    0  0.98742278099E+00 -0.21402351381E+01  0.32101703567E+02  0.32188118648E+02  0.00000000000E+00 0.  1.
</event>
<event>
 8    1  0.1338956E-013  0.9118800E+02  0.7816164E-02  0.1184000E+00
        -11   -1    0    0    0    0  0.00000000000E+00  0.00000000000E+00  0.45593999997E+02  0.45594000000E+02  0.51100000000E-03 0. -1.
         11   -1    0    0    0    0 -0.00000000000E+00 -0.00000000000E+00 -0.45593999997E+02  0.45594000000E+02  0.51100000000E-03 0.  1.
         23    2    1    2    0    0  0.35527136788E-14  0.00000000000E+00  0.00000000000E+00  0.91188000000E+02  0.91188000000E+02 0.  0.
    9900012    2    3    3    0    0 -0.23446399993E+02  0.21402350315E+02  0.25404158290E+02  0.50528861666E+02  0.30000005520E+02 0.  0.
        -12    1    3    3    0    0  0.23446399993E+02 -0.21402350315E+02 -0.25404158290E+02  0.40659138334E+02  0.00000000000E+00 0.  1.
         11    1    4    4    0    0 -0.14767429286E+02  0.66460738171E+01  0.14010705458E+02  0.21413713657E+02  0.51100000000E-03 0. -1.
        -11    1    4    4    0    0 -0.12595063651E+02  0.12612837803E+02  0.15062450769E+02  0.23336596351E+02  0.51100000000E-03 0.  1.
        -12    1    4    4    0    0  0.39160929439E+01  0.21434386949E+01 -0.36689979383E+01  0.57785516572E+01  0.00000000000E+00 0.  1.
</event>
<event>
 8    1  0.1338956E-013  0.9118800E+02  0.7816164E-02  0.1184000E+00
        -11   -1    0    0    0    0  0.00000000000E+00  0.00000000000E+00  0.45593999997E+02  0.45594000000E+02  0.51100000000E-03 0. -1.
         11   -1    0    0    0    0 -0.00000000000E+00 -0.00000000000E+00 -0.45593999997E+02  0.45594000000E+02  0.51100000000E-03 0.  1.
         23    2    1    2    0    0  0.00000000000E+00 -0.44408920985E-15  0.00000000000E+00  0.91188000000E+02  0.91188000000E+02 0.  0.
    9900012    2    3    3    0    0  0.21847575904E+02 -0.23146633289E+01 -0.34212447741E+02  0.50528858104E+02  0.29999994694E+02 0.  0.
         12    1    3    3    0    0 -0.21847575904E+02  0.23146633289E+01  0.34212447741E+02  0.40659141896E+02  0.00000000000E+00 0. -1.
         11    1    4    4    0    0 -0.61731497747E+00  0.57822071856E+00 -0.61908917490E+01  0.62484044276E+01  0.51100000000E-03 0.  1.
        -11    1    4    4    0    0 -0.34135017663E+01 -0.24938198751E+01  0.19713572547E+01  0.46644808463E+01  0.51100000000E-03 0. -1.
        -12    1    4    4    0    0  0.25878392648E+02 -0.39906417237E+00 -0.29992913247E+02  0.39615972831E+02  0.00000000000E+00 0.  1.
</event>
<event>
 8    1  0.1338956E-013  0.9118800E+02  0.7816164E-02  0.1184000E+00
        -11   -1    0    0    0    0  0.00000000000E+00  0.00000000000E+00  0.45593999997E+02  0.45594000000E+02  0.51100000000E-03 0. -1.
         11   -1    0    0    0    0 -0.00000000000E+00 -0.00000000000E+00 -0.45593999997E+02  0.45594000000E+02  0.51100000000E-03 0.  1.
         23    2    1    2    0    0  0.71054273576E-14 -0.17763568394E-14  0.35527136788E-14  0.91188000000E+02  0.91188000000E+02 0.  0.
    9900012    2    3    3    0    0 -0.32278410957E+02  0.98574739798E+01 -0.22673746355E+02  0.50528875797E+02  0.30000048472E+02 0.  0.
         12    1    3    3    0    0  0.32278410957E+02 -0.98574739798E+01  0.22673746355E+02  0.40659124203E+02  0.00000000000E+00 0. -1.
         11    1    4    4    0    0  0.41553544382E+01  0.48355638223E+01 -0.12763235916E+01  0.65022034848E+01  0.51100000000E-03 0. -1.
        -11    1    4    4    0    0 -0.18203242479E+01  0.25751694976E+01  0.19100662997E+00  0.31593610276E+01  0.51100000000E-03 0.  1.
        -12    1    4    4    0    0 -0.34613441148E+02  0.24467406599E+01 -0.21588429393E+02  0.40867311284E+02  0.00000000000E+00 0.  1.
</event>
<event>
 8    1  0.1338956E-013  0.9118800E+02  0.7816164E-02  0.1184000E+00
        -11   -1    0    0    0    0  0.00000000000E+00  0.00000000000E+00  0.45593999997E+02  0.45594000000E+02  0.51100000000E-03 0. -1.
         11   -1    0    0    0    0 -0.00000000000E+00 -0.00000000000E+00 -0.45593999997E+02  0.45594000000E+02  0.51100000000E-03 0.  1.
         23    2    1    2    0    0 -0.35527136788E-14 -0.13322676296E-14  0.00000000000E+00  0.91188000000E+02  0.91188000000E+02 0.  0.
    9900012    2    3    3    0    0  0.16183704075E+02 -0.19626781951E+01 -0.37247837001E+02  0.50528859029E+02  0.29999997503E+02 0.  0.
         12    1    3    3    0    0 -0.16183704075E+02  0.19626781951E+01  0.37247837001E+02  0.40659140971E+02  0.00000000000E+00 0. -1.
         11    1    4    4    0    0  0.46302053463E+01  0.40431588359E+01 -0.17482688746E+02  0.18531873650E+02  0.51100000000E-03 0. -1.
        -11    1    4    4    0    0 -0.51471260414E+01  0.21989461175E+01 -0.87100167463E+01  0.10353388938E+02  0.51100000000E-03 0.  1.
         12    1    4    4    0    0  0.16700624770E+02 -0.82047831486E+01 -0.11055131509E+02  0.21643596441E+02  0.00000000000E+00 0. -1.
</event>
<event>
 8    1  0.1338956E-013  0.9118800E+02  0.7816164E-02  0.1184000E+00
        -11   -1    0    0    0    0  0.00000000000E+00  0.00000000000E+00  0.45593999997E+02  0.45594000000E+02  0.51100000000E-03 0. -1.
         11   -1    0    0    0    0 -0.00000000000E+00 -0.00000000000E+00 -0.45593999997E+02  0.45594000000E+02  0.51100000000E-03 0.  1.
         23    2    1    2    0    0  0.35527136788E-14  0.35527136788E-14 -0.17763568394E-14  0.91188000000E+02  0.91188000000E+02 0.  0.
    9900012    2    3    3    0    0  0.22231720555E+02  0.30440913660E+02  0.15240301511E+02  0.50528863100E+02  0.30000009878E+02 0.  0.
        -12    1    3    3    0    0 -0.22231720555E+02 -0.30440913660E+02 -0.15240301511E+02  0.40659136900E+02  0.00000000000E+00 0.  1.
         11    1    4    4    0    0 -0.37049987533E+01 -0.29423103384E+00  0.24262054650E+01  0.44384750628E+01  0.51100000000E-03 0.  1.
        -11    1    4    4    0    0  0.12322158974E+02  0.50684026174E+01 -0.20074336934E+01  0.13474201170E+02  0.51100000000E-03 0. -1.
        -12    1    4    4    0    0  0.13614560335E+02  0.25666742077E+02  0.14821529740E+02  0.32616186867E+02  0.00000000000E+00 0.  1.
</event>
<event>
 8    1  0.1338956E-013  0.9118800E+02  0.7816164E-02  0.1184000E+00
        -11   -1    0    0    0    0  0.00000000000E+00  0.00000000000E+00  0.45593999997E+02  0.45594000000E+02  0.51100000000E-03 0. -1.
         11   -1    0    0    0    0 -0.00000000000E+00 -0.00000000000E+00 -0.45593999997E+02  0.45594000000E+02  0.51100000000E-03 0.  1.
         23    2    1    2    0    0  0.00000000000E+00  0.00000000000E+00  0.00000000000E+00  0.91188000000E+02  0.91188000000E+02 0.  0.
    9900012    2    3    3    0    0  0.56058489634E+01 -0.23094118458E+01  0.40204578459E+02  0.50528842916E+02  0.29999948528E+02 0.  0.
        -12    1    3    3    0    0 -0.56058489634E+01  0.23094118458E+01 -0.40204578459E+02  0.40659157084E+02  0.00000000000E+00 0.  1.
         11    1    4    4    0    0 -0.59139369066E+01  0.99948459188E+00  0.14109368058E+01  0.61615227108E+01  0.51100000000E-03 0. -1.
        -11    1    4    4    0    0 -0.31762994577E+01 -0.38768371830E+01  0.34462195280E+01  0.60823658296E+01  0.51100000000E-03 0.  1.
         12    1    4    4    0    0  0.14696085328E+02  0.56794074531E+00  0.35347422125E+02  0.38284954376E+02  0.00000000000E+00 0. -1.
</event>
<event>
 8    1  0.1338956E-013  0.9118800E+02  0.7816164E-02  0.1184000E+00
        -11   -1    0    0    0    0  0.00000000000E+00  0.00000000000E+00  0.45593999997E+02  0.45594000000E+02  0.51100000000E-03 0. -1.
         11   -1    0    0    0    0 -0.00000000000E+00 -0.00000000000E+00 -0.45593999997E+02  0.45594000000E+02  0.51100000000E-03 0.  1.
         23    2    1    2    0    0  0.17763568394E-14  0.00000000000E+00  0.00000000000E+00  0.91188000000E+02  0.91188000000E+02 0.  0.
    9900012    2    3    3    0    0 -0.14587773525E+02 -0.19079001039E+02 -0.32807876184E+02  0.50528829364E+02  0.29999907336E+02 0.  0.
         12    1    3    3    0    0  0.14587773525E+02  0.19079001039E+02  0.32807876184E+02  0.40659170636E+02  0.00000000000E+00 0. -1.
         11    1    4    4    0    0  0.35446399566E+01 -0.10323694032E+02 -0.73218812530E+01  0.13143556453E+02  0.51100000000E-03 0.  1.
        -11    1    4    4    0    0 -0.13691866841E+02 -0.90339354758E+01 -0.61093743885E+01  0.17504389834E+02  0.51100000000E-03 0. -1.
        -12    1    4    4    0    0 -0.44405466397E+01  0.27862846855E+00 -0.19376620543E+02  0.19880883077E+02  0.00000000000E+00 0.  1.
</event>
<event>
 8    1  0.1338956E-013  0.9118800E+02  0.7816164E-02  0.1184000E+00
        -11   -1    0    0    0    0  0.00000000000E+00  0.00000000000E+00  0.45593999997E+02  0.45594000000E+02  0.51100000000E-03 0.  1.
         11   -1    0    0    0    0 -0.00000000000E+00 -0.00000000000E+00 -0.45593999997E+02  0.45594000000E+02  0.51100000000E-03 0. -1.
         23    2    1    2    0    0  0.00000000000E+00 -0.44408920985E-15  0.17763568394E-14  0.91188000000E+02  0.91188000000E+02 0.  0.
    9900012    2    3    3    0    0 -0.39217508188E+02 -0.39561860728E+01  0.99750408250E+01  0.50528858394E+02  0.29999995574E+02 0.  0.
        -12    1    3    3    0    0  0.39217508188E+02  0.39561860728E+01 -0.99750408250E+01  0.40659141606E+02  0.00000000000E+00 0.  1.
         11    1    4    4    0    0 -0.13730382696E+02 -0.24493178599E+00  0.16385630671E+02  0.21379249129E+02  0.51100000000E-03 0. -1.
        -11    1    4    4    0    0 -0.83664037590E+01 -0.66377169897E+01 -0.13171760473E+00  0.10680512557E+02  0.51100000000E-03 0.  1.
        -12    1    4    4    0    0 -0.17120721732E+02  0.29264627029E+01 -0.62788722411E+01  0.18469096708E+02  0.00000000000E+00 0.  1.
</event>
<event>
 8    1  0.1338956E-013  0.9118800E+02  0.7816164E-02  0.1184000E+00
        -11   -1    0    0    0    0  0.00000000000E+00  0.00000000000E+00  0.45593999997E+02  0.45594000000E+02  0.51100000000E-03 0. -1.
         11   -1    0    0    0    0 -0.00000000000E+00 -0.00000000000E+00 -0.45593999997E+02  0.45594000000E+02  0.51100000000E-03 0.  1.
         23    2    1    2    0    0  0.00000000000E+00  0.00000000000E+00  0.00000000000E+00  0.91188000000E+02  0.91188000000E+02 0.  0.
    9900012    2    3    3    0    0  0.10822460046E+02  0.37170906538E+02 -0.12424291588E+02  0.50528868729E+02  0.30000026987E+02 0.  0.
         12    1    3    3    0    0 -0.10822460046E+02 -0.37170906538E+02  0.12424291588E+02  0.40659131271E+02  0.00000000000E+00 0. -1.
         11    1    4    4    0    0 -0.25297336220E+01  0.10451454269E+02  0.91930701944E-01  0.10753645896E+02  0.51100000000E-03 0. -1.
        -11    1    4    4    0    0  0.14513709100E+02  0.23350557249E+02 -0.77429613225E+00  0.27504468918E+02  0.51100000000E-03 0.  1.
         12    1    4    4    0    0 -0.11615154317E+01  0.33688950196E+01 -0.11741926158E+02  0.12270753916E+02  0.00000000000E+00 0. -1.
</event>
<event>
 8    1  0.1338956E-013  0.9118800E+02  0.7816164E-02  0.1184000E+00
        -11   -1    0    0    0    0  0.00000000000E+00  0.00000000000E+00  0.45593999997E+02  0.45594000000E+02  0.51100000000E-03 0. -1.
         11   -1    0    0    0    0 -0.00000000000E+00 -0.00000000000E+00 -0.45593999997E+02  0.45594000000E+02  0.51100000000E-03 0.  1.
         23    2    1    2    0    0 -0.35527136788E-14  0.00000000000E+00  0.00000000000E+00  0.91188000000E+02  0.91188000000E+02 0.  0.
    9900012    2    3    3    0    0 -0.16198896866E+02 -0.28034632349E+02  0.24593110039E+02  0.50528856724E+02  0.29999990497E+02 0.  0.
        -12    1    3    3    0    0  0.16198896866E+02  0.28034632349E+02 -0.24593110039E+02  0.40659143276E+02  0.00000000000E+00 0.  1.
         11    1    4    4    0    0  0.18218722525E+01 -0.11980535112E+01  0.28114241560E+01  0.35579006122E+01  0.51100000000E-03 0. -1.
        -11    1    4    4    0    0  0.85303754632E+00  0.16201660495E+01 -0.38574744341E+01  0.42699789641E+01  0.51100000000E-03 0.  1.
         12    1    4    4    0    0 -0.18873806664E+02 -0.28456744887E+02  0.25639160317E+02  0.42700977147E+02  0.00000000000E+00 0. -1.
</event>
<event>
 8    1  0.1338956E-013  0.9118800E+02  0.7816164E-02  0.1184000E+00
        -11   -1    0    0    0    0  0.00000000000E+00  0.00000000000E+00  0.45593999997E+02  0.45594000000E+02  0.51100000000E-03 0. -1.
         11   -1    0    0    0    0 -0.00000000000E+00 -0.00000000000E+00 -0.45593999997E+02  0.45594000000E+02  0.51100000000E-03 0.  1.
         23    2    1    2    0    0 -0.35527136788E-14  0.00000000000E+00 -0.35527136788E-14  0.91188000000E+02  0.91188000000E+02 0.  0.
    9900012    2    3    3    0    0 -0.29544352745E+02  0.22776741297E+02 -0.16171484057E+02  0.50528860562E+02  0.30000002165E+02 0.  0.
         12    1    3    3    0    0  0.29544352745E+02 -0.22776741297E+02  0.16171484057E+02  0.40659139438E+02  0.00000000000E+00 0. -1.
         11    1    4    4    0    0 -0.53191547825E+01  0.74066272375E+00 -0.11600599929E+02  0.12783423166E+02  0.51100000000E-03 0. -1.
        -11    1    4    4    0    0 -0.44571331530E+01  0.20094447699E+01 -0.80224289941E+01  0.93948534557E+01  0.51100000000E-03 0.  1.
         12    1    4    4    0    0 -0.19768064809E+02  0.20026633804E+02  0.34515448664E+01  0.28350583940E+02  0.00000000000E+00 0. -1.
</event>
<event>
 8    1  0.1338956E-013  0.9118800E+02  0.7816164E-02  0.1184000E+00
        -11   -1    0    0    0    0  0.00000000000E+00  0.00000000000E+00  0.45593999997E+02  0.45594000000E+02  0.51100000000E-03 0. -1.
         11   -1    0    0    0    0 -0.00000000000E+00 -0.00000000000E+00 -0.45593999997E+02  0.45594000000E+02  0.51100000000E-03 0.  1.
         23    2    1    2    0    0 -0.88817841970E-15  0.35527136788E-14 -0.71054273576E-14  0.91188000000E+02  0.91188000000E+02 0.  0.
    9900012    2    3    3    0    0  0.26235083865E+01 -0.31235934617E+02  0.25895935716E+02  0.50528857187E+02  0.29999991906E+02 0.  0.
        -12    1    3    3    0    0 -0.26235083865E+01  0.31235934617E+02 -0.25895935716E+02  0.40659142813E+02  0.00000000000E+00 0.  1.
         11    1    4    4    0    0  0.50827753703E+00 -0.25388225336E+02  0.30414369672E+02  0.39621385823E+02  0.51100000000E-03 0. -1.
        -11    1    4    4    0    0  0.39835683581E+01 -0.47759297815E+01 -0.36637384633E+00  0.62299720865E+01  0.51100000000E-03 0.  1.
        -12    1    4    4    0    0 -0.18683375087E+01 -0.10717795001E+01 -0.41520601093E+01  0.46774992779E+01  0.00000000000E+00 0.  1.
</event>
<event>
 8    1  0.1338956E-013  0.9118800E+02  0.7816164E-02  0.1184000E+00
        -11   -1    0    0    0    0  0.00000000000E+00  0.00000000000E+00  0.45593999997E+02  0.45594000000E+02  0.51100000000E-03 0. -1.
         11   -1    0    0    0    0 -0.00000000000E+00 -0.00000000000E+00 -0.45593999997E+02  0.45594000000E+02  0.51100000000E-03 0.  1.
         23    2    1    2    0    0  0.00000000000E+00  0.88817841970E-15  0.00000000000E+00  0.91188000000E+02  0.91188000000E+02 0.  0.
    9900012    2    3    3    0    0  0.24059044290E+02 -0.75969955833E+01 -0.31884381071E+02  0.50528859449E+02  0.29999998782E+02 0.  0.
         12    1    3    3    0    0 -0.24059044290E+02  0.75969955833E+01  0.31884381071E+02  0.40659140551E+02  0.00000000000E+00 0. -1.
         11    1    4    4    0    0  0.77057698134E+01  0.43339694052E+01 -0.96586586457E+01  0.13093962972E+02  0.51100000000E-03 0. -1.
        -11    1    4    4    0    0  0.19434696080E+02 -0.17877898061E+01 -0.14068093045E+02  0.24058571161E+02  0.51100000000E-03 0.  1.
         12    1    4    4    0    0 -0.30814216028E+01 -0.10143175182E+02 -0.81576293797E+01  0.13376325316E+02  0.00000000000E+00 0. -1.
</event>
<event>
 8    1  0.1428565E-013  0.9118800E+02  0.7816164E-02  0.1184000E+00
        -11   -1    0    0    0    0  0.00000000000E+00  0.00000000000E+00  0.45593999997E+02  0.45594000000E+02  0.51100000000E-03 0.  1.
         11   -1    0    0    0    0 -0.00000000000E+00 -0.00000000000E+00 -0.45593999997E+02  0.45594000000E+02  0.51100000000E-03 0. -1.
         23    2    1    2    0    0  0.00000000000E+00 -0.88817841970E-15  0.00000000000E+00  0.91188000000E+02  0.91188000000E+02 0.  0.
    9900012    2    3    3    0    0  0.23551194602E+02 -0.58623481166E+01 -0.32621157930E+02  0.50528857887E+02  0.29999994035E+02 0.  0.
         12    1    3    3    0    0 -0.23551194602E+02  0.58623481166E+01  0.32621157930E+02  0.40659142113E+02  0.00000000000E+00 0. -1.
         11    1    4    4    0    0  0.78222007006E+01 -0.25047535578E+01 -0.21135196283E+02  0.22675033327E+02  0.51100000000E-03 0. -1.
        -11    1    4    4    0    0  0.14215040930E+02 -0.46737365226E+01 -0.16606901086E+02  0.22353978744E+02  0.51100000000E-03 0.  1.
         12    1    4    4    0    0  0.15139529719E+01  0.13161419638E+01  0.51209394394E+01  0.54998458171E+01  0.00000000000E+00 0. -1.
</event>
<event>
 8    1  0.1338956E-013  0.9118800E+02  0.7816164E-02  0.1184000E+00
        -11   -1    0    0    0    0  0.00000000000E+00  0.00000000000E+00  0.45593999997E+02  0.45594000000E+02  0.51100000000E-03 0. -1.
         11   -1    0    0    0    0 -0.00000000000E+00 -0.00000000000E+00 -0.45593999997E+02  0.45594000000E+02  0.51100000000E-03 0.  1.
         23    2    1    2    0    0  0.00000000000E+00  0.00000000000E+00 -0.17763568394E-14  0.91188000000E+02  0.91188000000E+02 0.  0.
    9900012    2    3    3    0    0 -0.35749825958E+02 -0.17593141493E+02  0.80991858247E+01  0.50528862102E+02  0.30000006845E+02 0.  0.
        -12    1    3    3    0    0  0.35749825958E+02  0.17593141493E+02 -0.80991858247E+01  0.40659137898E+02  0.00000000000E+00 0.  1.
         11    1    4    4    0    0 -0.34706102150E+01 -0.10592600363E+01  0.66773830561E+01  0.75996455067E+01  0.51100000000E-03 0. -1.
        -11    1    4    4    0    0 -0.60797725889E+01 -0.11325913504E+02  0.83560702181E+01  0.15331792498E+02  0.51100000000E-03 0.  1.
        -12    1    4    4    0    0 -0.26199443154E+02 -0.52079679521E+01 -0.69342674495E+01  0.27597424098E+02  0.00000000000E+00 0.  1.
</event>
<event>
 8    1  0.1338956E-013  0.9118800E+02  0.7816164E-02  0.1184000E+00
        -11   -1    0    0    0    0  0.00000000000E+00  0.00000000000E+00  0.45593999997E+02  0.45594000000E+02  0.51100000000E-03 0. -1.
         11   -1    0    0    0    0 -0.00000000000E+00 -0.00000000000E+00 -0.45593999997E+02  0.45594000000E+02  0.51100000000E-03 0.  1.
         23    2    1    2    0    0  0.00000000000E+00  0.00000000000E+00  0.00000000000E+00  0.91188000000E+02  0.91188000000E+02 0.  0.
    9900012    2    3    3    0    0  0.25395958270E+02  0.10677539292E+02  0.29903194034E+02  0.50528861356E+02  0.30000004578E+02 0.  0.
        -12    1    3    3    0    0 -0.25395958270E+02 -0.10677539292E+02 -0.29903194034E+02  0.40659138644E+02  0.00000000000E+00 0.  1.
         11    1    4    4    0    0  0.15469178858E+02 -0.44387922344E+01  0.64138338334E+01  0.17324423099E+02  0.51100000000E-03 0.  1.
        -11    1    4    4    0    0  0.66787793986E+00 -0.12562219890E+01 -0.14074389085E+01  0.20012593961E+01  0.51100000000E-03 0. -1.
         12    1    4    4    0    0  0.92589014727E+01  0.16372553516E+02  0.24896799110E+02  0.31203178861E+02  0.00000000000E+00 0. -1.
</event>
<event>
 8    1  0.1338956E-013  0.9118800E+02  0.7816164E-02  0.1184000E+00
        -11   -1    0    0    0    0  0.00000000000E+00  0.00000000000E+00  0.45593999997E+02  0.45594000000E+02  0.51100000000E-03 0. -1.
         11   -1    0    0    0    0 -0.00000000000E+00 -0.00000000000E+00 -0.45593999997E+02  0.45594000000E+02  0.51100000000E-03 0.  1.
         23    2    1    2    0    0  0.00000000000E+00  0.88817841970E-15  0.00000000000E+00  0.91188000000E+02  0.91188000000E+02 0.  0.
    9900012    2    3    3    0    0 -0.94082877816E+01  0.61899081549E+01  0.39068348325E+02  0.50528847491E+02  0.29999962432E+02 0.  0.
        -12    1    3    3    0    0  0.94082877816E+01 -0.61899081549E+01 -0.39068348325E+02  0.40659152509E+02  0.00000000000E+00 0.  1.
         11    1    4    4    0    0 -0.20118373750E+01  0.79263404594E+00  0.18721339488E+02  0.18845803534E+02  0.51100000000E-03 0. -1.
        -11    1    4    4    0    0  0.56382550795E+01  0.66061283417E+01  0.15416597236E+02  0.17694697585E+02  0.51100000000E-03 0.  1.
         12    1    4    4    0    0 -0.13034705486E+02 -0.12088542327E+01  0.49304116005E+01  0.13988346372E+02  0.00000000000E+00 0. -1.
</event>
<event>
 8    1  0.1338956E-013  0.9118800E+02  0.7816164E-02  0.1184000E+00
        -11   -1    0    0    0    0  0.00000000000E+00  0.00000000000E+00  0.45593999997E+02  0.45594000000E+02  0.51100000000E-03 0. -1.
         11   -1    0    0    0    0 -0.00000000000E+00 -0.00000000000E+00 -0.45593999997E+02  0.45594000000E+02  0.51100000000E-03 0.  1.
         23    2    1    2    0    0  0.00000000000E+00  0.35527136788E-14 -0.35527136788E-14  0.91188000000E+02  0.91188000000E+02 0.  0.
    9900012    2    3    3    0    0 -0.26635755696E+02  0.26337895414E+02 -0.15811951098E+02  0.50528855716E+02  0.29999987436E+02 0.  0.
         12    1    3    3    0    0  0.26635755696E+02 -0.26337895414E+02  0.15811951098E+02  0.40659144284E+02  0.00000000000E+00 0. -1.
         11    1    4    4    0    0 -0.62864338258E+01  0.52336267225E+00 -0.99592215308E+01  0.11788946199E+02  0.51100000000E-03 0. -1.
        -11    1    4    4    0    0 -0.18801933790E+01  0.18149182298E+02 -0.17820686267E+01  0.18333131595E+02  0.51100000000E-03 0.  1.
         12    1    4    4    0    0 -0.18469128491E+02  0.76653504432E+01 -0.40706609408E+01  0.20406777922E+02  0.00000000000E+00 0. -1.
</event>
<event>
 8    1  0.1338956E-013  0.9118800E+02  0.7816164E-02  0.1184000E+00
        -11   -1    0    0    0    0  0.00000000000E+00  0.00000000000E+00  0.45593999997E+02  0.45594000000E+02  0.51100000000E-03 0. -1.
         11   -1    0    0    0    0 -0.00000000000E+00 -0.00000000000E+00 -0.45593999997E+02  0.45594000000E+02  0.51100000000E-03 0.  1.
         23    2    1    2    0    0  0.88817841970E-15  0.00000000000E+00  0.00000000000E+00  0.91188000000E+02  0.91188000000E+02 0.  0.
    9900012    2    3    3    0    0 -0.64423640195E+01 -0.36346502137E+02 -0.17046807544E+02  0.50528856881E+02  0.29999990975E+02 0.  0.
         12    1    3    3    0    0  0.64423640195E+01  0.36346502137E+02  0.17046807544E+02  0.40659143119E+02  0.00000000000E+00 0. -1.
         11    1    4    4    0    0 -0.73717344250E+01 -0.18474613849E+02 -0.94335471391E+01  0.22014668683E+02  0.51100000000E-03 0. -1.
        -11    1    4    4    0    0  0.35496170356E+01 -0.72292746970E+01 -0.13763096242E+02  0.15946316571E+02  0.51100000000E-03 0.  1.
         12    1    4    4    0    0 -0.26202466301E+01 -0.10642613590E+02  0.61498358367E+01  0.12567871628E+02  0.00000000000E+00 0. -1.
</event>
<event>
 8    1  0.1338956E-013  0.9118800E+02  0.7816164E-02  0.1184000E+00
        -11   -1    0    0    0    0  0.00000000000E+00  0.00000000000E+00  0.45593999997E+02  0.45594000000E+02  0.51100000000E-03 0. -1.
         11   -1    0    0    0    0 -0.00000000000E+00 -0.00000000000E+00 -0.45593999997E+02  0.45594000000E+02  0.51100000000E-03 0.  1.
         23    2    1    2    0    0  0.00000000000E+00  0.00000000000E+00 -0.35527136788E-14  0.91188000000E+02  0.91188000000E+02 0.  0.
    9900012    2    3    3    0    0  0.66278695383E+01 -0.26270568840E+02  0.30316566971E+02  0.50528859888E+02  0.30000000114E+02 0.  0.
        -12    1    3    3    0    0 -0.66278695383E+01  0.26270568840E+02 -0.30316566971E+02  0.40659140112E+02  0.00000000000E+00 0.  1.
         11    1    4    4    0    0  0.72995455233E+01 -0.10389517847E+02  0.67205531400E+01  0.14366324537E+02  0.51100000000E-03 0. -1.
        -11    1    4    4    0    0  0.41229258616E+01 -0.96728402927E+01  0.25928114341E+02  0.27979089880E+02  0.51100000000E-03 0.  1.
         12    1    4    4    0    0 -0.47946018466E+01 -0.62082107001E+01 -0.23321005104E+01  0.81834454697E+01  0.00000000000E+00 0. -1.
</event>
<event>
 8    1  0.1338956E-013  0.9118800E+02  0.7816164E-02  0.1184000E+00
        -11   -1    0    0    0    0  0.00000000000E+00  0.00000000000E+00  0.45593999997E+02  0.45594000000E+02  0.51100000000E-03 0.  1.
         11   -1    0    0    0    0 -0.00000000000E+00 -0.00000000000E+00 -0.45593999997E+02  0.45594000000E+02  0.51100000000E-03 0. -1.
         23    2    1    2    0    0  0.35527136788E-14  0.00000000000E+00  0.00000000000E+00  0.91188000000E+02  0.91188000000E+02 0.  0.
    9900012    2    3    3    0    0  0.21117457292E+02  0.83196461079E+01  0.33734287123E+02  0.50528860295E+02  0.30000001353E+02 0.  0.
        -12    1    3    3    0    0 -0.21117457292E+02 -0.83196461079E+01 -0.33734287123E+02  0.40659139705E+02  0.00000000000E+00 0.  1.
         11    1    4    4    0    0  0.17124775152E+02  0.11849952702E+02  0.25621281843E+02  0.33017107483E+02  0.51100000000E-03 0. -1.
        -11    1    4    4    0    0  0.75465486029E+01 -0.27933893745E+01  0.10454303601E+02  0.13192645074E+02  0.51100000000E-03 0.  1.
        -12    1    4    4    0    0 -0.35538664628E+01 -0.73691721955E+00 -0.23412983205E+01  0.43191077376E+01  0.00000000000E+00 0.  1.
</event>
<event>
 8    1  0.1338956E-013  0.9118800E+02  0.7816164E-02  0.1184000E+00
        -11   -1    0    0    0    0  0.00000000000E+00  0.00000000000E+00  0.45593999997E+02  0.45594000000E+02  0.51100000000E-03 0. -1.
         11   -1    0    0    0    0 -0.00000000000E+00 -0.00000000000E+00 -0.45593999997E+02  0.45594000000E+02  0.51100000000E-03 0.  1.
         23    2    1    2    0    0 -0.88817841970E-15  0.00000000000E+00  0.00000000000E+00  0.91188000000E+02  0.91188000000E+02 0.  0.
    9900012    2    3    3    0    0  0.50102860534E+01 -0.20471457896E+02 -0.34770431986E+02  0.50528849797E+02  0.29999969443E+02 0.  0.
         12    1    3    3    0    0 -0.50102860534E+01  0.20471457896E+02  0.34770431986E+02  0.40659150203E+02  0.00000000000E+00 0. -1.
         11    1    4    4    0    0  0.45196687468E+01 -0.19188818884E+02 -0.97369532109E+01  0.21987415351E+02  0.51100000000E-03 0. -1.
        -11    1    4    4    0    0  0.57084770344E+01 -0.46238258207E+01 -0.11341681012E+02  0.13512964283E+02  0.51100000000E-03 0.  1.
         12    1    4    4    0    0 -0.52178597278E+01  0.33411868090E+01 -0.13691797764E+02  0.15028470163E+02  0.00000000000E+00 0. -1.
</event>
<event>
 8    1  0.1338956E-013  0.9118800E+02  0.7816164E-02  0.1184000E+00
        -11   -1    0    0    0    0  0.00000000000E+00  0.00000000000E+00  0.45593999997E+02  0.45594000000E+02  0.51100000000E-03 0. -1.
         11   -1    0    0    0    0 -0.00000000000E+00 -0.00000000000E+00 -0.45593999997E+02  0.45594000000E+02  0.51100000000E-03 0.  1.
         23    2    1    2    0    0  0.00000000000E+00  0.00000000000E+00  0.00000000000E+00  0.91188000000E+02  0.91188000000E+02 0.  0.
    9900012    2    3    3    0    0  0.14078677408E+02 -0.28221409317E+02  0.25661518418E+02  0.50528798964E+02  0.29999814929E+02 0.  0.
        -12    1    3    3    0    0 -0.14078677408E+02  0.28221409317E+02 -0.25661518418E+02  0.40659201036E+02  0.00000000000E+00 0.  1.
         11    1    4    4    0    0 -0.29995536753E+01 -0.90076496954E+01  0.53515428757E+01  0.10898352476E+02  0.51100000000E-03 0. -1.
        -11    1    4    4    0    0 -0.11550153672E+01 -0.13804020829E+02  0.35969461262E+01  0.14311641180E+02  0.51100000000E-03 0.  1.
         12    1    4    4    0    0  0.18233246451E+02 -0.54097387919E+01  0.16713029416E+02  0.25318805308E+02  0.00000000000E+00 0. -1.
</event>
<event>
 8    1  0.1338956E-013  0.9118800E+02  0.7816164E-02  0.1184000E+00
        -11   -1    0    0    0    0  0.00000000000E+00  0.00000000000E+00  0.45593999997E+02  0.45594000000E+02  0.51100000000E-03 0. -1.
         11   -1    0    0    0    0 -0.00000000000E+00 -0.00000000000E+00 -0.45593999997E+02  0.45594000000E+02  0.51100000000E-03 0.  1.
         23    2    1    2    0    0  0.00000000000E+00  0.00000000000E+00  0.00000000000E+00  0.91188000000E+02  0.91188000000E+02 0.  0.
    9900012    2    3    3    0    0  0.75698721579E+01 -0.21986911946E+02  0.33353230136E+02  0.50528865455E+02  0.30000017038E+02 0.  0.
        -12    1    3    3    0    0 -0.75698721579E+01  0.21986911946E+02 -0.33353230136E+02  0.40659134545E+02  0.00000000000E+00 0.  1.
         11    1    4    4    0    0 -0.11613515661E+01 -0.11306483652E+02  0.32940557336E+01  0.11833685540E+02  0.51100000000E-03 0. -1.
        -11    1    4    4    0    0 -0.57878554594E+01 -0.52909537055E+01  0.52093134968E+01  0.94143724859E+01  0.51100000000E-03 0.  1.
         12    1    4    4    0    0  0.14519079183E+02 -0.53894745887E+01  0.24849860906E+02  0.29280807429E+02  0.00000000000E+00 0. -1.
</event>
<event>
 8    1  0.1338956E-013  0.9118800E+02  0.7816164E-02  0.1184000E+00
        -11   -1    0    0    0    0  0.00000000000E+00  0.00000000000E+00  0.45593999997E+02  0.45594000000E+02  0.51100000000E-03 0. -1.
         11   -1    0    0    0    0 -0.00000000000E+00 -0.00000000000E+00 -0.45593999997E+02  0.45594000000E+02  0.51100000000E-03 0.  1.
         23    2    1    2    0    0 -0.88817841970E-15 -0.17763568394E-14  0.00000000000E+00  0.91188000000E+02  0.91188000000E+02 0.  0.
    9900012    2    3    3    0    0 -0.73959173534E+01  0.96676931516E+01  0.38794364313E+02  0.50528848671E+02  0.29999966020E+02 0.  0.
        -12    1    3    3    0    0  0.73959173534E+01 -0.96676931516E+01 -0.38794364313E+02  0.40659151329E+02  0.00000000000E+00 0.  1.
         11    1    4    4    0    0 -0.58515931727E+01  0.21374166293E+01 -0.14124393861E+00  0.62313435644E+01  0.51100000000E-03 0.  1.
        -11    1    4    4    0    0 -0.22901494573E+01  0.13160479927E+02  0.34788851361E+02  0.37265361875E+02  0.51100000000E-03 0. -1.
         12    1    4    4    0    0  0.74582527665E+00 -0.56302034042E+01  0.41467568907E+01  0.70321432314E+01  0.00000000000E+00 0. -1.
</event>
<event>
 8    1  0.1338956E-013  0.9118800E+02  0.7816164E-02  0.1184000E+00
        -11   -1    0    0    0    0  0.00000000000E+00  0.00000000000E+00  0.45593999997E+02  0.45594000000E+02  0.51100000000E-03 0. -1.
         11   -1    0    0    0    0 -0.00000000000E+00 -0.00000000000E+00 -0.45593999997E+02  0.45594000000E+02  0.51100000000E-03 0.  1.
         23    2    1    2    0    0 -0.35527136788E-14  0.00000000000E+00  0.00000000000E+00  0.91188000000E+02  0.91188000000E+02 0.  0.
    9900012    2    3    3    0    0 -0.26376441259E+02 -0.21740308642E+02 -0.22018157021E+02  0.50528967646E+02  0.30000327656E+02 0.  0.
         12    1    3    3    0    0  0.26376441259E+02  0.21740308642E+02  0.22018157021E+02  0.40659032354E+02  0.00000000000E+00 0. -1.
         11    1    4    4    0    0  0.13621297602E+01  0.26373841757E+00 -0.14182355440E+01  0.19840231239E+01  0.51100000000E-03 0. -1.
        -11    1    4    4    0    0 -0.56569464970E+00 -0.38216712384E+01 -0.14854868866E+02  0.15349016607E+02  0.51100000000E-03 0.  1.
        -12    1    4    4    0    0 -0.27172876370E+02 -0.18182375821E+02 -0.57450526103E+01  0.33195927916E+02  0.00000000000E+00 0.  1.
</event>
<event>
 8    1  0.1338956E-013  0.9118800E+02  0.7816164E-02  0.1184000E+00
        -11   -1    0    0    0    0  0.00000000000E+00  0.00000000000E+00  0.45593999997E+02  0.45594000000E+02  0.51100000000E-03 0. -1.
         11   -1    0    0    0    0 -0.00000000000E+00 -0.00000000000E+00 -0.45593999997E+02  0.45594000000E+02  0.51100000000E-03 0.  1.
         23    2    1    2    0    0  0.00000000000E+00  0.35527136788E-14  0.00000000000E+00  0.91188000000E+02  0.91188000000E+02 0.  0.
    9900012    2    3    3    0    0 -0.83330361648E+01  0.11856115520E+02  0.37988909024E+02  0.50528878321E+02  0.30000056143E+02 0.  0.
        -12    1    3    3    0    0  0.83330361648E+01 -0.11856115520E+02 -0.37988909024E+02  0.40659121679E+02  0.00000000000E+00 0.  1.
         11    1    4    4    0    0 -0.51654936467E+01  0.60391470760E+01  0.30601725111E+02  0.31616755084E+02  0.51100000000E-03 0. -1.
        -11    1    4    4    0    0 -0.28384952688E+01  0.11331159120E+02  0.63360388571E+01  0.13289003388E+02  0.51100000000E-03 0.  1.
        -12    1    4    4    0    0 -0.32904724932E+00 -0.55141906761E+01  0.10511450558E+01  0.56231198487E+01  0.00000000000E+00 0.  1.
</event>
<event>
 8    1  0.1338956E-013  0.9118800E+02  0.7816164E-02  0.1184000E+00
        -11   -1    0    0    0    0  0.00000000000E+00  0.00000000000E+00  0.45593999997E+02  0.45594000000E+02  0.51100000000E-03 0. -1.
         11   -1    0    0    0    0 -0.00000000000E+00 -0.00000000000E+00 -0.45593999997E+02  0.45594000000E+02  0.51100000000E-03 0.  1.
         23    2    1    2    0    0  0.00000000000E+00  0.00000000000E+00 -0.35527136788E-14  0.91188000000E+02  0.91188000000E+02 0.  0.
    9900012    2    3    3    0    0 -0.45834676165E+01  0.27525737598E+02 -0.29571810643E+02  0.50528851086E+02  0.29999973361E+02 0.  0.
         12    1    3    3    0    0  0.45834676165E+01 -0.27525737598E+02  0.29571810643E+02  0.40659148914E+02  0.00000000000E+00 0. -1.
         11    1    4    4    0    0  0.47868000064E+01  0.15784189711E+02 -0.20631401178E+02  0.26414178275E+02  0.51100000000E-03 0. -1.
        -11    1    4    4    0    0  0.22926285270E+01 -0.26959224689E+00 -0.68673244418E+01  0.72449272455E+01  0.51100000000E-03 0.  1.
         12    1    4    4    0    0 -0.11662896150E+02  0.12011140134E+02 -0.20730850232E+01  0.16869745565E+02  0.00000000000E+00 0. -1.
</event>
<event>
 8    1  0.1338956E-013  0.9118800E+02  0.7816164E-02  0.1184000E+00
        -11   -1    0    0    0    0  0.00000000000E+00  0.00000000000E+00  0.45593999997E+02  0.45594000000E+02  0.51100000000E-03 0. -1.
         11   -1    0    0    0    0 -0.00000000000E+00 -0.00000000000E+00 -0.45593999997E+02  0.45594000000E+02  0.51100000000E-03 0.  1.
         23    2    1    2    0    0  0.88817841970E-15  0.17763568394E-14  0.00000000000E+00  0.91188000000E+02  0.91188000000E+02 0.  0.
    9900012    2    3    3    0    0 -0.44719064687E+01 -0.15456334117E+02  0.37339911929E+02  0.50528865299E+02  0.30000016563E+02 0.  0.
        -12    1    3    3    0    0  0.44719064687E+01  0.15456334117E+02 -0.37339911929E+02  0.40659134701E+02  0.00000000000E+00 0.  1.
         11    1    4    4    0    0 -0.62958988287E+01  0.75543042278E+00  0.16347423724E+02  0.17534174627E+02  0.51100000000E-03 0. -1.
        -11    1    4    4    0    0  0.90946180917E+01 -0.35426112443E+01  0.13266837072E+02  0.16470310830E+02  0.51100000000E-03 0.  1.
        -12    1    4    4    0    0 -0.72706257317E+01 -0.12669153295E+02  0.77256511321E+01  0.16524379842E+02  0.00000000000E+00 0.  1.
</event>
<event>
 8    1  0.1338956E-013  0.9118800E+02  0.7816164E-02  0.1184000E+00
        -11   -1    0    0    0    0  0.00000000000E+00  0.00000000000E+00  0.45593999997E+02  0.45594000000E+02  0.51100000000E-03 0. -1.
         11   -1    0    0    0    0 -0.00000000000E+00 -0.00000000000E+00 -0.45593999997E+02  0.45594000000E+02  0.51100000000E-03 0.  1.
         23    2    1    2    0    0 -0.35527136788E-14 -0.71054273576E-14 -0.17763568394E-14  0.91188000000E+02  0.91188000000E+02 0.  0.
    9900012    2    3    3    0    0 -0.17499945414E+02 -0.34408840246E+02 -0.12765185856E+02  0.50528851626E+02  0.29999975003E+02 0.  0.
         12    1    3    3    0    0  0.17499945414E+02  0.34408840246E+02  0.12765185856E+02  0.40659148374E+02  0.00000000000E+00 0. -1.
         11    1    4    4    0    0  0.21582636180E+01  0.33552394550E+01 -0.28510331763E+01  0.49034808125E+01  0.51100000000E-03 0. -1.
        -11    1    4    4    0    0  0.11130112259E+01 -0.56565134346E+00 -0.18998632731E+01  0.22733754967E+01  0.51100000000E-03 0.  1.
        -12    1    4    4    0    0 -0.20771220258E+02 -0.37198428357E+02 -0.80142894064E+01  0.43351995317E+02  0.00000000000E+00 0.  1.
</event>
<event>
 8    1  0.1338956E-013  0.9118800E+02  0.7816164E-02  0.1184000E+00
        -11   -1    0    0    0    0  0.00000000000E+00  0.00000000000E+00  0.45593999997E+02  0.45594000000E+02  0.51100000000E-03 0. -1.
         11   -1    0    0    0    0 -0.00000000000E+00 -0.00000000000E+00 -0.45593999997E+02  0.45594000000E+02  0.51100000000E-03 0.  1.
         23    2    1    2    0    0  0.00000000000E+00  0.00000000000E+00  0.00000000000E+00  0.91188000000E+02  0.91188000000E+02 0.  0.
    9900012    2    3    3    0    0  0.10772347221E+02  0.22563807624E+02 -0.32062386480E+02  0.50528861963E+02  0.30000006422E+02 0.  0.
         12    1    3    3    0    0 -0.10772347221E+02 -0.22563807624E+02  0.32062386480E+02  0.40659138037E+02  0.00000000000E+00 0. -1.
         11    1    4    4    0    0  0.39824116655E+00  0.45136918552E-02  0.95730688998E+00  0.10368476951E+01  0.51100000000E-03 0. -1.
        -11    1    4    4    0    0  0.14690607922E+02  0.11252863418E+02 -0.53056711440E+01  0.19250741357E+02  0.51100000000E-03 0.  1.
        -12    1    4    4    0    0 -0.43165018675E+01  0.11306430514E+02 -0.27714022226E+02  0.30241272911E+02  0.00000000000E+00 0.  1.
</event>
<event>
 8    1  0.1338956E-013  0.9118800E+02  0.7816164E-02  0.1184000E+00
        -11   -1    0    0    0    0  0.00000000000E+00  0.00000000000E+00  0.45593999997E+02  0.45594000000E+02  0.51100000000E-03 0. -1.
         11   -1    0    0    0    0 -0.00000000000E+00 -0.00000000000E+00 -0.45593999997E+02  0.45594000000E+02  0.51100000000E-03 0.  1.
         23    2    1    2    0    0  0.00000000000E+00  0.17763568394E-14  0.00000000000E+00  0.91188000000E+02  0.91188000000E+02 0.  0.
    9900012    2    3    3    0    0  0.15171940212E+02 -0.83718471075E+01  0.36781655380E+02  0.50528858761E+02  0.29999996689E+02 0.  0.
        -12    1    3    3    0    0 -0.15171940212E+02  0.83718471075E+01 -0.36781655380E+02  0.40659141239E+02  0.00000000000E+00 0.  1.
         11    1    4    4    0    0  0.66297304588E+01 -0.62079943172E+01  0.17020039962E+02  0.19291818991E+02  0.51100000000E-03 0. -1.
        -11    1    4    4    0    0  0.14739403938E+02 -0.50095290439E+01  0.18706183990E+02  0.24336530760E+02  0.51100000000E-03 0.  1.
        -12    1    4    4    0    0 -0.61971941846E+01  0.28456762536E+01  0.10554314285E+01  0.69005090104E+01  0.00000000000E+00 0.  1.
</event>
<event>
 8    1  0.1338956E-013  0.9118800E+02  0.7816164E-02  0.1184000E+00
        -11   -1    0    0    0    0  0.00000000000E+00  0.00000000000E+00  0.45593999997E+02  0.45594000000E+02  0.51100000000E-03 0. -1.
         11   -1    0    0    0    0 -0.00000000000E+00 -0.00000000000E+00 -0.45593999997E+02  0.45594000000E+02  0.51100000000E-03 0.  1.
         23    2    1    2    0    0  0.17763568394E-14 -0.35527136788E-14  0.35527136788E-14  0.91188000000E+02  0.91188000000E+02 0.  0.
    9900012    2    3    3    0    0  0.43247619586E+01 -0.30299185214E+02  0.26766051334E+02  0.50528859642E+02  0.29999999367E+02 0.  0.
        -12    1    3    3    0    0 -0.43247619586E+01  0.30299185214E+02 -0.26766051334E+02  0.40659140358E+02  0.00000000000E+00 0.  1.
         11    1    4    4    0    0  0.11434465030E+02 -0.10482834036E+02  0.16751816045E+02  0.22831122203E+02  0.51100000000E-03 0. -1.
        -11    1    4    4    0    0 -0.65321927097E+01 -0.69662559193E+01  0.11271798670E+02  0.14773344532E+02  0.51100000000E-03 0.  1.
        -12    1    4    4    0    0 -0.57751036135E+00 -0.12850095259E+02 -0.12575633815E+01  0.12924392908E+02  0.00000000000E+00 0.  1.
</event>
<event>
 8    1  0.1338956E-013  0.9118800E+02  0.7816164E-02  0.1184000E+00
        -11   -1    0    0    0    0  0.00000000000E+00  0.00000000000E+00  0.45593999997E+02  0.45594000000E+02  0.51100000000E-03 0. -1.
         11   -1    0    0    0    0 -0.00000000000E+00 -0.00000000000E+00 -0.45593999997E+02  0.45594000000E+02  0.51100000000E-03 0.  1.
         23    2    1    2    0    0  0.00000000000E+00  0.00000000000E+00  0.00000000000E+00  0.91188000000E+02  0.91188000000E+02 0.  0.
    9900012    2    3    3    0    0  0.76386185639E+01  0.19664226140E+02 -0.34758299574E+02  0.50528810724E+02  0.29999850678E+02 0.  0.
         12    1    3    3    0    0 -0.76386185639E+01 -0.19664226140E+02  0.34758299574E+02  0.40659189276E+02  0.00000000000E+00 0. -1.
         11    1    4    4    0    0 -0.20297623551E+01  0.24917045603E+01  0.30398620894E+01  0.44237188674E+01  0.51100000000E-03 0. -1.
        -11    1    4    4    0    0  0.77247850469E+01 -0.10792872547E+01 -0.85382065597E+01  0.11564520592E+02  0.51100000000E-03 0.  1.
        -12    1    4    4    0    0  0.19435958720E+01  0.18251808835E+02 -0.29259955104E+02  0.34540571265E+02  0.00000000000E+00 0.  1.
</event>
<event>
 8    1  0.1338956E-013  0.9118800E+02  0.7816164E-02  0.1184000E+00
        -11   -1    0    0    0    0  0.00000000000E+00  0.00000000000E+00  0.45593999997E+02  0.45594000000E+02  0.51100000000E-03 0. -1.
         11   -1    0    0    0    0 -0.00000000000E+00 -0.00000000000E+00 -0.45593999997E+02  0.45594000000E+02  0.51100000000E-03 0.  1.
         23    2    1    2    0    0 -0.35527136788E-14  0.00000000000E+00  0.00000000000E+00  0.91188000000E+02  0.91188000000E+02 0.  0.
    9900012    2    3    3    0    0 -0.24137495607E+02  0.14372110341E+02  0.29393684399E+02  0.50528869016E+02  0.30000027861E+02 0.  0.
        -12    1    3    3    0    0  0.24137495607E+02 -0.14372110341E+02 -0.29393684399E+02  0.40659130984E+02  0.00000000000E+00 0.  1.
         11    1    4    4    0    0 -0.51358364093E+01 -0.13600806030E+01 -0.18225034903E+01  0.56167743504E+01  0.51100000000E-03 0. -1.
        -11    1    4    4    0    0 -0.16844946360E+02  0.59038859871E+01  0.79044924460E+01  0.19521503239E+02  0.51100000000E-03 0.  1.
         12    1    4    4    0    0 -0.21567128386E+01  0.98283049568E+01  0.23311695443E+02  0.25390591427E+02  0.00000000000E+00 0. -1.
</event>
<event>
 8    1  0.1338956E-013  0.9118800E+02  0.7816164E-02  0.1184000E+00
        -11   -1    0    0    0    0  0.00000000000E+00  0.00000000000E+00  0.45593999997E+02  0.45594000000E+02  0.51100000000E-03 0. -1.
         11   -1    0    0    0    0 -0.00000000000E+00 -0.00000000000E+00 -0.45593999997E+02  0.45594000000E+02  0.51100000000E-03 0.  1.
         23    2    1    2    0    0 -0.35527136788E-14 -0.35527136788E-14  0.00000000000E+00  0.91188000000E+02  0.91188000000E+02 0.  0.
    9900012    2    3    3    0    0 -0.23246992379E+02 -0.28445806188E+02 -0.17423530487E+02  0.50528856391E+02  0.29999989487E+02 0.  0.
         12    1    3    3    0    0  0.23246992379E+02  0.28445806188E+02  0.17423530487E+02  0.40659143609E+02  0.00000000000E+00 0. -1.
         11    1    4    4    0    0 -0.14834773073E+02 -0.57534284906E+01 -0.11704828308E+01  0.15954386916E+02  0.51100000000E-03 0. -1.
        -11    1    4    4    0    0 -0.58437528426E+01 -0.32146607840E-01  0.10634328590E+01  0.59398123200E+01  0.51100000000E-03 0.  1.
        -12    1    4    4    0    0 -0.25684664633E+01 -0.22660231090E+02 -0.17316480515E+02  0.28634657156E+02  0.00000000000E+00 0.  1.
</event>
<event>
 8    1  0.1338956E-013  0.9118800E+02  0.7816164E-02  0.1184000E+00
        -11   -1    0    0    0    0  0.00000000000E+00  0.00000000000E+00  0.45593999997E+02  0.45594000000E+02  0.51100000000E-03 0. -1.
         11   -1    0    0    0    0 -0.00000000000E+00 -0.00000000000E+00 -0.45593999997E+02  0.45594000000E+02  0.51100000000E-03 0.  1.
         23    2    1    2    0    0 -0.88817841970E-15  0.35527136788E-14  0.00000000000E+00  0.91188000000E+02  0.91188000000E+02 0.  0.
    9900012    2    3    3    0    0 -0.70094717064E+01  0.29162119416E+02  0.27451879016E+02  0.50528836655E+02  0.29999929496E+02 0.  0.
        -12    1    3    3    0    0  0.70094717064E+01 -0.29162119416E+02 -0.27451879016E+02  0.40659163345E+02  0.00000000000E+00 0.  1.
         11    1    4    4    0    0 -0.32072243949E+01  0.45260030231E+01  0.15831468078E+02  0.16775171339E+02  0.51100000000E-03 0. -1.
        -11    1    4    4    0    0 -0.14599287880E+01 -0.16311893557E+01  0.65407585045E+01  0.68973685457E+01  0.51100000000E-03 0.  1.
        -12    1    4    4    0    0 -0.23423185234E+01  0.26267305749E+02  0.50796524332E+01  0.26856296770E+02  0.00000000000E+00 0.  1.
</event>
<event>
 8    1  0.1338956E-013  0.9118800E+02  0.7816164E-02  0.1184000E+00
        -11   -1    0    0    0    0  0.00000000000E+00  0.00000000000E+00  0.45593999997E+02  0.45594000000E+02  0.51100000000E-03 0.  1.
         11   -1    0    0    0    0 -0.00000000000E+00 -0.00000000000E+00 -0.45593999997E+02  0.45594000000E+02  0.51100000000E-03 0. -1.
         23    2    1    2    0    0  0.00000000000E+00  0.17763568394E-14  0.00000000000E+00  0.91188000000E+02  0.91188000000E+02 0.  0.
    9900012    2    3    3    0    0  0.36222679542E+02 -0.14000900132E+02 -0.12043995102E+02  0.50528861597E+02  0.30000005309E+02 0.  0.
         12    1    3    3    0    0 -0.36222679542E+02  0.14000900132E+02  0.12043995102E+02  0.40659138403E+02  0.00000000000E+00 0. -1.
         11    1    4    4    0    0  0.24315205436E+02 -0.28615889364E+01 -0.15777965844E+01  0.24533800132E+02  0.51100000000E-03 0. -1.
        -11    1    4    4    0    0  0.14170122920E+02 -0.20071605821E+01 -0.73180381550E+01  0.16074039937E+02  0.51100000000E-03 0.  1.
         12    1    4    4    0    0 -0.22626488143E+01 -0.91321506133E+01 -0.31481603627E+01  0.99210215275E+01  0.00000000000E+00 0. -1.
</event>
<event>
 8    1  0.1634622E-013  0.9118800E+02  0.7816164E-02  0.1184000E+00
        -11   -1    0    0    0    0  0.00000000000E+00  0.00000000000E+00  0.45593999997E+02  0.45594000000E+02  0.51100000000E-03 0. -1.
         11   -1    0    0    0    0 -0.00000000000E+00 -0.00000000000E+00 -0.45593999997E+02  0.45594000000E+02  0.51100000000E-03 0.  1.
         23    2    1    2    0    0 -0.17763568394E-14  0.35527136788E-14  0.35527136788E-14  0.91188000000E+02  0.91188000000E+02 0.  0.
    9900012    2    3    3    0    0  0.82172640413E+01 -0.24531387818E+02 -0.31366457505E+02  0.50528842692E+02  0.29999947845E+02 0.  0.
         12    1    3    3    0    0 -0.82172640413E+01  0.24531387818E+02  0.31366457505E+02  0.40659157308E+02  0.00000000000E+00 0. -1.
         11    1    4    4    0    0  0.30242107024E+01 -0.94330576882E+01 -0.17742532421E+02  0.20320577863E+02  0.51100000000E-03 0. -1.
        -11    1    4    4    0    0  0.11800315816E+02 -0.66981158434E+01 -0.14023627511E+02  0.19513439933E+02  0.51100000000E-03 0.  1.
         12    1    4    4    0    0 -0.66072624774E+01 -0.84002142863E+01  0.39970242638E+00  0.10694824895E+02  0.00000000000E+00 0. -1.
</event>
<event>
 8    1  0.1338956E-013  0.9118800E+02  0.7816164E-02  0.1184000E+00
        -11   -1    0    0    0    0  0.00000000000E+00  0.00000000000E+00  0.45593999997E+02  0.45594000000E+02  0.51100000000E-03 0. -1.
         11   -1    0    0    0    0 -0.00000000000E+00 -0.00000000000E+00 -0.45593999997E+02  0.45594000000E+02  0.51100000000E-03 0.  1.
         23    2    1    2    0    0  0.44408920985E-15 -0.88817841970E-15  0.00000000000E+00  0.91188000000E+02  0.91188000000E+02 0.  0.
    9900012    2    3    3    0    0 -0.21944373212E+01 -0.73558485371E+01 -0.39927955767E+02  0.50528859396E+02  0.29999998622E+02 0.  0.
         12    1    3    3    0    0  0.21944373212E+01  0.73558485371E+01  0.39927955767E+02  0.40659140604E+02  0.00000000000E+00 0. -1.
         11    1    4    4    0    0 -0.10873611975E+01  0.22612267603E+01 -0.99521795844E+01  0.10263594866E+02  0.51100000000E-03 0. -1.
        -11    1    4    4    0    0 -0.83174381714E+01 -0.16206392838E+01 -0.28082182687E+02  0.29332835427E+02  0.51100000000E-03 0.  1.
        -12    1    4    4    0    0  0.72103620476E+01 -0.79964360136E+01 -0.18935934955E+01  0.10932429104E+02  0.00000000000E+00 0.  1.
</event>
<event>
 8    1  0.1338956E-013  0.9118800E+02  0.7816164E-02  0.1184000E+00
        -11   -1    0    0    0    0  0.00000000000E+00  0.00000000000E+00  0.45593999997E+02  0.45594000000E+02  0.51100000000E-03 0. -1.
         11   -1    0    0    0    0 -0.00000000000E+00 -0.00000000000E+00 -0.45593999997E+02  0.45594000000E+02  0.51100000000E-03 0.  1.
         23    2    1    2    0    0 -0.17763568394E-14  0.00000000000E+00  0.00000000000E+00  0.91188000000E+02  0.91188000000E+02 0.  0.
    9900012    2    3    3    0    0 -0.96178167045E+01 -0.15575678369E+02 -0.36305115642E+02  0.50528861094E+02  0.30000003782E+02 0.  0.
         12    1    3    3    0    0  0.96178167045E+01  0.15575678369E+02  0.36305115642E+02  0.40659138906E+02  0.00000000000E+00 0. -1.
         11    1    4    4    0    0  0.53782612493E+01  0.14139112032E+01 -0.13865632885E+02  0.14939230721E+02  0.51100000000E-03 0. -1.
        -11    1    4    4    0    0  0.26401498210E+01 -0.40606609201E+00 -0.52774968971E+01  0.59150024944E+01  0.51100000000E-03 0.  1.
         12    1    4    4    0    0 -0.17636227775E+02 -0.16583523480E+02 -0.17161985859E+02  0.29674627879E+02  0.00000000000E+00 0. -1.
</event>
<event>
 8    1  0.1338956E-013  0.9118800E+02  0.7816164E-02  0.1184000E+00
        -11   -1    0    0    0    0  0.00000000000E+00  0.00000000000E+00  0.45593999997E+02  0.45594000000E+02  0.51100000000E-03 0. -1.
         11   -1    0    0    0    0 -0.00000000000E+00 -0.00000000000E+00 -0.45593999997E+02  0.45594000000E+02  0.51100000000E-03 0.  1.
         23    2    1    2    0    0  0.00000000000E+00  0.44408920985E-15  0.00000000000E+00  0.91188000000E+02  0.91188000000E+02 0.  0.
    9900012    2    3    3    0    0  0.14866753178E+02 -0.19739340208E+01  0.37792177169E+02  0.50528863011E+02  0.30000009607E+02 0.  0.
        -12    1    3    3    0    0 -0.14866753178E+02  0.19739340208E+01 -0.37792177169E+02  0.40659136989E+02  0.00000000000E+00 0.  1.
         11    1    4    4    0    0  0.31932039997E+01  0.41705289512E+01  0.73871640803E+01  0.90642184951E+01  0.51100000000E-03 0. -1.
        -11    1    4    4    0    0  0.10677460983E+02 -0.50206706678E+01  0.80480646494E+00  0.11826369718E+02  0.51100000000E-03 0.  1.
         12    1    4    4    0    0  0.99608819494E+00 -0.11237923042E+01  0.29600206623E+02  0.29638274798E+02  0.00000000000E+00 0. -1.
</event>
<event>
 8    1  0.1338956E-013  0.9118800E+02  0.7816164E-02  0.1184000E+00
        -11   -1    0    0    0    0  0.00000000000E+00  0.00000000000E+00  0.45593999997E+02  0.45594000000E+02  0.51100000000E-03 0. -1.
         11   -1    0    0    0    0 -0.00000000000E+00 -0.00000000000E+00 -0.45593999997E+02  0.45594000000E+02  0.51100000000E-03 0.  1.
         23    2    1    2    0    0  0.00000000000E+00  0.00000000000E+00 -0.35527136788E-14  0.91188000000E+02  0.91188000000E+02 0.  0.
    9900012    2    3    3    0    0 -0.20424783739E+02 -0.23302930004E+02  0.26324270569E+02  0.50528861316E+02  0.30000004456E+02 0.  0.
        -12    1    3    3    0    0  0.20424783739E+02  0.23302930004E+02 -0.26324270569E+02  0.40659138684E+02  0.00000000000E+00 0.  1.
         11    1    4    4    0    0  0.11365507163E+01 -0.27588359936E+00  0.15868031163E+01  0.19712441965E+01  0.51100000000E-03 0. -1.
        -11    1    4    4    0    0 -0.11545211029E+02  0.39573432593E+01  0.32252616971E+01  0.12623580184E+02  0.51100000000E-03 0.  1.
         12    1    4    4    0    0 -0.10016123426E+02 -0.26984389664E+02  0.21512205755E+02  0.35934036935E+02  0.00000000000E+00 0. -1.
</event>
<event>
 8    1  0.1338956E-013  0.9118800E+02  0.7816164E-02  0.1184000E+00
        -11   -1    0    0    0    0  0.00000000000E+00  0.00000000000E+00  0.45593999997E+02  0.45594000000E+02  0.51100000000E-03 0. -1.
         11   -1    0    0    0    0 -0.00000000000E+00 -0.00000000000E+00 -0.45593999997E+02  0.45594000000E+02  0.51100000000E-03 0.  1.
         23    2    1    2    0    0  0.17763568394E-14  0.00000000000E+00  0.00000000000E+00  0.91188000000E+02  0.91188000000E+02 0.  0.
    9900012    2    3    3    0    0  0.38826261139E+01 -0.86520508161E+01 -0.39537668276E+02  0.50528929898E+02  0.30000212916E+02 0.  0.
         12    1    3    3    0    0 -0.38826261139E+01  0.86520508161E+01  0.39537668276E+02  0.40659070102E+02  0.00000000000E+00 0. -1.
         11    1    4    4    0    0  0.58028386239E+01 -0.26958944036E+01 -0.13152104711E+02  0.14625957792E+02  0.51100000000E-03 0. -1.
        -11    1    4    4    0    0  0.79171890939E+01 -0.69286619684E+01 -0.36920309565E+01  0.11149857966E+02  0.51100000000E-03 0.  1.
         12    1    4    4    0    0 -0.98374016039E+01  0.97250555581E+00 -0.22693532609E+02  0.24753114140E+02  0.00000000000E+00 0. -1.
</event>
<event>
 8    1  0.1338956E-013  0.9118800E+02  0.7816164E-02  0.1184000E+00
        -11   -1    0    0    0    0  0.00000000000E+00  0.00000000000E+00  0.45593999997E+02  0.45594000000E+02  0.51100000000E-03 0.  1.
         11   -1    0    0    0    0 -0.00000000000E+00 -0.00000000000E+00 -0.45593999997E+02  0.45594000000E+02  0.51100000000E-03 0. -1.
         23    2    1    2    0    0  0.00000000000E+00 -0.88817841970E-15  0.00000000000E+00  0.91188000000E+02  0.91188000000E+02 0.  0.
    9900012    2    3    3    0    0 -0.37142236803E+02  0.54682319273E+01  0.15611485472E+02  0.50528858423E+02  0.29999995663E+02 0.  0.
        -12    1    3    3    0    0  0.37142236803E+02 -0.54682319273E+01 -0.15611485472E+02  0.40659141577E+02  0.00000000000E+00 0.  1.
         11    1    4    4    0    0 -0.29715994762E+02  0.13254420307E+02  0.98257285333E+01  0.33989188632E+02  0.51100000000E-03 0. -1.
        -11    1    4    4    0    0 -0.29880879767E+01  0.24244708241E+01 -0.28524469081E+00  0.38585092106E+01  0.51100000000E-03 0.  1.
        -12    1    4    4    0    0 -0.44381540636E+01 -0.10210659204E+02  0.60710016300E+01  0.12681160580E+02  0.00000000000E+00 0.  1.
</event>
<event>
 8    1  0.1338956E-013  0.9118800E+02  0.7816164E-02  0.1184000E+00
        -11   -1    0    0    0    0  0.00000000000E+00  0.00000000000E+00  0.45593999997E+02  0.45594000000E+02  0.51100000000E-03 0. -1.
         11   -1    0    0    0    0 -0.00000000000E+00 -0.00000000000E+00 -0.45593999997E+02  0.45594000000E+02  0.51100000000E-03 0.  1.
         23    2    1    2    0    0  0.44408920985E-15  0.00000000000E+00  0.88817841970E-15  0.91188000000E+02  0.91188000000E+02 0.  0.
    9900012    2    3    3    0    0 -0.34241231584E+01 -0.39786327829E+02 -0.76478098557E+01  0.50528862071E+02  0.30000006752E+02 0.  0.
         12    1    3    3    0    0  0.34241231584E+01  0.39786327829E+02  0.76478098557E+01  0.40659137929E+02  0.00000000000E+00 0. -1.
         11    1    4    4    0    0  0.61430110365E+00 -0.10995182578E+02 -0.79319224535E+01  0.13571543753E+02  0.51100000000E-03 0.  1.
        -11    1    4    4    0    0  0.17780233919E+01 -0.43875683016E+01 -0.90309690451E+01  0.10196593791E+02  0.51100000000E-03 0. -1.
         12    1    4    4    0    0 -0.58164476539E+01 -0.24403576949E+02  0.93150816429E+01  0.26760724527E+02  0.00000000000E+00 0. -1.
</event>
<event>
 8    1  0.1338956E-013  0.9118800E+02  0.7816164E-02  0.1184000E+00
        -11   -1    0    0    0    0  0.00000000000E+00  0.00000000000E+00  0.45593999997E+02  0.45594000000E+02  0.51100000000E-03 0. -1.
         11   -1    0    0    0    0 -0.00000000000E+00 -0.00000000000E+00 -0.45593999997E+02  0.45594000000E+02  0.51100000000E-03 0.  1.
         23    2    1    2    0    0  0.00000000000E+00 -0.18873791419E-14  0.35527136788E-14  0.91188000000E+02  0.91188000000E+02 0.  0.
    9900012    2    3    3    0    0  0.26539255463E+02  0.58141888977E+00 -0.30797642234E+02  0.50528869468E+02  0.30000029235E+02 0.  0.
         12    1    3    3    0    0 -0.26539255463E+02 -0.58141888977E+00  0.30797642234E+02  0.40659130532E+02  0.00000000000E+00 0. -1.
         11    1    4    4    0    0  0.12479572486E+01  0.47340991493E+01 -0.85266403177E+01  0.98322269817E+01  0.51100000000E-03 0. -1.
        -11    1    4    4    0    0  0.12213039606E+02  0.82329572317E+01 -0.15688929519E+02  0.21519350151E+02  0.51100000000E-03 0.  1.
        -12    1    4    4    0    0  0.13078258608E+02 -0.12385637491E+02 -0.65820723973E+01  0.19177292336E+02  0.00000000000E+00 0.  1.
</event>
<event>
 8    1  0.1338956E-013  0.9118800E+02  0.7816164E-02  0.1184000E+00
        -11   -1    0    0    0    0  0.00000000000E+00  0.00000000000E+00  0.45593999997E+02  0.45594000000E+02  0.51100000000E-03 0. -1.
         11   -1    0    0    0    0 -0.00000000000E+00 -0.00000000000E+00 -0.45593999997E+02  0.45594000000E+02  0.51100000000E-03 0.  1.
         23    2    1    2    0    0 -0.35527136788E-14 -0.55511151231E-16 -0.71054273576E-14  0.91188000000E+02  0.91188000000E+02 0.  0.
    9900012    2    3    3    0    0  0.22469480938E+02  0.28187175049E+00 -0.33885225215E+02  0.50528861873E+02  0.30000006149E+02 0.  0.
         12    1    3    3    0    0 -0.22469480938E+02 -0.28187175049E+00  0.33885225215E+02  0.40659138127E+02  0.00000000000E+00 0. -1.
         11    1    4    4    0    0  0.45828512021E+01 -0.97139178816E+00 -0.42112062641E+01  0.62992369067E+01  0.51100000000E-03 0. -1.
        -11    1    4    4    0    0  0.24973022393E+02  0.69340489716E+00 -0.18919526315E+02  0.31338173751E+02  0.51100000000E-03 0.  1.
        -12    1    4    4    0    0 -0.70863926566E+01  0.55985864149E+00 -0.10754492636E+02  0.12891451215E+02  0.00000000000E+00 0.  1.
</event>
<event>
 8    1  0.1338956E-013  0.9118800E+02  0.7816164E-02  0.1184000E+00
        -11   -1    0    0    0    0  0.00000000000E+00  0.00000000000E+00  0.45593999997E+02  0.45594000000E+02  0.51100000000E-03 0.  1.
         11   -1    0    0    0    0 -0.00000000000E+00 -0.00000000000E+00 -0.45593999997E+02  0.45594000000E+02  0.51100000000E-03 0. -1.
         23    2    1    2    0    0  0.00000000000E+00  0.00000000000E+00  0.00000000000E+00  0.91188000000E+02  0.91188000000E+02 0.  0.
    9900012    2    3    3    0    0 -0.45190692140E+01  0.37381784579E+02  0.15341055711E+02  0.50528833811E+02  0.29999920851E+02 0.  0.
         12    1    3    3    0    0  0.45190692140E+01 -0.37381784579E+02 -0.15341055711E+02  0.40659166189E+02  0.00000000000E+00 0. -1.
         11    1    4    4    0    0 -0.55147035798E+01  0.10456770115E+01  0.11795024188E+02  0.13062464998E+02  0.51100000000E-03 0. -1.
        -11    1    4    4    0    0 -0.24896247323E+01  0.20975955343E+02  0.48140571867E+01  0.21664812040E+02  0.51100000000E-03 0.  1.
        -12    1    4    4    0    0  0.34852590982E+01  0.15360152225E+02 -0.12680256633E+01  0.15801556772E+02  0.00000000000E+00 0.  1.
</event>
<event>
 8    1  0.1338956E-013  0.9118800E+02  0.7816164E-02  0.1184000E+00
        -11   -1    0    0    0    0  0.00000000000E+00  0.00000000000E+00  0.45593999997E+02  0.45594000000E+02  0.51100000000E-03 0. -1.
         11   -1    0    0    0    0 -0.00000000000E+00 -0.00000000000E+00 -0.45593999997E+02  0.45594000000E+02  0.51100000000E-03 0.  1.
         23    2    1    2    0    0  0.00000000000E+00  0.88817841970E-15  0.00000000000E+00  0.91188000000E+02  0.91188000000E+02 0.  0.
    9900012    2    3    3    0    0  0.38954038457E+01  0.21610019666E+01 -0.40414371226E+02  0.50528862009E+02  0.30000006562E+02 0.  0.
         12    1    3    3    0    0 -0.38954038457E+01 -0.21610019666E+01  0.40414371226E+02  0.40659137991E+02  0.00000000000E+00 0. -1.
         11    1    4    4    0    0  0.13827520708E+01  0.10554401647E+02 -0.78487280622E+01  0.13225351786E+02  0.51100000000E-03 0. -1.
        -11    1    4    4    0    0  0.36849074247E+01  0.76797297654E+00 -0.25228644576E+02  0.25507897456E+02  0.51100000000E-03 0.  1.
        -12    1    4    4    0    0 -0.11722556497E+01 -0.91613726569E+01 -0.73369985870E+01  0.11795612766E+02  0.00000000000E+00 0.  1.
</event>
<event>
 8    1  0.1338956E-013  0.9118800E+02  0.7816164E-02  0.1184000E+00
        -11   -1    0    0    0    0  0.00000000000E+00  0.00000000000E+00  0.45593999997E+02  0.45594000000E+02  0.51100000000E-03 0. -1.
         11   -1    0    0    0    0 -0.00000000000E+00 -0.00000000000E+00 -0.45593999997E+02  0.45594000000E+02  0.51100000000E-03 0.  1.
         23    2    1    2    0    0  0.35527136788E-14 -0.35527136788E-14  0.00000000000E+00  0.91188000000E+02  0.91188000000E+02 0.  0.
    9900012    2    3    3    0    0 -0.15898575465E+02  0.12886094855E+02  0.35133289571E+02  0.50528878287E+02  0.30000056040E+02 0.  0.
        -12    1    3    3    0    0  0.15898575465E+02 -0.12886094855E+02 -0.35133289571E+02  0.40659121713E+02  0.00000000000E+00 0.  1.
         11    1    4    4    0    0 -0.20417298800E+02  0.79454535654E+01  0.35701229038E+02  0.41887636335E+02  0.51100000000E-03 0. -1.
        -11    1    4    4    0    0  0.11219345259E+01  0.11356791902E+01  0.22923162334E+01  0.27934241136E+01  0.51100000000E-03 0.  1.
         12    1    4    4    0    0  0.33967888086E+01  0.38049620994E+01 -0.28602557011E+01  0.58478178378E+01  0.00000000000E+00 0. -1.
</event>
<event>
 8    1  0.1338956E-013  0.9118800E+02  0.7816164E-02  0.1184000E+00
        -11   -1    0    0    0    0  0.00000000000E+00  0.00000000000E+00  0.45593999997E+02  0.45594000000E+02  0.51100000000E-03 0. -1.
         11   -1    0    0    0    0 -0.00000000000E+00 -0.00000000000E+00 -0.45593999997E+02  0.45594000000E+02  0.51100000000E-03 0.  1.
         23    2    1    2    0    0  0.88817841970E-15  0.35527136788E-14  0.00000000000E+00  0.91188000000E+02  0.91188000000E+02 0.  0.
    9900012    2    3    3    0    0 -0.70363268949E+01 -0.23715609113E+02  0.32268000124E+02  0.50528882403E+02  0.30000068553E+02 0.  0.
        -12    1    3    3    0    0  0.70363268949E+01  0.23715609113E+02 -0.32268000124E+02  0.40659117597E+02  0.00000000000E+00 0.  1.
         11    1    4    4    0    0 -0.67441394010E+01 -0.17516038570E+02  0.20295507066E+02  0.27644215142E+02  0.51100000000E-03 0. -1.
        -11    1    4    4    0    0 -0.89767637165E+01 -0.59852629873E+01  0.72249562698E+01  0.12984823958E+02  0.51100000000E-03 0.  1.
        -12    1    4    4    0    0  0.86845762225E+01 -0.21430755490E+00  0.47475367875E+01  0.98998433039E+01  0.00000000000E+00 0.  1.
</event>
<event>
 8    1  0.1338956E-013  0.9118800E+02  0.7816164E-02  0.1184000E+00
        -11   -1    0    0    0    0  0.00000000000E+00  0.00000000000E+00  0.45593999997E+02  0.45594000000E+02  0.51100000000E-03 0. -1.
         11   -1    0    0    0    0 -0.00000000000E+00 -0.00000000000E+00 -0.45593999997E+02  0.45594000000E+02  0.51100000000E-03 0.  1.
         23    2    1    2    0    0  0.00000000000E+00  0.00000000000E+00  0.00000000000E+00  0.91188000000E+02  0.91188000000E+02 0.  0.
    9900012    2    3    3    0    0  0.15470031875E+02 -0.29282828299E+02 -0.23587282921E+02  0.50528857916E+02  0.29999994122E+02 0.  0.
         12    1    3    3    0    0 -0.15470031875E+02  0.29282828299E+02  0.23587282921E+02  0.40659142084E+02  0.00000000000E+00 0. -1.
         11    1    4    4    0    0  0.11827921919E+02  0.49586327314E+00 -0.21653517165E+01  0.12034715020E+02  0.51100000000E-03 0. -1.
        -11    1    4    4    0    0 -0.26357575359E+01 -0.80727024939E+01 -0.20616500556E+01  0.87387724857E+01  0.51100000000E-03 0.  1.
        -12    1    4    4    0    0  0.62778674920E+01 -0.21705989078E+02 -0.19360281149E+02  0.29755370411E+02  0.00000000000E+00 0.  1.
</event>
<event>
 8    1  0.1338956E-013  0.9118800E+02  0.7816164E-02  0.1184000E+00
        -11   -1    0    0    0    0  0.00000000000E+00  0.00000000000E+00  0.45593999997E+02  0.45594000000E+02  0.51100000000E-03 0.  1.
         11   -1    0    0    0    0 -0.00000000000E+00 -0.00000000000E+00 -0.45593999997E+02  0.45594000000E+02  0.51100000000E-03 0. -1.
         23    2    1    2    0    0 -0.17763568394E-14  0.35527136788E-14  0.00000000000E+00  0.91188000000E+02  0.91188000000E+02 0.  0.
    9900012    2    3    3    0    0 -0.12913173062E+02  0.30036334613E+02  0.24170937972E+02  0.50528859847E+02  0.29999999992E+02 0.  0.
        -12    1    3    3    0    0  0.12913173062E+02 -0.30036334613E+02 -0.24170937972E+02  0.40659140153E+02  0.00000000000E+00 0.  1.
         11    1    4    4    0    0 -0.53656123703E+01  0.22026501186E+02  0.94490972007E+01  0.24560985093E+02  0.51100000000E-03 0. -1.
        -11    1    4    4    0    0  0.35975464660E+01  0.91294312765E+01  0.44677315464E+01  0.10781905279E+02  0.51100000000E-03 0.  1.
         12    1    4    4    0    0 -0.11145107158E+02 -0.11195978493E+01  0.10254109225E+02  0.15185969475E+02  0.00000000000E+00 0. -1.
</event>
<event>
 8    1  0.1338956E-013  0.9118800E+02  0.7816164E-02  0.1184000E+00
        -11   -1    0    0    0    0  0.00000000000E+00  0.00000000000E+00  0.45593999997E+02  0.45594000000E+02  0.51100000000E-03 0. -1.
         11   -1    0    0    0    0 -0.00000000000E+00 -0.00000000000E+00 -0.45593999997E+02  0.45594000000E+02  0.51100000000E-03 0.  1.
         23    2    1    2    0    0 -0.26645352591E-14 -0.71054273576E-14 -0.35527136788E-14  0.91188000000E+02  0.91188000000E+02 0.  0.
    9900012    2    3    3    0    0 -0.56417612537E+01 -0.34766868936E+02 -0.20312586788E+02  0.50528858006E+02  0.29999994397E+02 0.  0.
         12    1    3    3    0    0  0.56417612537E+01  0.34766868936E+02  0.20312586788E+02  0.40659141994E+02  0.00000000000E+00 0. -1.
         11    1    4    4    0    0 -0.52967927658E+01 -0.11827079261E+02  0.46461248140E+00  0.12967331355E+02  0.51100000000E-03 0. -1.
        -11    1    4    4    0    0 -0.99302192317E+01 -0.17401147106E+02 -0.11387105632E+02  0.23045072132E+02  0.51100000000E-03 0.  1.
        -12    1    4    4    0    0  0.95852507438E+01 -0.55386425684E+01 -0.93900936367E+01  0.14516454520E+02  0.00000000000E+00 0.  1.
</event>
<event>
 8    1  0.1338956E-013  0.9118800E+02  0.7816164E-02  0.1184000E+00
        -11   -1    0    0    0    0  0.00000000000E+00  0.00000000000E+00  0.45593999997E+02  0.45594000000E+02  0.51100000000E-03 0. -1.
         11   -1    0    0    0    0 -0.00000000000E+00 -0.00000000000E+00 -0.45593999997E+02  0.45594000000E+02  0.51100000000E-03 0.  1.
         23    2    1    2    0    0 -0.88817841970E-15  0.00000000000E+00  0.00000000000E+00  0.91188000000E+02  0.91188000000E+02 0.  0.
    9900012    2    3    3    0    0 -0.43185429810E+01  0.15239467475E+02  0.37446972665E+02  0.50528844276E+02  0.29999952662E+02 0.  0.
        -12    1    3    3    0    0  0.43185429810E+01 -0.15239467475E+02 -0.37446972665E+02  0.40659155724E+02  0.00000000000E+00 0.  1.
         11    1    4    4    0    0  0.92740278742E+00 -0.27341221974E+01  0.21737197981E+02  0.21928093316E+02  0.51100000000E-03 0. -1.
        -11    1    4    4    0    0  0.12007918664E+01 -0.91757480791E-01  0.77344063124E+01  0.78276025582E+01  0.51100000000E-03 0.  1.
         12    1    4    4    0    0 -0.64467376348E+01  0.18065347153E+02  0.79753683714E+01  0.20773148402E+02  0.00000000000E+00 0. -1.
</event>
<event>
 8    1  0.1338956E-013  0.9118800E+02  0.7816164E-02  0.1184000E+00
        -11   -1    0    0    0    0  0.00000000000E+00  0.00000000000E+00  0.45593999997E+02  0.45594000000E+02  0.51100000000E-03 0. -1.
         11   -1    0    0    0    0 -0.00000000000E+00 -0.00000000000E+00 -0.45593999997E+02  0.45594000000E+02  0.51100000000E-03 0.  1.
         23    2    1    2    0    0  0.00000000000E+00  0.00000000000E+00  0.00000000000E+00  0.91188000000E+02  0.91188000000E+02 0.  0.
    9900012    2    3    3    0    0 -0.57338649701E+01 -0.38572501721E+02 -0.11508698192E+02  0.50528865349E+02  0.30000016715E+02 0.  0.
         12    1    3    3    0    0  0.57338649701E+01  0.38572501721E+02  0.11508698192E+02  0.40659134651E+02  0.00000000000E+00 0. -1.
         11    1    4    4    0    0  0.52238193925E+00 -0.85825959337E+01  0.84382841870E+01  0.12047343115E+02  0.51100000000E-03 0. -1.
        -11    1    4    4    0    0  0.25259047536E+01 -0.17242628163E+02 -0.10766512043E+02  0.20484291607E+02  0.51100000000E-03 0.  1.
        -12    1    4    4    0    0 -0.87821516630E+01 -0.12747277624E+02 -0.91804703355E+01  0.17997230627E+02  0.00000000000E+00 0.  1.
</event>
<event>
 8    1  0.1338956E-013  0.9118800E+02  0.7816164E-02  0.1184000E+00
        -11   -1    0    0    0    0  0.00000000000E+00  0.00000000000E+00  0.45593999997E+02  0.45594000000E+02  0.51100000000E-03 0. -1.
         11   -1    0    0    0    0 -0.00000000000E+00 -0.00000000000E+00 -0.45593999997E+02  0.45594000000E+02  0.51100000000E-03 0.  1.
         23    2    1    2    0    0 -0.17763568394E-14 -0.71054273576E-14 -0.35527136788E-14  0.91188000000E+02  0.91188000000E+02 0.  0.
    9900012    2    3    3    0    0 -0.11116707031E+02 -0.35082914339E+02 -0.17285119622E+02  0.50528838498E+02  0.29999935098E+02 0.  0.
         12    1    3    3    0    0  0.11116707031E+02  0.35082914339E+02  0.17285119622E+02  0.40659161502E+02  0.00000000000E+00 0. -1.
         11    1    4    4    0    0  0.28871676550E+01  0.17690471072E+01  0.56574583642E+00  0.34329773300E+01  0.51100000000E-03 0. -1.
        -11    1    4    4    0    0 -0.36047910928E+01 -0.19284584099E+02 -0.18081301969E+02  0.26680014690E+02  0.51100000000E-03 0.  1.
        -12    1    4    4    0    0 -0.10399083593E+02 -0.17567377347E+02  0.23043651089E+00  0.20415846478E+02  0.00000000000E+00 0.  1.
</event>
<event>
 8    1  0.1338956E-013  0.9118800E+02  0.7816164E-02  0.1184000E+00
        -11   -1    0    0    0    0  0.00000000000E+00  0.00000000000E+00  0.45593999997E+02  0.45594000000E+02  0.51100000000E-03 0.  1.
         11   -1    0    0    0    0 -0.00000000000E+00 -0.00000000000E+00 -0.45593999997E+02  0.45594000000E+02  0.51100000000E-03 0. -1.
         23    2    1    2    0    0 -0.35527136788E-14  0.00000000000E+00  0.00000000000E+00  0.91188000000E+02  0.91188000000E+02 0.  0.
    9900012    2    3    3    0    0  0.25906974587E+02 -0.27945329178E+02  0.14179296413E+02  0.50528865702E+02  0.30000017787E+02 0.  0.
        -12    1    3    3    0    0 -0.25906974587E+02  0.27945329178E+02 -0.14179296413E+02  0.40659134298E+02  0.00000000000E+00 0.  1.
         11    1    4    4    0    0  0.43289910230E+01  0.12291322933E+01  0.11196951733E+02  0.12067421342E+02  0.51100000000E-03 0. -1.
        -11    1    4    4    0    0  0.37269740405E+00 -0.59286873444E+01  0.36819560727E+01  0.69889225039E+01  0.51100000000E-03 0.  1.
         12    1    4    4    0    0  0.21205286160E+02 -0.23245774127E+02 -0.69961139265E+00  0.31472521856E+02  0.00000000000E+00 0. -1.
</event>
<event>
 8    1  0.1338956E-013  0.9118800E+02  0.7816164E-02  0.1184000E+00
        -11   -1    0    0    0    0  0.00000000000E+00  0.00000000000E+00  0.45593999997E+02  0.45594000000E+02  0.51100000000E-03 0. -1.
         11   -1    0    0    0    0 -0.00000000000E+00 -0.00000000000E+00 -0.45593999997E+02  0.45594000000E+02  0.51100000000E-03 0.  1.
         23    2    1    2    0    0  0.35527136788E-14  0.35527136788E-14  0.00000000000E+00  0.91188000000E+02  0.91188000000E+02 0.  0.
    9900012    2    3    3    0    0 -0.24045983310E+02 -0.31477225383E+02 -0.91728192921E+01  0.50528860253E+02  0.30000001226E+02 0.  0.
         12    1    3    3    0    0  0.24045983310E+02  0.31477225383E+02  0.91728192921E+01  0.40659139747E+02  0.00000000000E+00 0. -1.
         11    1    4    4    0    0 -0.65845452687E+01 -0.85198317836E+01  0.22610174750E+01  0.11002543810E+02  0.51100000000E-03 0. -1.
        -11    1    4    4    0    0 -0.23433383234E+02 -0.18231548234E+02 -0.63270059801E+01  0.30356939992E+02  0.51100000000E-03 0.  1.
         12    1    4    4    0    0  0.59719451922E+01 -0.47258453660E+01 -0.51068307870E+01  0.91693764504E+01  0.00000000000E+00 0. -1.
</event>
<event>
 8    1  0.1338956E-013  0.9118800E+02  0.7816164E-02  0.1184000E+00
        -11   -1    0    0    0    0  0.00000000000E+00  0.00000000000E+00  0.45593999997E+02  0.45594000000E+02  0.51100000000E-03 0. -1.
         11   -1    0    0    0    0 -0.00000000000E+00 -0.00000000000E+00 -0.45593999997E+02  0.45594000000E+02  0.51100000000E-03 0.  1.
         23    2    1    2    0    0 -0.10658141036E-13 -0.88817841970E-15  0.35527136788E-14  0.91188000000E+02  0.91188000000E+02 0.  0.
    9900012    2    3    3    0    0  0.25732753168E+02  0.69798194595E+01 -0.30696456705E+02  0.50528869175E+02  0.30000028343E+02 0.  0.
         12    1    3    3    0    0 -0.25732753168E+02 -0.69798194595E+01  0.30696456705E+02  0.40659130825E+02  0.00000000000E+00 0. -1.
         11    1    4    4    0    0 -0.19705844622E+01  0.47471939498E+01 -0.44205641379E+01  0.67794130334E+01  0.51100000000E-03 0. -1.
        -11    1    4    4    0    0  0.26269392737E+02  0.59433795280E+01 -0.13031115797E+02  0.29920139274E+02  0.51100000000E-03 0.  1.
         12    1    4    4    0    0  0.14339448925E+01 -0.37107540183E+01 -0.13244776769E+02  0.13829316867E+02  0.00000000000E+00 0. -1.
</event>
<event>
 8    1  0.1338956E-013  0.9118800E+02  0.7816164E-02  0.1184000E+00
        -11   -1    0    0    0    0  0.00000000000E+00  0.00000000000E+00  0.45593999997E+02  0.45594000000E+02  0.51100000000E-03 0. -1.
         11   -1    0    0    0    0 -0.00000000000E+00 -0.00000000000E+00 -0.45593999997E+02  0.45594000000E+02  0.51100000000E-03 0.  1.
         23    2    1    2    0    0  0.00000000000E+00  0.00000000000E+00  0.00000000000E+00  0.91188000000E+02  0.91188000000E+02 0.  0.
    9900012    2    3    3    0    0 -0.24505660034E+02 -0.13160204602E+02  0.29655474233E+02  0.50528861902E+02  0.30000006239E+02 0.  0.
        -12    1    3    3    0    0  0.24505660034E+02  0.13160204602E+02 -0.29655474233E+02  0.40659138098E+02  0.00000000000E+00 0.  1.
         11    1    4    4    0    0 -0.72147790375E+01  0.58582101193E+00 -0.11086905044E+01  0.73229377788E+01  0.51100000000E-03 0. -1.
        -11    1    4    4    0    0 -0.89002670000E+00  0.41652934936E+01  0.33361193736E+00  0.42723663935E+01  0.51100000000E-03 0.  1.
         12    1    4    4    0    0 -0.16400854297E+02 -0.17911319108E+02  0.30430552800E+02  0.38933557730E+02  0.00000000000E+00 0. -1.
</event>
<event>
 8    1  0.1338956E-013  0.9118800E+02  0.7816164E-02  0.1184000E+00
        -11   -1    0    0    0    0  0.00000000000E+00  0.00000000000E+00  0.45593999997E+02  0.45594000000E+02  0.51100000000E-03 0. -1.
         11   -1    0    0    0    0 -0.00000000000E+00 -0.00000000000E+00 -0.45593999997E+02  0.45594000000E+02  0.51100000000E-03 0.  1.
         23    2    1    2    0    0  0.35527136788E-14  0.88817841970E-15  0.35527136788E-14  0.91188000000E+02  0.91188000000E+02 0.  0.
    9900012    2    3    3    0    0  0.29803845467E+02  0.71006734854E+01  0.26729674402E+02  0.50528877258E+02  0.30000052912E+02 0.  0.
        -12    1    3    3    0    0 -0.29803845467E+02 -0.71006734854E+01 -0.26729674402E+02  0.40659122742E+02  0.00000000000E+00 0.  1.
         11    1    4    4    0    0  0.20624369903E+02  0.88142524388E+01  0.14130744989E+02  0.26509123602E+02  0.51100000000E-03 0. -1.
        -11    1    4    4    0    0  0.14406649603E+02  0.12132381169E+01  0.87590853037E+01  0.16903995833E+02  0.51100000000E-03 0.  1.
        -12    1    4    4    0    0 -0.52271740392E+01 -0.29268170703E+01  0.38398441094E+01  0.71157578222E+01  0.00000000000E+00 0.  1.
</event>
<event>
 8    1  0.1338956E-013  0.9118800E+02  0.7816164E-02  0.1184000E+00
        -11   -1    0    0    0    0  0.00000000000E+00  0.00000000000E+00  0.45593999997E+02  0.45594000000E+02  0.51100000000E-03 0. -1.
         11   -1    0    0    0    0 -0.00000000000E+00 -0.00000000000E+00 -0.45593999997E+02  0.45594000000E+02  0.51100000000E-03 0.  1.
         23    2    1    2    0    0 -0.48572257327E-16  0.00000000000E+00 -0.14210854715E-13  0.91188000000E+02  0.91188000000E+02 0.  0.
    9900012    2    3    3    0    0  0.56671973771E-01 -0.29696057598E+01  0.40550514885E+02  0.50528855548E+02  0.29999986925E+02 0.  0.
        -12    1    3    3    0    0 -0.56671973771E-01  0.29696057598E+01 -0.40550514885E+02  0.40659144452E+02  0.00000000000E+00 0.  1.
         11    1    4    4    0    0 -0.55842532425E+01 -0.11932915725E+02  0.33617131711E+02  0.36106646296E+02  0.51100000000E-03 0. -1.
        -11    1    4    4    0    0  0.31605902023E+01  0.62517736914E+01  0.79630309590E+01  0.10605841175E+02  0.51100000000E-03 0.  1.
        -12    1    4    4    0    0  0.24803350140E+01  0.27115362734E+01 -0.10296477850E+01  0.38163680777E+01  0.00000000000E+00 0.  1.
</event>
<event>
 8    1  0.1338956E-013  0.9118800E+02  0.7816164E-02  0.1184000E+00
        -11   -1    0    0    0    0  0.00000000000E+00  0.00000000000E+00  0.45593999997E+02  0.45594000000E+02  0.51100000000E-03 0. -1.
         11   -1    0    0    0    0 -0.00000000000E+00 -0.00000000000E+00 -0.45593999997E+02  0.45594000000E+02  0.51100000000E-03 0.  1.
         23    2    1    2    0    0  0.00000000000E+00 -0.44408920985E-15  0.00000000000E+00  0.91188000000E+02  0.91188000000E+02 0.  0.
    9900012    2    3    3    0    0 -0.38211031077E+02 -0.34158403677E+01 -0.13469021403E+02  0.50528863279E+02  0.30000010422E+02 0.  0.
         12    1    3    3    0    0  0.38211031077E+02  0.34158403677E+01  0.13469021403E+02  0.40659136721E+02  0.00000000000E+00 0. -1.
         11    1    4    4    0    0 -0.22060301891E+02  0.41321046251E+01 -0.11195566815E+02  0.25081306280E+02  0.51100000000E-03 0. -1.
        -11    1    4    4    0    0  0.26004933696E+01  0.27402275858E+01 -0.14407358237E+01  0.40431587852E+01  0.51100000000E-03 0.  1.
        -12    1    4    4    0    0 -0.18751222556E+02 -0.10288172579E+02 -0.83271876442E+00  0.21404398214E+02  0.00000000000E+00 0.  1.
</event>
<event>
 8    1  0.1338956E-013  0.9118800E+02  0.7816164E-02  0.1184000E+00
        -11   -1    0    0    0    0  0.00000000000E+00  0.00000000000E+00  0.45593999997E+02  0.45594000000E+02  0.51100000000E-03 0. -1.
         11   -1    0    0    0    0 -0.00000000000E+00 -0.00000000000E+00 -0.45593999997E+02  0.45594000000E+02  0.51100000000E-03 0.  1.
         23    2    1    2    0    0  0.00000000000E+00  0.00000000000E+00  0.00000000000E+00  0.91188000000E+02  0.91188000000E+02 0.  0.
    9900012    2    3    3    0    0 -0.14617329318E+02  0.21918459287E+02 -0.30969030803E+02  0.50528855361E+02  0.29999986354E+02 0.  0.
         12    1    3    3    0    0  0.14617329318E+02 -0.21918459287E+02  0.30969030803E+02  0.40659144639E+02  0.00000000000E+00 0. -1.
         11    1    4    4    0    0 -0.10668084539E+01  0.67479891922E+01  0.30795738033E+01  0.74938116794E+01  0.51100000000E-03 0. -1.
        -11    1    4    4    0    0  0.18601224714E+01  0.78043033704E+01 -0.53666295792E+01  0.96523530813E+01  0.51100000000E-03 0.  1.
         12    1    4    4    0    0 -0.15410643336E+02  0.73661667245E+01 -0.28681975027E+02  0.33382690600E+02  0.00000000000E+00 0. -1.
</event>
<event>
 8    1  0.1338956E-013  0.9118800E+02  0.7816164E-02  0.1184000E+00
        -11   -1    0    0    0    0  0.00000000000E+00  0.00000000000E+00  0.45593999997E+02  0.45594000000E+02  0.51100000000E-03 0. -1.
         11   -1    0    0    0    0 -0.00000000000E+00 -0.00000000000E+00 -0.45593999997E+02  0.45594000000E+02  0.51100000000E-03 0.  1.
         23    2    1    2    0    0  0.00000000000E+00  0.00000000000E+00 -0.53290705182E-14  0.91188000000E+02  0.91188000000E+02 0.  0.
    9900012    2    3    3    0    0 -0.26640066183E+02 -0.26416007827E+02 -0.15673748557E+02  0.50528868313E+02  0.30000025723E+02 0.  0.
         12    1    3    3    0    0  0.26640066183E+02  0.26416007827E+02  0.15673748557E+02  0.40659131687E+02  0.00000000000E+00 0. -1.
         11    1    4    4    0    0 -0.76069508872E+01 -0.70756632753E+01 -0.19060270820E+01  0.10562369624E+02  0.51100000000E-03 0. -1.
        -11    1    4    4    0    0 -0.18917759014E+02 -0.20464660495E+02 -0.19570807949E+02  0.34054375039E+02  0.51100000000E-03 0.  1.
         12    1    4    4    0    0 -0.11535628214E+00  0.11243159441E+01  0.58030864739E+01  0.59121236487E+01  0.00000000000E+00 0. -1.
</event>
<event>
 8    1  0.1338956E-013  0.9118800E+02  0.7816164E-02  0.1184000E+00
        -11   -1    0    0    0    0  0.00000000000E+00  0.00000000000E+00  0.45593999997E+02  0.45594000000E+02  0.51100000000E-03 0. -1.
         11   -1    0    0    0    0 -0.00000000000E+00 -0.00000000000E+00 -0.45593999997E+02  0.45594000000E+02  0.51100000000E-03 0.  1.
         23    2    1    2    0    0 -0.17763568394E-14  0.00000000000E+00  0.00000000000E+00  0.91188000000E+02  0.91188000000E+02 0.  0.
    9900012    2    3    3    0    0  0.12384122049E+02  0.56564961708E+01 -0.38311921406E+02  0.50528858966E+02  0.29999997312E+02 0.  0.
         12    1    3    3    0    0 -0.12384122049E+02 -0.56564961708E+01  0.38311921406E+02  0.40659141034E+02  0.00000000000E+00 0. -1.
         11    1    4    4    0    0  0.10919018640E+02 -0.20471211432E+01 -0.14070584506E+02  0.17927549237E+02  0.51100000000E-03 0. -1.
        -11    1    4    4    0    0  0.10788107403E+02  0.44613259219E+01 -0.15585587303E+02  0.19472986986E+02  0.51100000000E-03 0.  1.
        -12    1    4    4    0    0 -0.93230039947E+01  0.32422913922E+01 -0.86557495967E+01  0.13128322743E+02  0.00000000000E+00 0.  1.
</event>
<event>
 8    1  0.1338956E-013  0.9118800E+02  0.7816164E-02  0.1184000E+00
        -11   -1    0    0    0    0  0.00000000000E+00  0.00000000000E+00  0.45593999997E+02  0.45594000000E+02  0.51100000000E-03 0. -1.
         11   -1    0    0    0    0 -0.00000000000E+00 -0.00000000000E+00 -0.45593999997E+02  0.45594000000E+02  0.51100000000E-03 0.  1.
         23    2    1    2    0    0  0.11102230246E-14  0.00000000000E+00  0.17763568394E-14  0.91188000000E+02  0.91188000000E+02 0.  0.
    9900012    2    3    3    0    0  0.12786223846E+01 -0.40041742501E+02 -0.69418187001E+01  0.50528869850E+02  0.30000030395E+02 0.  0.
         12    1    3    3    0    0 -0.12786223846E+01  0.40041742501E+02  0.69418187001E+01  0.40659130150E+02  0.00000000000E+00 0. -1.
         11    1    4    4    0    0  0.29980262936E+01 -0.13311132348E+02  0.54540113788E+01  0.14694238546E+02  0.51100000000E-03 0. -1.
        -11    1    4    4    0    0  0.75116820089E+01 -0.18223307797E+02 -0.25383865990E+01  0.19873543228E+02  0.51100000000E-03 0.  1.
         12    1    4    4    0    0 -0.92310859179E+01 -0.85073023559E+01 -0.98574434799E+01  0.15961088076E+02  0.00000000000E+00 0. -1.
</event>
<event>
 8    1  0.1338956E-013  0.9118800E+02  0.7816164E-02  0.1184000E+00
        -11   -1    0    0    0    0  0.00000000000E+00  0.00000000000E+00  0.45593999997E+02  0.45594000000E+02  0.51100000000E-03 0.  1.
         11   -1    0    0    0    0 -0.00000000000E+00 -0.00000000000E+00 -0.45593999997E+02  0.45594000000E+02  0.51100000000E-03 0. -1.
         23    2    1    2    0    0  0.00000000000E+00  0.00000000000E+00  0.00000000000E+00  0.91188000000E+02  0.91188000000E+02 0.  0.
    9900012    2    3    3    0    0  0.34206489176E+02 -0.15224648264E+02 -0.15852198841E+02  0.50528855585E+02  0.29999987036E+02 0.  0.
         12    1    3    3    0    0 -0.34206489176E+02  0.15224648264E+02  0.15852198841E+02  0.40659144415E+02  0.00000000000E+00 0. -1.
         11    1    4    4    0    0  0.95608254709E+01 -0.63014701377E+01 -0.13556365526E+02  0.17745223474E+02  0.51100000000E-03 0. -1.
        -11    1    4    4    0    0  0.14379337160E+02 -0.74783691387E+01 -0.10713971634E+02  0.19428858190E+02  0.51100000000E-03 0.  1.
        -12    1    4    4    0    0  0.10266326545E+02 -0.14448089871E+01  0.84181383192E+01  0.13354773921E+02  0.00000000000E+00 0.  1.
</event>
<event>
 8    1  0.1338956E-013  0.9118800E+02  0.7816164E-02  0.1184000E+00
        -11   -1    0    0    0    0  0.00000000000E+00  0.00000000000E+00  0.45593999997E+02  0.45594000000E+02  0.51100000000E-03 0. -1.
         11   -1    0    0    0    0 -0.00000000000E+00 -0.00000000000E+00 -0.45593999997E+02  0.45594000000E+02  0.51100000000E-03 0.  1.
         23    2    1    2    0    0  0.13322676296E-14  0.26645352591E-14  0.00000000000E+00  0.91188000000E+02  0.91188000000E+02 0.  0.
    9900012    2    3    3    0    0 -0.38154582242E+01  0.61224643451E+00 -0.40475079470E+02  0.50528872793E+02  0.30000039341E+02 0.  0.
         12    1    3    3    0    0  0.38154582242E+01 -0.61224643451E+00  0.40475079470E+02  0.40659127207E+02  0.00000000000E+00 0. -1.
         11    1    4    4    0    0 -0.67789842315E+01 -0.44724679885E+01 -0.26101056529E+01  0.85305479835E+01  0.51100000000E-03 0. -1.
        -11    1    4    4    0    0  0.66044612307E+00 -0.63342952640E+01 -0.10889539000E+02  0.12615131607E+02  0.51100000000E-03 0.  1.
        -12    1    4    4    0    0  0.23030798842E+01  0.11419009687E+02 -0.26975434817E+02  0.29383193202E+02  0.00000000000E+00 0.  1.
</event>
<event>
 8    1  0.1338956E-013  0.9118800E+02  0.7816164E-02  0.1184000E+00
        -11   -1    0    0    0    0  0.00000000000E+00  0.00000000000E+00  0.45593999997E+02  0.45594000000E+02  0.51100000000E-03 0. -1.
         11   -1    0    0    0    0 -0.00000000000E+00 -0.00000000000E+00 -0.45593999997E+02  0.45594000000E+02  0.51100000000E-03 0.  1.
         23    2    1    2    0    0 -0.17763568394E-14  0.88817841970E-15  0.00000000000E+00  0.91188000000E+02  0.91188000000E+02 0.  0.
    9900012    2    3    3    0    0  0.13090593910E+02 -0.53510409569E+01 -0.38120444664E+02  0.50528860934E+02  0.30000003295E+02 0.  0.
         12    1    3    3    0    0 -0.13090593910E+02  0.53510409569E+01  0.38120444664E+02  0.40659139066E+02  0.00000000000E+00 0. -1.
         11    1    4    4    0    0 -0.35124252795E+01  0.56193293941E+01 -0.35709473469E+01  0.75276596230E+01  0.51100000000E-03 0. -1.
        -11    1    4    4    0    0  0.88445666199E+01 -0.52319588816E+01 -0.41081515195E+01  0.11066917439E+02  0.51100000000E-03 0.  1.
        -12    1    4    4    0    0  0.77584525699E+01 -0.57384114694E+01 -0.30441345797E+02  0.31934283872E+02  0.00000000000E+00 0.  1.
</event>
<event>
 8    1  0.1338956E-013  0.9118800E+02  0.7816164E-02  0.1184000E+00
        -11   -1    0    0    0    0  0.00000000000E+00  0.00000000000E+00  0.45593999997E+02  0.45594000000E+02  0.51100000000E-03 0.  1.
         11   -1    0    0    0    0 -0.00000000000E+00 -0.00000000000E+00 -0.45593999997E+02  0.45594000000E+02  0.51100000000E-03 0. -1.
         23    2    1    2    0    0  0.00000000000E+00 -0.17763568394E-14  0.00000000000E+00  0.91188000000E+02  0.91188000000E+02 0.  0.
    9900012    2    3    3    0    0  0.38965679258E+02  0.53085843144E+01  0.10327710249E+02  0.50528845724E+02  0.29999957062E+02 0.  0.
        -12    1    3    3    0    0 -0.38965679258E+02 -0.53085843144E+01 -0.10327710249E+02  0.40659154276E+02  0.00000000000E+00 0.  1.
         11    1    4    4    0    0  0.74584576831E+01  0.20883381309E+01 -0.70311728491E+01  0.10460742758E+02  0.51100000000E-03 0. -1.
        -11    1    4    4    0    0  0.28978538315E+02  0.43125810257E+01  0.80835470192E+01  0.30392396593E+02  0.51100000000E-03 0.  1.
        -12    1    4    4    0    0  0.25286832603E+01 -0.10923348422E+01  0.92753360790E+01  0.96757063730E+01  0.00000000000E+00 0.  1.
</event>
<event>
 8    1  0.1338956E-013  0.9118800E+02  0.7816164E-02  0.1184000E+00
        -11   -1    0    0    0    0  0.00000000000E+00  0.00000000000E+00  0.45593999997E+02  0.45594000000E+02  0.51100000000E-03 0. -1.
         11   -1    0    0    0    0 -0.00000000000E+00 -0.00000000000E+00 -0.45593999997E+02  0.45594000000E+02  0.51100000000E-03 0.  1.
         23    2    1    2    0    0  0.00000000000E+00  0.44408920985E-15  0.00000000000E+00  0.91188000000E+02  0.91188000000E+02 0.  0.
    9900012    2    3    3    0    0  0.22222768717E+02 -0.36368748695E+01 -0.33853918465E+02  0.50528854612E+02  0.29999984077E+02 0.  0.
         12    1    3    3    0    0 -0.22222768717E+02  0.36368748695E+01  0.33853918465E+02  0.40659145388E+02  0.00000000000E+00 0. -1.
         11    1    4    4    0    0  0.70355536944E+01  0.62178215383E+01  0.37608273421E-01  0.93894480729E+01  0.51100000000E-03 0. -1.
        -11    1    4    4    0    0  0.91570524329E+01 -0.30036373720E+00 -0.57556787918E+01  0.10819873671E+02  0.51100000000E-03 0.  1.
        -12    1    4    4    0    0  0.60301625893E+01 -0.95543326706E+01 -0.28135847947E+02  0.30319532868E+02  0.00000000000E+00 0.  1.
</event>
<event>
 8    1  0.1338956E-013  0.9118800E+02  0.7816164E-02  0.1184000E+00
        -11   -1    0    0    0    0  0.00000000000E+00  0.00000000000E+00  0.45593999997E+02  0.45594000000E+02  0.51100000000E-03 0.  1.
         11   -1    0    0    0    0 -0.00000000000E+00 -0.00000000000E+00 -0.45593999997E+02  0.45594000000E+02  0.51100000000E-03 0. -1.
         23    2    1    2    0    0  0.17763568394E-14  0.00000000000E+00  0.00000000000E+00  0.91188000000E+02  0.91188000000E+02 0.  0.
    9900012    2    3    3    0    0 -0.12703739039E+02 -0.38446586705E+02  0.36933564962E+01  0.50528857153E+02  0.29999991803E+02 0.  0.
         12    1    3    3    0    0  0.12703739039E+02  0.38446586705E+02 -0.36933564962E+01  0.40659142847E+02  0.00000000000E+00 0. -1.
         11    1    4    4    0    0 -0.32682845196E+01 -0.12603362770E+02 -0.50449668240E+01  0.13963456855E+02  0.51100000000E-03 0.  1.
        -11    1    4    4    0    0 -0.80938301034E+01 -0.25288272157E+02 -0.11443850200E+01  0.26576614001E+02  0.51100000000E-03 0. -1.
        -12    1    4    4    0    0 -0.13416244156E+01 -0.55495177757E+00  0.98827083403E+01  0.99887862970E+01  0.00000000000E+00 0.  1.
</event>
<event>
 8    1  0.2191742E-013  0.9118800E+02  0.7816164E-02  0.1184000E+00
        -11   -1    0    0    0    0  0.00000000000E+00  0.00000000000E+00  0.45593999997E+02  0.45594000000E+02  0.51100000000E-03 0. -1.
         11   -1    0    0    0    0 -0.00000000000E+00 -0.00000000000E+00 -0.45593999997E+02  0.45594000000E+02  0.51100000000E-03 0.  1.
         23    2    1    2    0    0  0.44408920985E-15  0.35527136788E-14  0.00000000000E+00  0.91188000000E+02  0.91188000000E+02 0.  0.
    9900012    2    3    3    0    0 -0.15423668094E+01 -0.20065285786E+02 -0.35329441505E+02  0.50528880161E+02  0.30000061736E+02 0.  0.
         12    1    3    3    0    0  0.15423668094E+01  0.20065285786E+02  0.35329441505E+02  0.40659119839E+02  0.00000000000E+00 0. -1.
         11    1    4    4    0    0  0.22461906074E+01 -0.19969068600E+01 -0.10685524421E+02  0.11100155029E+02  0.51100000000E-03 0. -1.
        -11    1    4    4    0    0  0.26820776611E+01 -0.18093283995E+02 -0.26940106371E+02  0.32562705628E+02  0.51100000000E-03 0.  1.
         12    1    4    4    0    0 -0.64706350779E+01  0.24905069229E-01  0.22961892871E+01  0.68660195031E+01  0.00000000000E+00 0. -1.
</event>
<event>
 8    1  0.1338956E-013  0.9118800E+02  0.7816164E-02  0.1184000E+00
        -11   -1    0    0    0    0  0.00000000000E+00  0.00000000000E+00  0.45593999997E+02  0.45594000000E+02  0.51100000000E-03 0. -1.
         11   -1    0    0    0    0 -0.00000000000E+00 -0.00000000000E+00 -0.45593999997E+02  0.45594000000E+02  0.51100000000E-03 0.  1.
         23    2    1    2    0    0  0.00000000000E+00  0.88817841970E-15  0.71054273576E-14  0.91188000000E+02  0.91188000000E+02 0.  0.
    9900012    2    3    3    0    0 -0.73930014761E+01 -0.79852404020E+01  0.39175824296E+02  0.50528859031E+02  0.29999997510E+02 0.  0.
        -12    1    3    3    0    0  0.73930014761E+01  0.79852404020E+01 -0.39175824296E+02  0.40659140969E+02  0.00000000000E+00 0.  1.
         11    1    4    4    0    0 -0.19273297886E-01  0.39581426631E+01  0.27308257700E+02  0.27593626142E+02  0.51100000000E-03 0. -1.
        -11    1    4    4    0    0 -0.43051050590E+01  0.17218733941E+01  0.63936930389E+01  0.78979800260E+01  0.51100000000E-03 0.  1.
        -12    1    4    4    0    0 -0.30686231192E+01 -0.13665256459E+02  0.54738735574E+01  0.15037252863E+02  0.00000000000E+00 0.  1.
</event>
<event>
 8    1  0.1338956E-013  0.9118800E+02  0.7816164E-02  0.1184000E+00
        -11   -1    0    0    0    0  0.00000000000E+00  0.00000000000E+00  0.45593999997E+02  0.45594000000E+02  0.51100000000E-03 0. -1.
         11   -1    0    0    0    0 -0.00000000000E+00 -0.00000000000E+00 -0.45593999997E+02  0.45594000000E+02  0.51100000000E-03 0.  1.
         23    2    1    2    0    0  0.00000000000E+00  0.13322676296E-14  0.00000000000E+00  0.91188000000E+02  0.91188000000E+02 0.  0.
    9900012    2    3    3    0    0  0.20676132876E+02  0.39040472206E+01  0.34791118162E+02  0.50528856399E+02  0.29999989511E+02 0.  0.
        -12    1    3    3    0    0 -0.20676132876E+02 -0.39040472206E+01 -0.34791118162E+02  0.40659143601E+02  0.00000000000E+00 0.  1.
         11    1    4    4    0    0  0.30440997488E+01  0.76451258495E+01 -0.65753146688E+00  0.82551099584E+01  0.51100000000E-03 0. -1.
        -11    1    4    4    0    0 -0.18793257525E+00  0.18005023065E+01  0.12799036896E+02  0.12926425373E+02  0.51100000000E-03 0.  1.
         12    1    4    4    0    0  0.17819965702E+02 -0.55415809354E+01  0.22649612733E+02  0.29347321067E+02  0.00000000000E+00 0. -1.
</event>
<event>
 8    1  0.1338956E-013  0.9118800E+02  0.7816164E-02  0.1184000E+00
        -11   -1    0    0    0    0  0.00000000000E+00  0.00000000000E+00  0.45593999997E+02  0.45594000000E+02  0.51100000000E-03 0. -1.
         11   -1    0    0    0    0 -0.00000000000E+00 -0.00000000000E+00 -0.45593999997E+02  0.45594000000E+02  0.51100000000E-03 0.  1.
         23    2    1    2    0    0  0.00000000000E+00  0.00000000000E+00  0.00000000000E+00  0.91188000000E+02  0.91188000000E+02 0.  0.
    9900012    2    3    3    0    0 -0.19035485381E+02 -0.32280353404E+02 -0.15773210764E+02  0.50528866987E+02  0.30000021694E+02 0.  0.
         12    1    3    3    0    0  0.19035485381E+02  0.32280353404E+02  0.15773210764E+02  0.40659133013E+02  0.00000000000E+00 0. -1.
         11    1    4    4    0    0 -0.12487848275E+02 -0.19026633212E+02 -0.67329934490E+01  0.23733780292E+02  0.51100000000E-03 0. -1.
        -11    1    4    4    0    0 -0.11411914948E+02 -0.13811143428E+02 -0.11526853152E+02  0.21303704594E+02  0.51100000000E-03 0.  1.
        -12    1    4    4    0    0  0.48642778419E+01  0.55742323613E+00  0.24866358375E+01  0.54913821007E+01  0.00000000000E+00 0.  1.
</event>
<event>
 8    1  0.1338956E-013  0.9118800E+02  0.7816164E-02  0.1184000E+00
        -11   -1    0    0    0    0  0.00000000000E+00  0.00000000000E+00  0.45593999997E+02  0.45594000000E+02  0.51100000000E-03 0. -1.
         11   -1    0    0    0    0 -0.00000000000E+00 -0.00000000000E+00 -0.45593999997E+02  0.45594000000E+02  0.51100000000E-03 0.  1.
         23    2    1    2    0    0 -0.26645352591E-14 -0.17763568394E-14  0.00000000000E+00  0.91188000000E+02  0.91188000000E+02 0.  0.
    9900012    2    3    3    0    0 -0.71684424590E+01 -0.12789209042E+02 -0.37923816038E+02  0.50528852713E+02  0.29999978306E+02 0.  0.
         12    1    3    3    0    0  0.71684424590E+01  0.12789209042E+02  0.37923816038E+02  0.40659147287E+02  0.00000000000E+00 0. -1.
         11    1    4    4    0    0  0.49425248946E+01 -0.32648512584E+01 -0.34436621392E+01  0.68517600121E+01  0.51100000000E-03 0. -1.
        -11    1    4    4    0    0  0.48452137661E+01 -0.76613710938E+01 -0.16922105631E+02  0.19197144650E+02  0.51100000000E-03 0.  1.
        -12    1    4    4    0    0 -0.16956181120E+02 -0.18629866898E+01 -0.17558048269E+02  0.24479948051E+02  0.00000000000E+00 0.  1.
</event>
<event>
 8    1  0.1338956E-013  0.9118800E+02  0.7816164E-02  0.1184000E+00
        -11   -1    0    0    0    0  0.00000000000E+00  0.00000000000E+00  0.45593999997E+02  0.45594000000E+02  0.51100000000E-03 0. -1.
         11   -1    0    0    0    0 -0.00000000000E+00 -0.00000000000E+00 -0.45593999997E+02  0.45594000000E+02  0.51100000000E-03 0.  1.
         23    2    1    2    0    0 -0.35527136788E-14  0.53290705182E-14  0.00000000000E+00  0.91188000000E+02  0.91188000000E+02 0.  0.
    9900012    2    3    3    0    0  0.11924509548E+02 -0.11737472361E+02  0.37056717179E+02  0.50528899254E+02  0.30000119772E+02 0.  0.
        -12    1    3    3    0    0 -0.11924509548E+02  0.11737472361E+02 -0.37056717179E+02  0.40659100746E+02  0.00000000000E+00 0.  1.
         11    1    4    4    0    0  0.45030761661E+01 -0.18016137140E+02  0.16202546086E+02  0.24645108892E+02  0.51100000000E-03 0. -1.
        -11    1    4    4    0    0 -0.11541146310E+01 -0.12879316929E+01  0.98918597040E+01  0.10041894109E+02  0.51100000000E-03 0.  1.
         12    1    4    4    0    0  0.85755480131E+01  0.75665964714E+01  0.10962311389E+02  0.15841896253E+02  0.00000000000E+00 0. -1.
</event>
<event>
 8    1  0.1338956E-013  0.9118800E+02  0.7816164E-02  0.1184000E+00
        -11   -1    0    0    0    0  0.00000000000E+00  0.00000000000E+00  0.45593999997E+02  0.45594000000E+02  0.51100000000E-03 0. -1.
         11   -1    0    0    0    0 -0.00000000000E+00 -0.00000000000E+00 -0.45593999997E+02  0.45594000000E+02  0.51100000000E-03 0.  1.
         23    2    1    2    0    0  0.00000000000E+00  0.00000000000E+00  0.71054273576E-14  0.91188000000E+02  0.91188000000E+02 0.  0.
    9900012    2    3    3    0    0 -0.81248056575E+01  0.32394959054E+01  0.39707165374E+02  0.50528858559E+02  0.29999996076E+02 0.  0.
        -12    1    3    3    0    0  0.81248056575E+01 -0.32394959054E+01 -0.39707165374E+02  0.40659141441E+02  0.00000000000E+00 0.  1.
         11    1    4    4    0    0 -0.10718141601E+02  0.36784351434E+00  0.95967774268E+01  0.14391386502E+02  0.51100000000E-03 0. -1.
        -11    1    4    4    0    0 -0.73845398484E+01 -0.26908179569E+01  0.78028043659E+01  0.11075002767E+02  0.51100000000E-03 0.  1.
        -12    1    4    4    0    0  0.99778757914E+01  0.55624703479E+01  0.22307583581E+02  0.25062469290E+02  0.00000000000E+00 0.  1.
</event>
<event>
 8    1  0.1338956E-013  0.9118800E+02  0.7816164E-02  0.1184000E+00
        -11   -1    0    0    0    0  0.00000000000E+00  0.00000000000E+00  0.45593999997E+02  0.45594000000E+02  0.51100000000E-03 0. -1.
         11   -1    0    0    0    0 -0.00000000000E+00 -0.00000000000E+00 -0.45593999997E+02  0.45594000000E+02  0.51100000000E-03 0.  1.
         23    2    1    2    0    0  0.00000000000E+00  0.00000000000E+00  0.00000000000E+00  0.91188000000E+02  0.91188000000E+02 0.  0.
    9900012    2    3    3    0    0  0.33316966760E+02  0.58329335622E+01  0.22563738749E+02  0.50528859646E+02  0.29999999379E+02 0.  0.
        -12    1    3    3    0    0 -0.33316966760E+02 -0.58329335622E+01 -0.22563738749E+02  0.40659140354E+02  0.00000000000E+00 0.  1.
         11    1    4    4    0    0  0.16800829356E+02  0.60813852686E+01  0.22657844750E+02  0.28855312211E+02  0.51100000000E-03 0. -1.
        -11    1    4    4    0    0  0.14178022856E+02 -0.55235749882E+01 -0.25036379728E+01  0.15420584169E+02  0.51100000000E-03 0.  1.
         12    1    4    4    0    0  0.23381145481E+01  0.52751232818E+01  0.24095319717E+01  0.62529632656E+01  0.00000000000E+00 0. -1.
</event>
<event>
 8    1  0.1338956E-013  0.9118800E+02  0.7816164E-02  0.1184000E+00
        -11   -1    0    0    0    0  0.00000000000E+00  0.00000000000E+00  0.45593999997E+02  0.45594000000E+02  0.51100000000E-03 0. -1.
         11   -1    0    0    0    0 -0.00000000000E+00 -0.00000000000E+00 -0.45593999997E+02  0.45594000000E+02  0.51100000000E-03 0.  1.
         23    2    1    2    0    0  0.00000000000E+00  0.44408920985E-15  0.00000000000E+00  0.91188000000E+02  0.91188000000E+02 0.  0.
    9900012    2    3    3    0    0 -0.11552599299E+02  0.24816192052E+01  0.38904306906E+02  0.50528854900E+02  0.29999984953E+02 0.  0.
        -12    1    3    3    0    0  0.11552599299E+02 -0.24816192052E+01 -0.38904306906E+02  0.40659145100E+02  0.00000000000E+00 0.  1.
         11    1    4    4    0    0 -0.46767886426E+01 -0.29925066915E+01  0.19253019034E+01  0.58765837004E+01  0.51100000000E-03 0. -1.
        -11    1    4    4    0    0 -0.93846223202E+01  0.58706310707E+01  0.43011129571E+01  0.11875816527E+02  0.51100000000E-03 0.  1.
         12    1    4    4    0    0  0.25088116637E+01 -0.39650517391E+00  0.32677892046E+02  0.32776454672E+02  0.00000000000E+00 0. -1.
</event>
<event>
 8    1  0.1338956E-013  0.9118800E+02  0.7816164E-02  0.1184000E+00
        -11   -1    0    0    0    0  0.00000000000E+00  0.00000000000E+00  0.45593999997E+02  0.45594000000E+02  0.51100000000E-03 0. -1.
         11   -1    0    0    0    0 -0.00000000000E+00 -0.00000000000E+00 -0.45593999997E+02  0.45594000000E+02  0.51100000000E-03 0.  1.
         23    2    1    2    0    0  0.00000000000E+00  0.00000000000E+00  0.00000000000E+00  0.91188000000E+02  0.91188000000E+02 0.  0.
    9900012    2    3    3    0    0  0.14270884236E+02  0.16690737100E+02  0.34218805813E+02  0.50528861875E+02  0.30000006155E+02 0.  0.
        -12    1    3    3    0    0 -0.14270884236E+02 -0.16690737100E+02 -0.34218805813E+02  0.40659138125E+02  0.00000000000E+00 0.  1.
         11    1    4    4    0    0  0.60910062177E+01  0.11684431128E+02  0.27426927121E+02  0.30427990717E+02  0.51100000000E-03 0. -1.
        -11    1    4    4    0    0 -0.41329591592E+01 -0.10635171867E+01 -0.90525227418E+00  0.43625568373E+01  0.51100000000E-03 0.  1.
         12    1    4    4    0    0  0.12312837177E+02  0.60698231595E+01  0.76971309663E+01  0.15738314321E+02  0.00000000000E+00 0. -1.
</event>
<event>
 8    1  0.1338956E-013  0.9118800E+02  0.7816164E-02  0.1184000E+00
        -11   -1    0    0    0    0  0.00000000000E+00  0.00000000000E+00  0.45593999997E+02  0.45594000000E+02  0.51100000000E-03 0.  1.
         11   -1    0    0    0    0 -0.00000000000E+00 -0.00000000000E+00 -0.45593999997E+02  0.45594000000E+02  0.51100000000E-03 0. -1.
         23    2    1    2    0    0  0.88817841970E-15  0.00000000000E+00 -0.17763568394E-14  0.91188000000E+02  0.91188000000E+02 0.  0.
    9900012    2    3    3    0    0  0.34019316352E+01  0.39102081466E+02 -0.10612243491E+02  0.50528860490E+02  0.30000001944E+02 0.  0.
         12    1    3    3    0    0 -0.34019316352E+01 -0.39102081466E+02  0.10612243491E+02  0.40659139510E+02  0.00000000000E+00 0. -1.
         11    1    4    4    0    0  0.30598899319E+01 -0.13295880187E+01  0.35782972483E+01  0.48923350409E+01  0.51100000000E-03 0. -1.
        -11    1    4    4    0    0  0.41267859896E+01  0.37725593588E+01 -0.53467494837E+01  0.77362973716E+01  0.51100000000E-03 0.  1.
        -12    1    4    4    0    0 -0.37847442863E+01  0.36659110126E+02 -0.88437912561E+01  0.37900228077E+02  0.00000000000E+00 0.  1.
</event>
<event>
 8    1  0.1338956E-013  0.9118800E+02  0.7816164E-02  0.1184000E+00
        -11   -1    0    0    0    0  0.00000000000E+00  0.00000000000E+00  0.45593999997E+02  0.45594000000E+02  0.51100000000E-03 0. -1.
         11   -1    0    0    0    0 -0.00000000000E+00 -0.00000000000E+00 -0.45593999997E+02  0.45594000000E+02  0.51100000000E-03 0.  1.
         23    2    1    2    0    0  0.00000000000E+00  0.35527136788E-14 -0.17763568394E-14  0.91188000000E+02  0.91188000000E+02 0.  0.
    9900012    2    3    3    0    0  0.33113434188E+02 -0.19346311050E+02  0.13505046450E+02  0.50528861365E+02  0.30000004604E+02 0.  0.
        -12    1    3    3    0    0 -0.33113434188E+02  0.19346311050E+02 -0.13505046450E+02  0.40659138635E+02  0.00000000000E+00 0.  1.
         11    1    4    4    0    0  0.73517779642E+00 -0.51741301578E+01 -0.57009117648E+00  0.52571012443E+01  0.51100000000E-03 0. -1.
        -11    1    4    4    0    0 -0.24423677080E+01  0.32001840898E+01  0.49257662857E+00  0.40557330072E+01  0.51100000000E-03 0.  1.
         12    1    4    4    0    0  0.34820624099E+02 -0.17372364982E+02  0.13582560998E+02  0.41216027113E+02  0.00000000000E+00 0. -1.
</event>
<event>
 8    1  0.1338956E-013  0.9118800E+02  0.7816164E-02  0.1184000E+00
        -11   -1    0    0    0    0  0.00000000000E+00  0.00000000000E+00  0.45593999997E+02  0.45594000000E+02  0.51100000000E-03 0. -1.
         11   -1    0    0    0    0 -0.00000000000E+00 -0.00000000000E+00 -0.45593999997E+02  0.45594000000E+02  0.51100000000E-03 0.  1.
         23    2    1    2    0    0  0.00000000000E+00  0.00000000000E+00  0.00000000000E+00  0.91188000000E+02  0.91188000000E+02 0.  0.
    9900012    2    3    3    0    0  0.30227276392E+02 -0.25180325219E+02 -0.10267838349E+02  0.50528861783E+02  0.30000005875E+02 0.  0.
         12    1    3    3    0    0 -0.30227276392E+02  0.25180325219E+02  0.10267838349E+02  0.40659138217E+02  0.00000000000E+00 0. -1.
         11    1    4    4    0    0  0.77880192633E+01 -0.54198569950E+01  0.41497334144E+01  0.10356079449E+02  0.51100000000E-03 0. -1.
        -11    1    4    4    0    0  0.11057704270E+01  0.42847169281E+01  0.97715768739E+00  0.45317066099E+01  0.51100000000E-03 0.  1.
        -12    1    4    4    0    0  0.21333486702E+02 -0.24045185152E+02 -0.15394729451E+02  0.35641075723E+02  0.00000000000E+00 0.  1.
</event>
<event>
 8    1  0.1338956E-013  0.9118800E+02  0.7816164E-02  0.1184000E+00
        -11   -1    0    0    0    0  0.00000000000E+00  0.00000000000E+00  0.45593999997E+02  0.45594000000E+02  0.51100000000E-03 0. -1.
         11   -1    0    0    0    0 -0.00000000000E+00 -0.00000000000E+00 -0.45593999997E+02  0.45594000000E+02  0.51100000000E-03 0.  1.
         23    2    1    2    0    0 -0.17763568394E-14  0.00000000000E+00  0.35527136788E-14  0.91188000000E+02  0.91188000000E+02 0.  0.
    9900012    2    3    3    0    0 -0.14508081369E+02  0.20671040260E+02 -0.31865161926E+02  0.50528869721E+02  0.30000030005E+02 0.  0.
         12    1    3    3    0    0  0.14508081369E+02 -0.20671040260E+02  0.31865161926E+02  0.40659130279E+02  0.00000000000E+00 0. -1.
         11    1    4    4    0    0 -0.11910274493E+00 -0.25414477459E+01  0.41619304148E+00  0.25780533388E+01  0.51100000000E-03 0. -1.
        -11    1    4    4    0    0 -0.26559672502E+01 -0.16110746621E+01  0.22488449630E+01  0.38349742541E+01  0.51100000000E-03 0.  1.
        -12    1    4    4    0    0 -0.11733011374E+02  0.24823562668E+02 -0.34530199931E+02  0.44115842128E+02  0.00000000000E+00 0.  1.
</event>
<event>
 8    1  0.1338956E-013  0.9118800E+02  0.7816164E-02  0.1184000E+00
        -11   -1    0    0    0    0  0.00000000000E+00  0.00000000000E+00  0.45593999997E+02  0.45594000000E+02  0.51100000000E-03 0. -1.
         11   -1    0    0    0    0 -0.00000000000E+00 -0.00000000000E+00 -0.45593999997E+02  0.45594000000E+02  0.51100000000E-03 0.  1.
         23    2    1    2    0    0  0.00000000000E+00  0.88817841970E-15  0.00000000000E+00  0.91188000000E+02  0.91188000000E+02 0.  0.
    9900012    2    3    3    0    0  0.20001625512E+02  0.39821919122E+01 -0.35174472522E+02  0.50528851058E+02  0.29999973274E+02 0.  0.
         12    1    3    3    0    0 -0.20001625512E+02 -0.39821919122E+01  0.35174472522E+02  0.40659148942E+02  0.00000000000E+00 0. -1.
         11    1    4    4    0    0  0.73285407055E+01 -0.77132327483E+01 -0.14278822815E+02  0.17806915778E+02  0.51100000000E-03 0.  1.
        -11    1    4    4    0    0  0.99940860310E+00 -0.37230151542E+01 -0.95540759371E+01  0.10302428193E+02  0.51100000000E-03 0. -1.
         12    1    4    4    0    0  0.11673676204E+02  0.15418439815E+02 -0.11341573770E+02  0.22419507086E+02  0.00000000000E+00 0. -1.
</event>
<event>
 8    1  0.1338956E-013  0.9118800E+02  0.7816164E-02  0.1184000E+00
        -11   -1    0    0    0    0  0.00000000000E+00  0.00000000000E+00  0.45593999997E+02  0.45594000000E+02  0.51100000000E-03 0. -1.
         11   -1    0    0    0    0 -0.00000000000E+00 -0.00000000000E+00 -0.45593999997E+02  0.45594000000E+02  0.51100000000E-03 0.  1.
         23    2    1    2    0    0 -0.17763568394E-14 -0.17763568394E-14 -0.71054273576E-14  0.91188000000E+02  0.91188000000E+02 0.  0.
    9900012    2    3    3    0    0 -0.11258399587E+02 -0.15786162533E+02 -0.35738095829E+02  0.50528856105E+02  0.29999988617E+02 0.  0.
         12    1    3    3    0    0  0.11258399587E+02  0.15786162533E+02  0.35738095829E+02  0.40659143895E+02  0.00000000000E+00 0. -1.
         11    1    4    4    0    0  0.16040414934E+01 -0.13792496924E+01 -0.50537934202E+01  0.54786957410E+01  0.51100000000E-03 0. -1.
        -11    1    4    4    0    0 -0.12395008680E+02 -0.12997047198E+02 -0.35622247236E+02  0.39893658324E+02  0.51100000000E-03 0.  1.
         12    1    4    4    0    0 -0.46743240051E+00 -0.14098656428E+01  0.49379448269E+01  0.51565020405E+01  0.00000000000E+00 0. -1.
</event>
<event>
 8    1  0.1338956E-013  0.9118800E+02  0.7816164E-02  0.1184000E+00
        -11   -1    0    0    0    0  0.00000000000E+00  0.00000000000E+00  0.45593999997E+02  0.45594000000E+02  0.51100000000E-03 0. -1.
         11   -1    0    0    0    0 -0.00000000000E+00 -0.00000000000E+00 -0.45593999997E+02  0.45594000000E+02  0.51100000000E-03 0.  1.
         23    2    1    2    0    0  0.00000000000E+00  0.88817841970E-15  0.00000000000E+00  0.91188000000E+02  0.91188000000E+02 0.  0.
    9900012    2    3    3    0    0  0.10871639839E+02  0.46653688253E+01  0.38899958505E+02  0.50528868298E+02  0.30000025678E+02 0.  0.
        -12    1    3    3    0    0 -0.10871639839E+02 -0.46653688253E+01 -0.38899958505E+02  0.40659131702E+02  0.00000000000E+00 0.  1.
         11    1    4    4    0    0  0.12511439528E+01 -0.30546569397E+00 -0.20760537333E+00  0.13045193495E+01  0.51100000000E-03 0. -1.
        -11    1    4    4    0    0  0.10385567138E+02  0.14683060423E+02  0.15711838935E+02  0.23881251038E+02  0.51100000000E-03 0.  1.
         12    1    4    4    0    0 -0.76507125212E+00 -0.97122259039E+01  0.23395724944E+02  0.25343097910E+02  0.00000000000E+00 0. -1.
</event>
<event>
 8    1  0.1338956E-013  0.9118800E+02  0.7816164E-02  0.1184000E+00
        -11   -1    0    0    0    0  0.00000000000E+00  0.00000000000E+00  0.45593999997E+02  0.45594000000E+02  0.51100000000E-03 0. -1.
         11   -1    0    0    0    0 -0.00000000000E+00 -0.00000000000E+00 -0.45593999997E+02  0.45594000000E+02  0.51100000000E-03 0.  1.
         23    2    1    2    0    0  0.00000000000E+00  0.35527136788E-14  0.00000000000E+00  0.91188000000E+02  0.91188000000E+02 0.  0.
    9900012    2    3    3    0    0  0.11379075806E+02  0.22519212747E+02 -0.31883638355E+02  0.50528871828E+02  0.30000036409E+02 0.  0.
         12    1    3    3    0    0 -0.11379075806E+02 -0.22519212747E+02  0.31883638355E+02  0.40659128172E+02  0.00000000000E+00 0. -1.
         11    1    4    4    0    0  0.71515820894E+01  0.52716851699E+01 -0.13980077022E+02  0.16564369735E+02  0.51100000000E-03 0. -1.
        -11    1    4    4    0    0  0.83229124185E+01  0.48352547502E+01  0.23048098155E+01  0.98976112356E+01  0.51100000000E-03 0.  1.
         12    1    4    4    0    0 -0.40954187023E+01  0.12412272827E+02 -0.20208371148E+02  0.24066890857E+02  0.00000000000E+00 0. -1.
</event>
<event>
 8    1  0.1338956E-013  0.9118800E+02  0.7816164E-02  0.1184000E+00
        -11   -1    0    0    0    0  0.00000000000E+00  0.00000000000E+00  0.45593999997E+02  0.45594000000E+02  0.51100000000E-03 0.  1.
         11   -1    0    0    0    0 -0.00000000000E+00 -0.00000000000E+00 -0.45593999997E+02  0.45594000000E+02  0.51100000000E-03 0. -1.
         23    2    1    2    0    0  0.35527136788E-14  0.00000000000E+00  0.00000000000E+00  0.91188000000E+02  0.91188000000E+02 0.  0.
    9900012    2    3    3    0    0 -0.16598609066E+02 -0.37032550638E+02 -0.24982188872E+01  0.50528871538E+02  0.30000035528E+02 0.  0.
        -12    1    3    3    0    0  0.16598609066E+02  0.37032550638E+02  0.24982188872E+01  0.40659128462E+02  0.00000000000E+00 0.  1.
         11    1    4    4    0    0 -0.13083206178E+02 -0.21660479288E+02  0.43070482149E+01  0.25668995139E+02  0.51100000000E-03 0. -1.
        -11    1    4    4    0    0 -0.26805496379E+01 -0.17590108136E+02 -0.14848284349E+00  0.17793799426E+02  0.51100000000E-03 0.  1.
        -12    1    4    4    0    0 -0.83485324932E+00  0.22180367853E+01 -0.66567842586E+01  0.70660769734E+01  0.00000000000E+00 0.  1.
</event>
<event>
 8    1  0.1338956E-013  0.9118800E+02  0.7816164E-02  0.1184000E+00
        -11   -1    0    0    0    0  0.00000000000E+00  0.00000000000E+00  0.45593999997E+02  0.45594000000E+02  0.51100000000E-03 0. -1.
         11   -1    0    0    0    0 -0.00000000000E+00 -0.00000000000E+00 -0.45593999997E+02  0.45594000000E+02  0.51100000000E-03 0.  1.
         23    2    1    2    0    0 -0.17763568394E-14 -0.35527136788E-14  0.71054273576E-14  0.91188000000E+02  0.91188000000E+02 0.  0.
    9900012    2    3    3    0    0  0.10055681268E+02  0.19219843318E+02 -0.34389626030E+02  0.50528862264E+02  0.30000007338E+02 0.  0.
         12    1    3    3    0    0 -0.10055681268E+02 -0.19219843318E+02  0.34389626030E+02  0.40659137736E+02  0.00000000000E+00 0. -1.
         11    1    4    4    0    0  0.62019320869E+01  0.90386067551E+01 -0.15221824991E+02  0.18758047074E+02  0.51100000000E-03 0. -1.
        -11    1    4    4    0    0 -0.31119699603E+00  0.14440075387E+02 -0.21045496655E+02  0.25524998541E+02  0.51100000000E-03 0.  1.
         12    1    4    4    0    0  0.41649461776E+01 -0.42588388244E+01  0.18776956167E+01  0.62458166498E+01  0.00000000000E+00 0. -1.
</event>
<event>
 8    1  0.1338956E-013  0.9118800E+02  0.7816164E-02  0.1184000E+00
        -11   -1    0    0    0    0  0.00000000000E+00  0.00000000000E+00  0.45593999997E+02  0.45594000000E+02  0.51100000000E-03 0.  1.
         11   -1    0    0    0    0 -0.00000000000E+00 -0.00000000000E+00 -0.45593999997E+02  0.45594000000E+02  0.51100000000E-03 0. -1.
         23    2    1    2    0    0  0.00000000000E+00  0.00000000000E+00  0.35527136788E-14  0.91188000000E+02  0.91188000000E+02 0.  0.
    9900012    2    3    3    0    0  0.10859531996E+02  0.29600339754E+02 -0.25672084695E+02  0.50528862265E+02  0.30000007342E+02 0.  0.
         12    1    3    3    0    0 -0.10859531996E+02 -0.29600339754E+02  0.25672084695E+02  0.40659137735E+02  0.00000000000E+00 0. -1.
         11    1    4    4    0    0  0.26037732985E+01  0.11452417862E+02 -0.13150815400E+01  0.11818077255E+02  0.51100000000E-03 0. -1.
        -11    1    4    4    0    0 -0.17589351722E+01  0.14574506997E+02 -0.23923828759E+02  0.28068838414E+02  0.51100000000E-03 0.  1.
         12    1    4    4    0    0  0.10014693870E+02  0.35734148947E+01 -0.43317439623E+00  0.10641946597E+02  0.00000000000E+00 0. -1.
</event>
<event>
 8    1  0.1338956E-013  0.9118800E+02  0.7816164E-02  0.1184000E+00
        -11   -1    0    0    0    0  0.00000000000E+00  0.00000000000E+00  0.45593999997E+02  0.45594000000E+02  0.51100000000E-03 0. -1.
         11   -1    0    0    0    0 -0.00000000000E+00 -0.00000000000E+00 -0.45593999997E+02  0.45594000000E+02  0.51100000000E-03 0.  1.
         23    2    1    2    0    0 -0.17763568394E-14 -0.35527136788E-14  0.00000000000E+00  0.91188000000E+02  0.91188000000E+02 0.  0.
    9900012    2    3    3    0    0  0.88740102093E+01  0.25877128877E+02  0.30079749413E+02  0.50528865960E+02  0.30000018572E+02 0.  0.
        -12    1    3    3    0    0 -0.88740102093E+01 -0.25877128877E+02 -0.30079749413E+02  0.40659134040E+02  0.00000000000E+00 0.  1.
         11    1    4    4    0    0  0.10106129951E+02  0.15939674685E+02  0.15226635127E+02  0.24249897096E+02  0.51100000000E-03 0. -1.
        -11    1    4    4    0    0  0.26937432455E+01  0.84304673169E+01 -0.18610528660E+01  0.90439233680E+01  0.51100000000E-03 0.  1.
         12    1    4    4    0    0 -0.39258629870E+01  0.15069868757E+01  0.16714167152E+02  0.17235045496E+02  0.00000000000E+00 0. -1.
</event>
<event>
 8    1  0.1338956E-013  0.9118800E+02  0.7816164E-02  0.1184000E+00
        -11   -1    0    0    0    0  0.00000000000E+00  0.00000000000E+00  0.45593999997E+02  0.45594000000E+02  0.51100000000E-03 0. -1.
         11   -1    0    0    0    0 -0.00000000000E+00 -0.00000000000E+00 -0.45593999997E+02  0.45594000000E+02  0.51100000000E-03 0.  1.
         23    2    1    2    0    0  0.00000000000E+00  0.00000000000E+00  0.00000000000E+00  0.91188000000E+02  0.91188000000E+02 0.  0.
    9900012    2    3    3    0    0  0.16494695853E+02  0.19707900221E+02  0.31506956284E+02  0.50528872898E+02  0.30000039660E+02 0.  0.
        -12    1    3    3    0    0 -0.16494695853E+02 -0.19707900221E+02 -0.31506956284E+02  0.40659127102E+02  0.00000000000E+00 0.  1.
         11    1    4    4    0    0 -0.35997759222E+01  0.10447282056E+02  0.16175461622E+02  0.19589529040E+02  0.51100000000E-03 0.  1.
        -11    1    4    4    0    0  0.27311342627E+01  0.89014223976E+01  0.71614876814E+01  0.11746545072E+02  0.51100000000E-03 0. -1.
        -12    1    4    4    0    0  0.17363337512E+02  0.35919576725E+00  0.81700069808E+01  0.19192798786E+02  0.00000000000E+00 0.  1.
</event>
<event>
 8    1  0.1338956E-013  0.9118800E+02  0.7816164E-02  0.1184000E+00
        -11   -1    0    0    0    0  0.00000000000E+00  0.00000000000E+00  0.45593999997E+02  0.45594000000E+02  0.51100000000E-03 0. -1.
         11   -1    0    0    0    0 -0.00000000000E+00 -0.00000000000E+00 -0.45593999997E+02  0.45594000000E+02  0.51100000000E-03 0.  1.
         23    2    1    2    0    0  0.00000000000E+00  0.00000000000E+00  0.35527136788E-14  0.91188000000E+02  0.91188000000E+02 0.  0.
    9900012    2    3    3    0    0 -0.30789039069E+02 -0.53481386934E+01  0.26011512729E+02  0.50528852090E+02  0.29999976413E+02 0.  0.
        -12    1    3    3    0    0  0.30789039069E+02  0.53481386934E+01 -0.26011512729E+02  0.40659147910E+02  0.00000000000E+00 0.  1.
         11    1    4    4    0    0 -0.13501502179E+02 -0.21093036675E+01  0.80896558204E+01  0.15880247309E+02  0.51100000000E-03 0. -1.
        -11    1    4    4    0    0 -0.41116764521E+01 -0.11912505685E+02  0.30434046698E+01  0.12964412335E+02  0.51100000000E-03 0.  1.
         12    1    4    4    0    0 -0.13175860438E+02  0.86736706593E+01  0.14878452239E+02  0.21684192446E+02  0.00000000000E+00 0. -1.
</event>
<event>
 8    1  0.1338956E-013  0.9118800E+02  0.7816164E-02  0.1184000E+00
        -11   -1    0    0    0    0  0.00000000000E+00  0.00000000000E+00  0.45593999997E+02  0.45594000000E+02  0.51100000000E-03 0. -1.
         11   -1    0    0    0    0 -0.00000000000E+00 -0.00000000000E+00 -0.45593999997E+02  0.45594000000E+02  0.51100000000E-03 0.  1.
         23    2    1    2    0    0  0.88817841970E-15  0.00000000000E+00  0.00000000000E+00  0.91188000000E+02  0.91188000000E+02 0.  0.
    9900012    2    3    3    0    0  0.58926066185E+01 -0.19978033165E+02  0.34918786466E+02  0.50528852565E+02  0.29999977855E+02 0.  0.
        -12    1    3    3    0    0 -0.58926066185E+01  0.19978033165E+02 -0.34918786466E+02  0.40659147435E+02  0.00000000000E+00 0.  1.
         11    1    4    4    0    0  0.13120482417E+02 -0.25667874130E+01  0.15509752815E+02  0.20476520435E+02  0.51100000000E-03 0. -1.
        -11    1    4    4    0    0  0.20428352324E+01  0.33271052596E+00  0.49254518638E+01  0.53426536857E+01  0.51100000000E-03 0.  1.
        -12    1    4    4    0    0 -0.92707110306E+01 -0.17743956278E+02  0.14483581787E+02  0.24709678444E+02  0.00000000000E+00 0.  1.
</event>
<event>
 8    1  0.1338956E-013  0.9118800E+02  0.7816164E-02  0.1184000E+00
        -11   -1    0    0    0    0  0.00000000000E+00  0.00000000000E+00  0.45593999997E+02  0.45594000000E+02  0.51100000000E-03 0. -1.
         11   -1    0    0    0    0 -0.00000000000E+00 -0.00000000000E+00 -0.45593999997E+02  0.45594000000E+02  0.51100000000E-03 0.  1.
         23    2    1    2    0    0 -0.22204460493E-15  0.00000000000E+00  0.71054273576E-14  0.91188000000E+02  0.91188000000E+02 0.  0.
    9900012    2    3    3    0    0 -0.15578254603E+01  0.15088320011E+02  0.37723744620E+02  0.50528866597E+02  0.30000020508E+02 0.  0.
        -12    1    3    3    0    0  0.15578254603E+01 -0.15088320011E+02 -0.37723744620E+02  0.40659133403E+02  0.00000000000E+00 0.  1.
         11    1    4    4    0    0 -0.46717814066E+01  0.47151552960E+01  0.13991779518E+01  0.67835042698E+01  0.51100000000E-03 0.  1.
        -11    1    4    4    0    0  0.35520151836E+01  0.95676058581E+00 -0.20628089908E+01  0.42175092029E+01  0.51100000000E-03 0. -1.
         12    1    4    4    0    0 -0.43805923726E+00  0.94164041291E+01  0.38387375659E+02  0.39527853124E+02  0.00000000000E+00 0. -1.
</event>
<event>
 8    1  0.1338956E-013  0.9118800E+02  0.7816164E-02  0.1184000E+00
        -11   -1    0    0    0    0  0.00000000000E+00  0.00000000000E+00  0.45593999997E+02  0.45594000000E+02  0.51100000000E-03 0. -1.
         11   -1    0    0    0    0 -0.00000000000E+00 -0.00000000000E+00 -0.45593999997E+02  0.45594000000E+02  0.51100000000E-03 0.  1.
         23    2    1    2    0    0  0.00000000000E+00  0.71054273576E-14  0.00000000000E+00  0.91188000000E+02  0.91188000000E+02 0.  0.
    9900012    2    3    3    0    0 -0.41032234431E+01  0.25460272547E+02  0.31434127016E+02  0.50528852664E+02  0.29999978159E+02 0.  0.
        -12    1    3    3    0    0  0.41032234431E+01 -0.25460272547E+02 -0.31434127016E+02  0.40659147336E+02  0.00000000000E+00 0.  1.
         11    1    4    4    0    0  0.12517321922E+01  0.74981928953E+01 -0.20398036223E+01  0.78708658517E+01  0.51100000000E-03 0. -1.
        -11    1    4    4    0    0 -0.70084220990E+01  0.68367981847E+01  0.31021852681E+01  0.10270508431E+02  0.51100000000E-03 0.  1.
        -12    1    4    4    0    0  0.16534664636E+01  0.11125281467E+02  0.30371745370E+02  0.32387478382E+02  0.00000000000E+00 0.  1.
</event>
<event>
 8    1  0.1338956E-013  0.9118800E+02  0.7816164E-02  0.1184000E+00
        -11   -1    0    0    0    0  0.00000000000E+00  0.00000000000E+00  0.45593999997E+02  0.45594000000E+02  0.51100000000E-03 0. -1.
         11   -1    0    0    0    0 -0.00000000000E+00 -0.00000000000E+00 -0.45593999997E+02  0.45594000000E+02  0.51100000000E-03 0.  1.
         23    2    1    2    0    0  0.00000000000E+00 -0.88817841970E-15  0.88817841970E-15  0.91188000000E+02  0.91188000000E+02 0.  0.
    9900012    2    3    3    0    0 -0.39710368476E+02  0.52918615401E+01  0.69460935763E+01  0.50528863523E+02  0.30000011164E+02 0.  0.
        -12    1    3    3    0    0  0.39710368476E+02 -0.52918615401E+01 -0.69460935763E+01  0.40659136477E+02  0.00000000000E+00 0.  1.
         11    1    4    4    0    0 -0.16250233690E+02  0.14837961334E+02 -0.10683106907E+01  0.22031261414E+02  0.51100000000E-03 0. -1.
        -11    1    4    4    0    0 -0.38979217785E+01 -0.19607772479E+01  0.60013704983E+01  0.74198982288E+01  0.51100000000E-03 0.  1.
        -12    1    4    4    0    0 -0.19562213008E+02 -0.75853225456E+01  0.20130337687E+01  0.21077703880E+02  0.00000000000E+00 0.  1.
</event>
<event>
 8    1  0.1338956E-013  0.9118800E+02  0.7816164E-02  0.1184000E+00
        -11   -1    0    0    0    0  0.00000000000E+00  0.00000000000E+00  0.45593999997E+02  0.45594000000E+02  0.51100000000E-03 0. -1.
         11   -1    0    0    0    0 -0.00000000000E+00 -0.00000000000E+00 -0.45593999997E+02  0.45594000000E+02  0.51100000000E-03 0.  1.
         23    2    1    2    0    0 -0.17763568394E-14  0.17763568394E-14 -0.71054273576E-14  0.91188000000E+02  0.91188000000E+02 0.  0.
    9900012    2    3    3    0    0  0.12313915394E+02 -0.88994160946E+01  0.37713852699E+02  0.50528845993E+02  0.29999957880E+02 0.  0.
        -12    1    3    3    0    0 -0.12313915394E+02  0.88994160946E+01 -0.37713852699E+02  0.40659154007E+02  0.00000000000E+00 0.  1.
         11    1    4    4    0    0 -0.10664598891E+01 -0.74535690946E-01  0.61267808827E+01  0.62193517757E+01  0.51100000000E-03 0. -1.
        -11    1    4    4    0    0 -0.55595166177E+01  0.62113166342E+00 -0.76831497604E+00  0.56466217980E+01  0.51100000000E-03 0.  1.
        -12    1    4    4    0    0  0.18939891901E+02 -0.94460120670E+01  0.32355386793E+02  0.38662872419E+02  0.00000000000E+00 0.  1.
</event>
<event>
 8    1  0.1338956E-013  0.9118800E+02  0.7816164E-02  0.1184000E+00
        -11   -1    0    0    0    0  0.00000000000E+00  0.00000000000E+00  0.45593999997E+02  0.45594000000E+02  0.51100000000E-03 0. -1.
         11   -1    0    0    0    0 -0.00000000000E+00 -0.00000000000E+00 -0.45593999997E+02  0.45594000000E+02  0.51100000000E-03 0.  1.
         23    2    1    2    0    0  0.17763568394E-14  0.17763568394E-14  0.00000000000E+00  0.91188000000E+02  0.91188000000E+02 0.  0.
    9900012    2    3    3    0    0 -0.73762687208E+01  0.89653227207E+01  0.38966380089E+02  0.50528866599E+02  0.30000020514E+02 0.  0.
        -12    1    3    3    0    0  0.73762687208E+01 -0.89653227207E+01 -0.38966380089E+02  0.40659133401E+02  0.00000000000E+00 0.  1.
         11    1    4    4    0    0  0.57126628237E+01  0.24716826620E+01  0.23047298887E+02  0.23873033279E+02  0.51100000000E-03 0. -1.
        -11    1    4    4    0    0  0.15725595011E+00  0.10233980765E+01 -0.28550028923E+01  0.30369581546E+01  0.51100000000E-03 0.  1.
         12    1    4    4    0    0 -0.13246187495E+02  0.54702419822E+01  0.18774084094E+02  0.23618875165E+02  0.00000000000E+00 0. -1.
</event>
<event>
 8    1  0.1338956E-013  0.9118800E+02  0.7816164E-02  0.1184000E+00
        -11   -1    0    0    0    0  0.00000000000E+00  0.00000000000E+00  0.45593999997E+02  0.45594000000E+02  0.51100000000E-03 0. -1.
         11   -1    0    0    0    0 -0.00000000000E+00 -0.00000000000E+00 -0.45593999997E+02  0.45594000000E+02  0.51100000000E-03 0.  1.
         23    2    1    2    0    0 -0.35527136788E-14  0.00000000000E+00  0.00000000000E+00  0.91188000000E+02  0.91188000000E+02 0.  0.
    9900012    2    3    3    0    0  0.30251785966E+02 -0.19768248361E+02 -0.18633635914E+02  0.50528848696E+02  0.29999966095E+02 0.  0.
         12    1    3    3    0    0 -0.30251785966E+02  0.19768248361E+02  0.18633635914E+02  0.40659151304E+02  0.00000000000E+00 0. -1.
         11    1    4    4    0    0  0.13978943297E+02 -0.84021964772E+01 -0.24194893615E+00  0.16311538888E+02  0.51100000000E-03 0. -1.
        -11    1    4    4    0    0 -0.16420460755E+01 -0.21496699703E+01  0.35279077184E+01  0.44456191274E+01  0.51100000000E-03 0.  1.
        -12    1    4    4    0    0  0.17914888744E+02 -0.92163819139E+01 -0.21919594696E+02  0.29771690680E+02  0.00000000000E+00 0.  1.
</event>
<event>
 8    1  0.1338956E-013  0.9118800E+02  0.7816164E-02  0.1184000E+00
        -11   -1    0    0    0    0  0.00000000000E+00  0.00000000000E+00  0.45593999997E+02  0.45594000000E+02  0.51100000000E-03 0. -1.
         11   -1    0    0    0    0 -0.00000000000E+00 -0.00000000000E+00 -0.45593999997E+02  0.45594000000E+02  0.51100000000E-03 0.  1.
         23    2    1    2    0    0 -0.35527136788E-14 -0.35527136788E-14  0.00000000000E+00  0.91188000000E+02  0.91188000000E+02 0.  0.
    9900012    2    3    3    0    0 -0.16598412116E+02 -0.21330043575E+02 -0.30375718833E+02  0.50528900916E+02  0.30000124825E+02 0.  0.
         12    1    3    3    0    0  0.16598412116E+02  0.21330043575E+02  0.30375718833E+02  0.40659099084E+02  0.00000000000E+00 0. -1.
         11    1    4    4    0    0 -0.16557272481E+02 -0.51426228494E+01 -0.11275116823E+02  0.20681346702E+02  0.51100000000E-03 0. -1.
        -11    1    4    4    0    0 -0.81279878533E+01 -0.73963535169E+01 -0.93059859625E+01  0.14400403011E+02  0.51100000000E-03 0.  1.
         12    1    4    4    0    0  0.80868482184E+01 -0.87910672085E+01 -0.97946160476E+01  0.15447151203E+02  0.00000000000E+00 0. -1.
</event>
<event>
 8    1  0.1338956E-013  0.9118800E+02  0.7816164E-02  0.1184000E+00
        -11   -1    0    0    0    0  0.00000000000E+00  0.00000000000E+00  0.45593999997E+02  0.45594000000E+02  0.51100000000E-03 0. -1.
         11   -1    0    0    0    0 -0.00000000000E+00 -0.00000000000E+00 -0.45593999997E+02  0.45594000000E+02  0.51100000000E-03 0.  1.
         23    2    1    2    0    0  0.00000000000E+00  0.00000000000E+00 -0.29143354396E-15  0.91188000000E+02  0.91188000000E+02 0.  0.
    9900012    2    3    3    0    0 -0.13210180335E+02  0.38453278184E+02 -0.45063165065E-01  0.50528862056E+02  0.30000006707E+02 0.  0.
        -12    1    3    3    0    0  0.13210180335E+02 -0.38453278184E+02  0.45063165065E-01  0.40659137944E+02  0.00000000000E+00 0.  1.
         11    1    4    4    0    0 -0.35580084838E+01  0.21193841990E+02  0.34270023736E+01  0.21761955524E+02  0.51100000000E-03 0. -1.
        -11    1    4    4    0    0 -0.15231224211E+02  0.17032544592E+02 -0.17168594699E+01  0.22913868572E+02  0.51100000000E-03 0.  1.
         12    1    4    4    0    0  0.55790523591E+01  0.22689160181E+00 -0.17552060688E+01  0.58530379607E+01  0.00000000000E+00 0. -1.
</event>
<event>
 8    1  0.1338956E-013  0.9118800E+02  0.7816164E-02  0.1184000E+00
        -11   -1    0    0    0    0  0.00000000000E+00  0.00000000000E+00  0.45593999997E+02  0.45594000000E+02  0.51100000000E-03 0. -1.
         11   -1    0    0    0    0 -0.00000000000E+00 -0.00000000000E+00 -0.45593999997E+02  0.45594000000E+02  0.51100000000E-03 0.  1.
         23    2    1    2    0    0  0.88817841970E-15  0.13322676296E-14  0.00000000000E+00  0.91188000000E+02  0.91188000000E+02 0.  0.
    9900012    2    3    3    0    0 -0.75948701266E+01  0.39553698998E+01 -0.39747191570E+02  0.50528852923E+02  0.29999978945E+02 0.  0.
         12    1    3    3    0    0  0.75948701266E+01 -0.39553698998E+01  0.39747191570E+02  0.40659147077E+02  0.00000000000E+00 0. -1.
         11    1    4    4    0    0 -0.82005673186E+01  0.38084531483E+01 -0.73537980461E+01  0.11654697152E+02  0.51100000000E-03 0. -1.
        -11    1    4    4    0    0  0.29931216860E+01 -0.96643935357E+01 -0.96122757579E+01  0.13955469370E+02  0.51100000000E-03 0.  1.
         12    1    4    4    0    0 -0.23874244940E+01  0.98113102871E+01 -0.22781117766E+02  0.24918686401E+02  0.00000000000E+00 0. -1.
</event>
<event>
 8    1  0.1338956E-013  0.9118800E+02  0.7816164E-02  0.1184000E+00
        -11   -1    0    0    0    0  0.00000000000E+00  0.00000000000E+00  0.45593999997E+02  0.45594000000E+02  0.51100000000E-03 0. -1.
         11   -1    0    0    0    0 -0.00000000000E+00 -0.00000000000E+00 -0.45593999997E+02  0.45594000000E+02  0.51100000000E-03 0.  1.
         23    2    1    2    0    0  0.00000000000E+00 -0.35527136788E-14 -0.35527136788E-14  0.91188000000E+02  0.91188000000E+02 0.  0.
    9900012    2    3    3    0    0  0.25644672945E+02  0.42936463504E+01  0.31258301741E+02  0.50528854938E+02  0.29999985069E+02 0.  0.
        -12    1    3    3    0    0 -0.25644672945E+02 -0.42936463504E+01 -0.31258301741E+02  0.40659145062E+02  0.00000000000E+00 0.  1.
         11    1    4    4    0    0  0.96083829245E+01 -0.87446187335E+01  0.15608786445E+02  0.20308214933E+02  0.51100000000E-03 0. -1.
        -11    1    4    4    0    0  0.36387502591E+01 -0.35900213327E+01  0.30499795434E+01  0.59524055720E+01  0.51100000000E-03 0.  1.
        -12    1    4    4    0    0  0.12397539762E+02  0.16628286417E+02  0.12599535753E+02  0.24268234433E+02  0.00000000000E+00 0.  1.
</event>
<event>
 8    1  0.1338956E-013  0.9118800E+02  0.7816164E-02  0.1184000E+00
        -11   -1    0    0    0    0  0.00000000000E+00  0.00000000000E+00  0.45593999997E+02  0.45594000000E+02  0.51100000000E-03 0.  1.
         11   -1    0    0    0    0 -0.00000000000E+00 -0.00000000000E+00 -0.45593999997E+02  0.45594000000E+02  0.51100000000E-03 0. -1.
         23    2    1    2    0    0  0.22204460493E-15  0.00000000000E+00  0.00000000000E+00  0.91188000000E+02  0.91188000000E+02 0.  0.
    9900012    2    3    3    0    0 -0.14896814965E+01  0.38261849815E+02 -0.13673974959E+02  0.50528857198E+02  0.29999991939E+02 0.  0.
        -12    1    3    3    0    0  0.14896814965E+01 -0.38261849815E+02  0.13673974959E+02  0.40659142802E+02  0.00000000000E+00 0.  1.
         11    1    4    4    0    0 -0.75727403227E+01  0.23043152082E+02  0.19035620701E+01  0.24330162406E+02  0.51100000000E-03 0. -1.
        -11    1    4    4    0    0  0.11442178997E+01 -0.14882061661E+01  0.10200159493E+01  0.21364514956E+01  0.51100000000E-03 0.  1.
        -12    1    4    4    0    0  0.49388409265E+01  0.16706903899E+02 -0.16597552979E+02  0.24062243297E+02  0.00000000000E+00 0.  1.
</event>
<event>
 8    1  0.1338956E-013  0.9118800E+02  0.7816164E-02  0.1184000E+00
        -11   -1    0    0    0    0  0.00000000000E+00  0.00000000000E+00  0.45593999997E+02  0.45594000000E+02  0.51100000000E-03 0. -1.
         11   -1    0    0    0    0 -0.00000000000E+00 -0.00000000000E+00 -0.45593999997E+02  0.45594000000E+02  0.51100000000E-03 0.  1.
         23    2    1    2    0    0 -0.35527136788E-14  0.00000000000E+00  0.71054273576E-14  0.91188000000E+02  0.91188000000E+02 0.  0.
    9900012    2    3    3    0    0 -0.16414384100E+02 -0.17403035576E+02 -0.32876562458E+02  0.50528855744E+02  0.29999987519E+02 0.  0.
         12    1    3    3    0    0  0.16414384100E+02  0.17403035576E+02  0.32876562458E+02  0.40659144256E+02  0.00000000000E+00 0. -1.
         11    1    4    4    0    0 -0.11121316811E+02 -0.36871318327E+00 -0.19296279991E+02  0.22274785269E+02  0.51100000000E-03 0.  1.
        -11    1    4    4    0    0 -0.51209693353E+01  0.17760345371E+01 -0.56803159404E+01  0.78514084758E+01  0.51100000000E-03 0. -1.
         12    1    4    4    0    0 -0.17209795296E+00 -0.18810356929E+02 -0.78999665259E+01  0.20402661999E+02  0.00000000000E+00 0. -1.
</event>
<event>
 8    1  0.1338956E-013  0.9118800E+02  0.7816164E-02  0.1184000E+00
        -11   -1    0    0    0    0  0.00000000000E+00  0.00000000000E+00  0.45593999997E+02  0.45594000000E+02  0.51100000000E-03 0. -1.
         11   -1    0    0    0    0 -0.00000000000E+00 -0.00000000000E+00 -0.45593999997E+02  0.45594000000E+02  0.51100000000E-03 0.  1.
         23    2    1    2    0    0  0.00000000000E+00  0.00000000000E+00  0.00000000000E+00  0.91188000000E+02  0.91188000000E+02 0.  0.
    9900012    2    3    3    0    0  0.12995702713E+02 -0.11254373370E+02 -0.36845846772E+02  0.50528860396E+02  0.30000001661E+02 0.  0.
         12    1    3    3    0    0 -0.12995702713E+02  0.11254373370E+02  0.36845846772E+02  0.40659139604E+02  0.00000000000E+00 0. -1.
         11    1    4    4    0    0  0.91060240545E+00  0.13446257711E+01  0.47665147038E+00  0.16924574117E+01  0.51100000000E-03 0. -1.
        -11    1    4    4    0    0 -0.44742757717E+01  0.40875716372E+01 -0.19535635067E+01  0.63674010559E+01  0.51100000000E-03 0.  1.
        -12    1    4    4    0    0  0.16559376080E+02 -0.16686570778E+02 -0.35368934736E+02  0.42469001929E+02  0.00000000000E+00 0.  1.
</event>
<event>
 8    1  0.1338956E-013  0.9118800E+02  0.7816164E-02  0.1184000E+00
        -11   -1    0    0    0    0  0.00000000000E+00  0.00000000000E+00  0.45593999997E+02  0.45594000000E+02  0.51100000000E-03 0. -1.
         11   -1    0    0    0    0 -0.00000000000E+00 -0.00000000000E+00 -0.45593999997E+02  0.45594000000E+02  0.51100000000E-03 0.  1.
         23    2    1    2    0    0  0.00000000000E+00 -0.44408920985E-15  0.00000000000E+00  0.91188000000E+02  0.91188000000E+02 0.  0.
    9900012    2    3    3    0    0 -0.91489664094E+01  0.11194104694E+01 -0.39600618728E+02  0.50528859947E+02  0.30000000296E+02 0.  0.
         12    1    3    3    0    0  0.91489664094E+01 -0.11194104694E+01  0.39600618728E+02  0.40659140053E+02  0.00000000000E+00 0. -1.
         11    1    4    4    0    0  0.74531441170E+01  0.50126897506E+01 -0.18761588659E+02  0.20800808279E+02  0.51100000000E-03 0. -1.
        -11    1    4    4    0    0 -0.17751227356E+01  0.10783665271E+01 -0.11127347524E+02  0.11319531716E+02  0.51100000000E-03 0.  1.
         12    1    4    4    0    0 -0.14826987791E+02 -0.49716458083E+01 -0.97116825455E+01  0.18408519953E+02  0.00000000000E+00 0. -1.
</event>
<event>
 8    1  0.1338956E-013  0.9118800E+02  0.7816164E-02  0.1184000E+00
        -11   -1    0    0    0    0  0.00000000000E+00  0.00000000000E+00  0.45593999997E+02  0.45594000000E+02  0.51100000000E-03 0. -1.
         11   -1    0    0    0    0 -0.00000000000E+00 -0.00000000000E+00 -0.45593999997E+02  0.45594000000E+02  0.51100000000E-03 0.  1.
         23    2    1    2    0    0 -0.35527136788E-14  0.00000000000E+00  0.00000000000E+00  0.91188000000E+02  0.91188000000E+02 0.  0.
    9900012    2    3    3    0    0  0.13997234003E+02 -0.12035832183E+02 -0.36226803441E+02  0.50528866909E+02  0.30000021458E+02 0.  0.
         12    1    3    3    0    0 -0.13997234003E+02  0.12035832183E+02  0.36226803441E+02  0.40659133091E+02  0.00000000000E+00 0. -1.
         11    1    4    4    0    0  0.35855112918E+01  0.13472686601E+01 -0.60776476359E+01  0.71839282509E+01  0.51100000000E-03 0. -1.
        -11    1    4    4    0    0  0.13784262854E+02 -0.14671568219E+01 -0.27329349785E+02  0.30643952282E+02  0.51100000000E-03 0.  1.
         12    1    4    4    0    0 -0.33725401426E+01 -0.11915944021E+02 -0.28198060210E+01  0.12700986376E+02  0.00000000000E+00 0. -1.
</event>
<event>
 8    1  0.1338956E-013  0.9118800E+02  0.7816164E-02  0.1184000E+00
        -11   -1    0    0    0    0  0.00000000000E+00  0.00000000000E+00  0.45593999997E+02  0.45594000000E+02  0.51100000000E-03 0. -1.
         11   -1    0    0    0    0 -0.00000000000E+00 -0.00000000000E+00 -0.45593999997E+02  0.45594000000E+02  0.51100000000E-03 0.  1.
         23    2    1    2    0    0  0.00000000000E+00 -0.88817841970E-15  0.00000000000E+00  0.91188000000E+02  0.91188000000E+02 0.  0.
    9900012    2    3    3    0    0  0.23917352279E+02  0.77456844947E+01  0.31955130080E+02  0.50528859492E+02  0.29999998913E+02 0.  0.
        -12    1    3    3    0    0 -0.23917352279E+02 -0.77456844947E+01 -0.31955130080E+02  0.40659140508E+02  0.00000000000E+00 0.  1.
         11    1    4    4    0    0  0.25714897313E+00  0.37255666278E+01  0.89907742477E+01  0.97355017399E+01  0.51100000000E-03 0.  1.
        -11    1    4    4    0    0  0.65553286115E+01  0.32740320196E+01  0.22503071753E+02  0.23666006369E+02  0.51100000000E-03 0. -1.
         12    1    4    4    0    0  0.17104874695E+02  0.74608584722E+00  0.46128407982E+00  0.17127351384E+02  0.00000000000E+00 0. -1.
</event>
<event>
 8    1  0.1338956E-013  0.9118800E+02  0.7816164E-02  0.1184000E+00
        -11   -1    0    0    0    0  0.00000000000E+00  0.00000000000E+00  0.45593999997E+02  0.45594000000E+02  0.51100000000E-03 0. -1.
         11   -1    0    0    0    0 -0.00000000000E+00 -0.00000000000E+00 -0.45593999997E+02  0.45594000000E+02  0.51100000000E-03 0.  1.
         23    2    1    2    0    0  0.00000000000E+00  0.00000000000E+00  0.00000000000E+00  0.91188000000E+02  0.91188000000E+02 0.  0.
    9900012    2    3    3    0    0 -0.11680384792E+02  0.56534212566E+00 -0.38941168405E+02  0.50528860839E+02  0.30000003005E+02 0.  0.
         12    1    3    3    0    0  0.11680384792E+02 -0.56534212566E+00  0.38941168405E+02  0.40659139161E+02  0.00000000000E+00 0. -1.
         11    1    4    4    0    0 -0.15090777392E+01  0.10457482590E+02 -0.85760460815E+01  0.13608263093E+02  0.51100000000E-03 0. -1.
        -11    1    4    4    0    0  0.30208029035E+01  0.11324190262E+01 -0.21388123539E+01  0.38706771473E+01  0.51100000000E-03 0.  1.
         12    1    4    4    0    0 -0.13192109956E+02 -0.11024559491E+02 -0.28226309970E+02  0.33049920598E+02  0.00000000000E+00 0. -1.
</event>
<event>
 8    1  0.1338956E-013  0.9118800E+02  0.7816164E-02  0.1184000E+00
        -11   -1    0    0    0    0  0.00000000000E+00  0.00000000000E+00  0.45593999997E+02  0.45594000000E+02  0.51100000000E-03 0. -1.
         11   -1    0    0    0    0 -0.00000000000E+00 -0.00000000000E+00 -0.45593999997E+02  0.45594000000E+02  0.51100000000E-03 0.  1.
         23    2    1    2    0    0 -0.35527136788E-14  0.00000000000E+00  0.17763568394E-14  0.91188000000E+02  0.91188000000E+02 0.  0.
    9900012    2    3    3    0    0  0.10546311681E+02  0.35864924344E+02 -0.15988999923E+02  0.50528860722E+02  0.30000002651E+02 0.  0.
         12    1    3    3    0    0 -0.10546311681E+02 -0.35864924344E+02  0.15988999923E+02  0.40659139278E+02  0.00000000000E+00 0. -1.
         11    1    4    4    0    0  0.11658078972E+02  0.10814157559E+02 -0.43199053787E+01  0.16477815140E+02  0.51100000000E-03 0. -1.
        -11    1    4    4    0    0  0.75060305623E+01  0.14988982004E+02 -0.12294267914E+02  0.20788436692E+02  0.51100000000E-03 0.  1.
         12    1    4    4    0    0 -0.86177978540E+01  0.10061784781E+02  0.62517336902E+00  0.13262608890E+02  0.00000000000E+00 0. -1.
</event>
<event>
 8    1  0.1338956E-013  0.9118800E+02  0.7816164E-02  0.1184000E+00
        -11   -1    0    0    0    0  0.00000000000E+00  0.00000000000E+00  0.45593999997E+02  0.45594000000E+02  0.51100000000E-03 0. -1.
         11   -1    0    0    0    0 -0.00000000000E+00 -0.00000000000E+00 -0.45593999997E+02  0.45594000000E+02  0.51100000000E-03 0.  1.
         23    2    1    2    0    0  0.00000000000E+00  0.00000000000E+00  0.00000000000E+00  0.91188000000E+02  0.91188000000E+02 0.  0.
    9900012    2    3    3    0    0 -0.32476271056E+02  0.17603006761E+02 -0.16987979644E+02  0.50528862268E+02  0.30000007349E+02 0.  0.
         12    1    3    3    0    0  0.32476271056E+02 -0.17603006761E+02  0.16987979644E+02  0.40659137732E+02  0.00000000000E+00 0. -1.
         11    1    4    4    0    0  0.16161578700E+01 -0.15289783396E+01 -0.13414655222E+01  0.25979359176E+01  0.51100000000E-03 0. -1.
        -11    1    4    4    0    0 -0.16103846986E+02 -0.31067941458E+01 -0.83863117067E+01  0.18420539675E+02  0.51100000000E-03 0.  1.
         12    1    4    4    0    0 -0.17988581940E+02  0.22238779247E+02 -0.72602024152E+01  0.29510386675E+02  0.00000000000E+00 0. -1.
</event>
<event>
 8    1  0.1338956E-013  0.9118800E+02  0.7816164E-02  0.1184000E+00
        -11   -1    0    0    0    0  0.00000000000E+00  0.00000000000E+00  0.45593999997E+02  0.45594000000E+02  0.51100000000E-03 0. -1.
         11   -1    0    0    0    0 -0.00000000000E+00 -0.00000000000E+00 -0.45593999997E+02  0.45594000000E+02  0.51100000000E-03 0.  1.
         23    2    1    2    0    0  0.00000000000E+00  0.00000000000E+00  0.00000000000E+00  0.91188000000E+02  0.91188000000E+02 0.  0.
    9900012    2    3    3    0    0 -0.24606139717E+01 -0.18024077308E+02  0.36362667727E+02  0.50528860952E+02  0.30000003349E+02 0.  0.
        -12    1    3    3    0    0  0.24606139717E+01  0.18024077308E+02 -0.36362667727E+02  0.40659139048E+02  0.00000000000E+00 0.  1.
         11    1    4    4    0    0  0.40427702950E+01  0.53341449792E+00  0.11583896201E+02  0.12280682967E+02  0.51100000000E-03 0. -1.
        -11    1    4    4    0    0  0.70835482268E+01 -0.78267756644E+01  0.15066832603E+02  0.18396861627E+02  0.51100000000E-03 0.  1.
         12    1    4    4    0    0 -0.13586932493E+02 -0.10730716142E+02  0.97119389234E+01  0.19851316358E+02  0.00000000000E+00 0. -1.
</event>
<event>
 8    1  0.1338956E-013  0.9118800E+02  0.7816164E-02  0.1184000E+00
        -11   -1    0    0    0    0  0.00000000000E+00  0.00000000000E+00  0.45593999997E+02  0.45594000000E+02  0.51100000000E-03 0. -1.
         11   -1    0    0    0    0 -0.00000000000E+00 -0.00000000000E+00 -0.45593999997E+02  0.45594000000E+02  0.51100000000E-03 0.  1.
         23    2    1    2    0    0  0.17763568394E-14 -0.17763568394E-14  0.00000000000E+00  0.91188000000E+02  0.91188000000E+02 0.  0.
    9900012    2    3    3    0    0  0.84434925106E+01  0.51002315865E+01  0.39444404942E+02  0.50528855773E+02  0.29999987609E+02 0.  0.
        -12    1    3    3    0    0 -0.84434925106E+01 -0.51002315865E+01 -0.39444404942E+02  0.40659144227E+02  0.00000000000E+00 0.  1.
         11    1    4    4    0    0  0.14751066542E+02 -0.64183669904E+01  0.16990644609E+02  0.23398106835E+02  0.51100000000E-03 0.  1.
        -11    1    4    4    0    0 -0.33568480507E+01  0.30488505750E-01  0.45444794563E+01  0.56499249707E+01  0.51100000000E-03 0. -1.
        -12    1    4    4    0    0 -0.29507259811E+01  0.11488110071E+02  0.17909280876E+02  0.21480823968E+02  0.00000000000E+00 0.  1.
</event>
<event>
 8    1  0.1338956E-013  0.9118800E+02  0.7816164E-02  0.1184000E+00
        -11   -1    0    0    0    0  0.00000000000E+00  0.00000000000E+00  0.45593999997E+02  0.45594000000E+02  0.51100000000E-03 0.  1.
         11   -1    0    0    0    0 -0.00000000000E+00 -0.00000000000E+00 -0.45593999997E+02  0.45594000000E+02  0.51100000000E-03 0. -1.
         23    2    1    2    0    0  0.00000000000E+00  0.00000000000E+00  0.00000000000E+00  0.91188000000E+02  0.91188000000E+02 0.  0.
    9900012    2    3    3    0    0  0.13048918911E+02 -0.29648835922E+02 -0.24573103492E+02  0.50528866075E+02  0.30000018922E+02 0.  0.
         12    1    3    3    0    0 -0.13048918911E+02  0.29648835922E+02  0.24573103492E+02  0.40659133925E+02  0.00000000000E+00 0. -1.
         11    1    4    4    0    0  0.29692614097E+01 -0.42031817565E+01 -0.10666326060E+02  0.11842878116E+02  0.51100000000E-03 0. -1.
        -11    1    4    4    0    0  0.35960205635E+01  0.36548489183E+00 -0.11395195202E+02  0.11954723629E+02  0.51100000000E-03 0.  1.
        -12    1    4    4    0    0  0.64836369382E+01 -0.25811139057E+02 -0.25115822305E+01  0.26731264330E+02  0.00000000000E+00 0.  1.
</event>
<event>
 8    1  0.1338956E-013  0.9118800E+02  0.7816164E-02  0.1184000E+00
        -11   -1    0    0    0    0  0.00000000000E+00  0.00000000000E+00  0.45593999997E+02  0.45594000000E+02  0.51100000000E-03 0. -1.
         11   -1    0    0    0    0 -0.00000000000E+00 -0.00000000000E+00 -0.45593999997E+02  0.45594000000E+02  0.51100000000E-03 0.  1.
         23    2    1    2    0    0 -0.35527136788E-14  0.00000000000E+00  0.71054273576E-14  0.91188000000E+02  0.91188000000E+02 0.  0.
    9900012    2    3    3    0    0  0.21822398680E+02  0.25261749482E+02 -0.23211854124E+02  0.50528889792E+02  0.30000091013E+02 0.  0.
         12    1    3    3    0    0 -0.21822398680E+02 -0.25261749482E+02  0.23211854124E+02  0.40659110208E+02  0.00000000000E+00 0. -1.
         11    1    4    4    0    0  0.86287886642E+01 -0.33755824882E+01 -0.10977451017E+02  0.14365061157E+02  0.51100000000E-03 0. -1.
        -11    1    4    4    0    0  0.13286796164E+02  0.16479734059E+02 -0.41734397079E+01  0.21576333939E+02  0.51100000000E-03 0.  1.
        -12    1    4    4    0    0 -0.93186148896E-01  0.12157597911E+02 -0.80609633990E+01  0.14587494697E+02  0.00000000000E+00 0.  1.
</event>
<event>
 8    1  0.1338956E-013  0.9118800E+02  0.7816164E-02  0.1184000E+00
        -11   -1    0    0    0    0  0.00000000000E+00  0.00000000000E+00  0.45593999997E+02  0.45594000000E+02  0.51100000000E-03 0. -1.
         11   -1    0    0    0    0 -0.00000000000E+00 -0.00000000000E+00 -0.45593999997E+02  0.45594000000E+02  0.51100000000E-03 0.  1.
         23    2    1    2    0    0  0.00000000000E+00 -0.17763568394E-14 -0.17763568394E-14  0.91188000000E+02  0.91188000000E+02 0.  0.
    9900012    2    3    3    0    0  0.35788335426E+02 -0.13714108690E+02 -0.13575144481E+02  0.50528852476E+02  0.29999977586E+02 0.  0.
         12    1    3    3    0    0 -0.35788335426E+02  0.13714108690E+02  0.13575144481E+02  0.40659147524E+02  0.00000000000E+00 0. -1.
         11    1    4    4    0    0 -0.11366432383E+00  0.24039629266E+01  0.56854006888E+00  0.24728921129E+01  0.51100000000E-03 0. -1.
        -11    1    4    4    0    0  0.56408137797E+01  0.54043374929E+01  0.11491817551E+01  0.78959649696E+01  0.51100000000E-03 0.  1.
        -12    1    4    4    0    0  0.30261185970E+02 -0.21522409109E+02 -0.15292866305E+02  0.40159995393E+02  0.00000000000E+00 0.  1.
</event>
<event>
 8    1  0.1338956E-013  0.9118800E+02  0.7816164E-02  0.1184000E+00
        -11   -1    0    0    0    0  0.00000000000E+00  0.00000000000E+00  0.45593999997E+02  0.45594000000E+02  0.51100000000E-03 0. -1.
         11   -1    0    0    0    0 -0.00000000000E+00 -0.00000000000E+00 -0.45593999997E+02  0.45594000000E+02  0.51100000000E-03 0.  1.
         23    2    1    2    0    0  0.00000000000E+00  0.00000000000E+00 -0.35527136788E-14  0.91188000000E+02  0.91188000000E+02 0.  0.
    9900012    2    3    3    0    0 -0.20741432157E+02  0.15895824754E+02 -0.31149346138E+02  0.50528855673E+02  0.29999987305E+02 0.  0.
         12    1    3    3    0    0  0.20741432157E+02 -0.15895824754E+02  0.31149346138E+02  0.40659144327E+02  0.00000000000E+00 0. -1.
         11    1    4    4    0    0  0.82042824160E+00  0.43203646195E+00  0.31779377973E+01  0.33104451225E+01  0.51100000000E-03 0. -1.
        -11    1    4    4    0    0 -0.65995924424E+01  0.78521057955E+01 -0.15247767804E+01  0.10369914673E+02  0.51100000000E-03 0.  1.
        -12    1    4    4    0    0 -0.14962267956E+02  0.76116824963E+01 -0.32802507155E+02  0.36848495878E+02  0.00000000000E+00 0.  1.
</event>
<event>
 8    1  0.1338956E-013  0.9118800E+02  0.7816164E-02  0.1184000E+00
        -11   -1    0    0    0    0  0.00000000000E+00  0.00000000000E+00  0.45593999997E+02  0.45594000000E+02  0.51100000000E-03 0. -1.
         11   -1    0    0    0    0 -0.00000000000E+00 -0.00000000000E+00 -0.45593999997E+02  0.45594000000E+02  0.51100000000E-03 0.  1.
         23    2    1    2    0    0 -0.88817841970E-15  0.00000000000E+00  0.71054273576E-14  0.91188000000E+02  0.91188000000E+02 0.  0.
    9900012    2    3    3    0    0  0.77844720535E+01  0.15714700840E+02  0.36682637509E+02  0.50528859303E+02  0.29999998337E+02 0.  0.
        -12    1    3    3    0    0 -0.77844720535E+01 -0.15714700840E+02 -0.36682637509E+02  0.40659140697E+02  0.00000000000E+00 0.  1.
         11    1    4    4    0    0  0.10435598754E+02  0.15948670447E+02  0.29367430463E+02  0.35010109721E+02  0.51100000000E-03 0. -1.
        -11    1    4    4    0    0 -0.64186790893E+01  0.41954733901E+01  0.54654692888E+01  0.94166232284E+01  0.51100000000E-03 0.  1.
        -12    1    4    4    0    0  0.37675523889E+01 -0.44294429970E+01  0.18497377565E+01  0.61021263536E+01  0.00000000000E+00 0.  1.
</event>
<event>
 8    1  0.1338956E-013  0.9118800E+02  0.7816164E-02  0.1184000E+00
        -11   -1    0    0    0    0  0.00000000000E+00  0.00000000000E+00  0.45593999997E+02  0.45594000000E+02  0.51100000000E-03 0. -1.
         11   -1    0    0    0    0 -0.00000000000E+00 -0.00000000000E+00 -0.45593999997E+02  0.45594000000E+02  0.51100000000E-03 0.  1.
         23    2    1    2    0    0  0.00000000000E+00  0.00000000000E+00  0.00000000000E+00  0.91188000000E+02  0.91188000000E+02 0.  0.
    9900012    2    3    3    0    0 -0.30187277082E+02 -0.13237842257E+02  0.23804491779E+02  0.50528855960E+02  0.29999988175E+02 0.  0.
        -12    1    3    3    0    0  0.30187277082E+02  0.13237842257E+02 -0.23804491779E+02  0.40659144040E+02  0.00000000000E+00 0.  1.
         11    1    4    4    0    0 -0.12959250829E+01 -0.55341705988E+01 -0.37471637597E+01  0.68079146983E+01  0.51100000000E-03 0. -1.
        -11    1    4    4    0    0 -0.19568892635E+01 -0.71830815032E+00 -0.21684938245E+01  0.30079474590E+01  0.51100000000E-03 0.  1.
         12    1    4    4    0    0 -0.26934462735E+02 -0.69853635076E+01  0.29720149363E+02  0.40712993802E+02  0.00000000000E+00 0. -1.
</event>
<event>
 8    1  0.1338956E-013  0.9118800E+02  0.7816164E-02  0.1184000E+00
        -11   -1    0    0    0    0  0.00000000000E+00  0.00000000000E+00  0.45593999997E+02  0.45594000000E+02  0.51100000000E-03 0. -1.
         11   -1    0    0    0    0 -0.00000000000E+00 -0.00000000000E+00 -0.45593999997E+02  0.45594000000E+02  0.51100000000E-03 0.  1.
         23    2    1    2    0    0  0.00000000000E+00 -0.35527136788E-14  0.00000000000E+00  0.91188000000E+02  0.91188000000E+02 0.  0.
    9900012    2    3    3    0    0  0.16940729369E+02 -0.29946733151E+02  0.21665040799E+02  0.50528817386E+02  0.29999870926E+02 0.  0.
        -12    1    3    3    0    0 -0.16940729369E+02  0.29946733151E+02 -0.21665040799E+02  0.40659182614E+02  0.00000000000E+00 0.  1.
         11    1    4    4    0    0  0.14762276527E+02 -0.53422686574E+01 -0.76038947807E+00  0.15717596352E+02  0.51100000000E-03 0. -1.
        -11    1    4    4    0    0  0.56625732493E+01 -0.15664969635E+02  0.16948495316E+02  0.23763575135E+02  0.51100000000E-03 0.  1.
        -12    1    4    4    0    0 -0.34841204067E+01 -0.89394948587E+01  0.54769349614E+01  0.11047645899E+02  0.00000000000E+00 0.  1.
</event>
<event>
 8    1  0.1338956E-013  0.9118800E+02  0.7816164E-02  0.1184000E+00
        -11   -1    0    0    0    0  0.00000000000E+00  0.00000000000E+00  0.45593999997E+02  0.45594000000E+02  0.51100000000E-03 0. -1.
         11   -1    0    0    0    0 -0.00000000000E+00 -0.00000000000E+00 -0.45593999997E+02  0.45594000000E+02  0.51100000000E-03 0.  1.
         23    2    1    2    0    0  0.00000000000E+00  0.00000000000E+00  0.00000000000E+00  0.91188000000E+02  0.91188000000E+02 0.  0.
    9900012    2    3    3    0    0 -0.28049954709E+02  0.29432900710E+02 -0.26724721724E+00  0.50528843288E+02  0.29999949660E+02 0.  0.
        -12    1    3    3    0    0  0.28049954709E+02 -0.29432900710E+02  0.26724721724E+00  0.40659156712E+02  0.00000000000E+00 0.  1.
         11    1    4    4    0    0  0.20799938255E+01 -0.28821015590E+01  0.31844026326E+00  0.35685134402E+01  0.51100000000E-03 0. -1.
        -11    1    4    4    0    0 -0.50097399818E+01 -0.54491730985E+00 -0.23513112895E+01  0.55608537654E+01  0.51100000000E-03 0.  1.
         12    1    4    4    0    0 -0.25120208553E+02  0.32859919579E+02  0.17656238090E+01  0.41399476083E+02  0.00000000000E+00 0. -1.
</event>
<event>
 8    1  0.1338956E-013  0.9118800E+02  0.7816164E-02  0.1184000E+00
        -11   -1    0    0    0    0  0.00000000000E+00  0.00000000000E+00  0.45593999997E+02  0.45594000000E+02  0.51100000000E-03 0. -1.
         11   -1    0    0    0    0 -0.00000000000E+00 -0.00000000000E+00 -0.45593999997E+02  0.45594000000E+02  0.51100000000E-03 0.  1.
         23    2    1    2    0    0  0.00000000000E+00  0.00000000000E+00 -0.35527136788E-14  0.91188000000E+02  0.91188000000E+02 0.  0.
    9900012    2    3    3    0    0 -0.23692011360E+02 -0.26682470000E+02  0.19491018890E+02  0.50528862958E+02  0.30000009448E+02 0.  0.
        -12    1    3    3    0    0  0.23692011360E+02  0.26682470000E+02 -0.19491018890E+02  0.40659137042E+02  0.00000000000E+00 0.  1.
         11    1    4    4    0    0 -0.10652216760E+01 -0.41015174081E+00  0.28947435561E+01  0.31116655004E+01  0.51100000000E-03 0. -1.
        -11    1    4    4    0    0  0.11508522384E+01 -0.10087450617E+02 -0.51255142599E+01  0.11373302841E+02  0.51100000000E-03 0.  1.
         12    1    4    4    0    0 -0.23777641922E+02 -0.16184867643E+02  0.21721789594E+02  0.36043894617E+02  0.00000000000E+00 0. -1.
</event>
<event>
 8    1  0.1338956E-013  0.9118800E+02  0.7816164E-02  0.1184000E+00
        -11   -1    0    0    0    0  0.00000000000E+00  0.00000000000E+00  0.45593999997E+02  0.45594000000E+02  0.51100000000E-03 0. -1.
         11   -1    0    0    0    0 -0.00000000000E+00 -0.00000000000E+00 -0.45593999997E+02  0.45594000000E+02  0.51100000000E-03 0.  1.
         23    2    1    2    0    0 -0.71054273576E-14 -0.88817841970E-15  0.35527136788E-14  0.91188000000E+02  0.91188000000E+02 0.  0.
    9900012    2    3    3    0    0  0.31190519162E+02  0.37623609173E+01 -0.25810115347E+02  0.50528857123E+02  0.29999991712E+02 0.  0.
         12    1    3    3    0    0 -0.31190519162E+02 -0.37623609173E+01  0.25810115347E+02  0.40659142877E+02  0.00000000000E+00 0. -1.
         11    1    4    4    0    0  0.14432250874E+02 -0.53108172492E+01 -0.54255145489E+01  0.16307386472E+02  0.51100000000E-03 0. -1.
        -11    1    4    4    0    0  0.11513101323E+02  0.13025793302E+01  0.21527737364E+00  0.11588552956E+02  0.51100000000E-03 0.  1.
        -12    1    4    4    0    0  0.52451669640E+01  0.77705988362E+01 -0.20599878172E+02  0.22632917696E+02  0.00000000000E+00 0.  1.
</event>
<event>
 8    1  0.1338956E-013  0.9118800E+02  0.7816164E-02  0.1184000E+00
        -11   -1    0    0    0    0  0.00000000000E+00  0.00000000000E+00  0.45593999997E+02  0.45594000000E+02  0.51100000000E-03 0. -1.
         11   -1    0    0    0    0 -0.00000000000E+00 -0.00000000000E+00 -0.45593999997E+02  0.45594000000E+02  0.51100000000E-03 0.  1.
         23    2    1    2    0    0  0.00000000000E+00 -0.17763568394E-14  0.00000000000E+00  0.91188000000E+02  0.91188000000E+02 0.  0.
    9900012    2    3    3    0    0  0.27356635558E+02  0.12146060125E+02 -0.27518240166E+02  0.50528858009E+02  0.29999994405E+02 0.  0.
         12    1    3    3    0    0 -0.27356635558E+02 -0.12146060125E+02  0.27518240166E+02  0.40659141991E+02  0.00000000000E+00 0. -1.
         11    1    4    4    0    0  0.92181243843E+01  0.99570485218E+01 -0.25733574826E+01  0.13810821895E+02  0.51100000000E-03 0. -1.
        -11    1    4    4    0    0 -0.13276140141E+00  0.63235076655E+01 -0.13119777609E+02  0.14564784226E+02  0.51100000000E-03 0.  1.
        -12    1    4    4    0    0  0.18271272575E+02 -0.41344960623E+01 -0.11825105074E+02  0.22153251888E+02  0.00000000000E+00 0.  1.
</event>
<event>
 8    1  0.1338956E-013  0.9118800E+02  0.7816164E-02  0.1184000E+00
        -11   -1    0    0    0    0  0.00000000000E+00  0.00000000000E+00  0.45593999997E+02  0.45594000000E+02  0.51100000000E-03 0.  1.
         11   -1    0    0    0    0 -0.00000000000E+00 -0.00000000000E+00 -0.45593999997E+02  0.45594000000E+02  0.51100000000E-03 0. -1.
         23    2    1    2    0    0 -0.35527136788E-14  0.00000000000E+00 -0.17763568394E-14  0.91188000000E+02  0.91188000000E+02 0.  0.
    9900012    2    3    3    0    0 -0.25331949805E+02 -0.29153005131E+02 -0.12710650392E+02  0.50528855611E+02  0.29999987115E+02 0.  0.
         12    1    3    3    0    0  0.25331949805E+02  0.29153005131E+02  0.12710650392E+02  0.40659144389E+02  0.00000000000E+00 0. -1.
         11    1    4    4    0    0  0.16661100496E+01 -0.31082670414E+01 -0.42701664155E+00  0.35524062509E+01  0.51100000000E-03 0. -1.
        -11    1    4    4    0    0 -0.97076151877E+01 -0.26218209335E+02 -0.61220924901E+01  0.28620138191E+02  0.51100000000E-03 0.  1.
         12    1    4    4    0    0 -0.17290444666E+02  0.17347124526E+00 -0.61615412599E+01  0.18356311169E+02  0.00000000000E+00 0. -1.
</event>
<event>
 8    1  0.1338956E-013  0.9118800E+02  0.7816164E-02  0.1184000E+00
        -11   -1    0    0    0    0  0.00000000000E+00  0.00000000000E+00  0.45593999997E+02  0.45594000000E+02  0.51100000000E-03 0. -1.
         11   -1    0    0    0    0 -0.00000000000E+00 -0.00000000000E+00 -0.45593999997E+02  0.45594000000E+02  0.51100000000E-03 0.  1.
         23    2    1    2    0    0  0.17763568394E-14 -0.44408920985E-15  0.00000000000E+00  0.91188000000E+02  0.91188000000E+02 0.  0.
    9900012    2    3    3    0    0  0.15118551133E+02 -0.31919704689E+01  0.37608534936E+02  0.50528915359E+02  0.30000168724E+02 0.  0.
        -12    1    3    3    0    0 -0.15118551133E+02  0.31919704689E+01 -0.37608534936E+02  0.40659084641E+02  0.00000000000E+00 0.  1.
         11    1    4    4    0    0  0.97255276508E+01 -0.13732770180E+01  0.19890105582E+02  0.22183058359E+02  0.51100000000E-03 0. -1.
        -11    1    4    4    0    0  0.11681043729E+02  0.41456055273E+01  0.14560465428E+02  0.19121714921E+02  0.51100000000E-03 0.  1.
        -12    1    4    4    0    0 -0.62880202468E+01 -0.59642989782E+01  0.31579639263E+01  0.92241420786E+01  0.00000000000E+00 0.  1.
</event>
<event>
 8    1  0.1338956E-013  0.9118800E+02  0.7816164E-02  0.1184000E+00
        -11   -1    0    0    0    0  0.00000000000E+00  0.00000000000E+00  0.45593999997E+02  0.45594000000E+02  0.51100000000E-03 0. -1.
         11   -1    0    0    0    0 -0.00000000000E+00 -0.00000000000E+00 -0.45593999997E+02  0.45594000000E+02  0.51100000000E-03 0.  1.
         23    2    1    2    0    0  0.00000000000E+00  0.00000000000E+00  0.00000000000E+00  0.91188000000E+02  0.91188000000E+02 0.  0.
    9900012    2    3    3    0    0  0.92466858985E+01 -0.28980299308E+02 -0.26977887985E+02  0.50528863411E+02  0.30000010823E+02 0.  0.
         12    1    3    3    0    0 -0.92466858985E+01  0.28980299308E+02  0.26977887985E+02  0.40659136589E+02  0.00000000000E+00 0. -1.
         11    1    4    4    0    0 -0.35338995783E+01 -0.26176810380E+01 -0.15237801885E+01  0.46543105365E+01  0.51100000000E-03 0. -1.
        -11    1    4    4    0    0 -0.33620694795E+01 -0.20188874567E+02 -0.17139247832E+02  0.26695467480E+02  0.51100000000E-03 0.  1.
         12    1    4    4    0    0  0.16142654956E+02 -0.61737437026E+01 -0.83148599646E+01  0.19179085395E+02  0.00000000000E+00 0. -1.
</event>
<event>
 8    1  0.1566762E-013  0.9118800E+02  0.7816164E-02  0.1184000E+00
        -11   -1    0    0    0    0  0.00000000000E+00  0.00000000000E+00  0.45593999997E+02  0.45594000000E+02  0.51100000000E-03 0. -1.
         11   -1    0    0    0    0 -0.00000000000E+00 -0.00000000000E+00 -0.45593999997E+02  0.45594000000E+02  0.51100000000E-03 0.  1.
         23    2    1    2    0    0  0.00000000000E+00 -0.35527136788E-14  0.71054273576E-14  0.91188000000E+02  0.91188000000E+02 0.  0.
    9900012    2    3    3    0    0  0.48434325870E+01  0.21127812469E+02 -0.34399467082E+02  0.50528848084E+02  0.29999964237E+02 0.  0.
         12    1    3    3    0    0 -0.48434325870E+01 -0.21127812469E+02  0.34399467082E+02  0.40659151916E+02  0.00000000000E+00 0. -1.
         11    1    4    4    0    0 -0.81099272861E+01  0.21901996986E+01 -0.61844045236E+01  0.10431431104E+02  0.51100000000E-03 0. -1.
        -11    1    4    4    0    0 -0.23390795376E+01  0.75171182039E+01 -0.14815064183E+02  0.16776903355E+02  0.51100000000E-03 0.  1.
         12    1    4    4    0    0  0.15292439411E+02  0.11420494567E+02 -0.13399998375E+02  0.23320513625E+02  0.00000000000E+00 0. -1.
</event>
<event>
 8    1  0.1338956E-013  0.9118800E+02  0.7816164E-02  0.1184000E+00
        -11   -1    0    0    0    0  0.00000000000E+00  0.00000000000E+00  0.45593999997E+02  0.45594000000E+02  0.51100000000E-03 0. -1.
         11   -1    0    0    0    0 -0.00000000000E+00 -0.00000000000E+00 -0.45593999997E+02  0.45594000000E+02  0.51100000000E-03 0.  1.
         23    2    1    2    0    0  0.00000000000E+00  0.00000000000E+00  0.00000000000E+00  0.91188000000E+02  0.91188000000E+02 0.  0.
    9900012    2    3    3    0    0 -0.26024099846E+01  0.11982247894E+02  0.38766200590E+02  0.50528866825E+02  0.30000021202E+02 0.  0.
        -12    1    3    3    0    0  0.26024099846E+01 -0.11982247894E+02 -0.38766200590E+02  0.40659133175E+02  0.00000000000E+00 0.  1.
         11    1    4    4    0    0 -0.14370014649E+02  0.72712595458E+01  0.11564813987E+02  0.19827089025E+02  0.51100000000E-03 0. -1.
        -11    1    4    4    0    0  0.49717759780E+01  0.49436375639E+01  0.10071639338E+02  0.12271757329E+02  0.51100000000E-03 0.  1.
        -12    1    4    4    0    0  0.67958286859E+01 -0.23264921557E+00  0.17129747266E+02  0.18430020471E+02  0.00000000000E+00 0.  1.
</event>
<event>
 8    1  0.1338956E-013  0.9118800E+02  0.7816164E-02  0.1184000E+00
        -11   -1    0    0    0    0  0.00000000000E+00  0.00000000000E+00  0.45593999997E+02  0.45594000000E+02  0.51100000000E-03 0. -1.
         11   -1    0    0    0    0 -0.00000000000E+00 -0.00000000000E+00 -0.45593999997E+02  0.45594000000E+02  0.51100000000E-03 0.  1.
         23    2    1    2    0    0  0.00000000000E+00 -0.17763568394E-14  0.00000000000E+00  0.91188000000E+02  0.91188000000E+02 0.  0.
    9900012    2    3    3    0    0  0.70147735518E+01 -0.10881977414E+02 -0.38542714328E+02  0.50528864394E+02  0.30000013813E+02 0.  0.
         12    1    3    3    0    0 -0.70147735518E+01  0.10881977414E+02  0.38542714328E+02  0.40659135606E+02  0.00000000000E+00 0. -1.
         11    1    4    4    0    0  0.12286431985E+02 -0.85065965322E+01 -0.88033670664E+01  0.17344101806E+02  0.51100000000E-03 0. -1.
        -11    1    4    4    0    0  0.14501191932E+01 -0.48583259976E+01 -0.39752389497E+01  0.64427247451E+01  0.51100000000E-03 0.  1.
        -12    1    4    4    0    0 -0.67217776266E+01  0.24829451161E+01 -0.25764108312E+02  0.26742037843E+02  0.00000000000E+00 0.  1.
</event>
<event>
 8    1  0.1338956E-013  0.9118800E+02  0.7816164E-02  0.1184000E+00
        -11   -1    0    0    0    0  0.00000000000E+00  0.00000000000E+00  0.45593999997E+02  0.45594000000E+02  0.51100000000E-03 0. -1.
         11   -1    0    0    0    0 -0.00000000000E+00 -0.00000000000E+00 -0.45593999997E+02  0.45594000000E+02  0.51100000000E-03 0.  1.
         23    2    1    2    0    0  0.00000000000E+00  0.00000000000E+00  0.00000000000E+00  0.91188000000E+02  0.91188000000E+02 0.  0.
    9900012    2    3    3    0    0 -0.12791617442E+02  0.26684626056E+02 -0.27883171598E+02  0.50528855852E+02  0.29999987847E+02 0.  0.
         12    1    3    3    0    0  0.12791617442E+02 -0.26684626056E+02  0.27883171598E+02  0.40659144148E+02  0.00000000000E+00 0. -1.
         11    1    4    4    0    0 -0.27950664175E+01  0.27562089486E+01  0.26964894276E+01  0.47623670103E+01  0.51100000000E-03 0. -1.
        -11    1    4    4    0    0 -0.43358539865E+01  0.24998736651E+02 -0.15764537453E+02  0.29870672997E+02  0.51100000000E-03 0.  1.
        -12    1    4    4    0    0 -0.56606970380E+01 -0.10703195440E+01 -0.14815123572E+02  0.15895815844E+02  0.00000000000E+00 0.  1.
</event>
<event>
 8    1  0.1338956E-013  0.9118800E+02  0.7816164E-02  0.1184000E+00
        -11   -1    0    0    0    0  0.00000000000E+00  0.00000000000E+00  0.45593999997E+02  0.45594000000E+02  0.51100000000E-03 0. -1.
         11   -1    0    0    0    0 -0.00000000000E+00 -0.00000000000E+00 -0.45593999997E+02  0.45594000000E+02  0.51100000000E-03 0.  1.
         23    2    1    2    0    0  0.00000000000E+00  0.00000000000E+00  0.00000000000E+00  0.91188000000E+02  0.91188000000E+02 0.  0.
    9900012    2    3    3    0    0 -0.18905055699E+02  0.23928657296E+02  0.26892067810E+02  0.50528867175E+02  0.30000022266E+02 0.  0.
        -12    1    3    3    0    0  0.18905055699E+02 -0.23928657296E+02 -0.26892067810E+02  0.40659132825E+02  0.00000000000E+00 0.  1.
         11    1    4    4    0    0 -0.39426381649E+01  0.48762019569E+00  0.11463082951E+01  0.41347541793E+01  0.51100000000E-03 0. -1.
        -11    1    4    4    0    0  0.75990295904E+00  0.33690766966E+01 -0.52344659931E+01  0.62711852778E+01  0.51100000000E-03 0.  1.
         12    1    4    4    0    0 -0.15722320493E+02  0.20071960403E+02  0.30980225508E+02  0.40122927718E+02  0.00000000000E+00 0. -1.
</event>
<event>
 8    1  0.1338956E-013  0.9118800E+02  0.7816164E-02  0.1184000E+00
        -11   -1    0    0    0    0  0.00000000000E+00  0.00000000000E+00  0.45593999997E+02  0.45594000000E+02  0.51100000000E-03 0. -1.
         11   -1    0    0    0    0 -0.00000000000E+00 -0.00000000000E+00 -0.45593999997E+02  0.45594000000E+02  0.51100000000E-03 0.  1.
         23    2    1    2    0    0  0.71054273576E-14 -0.17763568394E-14  0.35527136788E-14  0.91188000000E+02  0.91188000000E+02 0.  0.
    9900012    2    3    3    0    0 -0.33132161915E+02  0.13580803498E+02 -0.19261040417E+02  0.50528855214E+02  0.29999985907E+02 0.  0.
         12    1    3    3    0    0  0.33132161915E+02 -0.13580803498E+02  0.19261040417E+02  0.40659144786E+02  0.00000000000E+00 0. -1.
         11    1    4    4    0    0 -0.58402271910E+01 -0.33814692438E+01 -0.57360022493E+00  0.67728579912E+01  0.51100000000E-03 0. -1.
        -11    1    4    4    0    0 -0.27539724003E+02  0.95924342985E+01 -0.70887240765E+01  0.30011684445E+02  0.51100000000E-03 0.  1.
        -12    1    4    4    0    0  0.24778927845E+00  0.73698384434E+01 -0.11598716115E+02  0.13744312778E+02  0.00000000000E+00 0.  1.
</event>
<event>
 8    1  0.1338956E-013  0.9118800E+02  0.7816164E-02  0.1184000E+00
        -11   -1    0    0    0    0  0.00000000000E+00  0.00000000000E+00  0.45593999997E+02  0.45594000000E+02  0.51100000000E-03 0. -1.
         11   -1    0    0    0    0 -0.00000000000E+00 -0.00000000000E+00 -0.45593999997E+02  0.45594000000E+02  0.51100000000E-03 0.  1.
         23    2    1    2    0    0  0.00000000000E+00  0.00000000000E+00  0.00000000000E+00  0.91188000000E+02  0.91188000000E+02 0.  0.
    9900012    2    3    3    0    0  0.11075348086E+02 -0.16717074856E+02 -0.35370120419E+02  0.50528814748E+02  0.29999862907E+02 0.  0.
         12    1    3    3    0    0 -0.11075348086E+02  0.16717074856E+02  0.35370120419E+02  0.40659185252E+02  0.00000000000E+00 0. -1.
         11    1    4    4    0    0  0.26255859393E+01  0.53514166114E+01 -0.24983103711E+01  0.64631970606E+01  0.51100000000E-03 0. -1.
        -11    1    4    4    0    0 -0.53136549539E+00  0.19175775109E+01 -0.84322957480E+01  0.86638943117E+01  0.51100000000E-03 0.  1.
        -12    1    4    4    0    0  0.89811276421E+01 -0.23986068978E+02 -0.24439514299E+02  0.35401723375E+02  0.00000000000E+00 0.  1.
</event>
<event>
 8    1  0.1338956E-013  0.9118800E+02  0.7816164E-02  0.1184000E+00
        -11   -1    0    0    0    0  0.00000000000E+00  0.00000000000E+00  0.45593999997E+02  0.45594000000E+02  0.51100000000E-03 0. -1.
         11   -1    0    0    0    0 -0.00000000000E+00 -0.00000000000E+00 -0.45593999997E+02  0.45594000000E+02  0.51100000000E-03 0.  1.
         23    2    1    2    0    0  0.88817841970E-15  0.00000000000E+00  0.00000000000E+00  0.91188000000E+02  0.91188000000E+02 0.  0.
    9900012    2    3    3    0    0  0.79761173566E+01 -0.24387900628E+02  0.31540066844E+02  0.50528880953E+02  0.30000064145E+02 0.  0.
        -12    1    3    3    0    0 -0.79761173566E+01  0.24387900628E+02 -0.31540066844E+02  0.40659119047E+02  0.00000000000E+00 0.  1.
         11    1    4    4    0    0  0.53069156125E+00 -0.14893723710E+02  0.10875429902E+02  0.18449379808E+02  0.51100000000E-03 0. -1.
        -11    1    4    4    0    0 -0.44637005640E+01 -0.10366273171E+02  0.49032044130E+01  0.12305513234E+02  0.51100000000E-03 0.  1.
        -12    1    4    4    0    0  0.11909126359E+02  0.87209625301E+00  0.15761432530E+02  0.19773987911E+02  0.00000000000E+00 0.  1.
</event>
<event>
 8    1  0.1338956E-013  0.9118800E+02  0.7816164E-02  0.1184000E+00
        -11   -1    0    0    0    0  0.00000000000E+00  0.00000000000E+00  0.45593999997E+02  0.45594000000E+02  0.51100000000E-03 0. -1.
         11   -1    0    0    0    0 -0.00000000000E+00 -0.00000000000E+00 -0.45593999997E+02  0.45594000000E+02  0.51100000000E-03 0.  1.
         23    2    1    2    0    0  0.44408920985E-15  0.00000000000E+00  0.00000000000E+00  0.91188000000E+02  0.91188000000E+02 0.  0.
    9900012    2    3    3    0    0 -0.11800271022E+01 -0.35930534386E+02 -0.18993929344E+02  0.50528866744E+02  0.30000020954E+02 0.  0.
         12    1    3    3    0    0  0.11800271022E+01  0.35930534386E+02  0.18993929344E+02  0.40659133256E+02  0.00000000000E+00 0. -1.
         11    1    4    4    0    0  0.21128195042E+01 -0.15293498822E+02 -0.15146633046E+01  0.15512875867E+02  0.51100000000E-03 0. -1.
        -11    1    4    4    0    0 -0.59735617425E+01 -0.23323528528E+02 -0.89598600022E+01  0.25689482564E+02  0.51100000000E-03 0.  1.
        -12    1    4    4    0    0  0.26807151360E+01  0.26864929638E+01 -0.85194060368E+01  0.93265083126E+01  0.00000000000E+00 0.  1.
</event>
<event>
 8    1  0.1338956E-013  0.9118800E+02  0.7816164E-02  0.1184000E+00
        -11   -1    0    0    0    0  0.00000000000E+00  0.00000000000E+00  0.45593999997E+02  0.45594000000E+02  0.51100000000E-03 0. -1.
         11   -1    0    0    0    0 -0.00000000000E+00 -0.00000000000E+00 -0.45593999997E+02  0.45594000000E+02  0.51100000000E-03 0.  1.
         23    2    1    2    0    0 -0.35527136788E-14  0.00000000000E+00  0.35527136788E-14  0.91188000000E+02  0.91188000000E+02 0.  0.
    9900012    2    3    3    0    0  0.18093095881E+02 -0.21027756226E+02 -0.29726069517E+02  0.50528857616E+02  0.29999993209E+02 0.  0.
         12    1    3    3    0    0 -0.18093095881E+02  0.21027756226E+02  0.29726069517E+02  0.40659142384E+02  0.00000000000E+00 0. -1.
         11    1    4    4    0    0 -0.25376367493E+01 -0.10126086012E+02 -0.32418711425E+01  0.10931008506E+02  0.51100000000E-03 0. -1.
        -11    1    4    4    0    0  0.21468817724E+02 -0.12974958404E+02 -0.18133552234E+02  0.30952954575E+02  0.51100000000E-03 0.  1.
         12    1    4    4    0    0 -0.83808509306E+00  0.20732881902E+01 -0.83506461406E+01  0.86448945343E+01  0.00000000000E+00 0. -1.
</event>
<event>
 8    1  0.1338956E-013  0.9118800E+02  0.7816164E-02  0.1184000E+00
        -11   -1    0    0    0    0  0.00000000000E+00  0.00000000000E+00  0.45593999997E+02  0.45594000000E+02  0.51100000000E-03 0. -1.
         11   -1    0    0    0    0 -0.00000000000E+00 -0.00000000000E+00 -0.45593999997E+02  0.45594000000E+02  0.51100000000E-03 0.  1.
         23    2    1    2    0    0 -0.35527136788E-14  0.00000000000E+00  0.35527136788E-14  0.91188000000E+02  0.91188000000E+02 0.  0.
    9900012    2    3    3    0    0  0.15644605209E+02 -0.24806706710E+02 -0.28160949583E+02  0.50528862634E+02  0.30000008461E+02 0.  0.
         12    1    3    3    0    0 -0.15644605209E+02  0.24806706710E+02  0.28160949583E+02  0.40659137366E+02  0.00000000000E+00 0. -1.
         11    1    4    4    0    0 -0.18378813070E+00  0.84628495407E+00 -0.97945743695E-01  0.87153309192E+00  0.51100000000E-03 0. -1.
        -11    1    4    4    0    0  0.22277107820E+02 -0.11934295068E+02 -0.21329631242E+02  0.33070381019E+02  0.51100000000E-03 0.  1.
        -12    1    4    4    0    0 -0.64487144799E+01 -0.13718696597E+02 -0.67333725970E+01  0.16586948522E+02  0.00000000000E+00 0.  1.
</event>
<event>
 8    1  0.1338956E-013  0.9118800E+02  0.7816164E-02  0.1184000E+00
        -11   -1    0    0    0    0  0.00000000000E+00  0.00000000000E+00  0.45593999997E+02  0.45594000000E+02  0.51100000000E-03 0. -1.
         11   -1    0    0    0    0 -0.00000000000E+00 -0.00000000000E+00 -0.45593999997E+02  0.45594000000E+02  0.51100000000E-03 0.  1.
         23    2    1    2    0    0 -0.35527136788E-14  0.44408920985E-15  0.00000000000E+00  0.91188000000E+02  0.91188000000E+02 0.  0.
    9900012    2    3    3    0    0 -0.18029072402E+02 -0.34119532590E+01  0.36283227227E+02  0.50528911782E+02  0.30000157852E+02 0.  0.
        -12    1    3    3    0    0  0.18029072402E+02  0.34119532590E+01 -0.36283227227E+02  0.40659088218E+02  0.00000000000E+00 0.  1.
         11    1    4    4    0    0 -0.20244181232E+01  0.56255670923E+01  0.70893884380E+01  0.92738720356E+01  0.51100000000E-03 0. -1.
        -11    1    4    4    0    0 -0.99619549219E+01  0.46782329440E+01  0.35709742518E+01  0.11570577631E+02  0.51100000000E-03 0.  1.
        -12    1    4    4    0    0 -0.60426993569E+01 -0.13715753295E+02  0.25622864537E+02  0.29684462115E+02  0.00000000000E+00 0.  1.
</event>
<event>
 8    1  0.1338956E-013  0.9118800E+02  0.7816164E-02  0.1184000E+00
        -11   -1    0    0    0    0  0.00000000000E+00  0.00000000000E+00  0.45593999997E+02  0.45594000000E+02  0.51100000000E-03 0. -1.
         11   -1    0    0    0    0 -0.00000000000E+00 -0.00000000000E+00 -0.45593999997E+02  0.45594000000E+02  0.51100000000E-03 0.  1.
         23    2    1    2    0    0  0.00000000000E+00 -0.17763568394E-14  0.00000000000E+00  0.91188000000E+02  0.91188000000E+02 0.  0.
    9900012    2    3    3    0    0 -0.11042090503E+02  0.12188984956E+02  0.37184225817E+02  0.50528858758E+02  0.29999996680E+02 0.  0.
        -12    1    3    3    0    0  0.11042090503E+02 -0.12188984956E+02 -0.37184225817E+02  0.40659141242E+02  0.00000000000E+00 0.  1.
         11    1    4    4    0    0 -0.18787256746E+02  0.17185082272E+01  0.16892603442E+02  0.25323395070E+02  0.51100000000E-03 0. -1.
        -11    1    4    4    0    0 -0.21043944303E+00  0.23005016437E+01  0.49992035501E+00  0.23635805876E+01  0.51100000000E-03 0.  1.
         12    1    4    4    0    0  0.79556056854E+01  0.81699750854E+01  0.19791702020E+02  0.22841883100E+02  0.00000000000E+00 0. -1.
</event>
<event>
 8    1  0.1338956E-013  0.9118800E+02  0.7816164E-02  0.1184000E+00
        -11   -1    0    0    0    0  0.00000000000E+00  0.00000000000E+00  0.45593999997E+02  0.45594000000E+02  0.51100000000E-03 0. -1.
         11   -1    0    0    0    0 -0.00000000000E+00 -0.00000000000E+00 -0.45593999997E+02  0.45594000000E+02  0.51100000000E-03 0.  1.
         23    2    1    2    0    0 -0.44408920985E-15  0.00000000000E+00  0.00000000000E+00  0.91188000000E+02  0.91188000000E+02 0.  0.
    9900012    2    3    3    0    0  0.13764877767E+01  0.11104392623E+02 -0.39089175886E+02  0.50528856802E+02  0.29999990736E+02 0.  0.
         12    1    3    3    0    0 -0.13764877767E+01 -0.11104392623E+02  0.39089175886E+02  0.40659143198E+02  0.00000000000E+00 0. -1.
         11    1    4    4    0    0  0.41710067830E+01 -0.12701440494E+01 -0.26440516715E+01  0.50991737559E+01  0.51100000000E-03 0. -1.
        -11    1    4    4    0    0 -0.10842004610E+02  0.55672234294E+01 -0.31522040497E+02  0.33796184371E+02  0.51100000000E-03 0.  1.
         12    1    4    4    0    0  0.80474856040E+01  0.68073132430E+01 -0.49230837174E+01  0.11633498675E+02  0.00000000000E+00 0. -1.
</event>
<event>
 8    1  0.1338956E-013  0.9118800E+02  0.7816164E-02  0.1184000E+00
        -11   -1    0    0    0    0  0.00000000000E+00  0.00000000000E+00  0.45593999997E+02  0.45594000000E+02  0.51100000000E-03 0. -1.
         11   -1    0    0    0    0 -0.00000000000E+00 -0.00000000000E+00 -0.45593999997E+02  0.45594000000E+02  0.51100000000E-03 0.  1.
         23    2    1    2    0    0  0.17763568394E-14  0.00000000000E+00  0.00000000000E+00  0.91188000000E+02  0.91188000000E+02 0.  0.
    9900012    2    3    3    0    0 -0.69912810305E+01  0.74301004961E+01  0.39358374979E+02  0.50528854844E+02  0.29999984785E+02 0.  0.
        -12    1    3    3    0    0  0.69912810305E+01 -0.74301004961E+01 -0.39358374979E+02  0.40659145156E+02  0.00000000000E+00 0.  1.
         11    1    4    4    0    0 -0.68051267264E+01  0.21898889329E+01  0.21612370067E+02  0.22764004557E+02  0.51100000000E-03 0. -1.
        -11    1    4    4    0    0  0.10021641153E+02  0.46587257135E+01  0.10395986962E+02  0.15172790180E+02  0.51100000000E-03 0.  1.
         12    1    4    4    0    0 -0.10207795457E+02  0.58148584972E+00  0.73500179492E+01  0.12592060107E+02  0.00000000000E+00 0. -1.
</event>
<event>
 8    1  0.1338956E-013  0.9118800E+02  0.7816164E-02  0.1184000E+00
        -11   -1    0    0    0    0  0.00000000000E+00  0.00000000000E+00  0.45593999997E+02  0.45594000000E+02  0.51100000000E-03 0.  1.
         11   -1    0    0    0    0 -0.00000000000E+00 -0.00000000000E+00 -0.45593999997E+02  0.45594000000E+02  0.51100000000E-03 0. -1.
         23    2    1    2    0    0  0.00000000000E+00  0.00000000000E+00  0.88817841970E-15  0.91188000000E+02  0.91188000000E+02 0.  0.
    9900012    2    3    3    0    0  0.34995912119E+02 -0.19721945165E+02  0.62845946387E+01  0.50528866759E+02  0.30000021001E+02 0.  0.
         12    1    3    3    0    0 -0.34995912119E+02  0.19721945165E+02 -0.62845946387E+01  0.40659133241E+02  0.00000000000E+00 0. -1.
         11    1    4    4    0    0  0.25977609876E+01 -0.13277233990E+01 -0.96732730945E+00  0.30735864975E+01  0.51100000000E-03 0. -1.
        -11    1    4    4    0    0  0.16945317654E+02 -0.24553679831E+01  0.16151311419E+02  0.23538000832E+02  0.51100000000E-03 0.  1.
        -12    1    4    4    0    0  0.15452833477E+02 -0.15938853783E+02 -0.88993894708E+01  0.23917279430E+02  0.00000000000E+00 0.  1.
</event>
<event>
 8    1  0.1338956E-013  0.9118800E+02  0.7816164E-02  0.1184000E+00
        -11   -1    0    0    0    0  0.00000000000E+00  0.00000000000E+00  0.45593999997E+02  0.45594000000E+02  0.51100000000E-03 0. -1.
         11   -1    0    0    0    0 -0.00000000000E+00 -0.00000000000E+00 -0.45593999997E+02  0.45594000000E+02  0.51100000000E-03 0.  1.
         23    2    1    2    0    0  0.00000000000E+00 -0.17763568394E-14  0.00000000000E+00  0.91188000000E+02  0.91188000000E+02 0.  0.
    9900012    2    3    3    0    0 -0.55207823101E+01 -0.11674115568E+02 -0.38553879048E+02  0.50528860791E+02  0.30000002859E+02 0.  0.
         12    1    3    3    0    0  0.55207823101E+01  0.11674115568E+02  0.38553879048E+02  0.40659139209E+02  0.00000000000E+00 0. -1.
         11    1    4    4    0    0 -0.90694610535E+01 -0.10517500038E+02 -0.25343947626E+02  0.28899629970E+02  0.51100000000E-03 0. -1.
        -11    1    4    4    0    0  0.17179636322E+00 -0.70190984533E+01 -0.13099866934E+02  0.14862831865E+02  0.51100000000E-03 0.  1.
        -12    1    4    4    0    0  0.33768823802E+01  0.58624829240E+01 -0.11006448814E+00  0.67663989562E+01  0.00000000000E+00 0.  1.
</event>
<event>
 8    1  0.1338956E-013  0.9118800E+02  0.7816164E-02  0.1184000E+00
        -11   -1    0    0    0    0  0.00000000000E+00  0.00000000000E+00  0.45593999997E+02  0.45594000000E+02  0.51100000000E-03 0. -1.
         11   -1    0    0    0    0 -0.00000000000E+00 -0.00000000000E+00 -0.45593999997E+02  0.45594000000E+02  0.51100000000E-03 0.  1.
         23    2    1    2    0    0  0.00000000000E+00  0.00000000000E+00  0.00000000000E+00  0.91188000000E+02  0.91188000000E+02 0.  0.
    9900012    2    3    3    0    0  0.63360998577E+01  0.23228744859E+02  0.32763489181E+02  0.50528843928E+02  0.29999951605E+02 0.  0.
        -12    1    3    3    0    0 -0.63360998577E+01 -0.23228744859E+02 -0.32763489181E+02  0.40659156072E+02  0.00000000000E+00 0.  1.
         11    1    4    4    0    0  0.43442428651E+01  0.34678939722E+01 -0.33566183210E+01  0.64935061013E+01  0.51100000000E-03 0. -1.
        -11    1    4    4    0    0 -0.29024805545E+00 -0.71991099030E+00 -0.11851137311E+01  0.14166900100E+01  0.51100000000E-03 0.  1.
         12    1    4    4    0    0  0.22821050481E+01  0.20480761877E+02  0.37305221233E+02  0.42618647817E+02  0.00000000000E+00 0. -1.
</event>
<event>
 8    1  0.1338956E-013  0.9118800E+02  0.7816164E-02  0.1184000E+00
        -11   -1    0    0    0    0  0.00000000000E+00  0.00000000000E+00  0.45593999997E+02  0.45594000000E+02  0.51100000000E-03 0. -1.
         11   -1    0    0    0    0 -0.00000000000E+00 -0.00000000000E+00 -0.45593999997E+02  0.45594000000E+02  0.51100000000E-03 0.  1.
         23    2    1    2    0    0  0.00000000000E+00  0.00000000000E+00  0.00000000000E+00  0.91188000000E+02  0.91188000000E+02 0.  0.
    9900012    2    3    3    0    0 -0.16121898925E+02  0.36059259184E+02 -0.96426030069E+01  0.50528860921E+02  0.30000003256E+02 0.  0.
         12    1    3    3    0    0  0.16121898925E+02 -0.36059259184E+02  0.96426030069E+01  0.40659139079E+02  0.00000000000E+00 0. -1.
         11    1    4    4    0    0  0.11911135123E+01  0.76546424418E+00 -0.34191968962E+01  0.37007559477E+01  0.51100000000E-03 0. -1.
        -11    1    4    4    0    0 -0.59741947256E+01 -0.98578722375E+00  0.42543968784E+01  0.74001805471E+01  0.51100000000E-03 0.  1.
        -12    1    4    4    0    0 -0.11338817712E+02  0.36279582164E+02 -0.10477802989E+02  0.39427924426E+02  0.00000000000E+00 0.  1.
</event>
<event>
 8    1 -0.8407349E-013  0.9118800E+02  0.7816164E-02  0.1184000E+00
        -11   -1    0    0    0    0  0.00000000000E+00  0.00000000000E+00  0.45593999997E+02  0.45594000000E+02  0.51100000000E-03 0. -1.
         11   -1    0    0    0    0 -0.00000000000E+00 -0.00000000000E+00 -0.45593999997E+02  0.45594000000E+02  0.51100000000E-03 0.  1.
         23    2    1    2    0    0 -0.17763568394E-14  0.00000000000E+00 -0.71054273576E-14  0.91188000000E+02  0.91188000000E+02 0.  0.
    9900012    2    3    3    0    0  0.12053256125E+02 -0.19057448678E+02  0.33833409360E+02  0.50528844546E+02  0.29999953481E+02 0.  0.
        -12    1    3    3    0    0 -0.12053256125E+02  0.19057448678E+02 -0.33833409360E+02  0.40659155454E+02  0.00000000000E+00 0.  1.
         11    1    4    4    0    0 -0.90480814548E+01 -0.64173043532E+01  0.11734077974E+02  0.16147388623E+02  0.51100000000E-03 0. -1.
        -11    1    4    4    0    0  0.18761240101E+01 -0.54771102635E+01  0.55863013679E+01  0.80452061113E+01  0.51100000000E-03 0.  1.
         12    1    4    4    0    0  0.19225213570E+02 -0.71630340609E+01  0.16513030019E+02  0.26336249812E+02  0.00000000000E+00 0. -1.
</event>
<event>
 8    1  0.1338956E-013  0.9118800E+02  0.7816164E-02  0.1184000E+00
        -11   -1    0    0    0    0  0.00000000000E+00  0.00000000000E+00  0.45593999997E+02  0.45594000000E+02  0.51100000000E-03 0. -1.
         11   -1    0    0    0    0 -0.00000000000E+00 -0.00000000000E+00 -0.45593999997E+02  0.45594000000E+02  0.51100000000E-03 0.  1.
         23    2    1    2    0    0  0.00000000000E+00  0.00000000000E+00  0.00000000000E+00  0.91188000000E+02  0.91188000000E+02 0.  0.
    9900012    2    3    3    0    0 -0.29782506374E+02  0.19068735061E+02 -0.20063769280E+02  0.50528816776E+02  0.29999869072E+02 0.  0.
         12    1    3    3    0    0  0.29782506374E+02 -0.19068735061E+02  0.20063769280E+02  0.40659183224E+02  0.00000000000E+00 0. -1.
         11    1    4    4    0    0  0.17514499418E+01  0.41909703089E+01  0.90053475268E+00  0.46306340959E+01  0.51100000000E-03 0. -1.
        -11    1    4    4    0    0  0.31311474082E+00  0.81495483663E+01 -0.56778621804E+01  0.99373687975E+01  0.51100000000E-03 0.  1.
        -12    1    4    4    0    0 -0.31847071056E+02  0.67282163861E+01 -0.15286441852E+02  0.35960813883E+02  0.00000000000E+00 0.  1.
</event>
<event>
 8    1  0.1338956E-013  0.9118800E+02  0.7816164E-02  0.1184000E+00
        -11   -1    0    0    0    0  0.00000000000E+00  0.00000000000E+00  0.45593999997E+02  0.45594000000E+02  0.51100000000E-03 0. -1.
         11   -1    0    0    0    0 -0.00000000000E+00 -0.00000000000E+00 -0.45593999997E+02  0.45594000000E+02  0.51100000000E-03 0.  1.
         23    2    1    2    0    0  0.00000000000E+00  0.00000000000E+00 -0.71054273576E-14  0.91188000000E+02  0.91188000000E+02 0.  0.
    9900012    2    3    3    0    0 -0.17532845103E+02 -0.15237831452E+02 -0.33370255523E+02  0.50528854430E+02  0.29999983527E+02 0.  0.
         12    1    3    3    0    0  0.17532845103E+02  0.15237831452E+02  0.33370255523E+02  0.40659145570E+02  0.00000000000E+00 0. -1.
         11    1    4    4    0    0  0.47841499842E+01  0.56700516288E+00 -0.78323910624E+01  0.91954301663E+01  0.51100000000E-03 0. -1.
        -11    1    4    4    0    0  0.30183785245E+01 -0.18871158647E+01 -0.22287695089E+01  0.41999082120E+01  0.51100000000E-03 0.  1.
        -12    1    4    4    0    0 -0.25335373612E+02 -0.13917720750E+02 -0.23309094952E+02  0.37133516052E+02  0.00000000000E+00 0.  1.
</event>
<event>
 8    1  0.1338956E-013  0.9118800E+02  0.7816164E-02  0.1184000E+00
        -11   -1    0    0    0    0  0.00000000000E+00  0.00000000000E+00  0.45593999997E+02  0.45594000000E+02  0.51100000000E-03 0. -1.
         11   -1    0    0    0    0 -0.00000000000E+00 -0.00000000000E+00 -0.45593999997E+02  0.45594000000E+02  0.51100000000E-03 0.  1.
         23    2    1    2    0    0  0.88817841970E-15  0.17763568394E-14  0.71054273576E-14  0.91188000000E+02  0.91188000000E+02 0.  0.
    9900012    2    3    3    0    0 -0.76456583521E+01 -0.12459808339E+02 -0.37940253383E+02  0.50528859057E+02  0.29999997590E+02 0.  0.
         12    1    3    3    0    0  0.76456583521E+01  0.12459808339E+02  0.37940253383E+02  0.40659140943E+02  0.00000000000E+00 0. -1.
         11    1    4    4    0    0 -0.56064334995E+01 -0.98008872012E+01 -0.87198328647E+01  0.14266217858E+02  0.51100000000E-03 0.  1.
        -11    1    4    4    0    0  0.34273167454E+01 -0.82917989294E+01 -0.39535968092E+01  0.98046599916E+01  0.51100000000E-03 0. -1.
        -12    1    4    4    0    0 -0.54665415980E+01  0.56328777914E+01 -0.25266823709E+02  0.26457981208E+02  0.00000000000E+00 0.  1.
</event>
<event>
 8    1  0.1338956E-013  0.9118800E+02  0.7816164E-02  0.1184000E+00
        -11   -1    0    0    0    0  0.00000000000E+00  0.00000000000E+00  0.45593999997E+02  0.45594000000E+02  0.51100000000E-03 0. -1.
         11   -1    0    0    0    0 -0.00000000000E+00 -0.00000000000E+00 -0.45593999997E+02  0.45594000000E+02  0.51100000000E-03 0.  1.
         23    2    1    2    0    0  0.88817841970E-15  0.00000000000E+00  0.00000000000E+00  0.91188000000E+02  0.91188000000E+02 0.  0.
    9900012    2    3    3    0    0 -0.51206710789E+01 -0.19475653523E+02  0.35321979843E+02  0.50528872950E+02  0.30000039820E+02 0.  0.
        -12    1    3    3    0    0  0.51206710789E+01  0.19475653523E+02 -0.35321979843E+02  0.40659127050E+02  0.00000000000E+00 0.  1.
         11    1    4    4    0    0  0.31211859922E+01 -0.36472178030E+01  0.35702158438E+01  0.59825112731E+01  0.51100000000E-03 0. -1.
        -11    1    4    4    0    0  0.65547114664E+00 -0.20524478102E+02  0.16833668215E+02  0.26552894938E+02  0.51100000000E-03 0.  1.
         12    1    4    4    0    0 -0.88973282177E+01  0.46960423821E+01  0.14918095784E+02  0.17993466739E+02  0.00000000000E+00 0. -1.
</event>
<event>
 8    1  0.1338956E-013  0.9118800E+02  0.7816164E-02  0.1184000E+00
        -11   -1    0    0    0    0  0.00000000000E+00  0.00000000000E+00  0.45593999997E+02  0.45594000000E+02  0.51100000000E-03 0. -1.
         11   -1    0    0    0    0 -0.00000000000E+00 -0.00000000000E+00 -0.45593999997E+02  0.45594000000E+02  0.51100000000E-03 0.  1.
         23    2    1    2    0    0  0.00000000000E+00 -0.17763568394E-14  0.00000000000E+00  0.91188000000E+02  0.91188000000E+02 0.  0.
    9900012    2    3    3    0    0  0.38331431919E+02 -0.12744020180E+02  0.46320874873E+01  0.50528868704E+02  0.30000026912E+02 0.  0.
         12    1    3    3    0    0 -0.38331431919E+02  0.12744020180E+02 -0.46320874873E+01  0.40659131296E+02  0.00000000000E+00 0. -1.
         11    1    4    4    0    0  0.55356655272E+01  0.27461362392E+01 -0.64969057607E+01  0.89663059170E+01  0.51100000000E-03 0. -1.
        -11    1    4    4    0    0  0.88028593911E+01  0.55110348331E+00 -0.31453381983E+01  0.93641444431E+01  0.51100000000E-03 0.  1.
         12    1    4    4    0    0  0.23992907000E+02 -0.16041259903E+02  0.14274331446E+02  0.32198418344E+02  0.00000000000E+00 0. -1.
</event>
<event>
 8    1  0.1338956E-013  0.9118800E+02  0.7816164E-02  0.1184000E+00
        -11   -1    0    0    0    0  0.00000000000E+00  0.00000000000E+00  0.45593999997E+02  0.45594000000E+02  0.51100000000E-03 0. -1.
         11   -1    0    0    0    0 -0.00000000000E+00 -0.00000000000E+00 -0.45593999997E+02  0.45594000000E+02  0.51100000000E-03 0.  1.
         23    2    1    2    0    0  0.00000000000E+00  0.00000000000E+00  0.00000000000E+00  0.91188000000E+02  0.91188000000E+02 0.  0.
    9900012    2    3    3    0    0  0.32553510836E+02 -0.18624833514E+02  0.15701896546E+02  0.50528867615E+02  0.30000023602E+02 0.  0.
        -12    1    3    3    0    0 -0.32553510836E+02  0.18624833514E+02 -0.15701896546E+02  0.40659132385E+02  0.00000000000E+00 0.  1.
         11    1    4    4    0    0  0.23398157234E+02 -0.41532150926E+01  0.68629012205E+01  0.24735043380E+02  0.51100000000E-03 0. -1.
        -11    1    4    4    0    0  0.84666920610E+01  0.11856607903E+01  0.34812068471E+01  0.92308974287E+01  0.51100000000E-03 0.  1.
        -12    1    4    4    0    0  0.68866154121E+00 -0.15657279211E+02  0.53577884782E+01  0.16562926807E+02  0.00000000000E+00 0.  1.
</event>
<event>
 8    1  0.1338956E-013  0.9118800E+02  0.7816164E-02  0.1184000E+00
        -11   -1    0    0    0    0  0.00000000000E+00  0.00000000000E+00  0.45593999997E+02  0.45594000000E+02  0.51100000000E-03 0. -1.
         11   -1    0    0    0    0 -0.00000000000E+00 -0.00000000000E+00 -0.45593999997E+02  0.45594000000E+02  0.51100000000E-03 0.  1.
         23    2    1    2    0    0  0.00000000000E+00 -0.17763568394E-14  0.35527136788E-14  0.91188000000E+02  0.91188000000E+02 0.  0.
    9900012    2    3    3    0    0  0.33679062151E+02 -0.78912919972E+01  0.21368527675E+02  0.50528859678E+02  0.29999999478E+02 0.  0.
        -12    1    3    3    0    0 -0.33679062151E+02  0.78912919972E+01 -0.21368527675E+02  0.40659140322E+02  0.00000000000E+00 0.  1.
         11    1    4    4    0    0  0.23036656571E+02 -0.47002685434E+01  0.85789422995E+01  0.25027551251E+02  0.51100000000E-03 0. -1.
        -11    1    4    4    0    0  0.48425597849E+01  0.38754973246E+01 -0.32777854015E+01  0.70152506857E+01  0.51100000000E-03 0.  1.
         12    1    4    4    0    0  0.57998457942E+01 -0.70665207784E+01  0.16067370777E+02  0.18486057742E+02  0.00000000000E+00 0. -1.
</event>
<event>
 8    1  0.1338956E-013  0.9118800E+02  0.7816164E-02  0.1184000E+00
        -11   -1    0    0    0    0  0.00000000000E+00  0.00000000000E+00  0.45593999997E+02  0.45594000000E+02  0.51100000000E-03 0. -1.
         11   -1    0    0    0    0 -0.00000000000E+00 -0.00000000000E+00 -0.45593999997E+02  0.45594000000E+02  0.51100000000E-03 0.  1.
         23    2    1    2    0    0  0.17763568394E-14 -0.17763568394E-14  0.71054273576E-14  0.91188000000E+02  0.91188000000E+02 0.  0.
    9900012    2    3    3    0    0  0.12941543048E+02 -0.14679678833E+02  0.35639715509E+02  0.50528857994E+02  0.29999994359E+02 0.  0.
        -12    1    3    3    0    0 -0.12941543048E+02  0.14679678833E+02 -0.35639715509E+02  0.40659142006E+02  0.00000000000E+00 0.  1.
         11    1    4    4    0    0 -0.15085018748E+01 -0.24567509904E+01 -0.14604397762E+01  0.32317314146E+01  0.51100000000E-03 0. -1.
        -11    1    4    4    0    0  0.15664176853E+02 -0.17038818247E+02  0.24258653331E+02  0.33528644849E+02  0.51100000000E-03 0.  1.
         12    1    4    4    0    0 -0.12141319300E+01  0.48158904040E+01  0.12841501954E+02  0.13768481731E+02  0.00000000000E+00 0. -1.
</event>
<event>
 8    1  0.1338956E-013  0.9118800E+02  0.7816164E-02  0.1184000E+00
        -11   -1    0    0    0    0  0.00000000000E+00  0.00000000000E+00  0.45593999997E+02  0.45594000000E+02  0.51100000000E-03 0. -1.
         11   -1    0    0    0    0 -0.00000000000E+00 -0.00000000000E+00 -0.45593999997E+02  0.45594000000E+02  0.51100000000E-03 0.  1.
         23    2    1    2    0    0  0.00000000000E+00 -0.88817841970E-15 -0.35527136788E-14  0.91188000000E+02  0.91188000000E+02 0.  0.
    9900012    2    3    3    0    0 -0.36348292138E+02 -0.56486878160E+01 -0.17322260452E+02  0.50528847001E+02  0.29999960945E+02 0.  0.
         12    1    3    3    0    0  0.36348292138E+02  0.56486878160E+01  0.17322260452E+02  0.40659152999E+02  0.00000000000E+00 0. -1.
         11    1    4    4    0    0 -0.45055949549E+01 -0.32425985437E+01 -0.14812858002E+01  0.57453493450E+01  0.51100000000E-03 0. -1.
        -11    1    4    4    0    0 -0.23572151802E+02 -0.71755972112E+00  0.33484032042E+01  0.23819593549E+02  0.51100000000E-03 0.  1.
         12    1    4    4    0    0 -0.82705453811E+01 -0.16885295512E+01 -0.19189377856E+02  0.20963904108E+02  0.00000000000E+00 0. -1.
</event>
<event>
 8    1  0.1338956E-013  0.9118800E+02  0.7816164E-02  0.1184000E+00
        -11   -1    0    0    0    0  0.00000000000E+00  0.00000000000E+00  0.45593999997E+02  0.45594000000E+02  0.51100000000E-03 0. -1.
         11   -1    0    0    0    0 -0.00000000000E+00 -0.00000000000E+00 -0.45593999997E+02  0.45594000000E+02  0.51100000000E-03 0.  1.
         23    2    1    2    0    0  0.00000000000E+00  0.00000000000E+00 -0.35527136788E-14  0.91188000000E+02  0.91188000000E+02 0.  0.
    9900012    2    3    3    0    0  0.30134338797E+02  0.22043983550E+02  0.16098135137E+02  0.50528861539E+02  0.30000005135E+02 0.  0.
        -12    1    3    3    0    0 -0.30134338797E+02 -0.22043983550E+02 -0.16098135137E+02  0.40659138461E+02  0.00000000000E+00 0.  1.
         11    1    4    4    0    0  0.56905543995E+00 -0.56610152256E+00 -0.36354939021E+01  0.37230513293E+01  0.51100000000E-03 0. -1.
        -11    1    4    4    0    0  0.13202902469E+01 -0.30124587286E+01 -0.94870283425E+00  0.34231726886E+01  0.51100000000E-03 0.  1.
         12    1    4    4    0    0  0.28244993110E+02  0.25622543801E+02  0.20682331873E+02  0.43382637522E+02  0.00000000000E+00 0. -1.
</event>
<event>
 8    1  0.1338956E-013  0.9118800E+02  0.7816164E-02  0.1184000E+00
        -11   -1    0    0    0    0  0.00000000000E+00  0.00000000000E+00  0.45593999997E+02  0.45594000000E+02  0.51100000000E-03 0. -1.
         11   -1    0    0    0    0 -0.00000000000E+00 -0.00000000000E+00 -0.45593999997E+02  0.45594000000E+02  0.51100000000E-03 0.  1.
         23    2    1    2    0    0  0.00000000000E+00  0.71054273576E-14  0.00000000000E+00  0.91188000000E+02  0.91188000000E+02 0.  0.
    9900012    2    3    3    0    0  0.45405207587E+01  0.36444893621E+02 -0.17444753423E+02  0.50528855619E+02  0.29999987139E+02 0.  0.
         12    1    3    3    0    0 -0.45405207587E+01 -0.36444893621E+02  0.17444753423E+02  0.40659144381E+02  0.00000000000E+00 0. -1.
         11    1    4    4    0    0 -0.36175315110E+01  0.43701911743E+01 -0.39797683404E+01  0.69299106370E+01  0.51100000000E-03 0. -1.
        -11    1    4    4    0    0 -0.59136053192E+01  0.15679415733E+02 -0.14222962440E+02  0.21979705786E+02  0.51100000000E-03 0.  1.
         12    1    4    4    0    0  0.14071657589E+02  0.16395286714E+02  0.75797735727E+00  0.21619239196E+02  0.00000000000E+00 0. -1.
</event>
<event>
 8    1  0.1338956E-013  0.9118800E+02  0.7816164E-02  0.1184000E+00
        -11   -1    0    0    0    0  0.00000000000E+00  0.00000000000E+00  0.45593999997E+02  0.45594000000E+02  0.51100000000E-03 0.  1.
         11   -1    0    0    0    0 -0.00000000000E+00 -0.00000000000E+00 -0.45593999997E+02  0.45594000000E+02  0.51100000000E-03 0. -1.
         23    2    1    2    0    0  0.00000000000E+00  0.00000000000E+00  0.00000000000E+00  0.91188000000E+02  0.91188000000E+02 0.  0.
    9900012    2    3    3    0    0  0.13365230909E+02  0.38356037837E+02  0.18304235328E+01  0.50528862206E+02  0.30000007162E+02 0.  0.
        -12    1    3    3    0    0 -0.13365230909E+02 -0.38356037837E+02 -0.18304235328E+01  0.40659137794E+02  0.00000000000E+00 0.  1.
         11    1    4    4    0    0  0.38444915844E+01  0.12581107870E+02 -0.76966892693E+00  0.13177889865E+02  0.51100000000E-03 0. -1.
        -11    1    4    4    0    0  0.14915528176E+02  0.27637657012E+02  0.99138935328E+00  0.31421265394E+02  0.51100000000E-03 0.  1.
        -12    1    4    4    0    0 -0.53947888509E+01 -0.18627270445E+01  0.16087031065E+01  0.59297069467E+01  0.00000000000E+00 0.  1.
</event>
<event>
 8    1  0.1338956E-013  0.9118800E+02  0.7816164E-02  0.1184000E+00
        -11   -1    0    0    0    0  0.00000000000E+00  0.00000000000E+00  0.45593999997E+02  0.45594000000E+02  0.51100000000E-03 0. -1.
         11   -1    0    0    0    0 -0.00000000000E+00 -0.00000000000E+00 -0.45593999997E+02  0.45594000000E+02  0.51100000000E-03 0.  1.
         23    2    1    2    0    0 -0.44408920985E-15 -0.88817841970E-15  0.00000000000E+00  0.91188000000E+02  0.91188000000E+02 0.  0.
    9900012    2    3    3    0    0  0.36636411364E+01 -0.76395057596E+01 -0.39766605146E+02  0.50528841137E+02  0.29999943120E+02 0.  0.
         12    1    3    3    0    0 -0.36636411364E+01  0.76395057596E+01  0.39766605146E+02  0.40659158863E+02  0.00000000000E+00 0. -1.
         11    1    4    4    0    0  0.11081917838E+02 -0.15690205177E+01 -0.21350069872E+02  0.24105937280E+02  0.51100000000E-03 0. -1.
        -11    1    4    4    0    0  0.24220554026E+01 -0.56944862007E+01 -0.14607849979E+02  0.15864514071E+02  0.51100000000E-03 0.  1.
        -12    1    4    4    0    0 -0.98403321039E+01 -0.37599904116E+00 -0.38086852952E+01  0.10558389786E+02  0.00000000000E+00 0.  1.
</event>
<event>
 8    1  0.1610766E-013  0.9118800E+02  0.7816164E-02  0.1184000E+00
        -11   -1    0    0    0    0  0.00000000000E+00  0.00000000000E+00  0.45593999997E+02  0.45594000000E+02  0.51100000000E-03 0. -1.
         11   -1    0    0    0    0 -0.00000000000E+00 -0.00000000000E+00 -0.45593999997E+02  0.45594000000E+02  0.51100000000E-03 0.  1.
         23    2    1    2    0    0 -0.71054273576E-14  0.44408920985E-15  0.35527136788E-14  0.91188000000E+02  0.91188000000E+02 0.  0.
    9900012    2    3    3    0    0  0.32875789637E+02 -0.26383481878E+01 -0.23777886131E+02  0.50528852268E+02  0.29999976954E+02 0.  0.
         12    1    3    3    0    0 -0.32875789637E+02  0.26383481878E+01  0.23777886131E+02  0.40659147732E+02  0.00000000000E+00 0. -1.
         11    1    4    4    0    0  0.69628535509E+01 -0.48260701362E+01  0.23143402410E+01  0.87822806573E+01  0.51100000000E-03 0. -1.
        -11    1    4    4    0    0  0.74932408353E+01  0.37672835097E+01  0.15133127761E+01  0.85223939757E+01  0.51100000000E-03 0.  1.
        -12    1    4    4    0    0  0.18419695251E+02 -0.15795615613E+01 -0.27605539149E+02  0.33224177635E+02  0.00000000000E+00 0.  1.
</event>
<event>
 8    1  0.1338956E-013  0.9118800E+02  0.7816164E-02  0.1184000E+00
        -11   -1    0    0    0    0  0.00000000000E+00  0.00000000000E+00  0.45593999997E+02  0.45594000000E+02  0.51100000000E-03 0. -1.
         11   -1    0    0    0    0 -0.00000000000E+00 -0.00000000000E+00 -0.45593999997E+02  0.45594000000E+02  0.51100000000E-03 0.  1.
         23    2    1    2    0    0 -0.97144514655E-16  0.00000000000E+00  0.00000000000E+00  0.91188000000E+02  0.91188000000E+02 0.  0.
    9900012    2    3    3    0    0  0.80538075052E-01 -0.57286861957E+01 -0.40253466417E+02  0.50528857233E+02  0.29999992046E+02 0.  0.
         12    1    3    3    0    0 -0.80538075052E-01  0.57286861957E+01  0.40253466417E+02  0.40659142767E+02  0.00000000000E+00 0. -1.
         11    1    4    4    0    0 -0.24077666396E+01  0.53267892543E+01 -0.99740085785E+01  0.11560833505E+02  0.51100000000E-03 0. -1.
        -11    1    4    4    0    0 -0.66654072642E+01 -0.35539542371E+01 -0.24802604996E+02  0.25927349644E+02  0.51100000000E-03 0.  1.
        -12    1    4    4    0    0  0.91537119788E+01 -0.75015212129E+01 -0.54768528431E+01  0.13040674084E+02  0.00000000000E+00 0.  1.
</event>
<event>
 8    1  0.1338956E-013  0.9118800E+02  0.7816164E-02  0.1184000E+00
        -11   -1    0    0    0    0  0.00000000000E+00  0.00000000000E+00  0.45593999997E+02  0.45594000000E+02  0.51100000000E-03 0. -1.
         11   -1    0    0    0    0 -0.00000000000E+00 -0.00000000000E+00 -0.45593999997E+02  0.45594000000E+02  0.51100000000E-03 0.  1.
         23    2    1    2    0    0  0.44408920985E-15 -0.71054273576E-14  0.00000000000E+00  0.91188000000E+02  0.91188000000E+02 0.  0.
    9900012    2    3    3    0    0 -0.26956142307E+01 -0.35372761096E+02 -0.19866258973E+02  0.50528845936E+02  0.29999957707E+02 0.  0.
         12    1    3    3    0    0  0.26956142307E+01  0.35372761096E+02  0.19866258973E+02  0.40659154064E+02  0.00000000000E+00 0. -1.
         11    1    4    4    0    0 -0.20640089587E+01 -0.23885943429E+02 -0.48966445238E+01  0.24469890771E+02  0.51100000000E-03 0. -1.
        -11    1    4    4    0    0 -0.36029385822E+01 -0.15529899698E+02 -0.91753791487E+01  0.18394198374E+02  0.51100000000E-03 0.  1.
         12    1    4    4    0    0  0.29713333103E+01  0.40430820309E+01 -0.57942353006E+01  0.76647567912E+01  0.00000000000E+00 0. -1.
</event>
<event>
 8    1  0.1338956E-013  0.9118800E+02  0.7816164E-02  0.1184000E+00
        -11   -1    0    0    0    0  0.00000000000E+00  0.00000000000E+00  0.45593999997E+02  0.45594000000E+02  0.51100000000E-03 0. -1.
         11   -1    0    0    0    0 -0.00000000000E+00 -0.00000000000E+00 -0.45593999997E+02  0.45594000000E+02  0.51100000000E-03 0.  1.
         23    2    1    2    0    0  0.00000000000E+00 -0.71054273576E-14  0.00000000000E+00  0.91188000000E+02  0.91188000000E+02 0.  0.
    9900012    2    3    3    0    0  0.54430815911E+01 -0.20804432685E+02  0.34506722660E+02  0.50528862462E+02  0.30000007940E+02 0.  0.
        -12    1    3    3    0    0 -0.54430815911E+01  0.20804432685E+02 -0.34506722660E+02  0.40659137538E+02  0.00000000000E+00 0.  1.
         11    1    4    4    0    0  0.40552914507E+01 -0.30324213530E+01 -0.78857362858E+00  0.51247260064E+01  0.51100000000E-03 0. -1.
        -11    1    4    4    0    0 -0.23843729118E+01 -0.21894741998E+02  0.22717834282E+02  0.31641190813E+02  0.51100000000E-03 0.  1.
         12    1    4    4    0    0  0.37721630523E+01  0.41227306655E+01  0.12577462007E+02  0.13762945643E+02  0.00000000000E+00 0. -1.
</event>
<event>
 8    1  0.1338956E-013  0.9118800E+02  0.7816164E-02  0.1184000E+00
        -11   -1    0    0    0    0  0.00000000000E+00  0.00000000000E+00  0.45593999997E+02  0.45594000000E+02  0.51100000000E-03 0. -1.
         11   -1    0    0    0    0 -0.00000000000E+00 -0.00000000000E+00 -0.45593999997E+02  0.45594000000E+02  0.51100000000E-03 0.  1.
         23    2    1    2    0    0 -0.17763568394E-14  0.00000000000E+00  0.35527136788E-14  0.91188000000E+02  0.91188000000E+02 0.  0.
    9900012    2    3    3    0    0 -0.78727635327E+01 -0.33146790454E+02  0.22191789432E+02  0.50528860299E+02  0.30000001364E+02 0.  0.
        -12    1    3    3    0    0  0.78727635327E+01  0.33146790454E+02 -0.22191789432E+02  0.40659139701E+02  0.00000000000E+00 0.  1.
         11    1    4    4    0    0  0.95367672801E-01 -0.14720973161E+02 -0.45554710893E+00  0.14728328800E+02  0.51100000000E-03 0. -1.
        -11    1    4    4    0    0 -0.11541000754E+02 -0.16717481699E+02  0.10185845673E+02  0.22724883830E+02  0.51100000000E-03 0.  1.
        -12    1    4    4    0    0  0.35728695487E+01 -0.17083355942E+01  0.12461490868E+02  0.13075647669E+02  0.00000000000E+00 0.  1.
</event>
<event>
 8    1  0.1338956E-013  0.9118800E+02  0.7816164E-02  0.1184000E+00
        -11   -1    0    0    0    0  0.00000000000E+00  0.00000000000E+00  0.45593999997E+02  0.45594000000E+02  0.51100000000E-03 0. -1.
         11   -1    0    0    0    0 -0.00000000000E+00 -0.00000000000E+00 -0.45593999997E+02  0.45594000000E+02  0.51100000000E-03 0.  1.
         23    2    1    2    0    0 -0.35527136788E-14  0.00000000000E+00  0.00000000000E+00  0.91188000000E+02  0.91188000000E+02 0.  0.
    9900012    2    3    3    0    0 -0.19671381920E+02  0.12370261449E+02  0.33364330388E+02  0.50528866005E+02  0.30000018709E+02 0.  0.
        -12    1    3    3    0    0  0.19671381920E+02 -0.12370261449E+02 -0.33364330388E+02  0.40659133995E+02  0.00000000000E+00 0.  1.
         11    1    4    4    0    0 -0.95586768974E+01  0.73445811227E+01  0.35623307655E+02  0.37607595303E+02  0.51100000000E-03 0. -1.
        -11    1    4    4    0    0 -0.83057808696E+01  0.23178468475E+01  0.52321324269E+00  0.86389908104E+01  0.51100000000E-03 0.  1.
        -12    1    4    4    0    0 -0.18069241528E+01  0.27078334791E+01 -0.27821905095E+01  0.42822798923E+01  0.00000000000E+00 0.  1.
</event>
<event>
 8    1  0.1338956E-013  0.9118800E+02  0.7816164E-02  0.1184000E+00
        -11   -1    0    0    0    0  0.00000000000E+00  0.00000000000E+00  0.45593999997E+02  0.45594000000E+02  0.51100000000E-03 0. -1.
         11   -1    0    0    0    0 -0.00000000000E+00 -0.00000000000E+00 -0.45593999997E+02  0.45594000000E+02  0.51100000000E-03 0.  1.
         23    2    1    2    0    0  0.00000000000E+00  0.00000000000E+00 -0.35527136788E-14  0.91188000000E+02  0.91188000000E+02 0.  0.
    9900012    2    3    3    0    0 -0.27653696223E+02 -0.75931987569E+01 -0.28823284508E+02  0.50528864348E+02  0.30000013671E+02 0.  0.
         12    1    3    3    0    0  0.27653696223E+02  0.75931987569E+01  0.28823284508E+02  0.40659135652E+02  0.00000000000E+00 0. -1.
         11    1    4    4    0    0 -0.54976443953E+01 -0.27655545636E+01 -0.12899930767E+01  0.62878031410E+01  0.51100000000E-03 0. -1.
        -11    1    4    4    0    0 -0.47938655271E+00 -0.60916961834E+01  0.29737352434E+01  0.67957100745E+01  0.51100000000E-03 0.  1.
        -12    1    4    4    0    0 -0.21676665275E+02  0.12640519901E+01 -0.30507026675E+02  0.37445351132E+02  0.00000000000E+00 0.  1.
</event>
<event>
 8    1  0.1338956E-013  0.9118800E+02  0.7816164E-02  0.1184000E+00
        -11   -1    0    0    0    0  0.00000000000E+00  0.00000000000E+00  0.45593999997E+02  0.45594000000E+02  0.51100000000E-03 0.  1.
         11   -1    0    0    0    0 -0.00000000000E+00 -0.00000000000E+00 -0.45593999997E+02  0.45594000000E+02  0.51100000000E-03 0. -1.
         23    2    1    2    0    0  0.35527136788E-14 -0.35527136788E-14  0.35527136788E-14  0.91188000000E+02  0.91188000000E+02 0.  0.
    9900012    2    3    3    0    0  0.20469925119E+02 -0.26847245471E+02  0.22657721012E+02  0.50528871318E+02  0.30000034858E+02 0.  0.
         12    1    3    3    0    0 -0.20469925119E+02  0.26847245471E+02 -0.22657721012E+02  0.40659128682E+02  0.00000000000E+00 0. -1.
         11    1    4    4    0    0  0.39390048316E+01  0.18242165976E+01 -0.30467897894E+01  0.53034378983E+01  0.51100000000E-03 0. -1.
        -11    1    4    4    0    0  0.10294684237E+02 -0.53958663426E+01  0.27466561690E+01  0.11943199634E+02  0.51100000000E-03 0.  1.
         12    1    4    4    0    0  0.62362360502E+01 -0.23275595726E+02  0.22957854632E+02  0.33282233786E+02  0.00000000000E+00 0. -1.
</event>
<event>
 8    1  0.1338956E-013  0.9118800E+02  0.7816164E-02  0.1184000E+00
        -11   -1    0    0    0    0  0.00000000000E+00  0.00000000000E+00  0.45593999997E+02  0.45594000000E+02  0.51100000000E-03 0. -1.
         11   -1    0    0    0    0 -0.00000000000E+00 -0.00000000000E+00 -0.45593999997E+02  0.45594000000E+02  0.51100000000E-03 0.  1.
         23    2    1    2    0    0  0.13322676296E-14  0.00000000000E+00  0.35527136788E-14  0.91188000000E+02  0.91188000000E+02 0.  0.
    9900012    2    3    3    0    0 -0.32955867841E+01 -0.37028274254E+02  0.16468516697E+02  0.50528855534E+02  0.29999986881E+02 0.  0.
        -12    1    3    3    0    0  0.32955867841E+01  0.37028274254E+02 -0.16468516697E+02  0.40659144466E+02  0.00000000000E+00 0.  1.
         11    1    4    4    0    0 -0.10170613444E+02 -0.26666813151E+01  0.46944371155E+00  0.10524872670E+02  0.51100000000E-03 0. -1.
        -11    1    4    4    0    0  0.11959177344E+01  0.36718257817E+00 -0.19575900638E+00  0.12662401521E+01  0.51100000000E-03 0.  1.
         12    1    4    4    0    0  0.56791089255E+01 -0.34728775517E+02  0.16194831992E+02  0.38737742712E+02  0.00000000000E+00 0. -1.
</event>
<event>
 8    1  0.1338956E-013  0.9118800E+02  0.7816164E-02  0.1184000E+00
        -11   -1    0    0    0    0  0.00000000000E+00  0.00000000000E+00  0.45593999997E+02  0.45594000000E+02  0.51100000000E-03 0. -1.
         11   -1    0    0    0    0 -0.00000000000E+00 -0.00000000000E+00 -0.45593999997E+02  0.45594000000E+02  0.51100000000E-03 0.  1.
         23    2    1    2    0    0  0.88817841970E-15 -0.17763568394E-14 -0.71054273576E-14  0.91188000000E+02  0.91188000000E+02 0.  0.
    9900012    2    3    3    0    0 -0.52988390036E+01  0.15268556215E+02  0.37308974397E+02  0.50528854974E+02  0.29999985180E+02 0.  0.
        -12    1    3    3    0    0  0.52988390036E+01 -0.15268556215E+02 -0.37308974397E+02  0.40659145026E+02  0.00000000000E+00 0.  1.
         11    1    4    4    0    0  0.10921728824E+02  0.29749628252E+01  0.16015046700E+02  0.19611636479E+02  0.51100000000E-03 0. -1.
        -11    1    4    4    0    0 -0.54793839472E+00  0.51081247593E+01  0.56495254796E+01  0.76361190042E+01  0.51100000000E-03 0.  1.
         12    1    4    4    0    0 -0.15672629433E+02  0.71854686310E+01  0.15644402217E+02  0.23281099491E+02  0.00000000000E+00 0. -1.
</event>
<event>
 8    1  0.1357884E-013  0.9118800E+02  0.7816164E-02  0.1184000E+00
        -11   -1    0    0    0    0  0.00000000000E+00  0.00000000000E+00  0.45593999997E+02  0.45594000000E+02  0.51100000000E-03 0. -1.
         11   -1    0    0    0    0 -0.00000000000E+00 -0.00000000000E+00 -0.45593999997E+02  0.45594000000E+02  0.51100000000E-03 0.  1.
         23    2    1    2    0    0 -0.35527136788E-14  0.17763568394E-14  0.00000000000E+00  0.91188000000E+02  0.91188000000E+02 0.  0.
    9900012    2    3    3    0    0  0.30219238092E+02 -0.14649830249E+02 -0.22920421289E+02  0.50528860939E+02  0.30000003309E+02 0.  0.
         12    1    3    3    0    0 -0.30219238092E+02  0.14649830249E+02  0.22920421289E+02  0.40659139061E+02  0.00000000000E+00 0. -1.
         11    1    4    4    0    0  0.33733775270E+01  0.53358463568E+01 -0.11906600917E+02  0.13476575156E+02  0.51100000000E-03 0. -1.
        -11    1    4    4    0    0  0.81633041974E+01 -0.28427127311E+01 -0.75190473185E+01  0.11456728326E+02  0.51100000000E-03 0.  1.
         12    1    4    4    0    0  0.18682556367E+02 -0.17142963875E+02 -0.34947730532E+01  0.25595557457E+02  0.00000000000E+00 0. -1.
</event>
<event>
 8    1  0.1338956E-013  0.9118800E+02  0.7816164E-02  0.1184000E+00
        -11   -1    0    0    0    0  0.00000000000E+00  0.00000000000E+00  0.45593999997E+02  0.45594000000E+02  0.51100000000E-03 0. -1.
         11   -1    0    0    0    0 -0.00000000000E+00 -0.00000000000E+00 -0.45593999997E+02  0.45594000000E+02  0.51100000000E-03 0.  1.
         23    2    1    2    0    0  0.00000000000E+00  0.00000000000E+00  0.00000000000E+00  0.91188000000E+02  0.91188000000E+02 0.  0.
    9900012    2    3    3    0    0 -0.12361473847E+02 -0.65317426755E+01  0.38179789110E+02  0.50528855954E+02  0.29999988157E+02 0.  0.
        -12    1    3    3    0    0  0.12361473847E+02  0.65317426755E+01 -0.38179789110E+02  0.40659144046E+02  0.00000000000E+00 0.  1.
         11    1    4    4    0    0 -0.87893618546E+01 -0.59716989399E+01  0.15169212225E+02  0.18520774007E+02  0.51100000000E-03 0. -1.
        -11    1    4    4    0    0 -0.11303910376E+02 -0.35937914652E+01  0.64989448470E+01  0.13525162153E+02  0.51100000000E-03 0.  1.
        -12    1    4    4    0    0  0.77317983829E+01  0.30337477296E+01  0.16511632039E+02  0.18482919794E+02  0.00000000000E+00 0.  1.
</event>
<event>
 8    1  0.1338956E-013  0.9118800E+02  0.7816164E-02  0.1184000E+00
        -11   -1    0    0    0    0  0.00000000000E+00  0.00000000000E+00  0.45593999997E+02  0.45594000000E+02  0.51100000000E-03 0.  1.
         11   -1    0    0    0    0 -0.00000000000E+00 -0.00000000000E+00 -0.45593999997E+02  0.45594000000E+02  0.51100000000E-03 0. -1.
         23    2    1    2    0    0  0.00000000000E+00  0.88817841970E-15  0.17763568394E-14  0.91188000000E+02  0.91188000000E+02 0.  0.
    9900012    2    3    3    0    0  0.37683796739E+02  0.74781834894E+01  0.13310656076E+02  0.50528864125E+02  0.30000012994E+02 0.  0.
        -12    1    3    3    0    0 -0.37683796739E+02 -0.74781834894E+01 -0.13310656076E+02  0.40659135875E+02  0.00000000000E+00 0.  1.
         11    1    4    4    0    0  0.24035076100E+02 -0.44453569923E+01 -0.25452107858E+01  0.24574868873E+02  0.51100000000E-03 0. -1.
        -11    1    4    4    0    0  0.62814966587E+01  0.17208113510E+01  0.10325237085E+02  0.12207739885E+02  0.51100000000E-03 0.  1.
        -12    1    4    4    0    0  0.73672239803E+01  0.10202729131E+02  0.55306297773E+01  0.13746255367E+02  0.00000000000E+00 0.  1.
</event>
<event>
 8    1  0.1338956E-013  0.9118800E+02  0.7816164E-02  0.1184000E+00
        -11   -1    0    0    0    0  0.00000000000E+00  0.00000000000E+00  0.45593999997E+02  0.45594000000E+02  0.51100000000E-03 0. -1.
         11   -1    0    0    0    0 -0.00000000000E+00 -0.00000000000E+00 -0.45593999997E+02  0.45594000000E+02  0.51100000000E-03 0.  1.
         23    2    1    2    0    0 -0.88817841970E-15  0.15196177650E-14  0.00000000000E+00  0.91188000000E+02  0.91188000000E+02 0.  0.
    9900012    2    3    3    0    0  0.16746230569E+01  0.56318805747E-01  0.40624597380E+02  0.50528862693E+02  0.30000008643E+02 0.  0.
        -12    1    3    3    0    0 -0.16746230569E+01 -0.56318805747E-01 -0.40624597380E+02  0.40659137307E+02  0.00000000000E+00 0.  1.
         11    1    4    4    0    0  0.46197988570E+01 -0.50939842446E+01  0.13897319914E+02  0.15505699533E+02  0.51100000000E-03 0. -1.
        -11    1    4    4    0    0  0.34327487741E+01 -0.65073762266E+01  0.32436712419E+01  0.80405915757E+01  0.51100000000E-03 0.  1.
        -12    1    4    4    0    0 -0.63779245742E+01  0.11657679277E+02  0.23483606225E+02  0.26982571585E+02  0.00000000000E+00 0.  1.
</event>
<event>
 8    1  0.1338956E-013  0.9118800E+02  0.7816164E-02  0.1184000E+00
        -11   -1    0    0    0    0  0.00000000000E+00  0.00000000000E+00  0.45593999997E+02  0.45594000000E+02  0.51100000000E-03 0. -1.
         11   -1    0    0    0    0 -0.00000000000E+00 -0.00000000000E+00 -0.45593999997E+02  0.45594000000E+02  0.51100000000E-03 0.  1.
         23    2    1    2    0    0  0.00000000000E+00  0.00000000000E+00 -0.35527136788E-14  0.91188000000E+02  0.91188000000E+02 0.  0.
    9900012    2    3    3    0    0  0.26210857147E+02  0.22020815764E+02 -0.21937188157E+02  0.50528861009E+02  0.30000003522E+02 0.  0.
         12    1    3    3    0    0 -0.26210857147E+02 -0.22020815764E+02  0.21937188157E+02  0.40659138991E+02  0.00000000000E+00 0. -1.
         11    1    4    4    0    0 -0.19637040727E+01  0.11916578856E+01  0.52861787300E+00  0.23570361300E+01  0.51100000000E-03 0. -1.
        -11    1    4    4    0    0  0.37052216167E+01  0.14389902534E+02 -0.16443205969E+02  0.22162513056E+02  0.51100000000E-03 0.  1.
         12    1    4    4    0    0  0.24469339603E+02  0.64392553437E+01 -0.60226000613E+01  0.26009311823E+02  0.00000000000E+00 0. -1.
</event>
<event>
 8    1  0.1338956E-013  0.9118800E+02  0.7816164E-02  0.1184000E+00
        -11   -1    0    0    0    0  0.00000000000E+00  0.00000000000E+00  0.45593999997E+02  0.45594000000E+02  0.51100000000E-03 0. -1.
         11   -1    0    0    0    0 -0.00000000000E+00 -0.00000000000E+00 -0.45593999997E+02  0.45594000000E+02  0.51100000000E-03 0.  1.
         23    2    1    2    0    0  0.00000000000E+00 -0.88817841970E-15 -0.88817841970E-15  0.91188000000E+02  0.91188000000E+02 0.  0.
    9900012    2    3    3    0    0  0.39956400819E+02  0.55699305194E+01 -0.50623807295E+01  0.50528858457E+02  0.29999995764E+02 0.  0.
         12    1    3    3    0    0 -0.39956400819E+02 -0.55699305194E+01  0.50623807295E+01  0.40659141543E+02  0.00000000000E+00 0. -1.
         11    1    4    4    0    0  0.16419006798E+02 -0.58920846181E+01 -0.34528075986E+01  0.17782641141E+02  0.51100000000E-03 0. -1.
        -11    1    4    4    0    0  0.15113829163E+00 -0.42381039899E+01 -0.17255916358E+01  0.45784314964E+01  0.51100000000E-03 0.  1.
        -12    1    4    4    0    0  0.23386255730E+02  0.15700119127E+02  0.11601850492E+00  0.28167785819E+02  0.00000000000E+00 0.  1.
</event>
<event>
 8    1  0.1338956E-013  0.9118800E+02  0.7816164E-02  0.1184000E+00
        -11   -1    0    0    0    0  0.00000000000E+00  0.00000000000E+00  0.45593999997E+02  0.45594000000E+02  0.51100000000E-03 0. -1.
         11   -1    0    0    0    0 -0.00000000000E+00 -0.00000000000E+00 -0.45593999997E+02  0.45594000000E+02  0.51100000000E-03 0.  1.
         23    2    1    2    0    0  0.00000000000E+00  0.00000000000E+00  0.17763568394E-14  0.91188000000E+02  0.91188000000E+02 0.  0.
    9900012    2    3    3    0    0  0.33708461099E+02  0.20287376518E+02  0.10262928664E+02  0.50528859571E+02  0.29999999153E+02 0.  0.
        -12    1    3    3    0    0 -0.33708461099E+02 -0.20287376518E+02 -0.10262928664E+02  0.40659140429E+02  0.00000000000E+00 0.  1.
         11    1    4    4    0    0 -0.77742795258E-01  0.68247624170E+00 -0.83778044417E+00  0.10833716336E+01  0.51100000000E-03 0. -1.
        -11    1    4    4    0    0  0.14501389978E+02  0.11705322719E+02 -0.88182715746E+01  0.20617148325E+02  0.51100000000E-03 0.  1.
         12    1    4    4    0    0  0.19284813917E+02  0.78995775572E+01  0.19918980683E+02  0.28828339613E+02  0.00000000000E+00 0. -1.
</event>
<event>
 8    1  0.1338956E-013  0.9118800E+02  0.7816164E-02  0.1184000E+00
        -11   -1    0    0    0    0  0.00000000000E+00  0.00000000000E+00  0.45593999997E+02  0.45594000000E+02  0.51100000000E-03 0. -1.
         11   -1    0    0    0    0 -0.00000000000E+00 -0.00000000000E+00 -0.45593999997E+02  0.45594000000E+02  0.51100000000E-03 0.  1.
         23    2    1    2    0    0  0.00000000000E+00 -0.17763568394E-14  0.35527136788E-14  0.91188000000E+02  0.91188000000E+02 0.  0.
    9900012    2    3    3    0    0  0.23814019779E+02  0.92645305100E+01 -0.31626360804E+02  0.50528858822E+02  0.29999996876E+02 0.  0.
         12    1    3    3    0    0 -0.23814019779E+02 -0.92645305100E+01  0.31626360804E+02  0.40659141178E+02  0.00000000000E+00 0. -1.
         11    1    4    4    0    0  0.20230298265E+01  0.11210220318E+02 -0.98678171367E+01  0.15071015379E+02  0.51100000000E-03 0. -1.
        -11    1    4    4    0    0 -0.67820545390E+00  0.23109023737E+00 -0.99607129609E+01  0.99864492332E+01  0.51100000000E-03 0.  1.
        -12    1    4    4    0    0  0.22469195407E+02 -0.21767800457E+01 -0.11797830706E+02  0.25471394209E+02  0.00000000000E+00 0.  1.
</event>
<event>
 8    1  0.1338956E-013  0.9118800E+02  0.7816164E-02  0.1184000E+00
        -11   -1    0    0    0    0  0.00000000000E+00  0.00000000000E+00  0.45593999997E+02  0.45594000000E+02  0.51100000000E-03 0. -1.
         11   -1    0    0    0    0 -0.00000000000E+00 -0.00000000000E+00 -0.45593999997E+02  0.45594000000E+02  0.51100000000E-03 0.  1.
         23    2    1    2    0    0  0.00000000000E+00  0.00000000000E+00  0.35527136788E-14  0.91188000000E+02  0.91188000000E+02 0.  0.
    9900012    2    3    3    0    0 -0.19755615137E+02 -0.20936418378E+02 -0.28714942258E+02  0.50528857696E+02  0.29999993454E+02 0.  0.
         12    1    3    3    0    0  0.19755615137E+02  0.20936418378E+02  0.28714942258E+02  0.40659142304E+02  0.00000000000E+00 0. -1.
         11    1    4    4    0    0 -0.13734869137E+02 -0.52602416702E+01 -0.37027867275E+01  0.15166654293E+02  0.51100000000E-03 0. -1.
        -11    1    4    4    0    0 -0.76752707369E+01 -0.53943439202E+01 -0.22884808895E+02  0.24733038747E+02  0.51100000000E-03 0.  1.
        -12    1    4    4    0    0  0.16545247369E+01 -0.10281832788E+02 -0.21273466357E+01  0.10629164656E+02  0.00000000000E+00 0.  1.
</event>
<event>
 8    1  0.1338956E-013  0.9118800E+02  0.7816164E-02  0.1184000E+00
        -11   -1    0    0    0    0  0.00000000000E+00  0.00000000000E+00  0.45593999997E+02  0.45594000000E+02  0.51100000000E-03 0. -1.
         11   -1    0    0    0    0 -0.00000000000E+00 -0.00000000000E+00 -0.45593999997E+02  0.45594000000E+02  0.51100000000E-03 0.  1.
         23    2    1    2    0    0  0.00000000000E+00  0.00000000000E+00  0.00000000000E+00  0.91188000000E+02  0.91188000000E+02 0.  0.
    9900012    2    3    3    0    0 -0.25581647392E+02 -0.70858576403E+01 -0.30798255169E+02  0.50528897904E+02  0.30000115669E+02 0.  0.
         12    1    3    3    0    0  0.25581647392E+02  0.70858576403E+01  0.30798255169E+02  0.40659102096E+02  0.00000000000E+00 0. -1.
         11    1    4    4    0    0 -0.49865974462E+01  0.91640349006E+00 -0.11458132739E+02  0.12529754809E+02  0.51100000000E-03 0. -1.
        -11    1    4    4    0    0 -0.10878202368E+02 -0.54272135273E+01 -0.24012166735E+02  0.26914198577E+02  0.51100000000E-03 0.  1.
         12    1    4    4    0    0 -0.97168475773E+01 -0.25750476031E+01  0.46720443048E+01  0.11084944519E+02  0.00000000000E+00 0. -1.
</event>
<event>
 8    1  0.1338956E-013  0.9118800E+02  0.7816164E-02  0.1184000E+00
        -11   -1    0    0    0    0  0.00000000000E+00  0.00000000000E+00  0.45593999997E+02  0.45594000000E+02  0.51100000000E-03 0.  1.
         11   -1    0    0    0    0 -0.00000000000E+00 -0.00000000000E+00 -0.45593999997E+02  0.45594000000E+02  0.51100000000E-03 0. -1.
         23    2    1    2    0    0  0.00000000000E+00 -0.21788126858E-14  0.00000000000E+00  0.91188000000E+02  0.91188000000E+02 0.  0.
    9900012    2    3    3    0    0 -0.29322667351E+02 -0.88200327195E-01  0.28166274741E+02  0.50528860404E+02  0.30000001685E+02 0.  0.
        -12    1    3    3    0    0  0.29322667351E+02  0.88200327195E-01 -0.28166274741E+02  0.40659139596E+02  0.00000000000E+00 0.  1.
         11    1    4    4    0    0 -0.34510316514E+01 -0.60764095204E+01  0.79470933883E+01  0.10582469735E+02  0.51100000000E-03 0. -1.
        -11    1    4    4    0    0 -0.97984567537E+01 -0.76431770375E+01  0.12149136653E+02  0.17378993977E+02  0.51100000000E-03 0.  1.
         12    1    4    4    0    0 -0.16073178946E+02  0.13631386231E+02  0.80700446995E+01  0.22567396692E+02  0.00000000000E+00 0. -1.
</event>
<event>
 8    1  0.1338956E-013  0.9118800E+02  0.7816164E-02  0.1184000E+00
        -11   -1    0    0    0    0  0.00000000000E+00  0.00000000000E+00  0.45593999997E+02  0.45594000000E+02  0.51100000000E-03 0.  1.
         11   -1    0    0    0    0 -0.00000000000E+00 -0.00000000000E+00 -0.45593999997E+02  0.45594000000E+02  0.51100000000E-03 0. -1.
         23    2    1    2    0    0 -0.35527136788E-14 -0.35527136788E-14  0.55511151231E-16  0.91188000000E+02  0.91188000000E+02 0.  0.
    9900012    2    3    3    0    0 -0.29274195997E+02  0.28213244219E+02  0.44765156248E+00  0.50528854748E+02  0.29999984493E+02 0.  0.
         12    1    3    3    0    0  0.29274195997E+02 -0.28213244219E+02 -0.44765156248E+00  0.40659145252E+02  0.00000000000E+00 0. -1.
         11    1    4    4    0    0 -0.22601093996E+02  0.88468501700E+01  0.41322536035E+01  0.24620148819E+02  0.51100000000E-03 0. -1.
        -11    1    4    4    0    0 -0.53820757471E+01  0.19385998252E+02  0.18700530404E+01  0.20205958680E+02  0.51100000000E-03 0.  1.
         12    1    4    4    0    0 -0.12910262537E+01 -0.19604202335E-01 -0.55546550814E+01  0.57027472490E+01  0.00000000000E+00 0. -1.
</event>
<event>
 8    1  0.1338956E-013  0.9118800E+02  0.7816164E-02  0.1184000E+00
        -11   -1    0    0    0    0  0.00000000000E+00  0.00000000000E+00  0.45593999997E+02  0.45594000000E+02  0.51100000000E-03 0.  1.
         11   -1    0    0    0    0 -0.00000000000E+00 -0.00000000000E+00 -0.45593999997E+02  0.45594000000E+02  0.51100000000E-03 0. -1.
         23    2    1    2    0    0  0.00000000000E+00  0.00000000000E+00 -0.35527136788E-14  0.91188000000E+02  0.91188000000E+02 0.  0.
    9900012    2    3    3    0    0  0.14931928891E+02  0.33077592848E+02  0.18332421993E+02  0.50528839345E+02  0.29999937674E+02 0.  0.
         12    1    3    3    0    0 -0.14931928891E+02 -0.33077592848E+02 -0.18332421993E+02  0.40659160655E+02  0.00000000000E+00 0. -1.
         11    1    4    4    0    0  0.34732672240E+01 -0.20571989925E+01  0.66003346838E+01  0.77369290486E+01  0.51100000000E-03 0. -1.
        -11    1    4    4    0    0  0.28368951431E+01  0.41828576417E+01  0.92813814000E+01  0.10568269161E+02  0.51100000000E-03 0.  1.
         12    1    4    4    0    0  0.86217665235E+01  0.30951934198E+02  0.24507059096E+01  0.32223641136E+02  0.00000000000E+00 0. -1.
</event>
<event>
 8    1  0.1338956E-013  0.9118800E+02  0.7816164E-02  0.1184000E+00
        -11   -1    0    0    0    0  0.00000000000E+00  0.00000000000E+00  0.45593999997E+02  0.45594000000E+02  0.51100000000E-03 0. -1.
         11   -1    0    0    0    0 -0.00000000000E+00 -0.00000000000E+00 -0.45593999997E+02  0.45594000000E+02  0.51100000000E-03 0.  1.
         23    2    1    2    0    0 -0.88817841970E-15 -0.88817841970E-15 -0.71054273576E-14  0.91188000000E+02  0.91188000000E+02 0.  0.
    9900012    2    3    3    0    0  0.48906936694E+01  0.54444319141E+01  0.39995057371E+02  0.50528864034E+02  0.30000012716E+02 0.  0.
        -12    1    3    3    0    0 -0.48906936694E+01 -0.54444319141E+01 -0.39995057371E+02  0.40659135966E+02  0.00000000000E+00 0.  1.
         11    1    4    4    0    0 -0.42502771839E+01  0.91047745371E+01  0.12417072778E+02  0.15973273683E+02  0.51100000000E-03 0. -1.
        -11    1    4    4    0    0  0.75237360955E+01  0.47161792244E+01  0.45074619871E+01  0.99582209826E+01  0.51100000000E-03 0.  1.
        -12    1    4    4    0    0  0.16172347578E+01 -0.83765218475E+01  0.23070522606E+02  0.24597369368E+02  0.00000000000E+00 0.  1.
</event>
<event>
 8    1  0.1338956E-013  0.9118800E+02  0.7816164E-02  0.1184000E+00
        -11   -1    0    0    0    0  0.00000000000E+00  0.00000000000E+00  0.45593999997E+02  0.45594000000E+02  0.51100000000E-03 0. -1.
         11   -1    0    0    0    0 -0.00000000000E+00 -0.00000000000E+00 -0.45593999997E+02  0.45594000000E+02  0.51100000000E-03 0.  1.
         23    2    1    2    0    0 -0.17763568394E-14 -0.71054273576E-14  0.00000000000E+00  0.91188000000E+02  0.91188000000E+02 0.  0.
    9900012    2    3    3    0    0 -0.83443750782E+01 -0.37713711846E+02  0.12696963889E+02  0.50528861437E+02  0.30000004824E+02 0.  0.
        -12    1    3    3    0    0  0.83443750782E+01  0.37713711846E+02 -0.12696963889E+02  0.40659138563E+02  0.00000000000E+00 0.  1.
         11    1    4    4    0    0 -0.12704571474E+01 -0.97968963553E+01 -0.17761531605E+01  0.10037328323E+02  0.51100000000E-03 0.  1.
        -11    1    4    4    0    0 -0.65092475379E+01 -0.12637263172E+02 -0.55827011195E+01  0.15272107780E+02  0.51100000000E-03 0. -1.
        -12    1    4    4    0    0 -0.56467039293E+00 -0.15279552319E+02  0.20055818169E+02  0.25219425333E+02  0.00000000000E+00 0.  1.
</event>
<event>
 8    1  0.1338956E-013  0.9118800E+02  0.7816164E-02  0.1184000E+00
        -11   -1    0    0    0    0  0.00000000000E+00  0.00000000000E+00  0.45593999997E+02  0.45594000000E+02  0.51100000000E-03 0. -1.
         11   -1    0    0    0    0 -0.00000000000E+00 -0.00000000000E+00 -0.45593999997E+02  0.45594000000E+02  0.51100000000E-03 0.  1.
         23    2    1    2    0    0 -0.35527136788E-14  0.00000000000E+00  0.00000000000E+00  0.91188000000E+02  0.91188000000E+02 0.  0.
    9900012    2    3    3    0    0  0.17077965660E+02  0.18668764030E+02 -0.31827441344E+02  0.50528859772E+02  0.29999999764E+02 0.  0.
         12    1    3    3    0    0 -0.17077965660E+02 -0.18668764030E+02  0.31827441344E+02  0.40659140228E+02  0.00000000000E+00 0. -1.
         11    1    4    4    0    0  0.70169848692E+01 -0.45990497933E+01 -0.18110583494E+01  0.85830803481E+01  0.51100000000E-03 0. -1.
        -11    1    4    4    0    0  0.85813440630E+01  0.31895163231E+01 -0.88327339871E+01  0.12721229117E+02  0.51100000000E-03 0.  1.
        -12    1    4    4    0    0  0.14796367279E+01  0.20078297501E+02 -0.21183649008E+02  0.29224550307E+02  0.00000000000E+00 0.  1.
</event>
<event>
 8    1  0.1338956E-013  0.9118800E+02  0.7816164E-02  0.1184000E+00
        -11   -1    0    0    0    0  0.00000000000E+00  0.00000000000E+00  0.45593999997E+02  0.45594000000E+02  0.51100000000E-03 0. -1.
         11   -1    0    0    0    0 -0.00000000000E+00 -0.00000000000E+00 -0.45593999997E+02  0.45594000000E+02  0.51100000000E-03 0.  1.
         23    2    1    2    0    0  0.00000000000E+00  0.00000000000E+00  0.00000000000E+00  0.91188000000E+02  0.91188000000E+02 0.  0.
    9900012    2    3    3    0    0 -0.38134140732E+01 -0.19903076542E+02 -0.35248986650E+02  0.50528860282E+02  0.30000001312E+02 0.  0.
         12    1    3    3    0    0  0.38134140732E+01  0.19903076542E+02  0.35248986650E+02  0.40659139718E+02  0.00000000000E+00 0. -1.
         11    1    4    4    0    0  0.96911682985E+00  0.11283156271E+01 -0.33069944987E+01  0.36260855560E+01  0.51100000000E-03 0.  1.
        -11    1    4    4    0    0 -0.33573001151E+01 -0.17106287133E+02 -0.36665113529E+02  0.40598362946E+02  0.51100000000E-03 0. -1.
         12    1    4    4    0    0 -0.14252307880E+01 -0.39251050365E+01  0.47231213771E+01  0.63044117798E+01  0.00000000000E+00 0. -1.
</event>
<event>
 8    1  0.1338956E-013  0.9118800E+02  0.7816164E-02  0.1184000E+00
        -11   -1    0    0    0    0  0.00000000000E+00  0.00000000000E+00  0.45593999997E+02  0.45594000000E+02  0.51100000000E-03 0.  1.
         11   -1    0    0    0    0 -0.00000000000E+00 -0.00000000000E+00 -0.45593999997E+02  0.45594000000E+02  0.51100000000E-03 0. -1.
         23    2    1    2    0    0  0.00000000000E+00  0.00000000000E+00  0.35527136788E-14  0.91188000000E+02  0.91188000000E+02 0.  0.
    9900012    2    3    3    0    0  0.35069249346E+02 -0.11859992530E+02  0.16812321862E+02  0.50528857868E+02  0.29999993977E+02 0.  0.
        -12    1    3    3    0    0 -0.35069249346E+02  0.11859992530E+02 -0.16812321862E+02  0.40659142132E+02  0.00000000000E+00 0.  1.
         11    1    4    4    0    0  0.29159531394E+01 -0.23438716667E+01  0.70242532003E+01  0.79584326587E+01  0.51100000000E-03 0.  1.
        -11    1    4    4    0    0  0.77082015759E+01 -0.80834277622E+01  0.13803282099E+02  0.17756372740E+02  0.51100000000E-03 0. -1.
         12    1    4    4    0    0  0.24445094631E+02 -0.14326931013E+01 -0.40152134375E+01  0.24814052470E+02  0.00000000000E+00 0. -1.
</event>
<event>
 8    1  0.1338956E-013  0.9118800E+02  0.7816164E-02  0.1184000E+00
        -11   -1    0    0    0    0  0.00000000000E+00  0.00000000000E+00  0.45593999997E+02  0.45594000000E+02  0.51100000000E-03 0. -1.
         11   -1    0    0    0    0 -0.00000000000E+00 -0.00000000000E+00 -0.45593999997E+02  0.45594000000E+02  0.51100000000E-03 0.  1.
         23    2    1    2    0    0  0.35527136788E-14 -0.17763568394E-14  0.00000000000E+00  0.91188000000E+02  0.91188000000E+02 0.  0.
    9900012    2    3    3    0    0  0.25807372558E+02 -0.59139456593E+01 -0.30857270794E+02  0.50528851060E+02  0.29999973283E+02 0.  0.
         12    1    3    3    0    0 -0.25807372558E+02  0.59139456593E+01  0.30857270794E+02  0.40659148940E+02  0.00000000000E+00 0. -1.
         11    1    4    4    0    0  0.16397893012E+02 -0.27567684075E+01 -0.17470927917E+01  0.16719539490E+02  0.51100000000E-03 0. -1.
        -11    1    4    4    0    0  0.12643125128E+02 -0.26149467196E+01 -0.17513124422E+02  0.21757667307E+02  0.51100000000E-03 0.  1.
        -12    1    4    4    0    0 -0.32336455817E+01 -0.54223053219E+00 -0.11597053581E+02  0.12051644264E+02  0.00000000000E+00 0.  1.
</event>
<event>
 8    1  0.1338956E-013  0.9118800E+02  0.7816164E-02  0.1184000E+00
        -11   -1    0    0    0    0  0.00000000000E+00  0.00000000000E+00  0.45593999997E+02  0.45594000000E+02  0.51100000000E-03 0. -1.
         11   -1    0    0    0    0 -0.00000000000E+00 -0.00000000000E+00 -0.45593999997E+02  0.45594000000E+02  0.51100000000E-03 0.  1.
         23    2    1    2    0    0  0.00000000000E+00  0.00000000000E+00  0.00000000000E+00  0.91188000000E+02  0.91188000000E+02 0.  0.
    9900012    2    3    3    0    0  0.20398232989E+02  0.57218974700E+01 -0.34703517355E+02  0.50528903398E+02  0.30000132367E+02 0.  0.
         12    1    3    3    0    0 -0.20398232989E+02 -0.57218974700E+01  0.34703517355E+02  0.40659096602E+02  0.00000000000E+00 0. -1.
         11    1    4    4    0    0  0.92972004154E+01  0.40294492458E+01 -0.12730217851E+02  0.16270612883E+02  0.51100000000E-03 0. -1.
        -11    1    4    4    0    0  0.17251401961E+02 -0.40089858870E+01 -0.16756606856E+02  0.24381688027E+02  0.51100000000E-03 0.  1.
         12    1    4    4    0    0 -0.61503693871E+01  0.57014341112E+01 -0.52166926473E+01  0.98766024876E+01  0.00000000000E+00 0. -1.
</event>
<event>
 8    1  0.1353957E-013  0.9118800E+02  0.7816164E-02  0.1184000E+00
        -11   -1    0    0    0    0  0.00000000000E+00  0.00000000000E+00  0.45593999997E+02  0.45594000000E+02  0.51100000000E-03 0.  1.
         11   -1    0    0    0    0 -0.00000000000E+00 -0.00000000000E+00 -0.45593999997E+02  0.45594000000E+02  0.51100000000E-03 0. -1.
         23    2    1    2    0    0  0.00000000000E+00  0.00000000000E+00  0.88817841970E-15  0.91188000000E+02  0.91188000000E+02 0.  0.
    9900012    2    3    3    0    0  0.33303855789E+02  0.22050431597E+02 -0.76024589978E+01  0.50528859246E+02  0.29999998165E+02 0.  0.
         12    1    3    3    0    0 -0.33303855789E+02 -0.22050431597E+02  0.76024589978E+01  0.40659140754E+02  0.00000000000E+00 0. -1.
         11    1    4    4    0    0  0.69510929352E+01 -0.46953536447E+01 -0.32294206461E+01  0.89885035915E+01  0.51100000000E-03 0. -1.
        -11    1    4    4    0    0  0.25204937274E+02  0.14842962228E+02 -0.17825733317E+01  0.29304947682E+02  0.51100000000E-03 0.  1.
         12    1    4    4    0    0  0.11478255799E+01  0.11902823013E+02 -0.25904650199E+01  0.12235407973E+02  0.00000000000E+00 0. -1.
</event>
<event>
 8    1  0.1338956E-013  0.9118800E+02  0.7816164E-02  0.1184000E+00
        -11   -1    0    0    0    0  0.00000000000E+00  0.00000000000E+00  0.45593999997E+02  0.45594000000E+02  0.51100000000E-03 0. -1.
         11   -1    0    0    0    0 -0.00000000000E+00 -0.00000000000E+00 -0.45593999997E+02  0.45594000000E+02  0.51100000000E-03 0.  1.
         23    2    1    2    0    0  0.24424906542E-14  0.00000000000E+00  0.00000000000E+00  0.91188000000E+02  0.91188000000E+02 0.  0.
    9900012    2    3    3    0    0  0.12989397951E+01 -0.20747243106E+02 -0.34943243221E+02  0.50528860954E+02  0.30000003357E+02 0.  0.
         12    1    3    3    0    0 -0.12989397951E+01  0.20747243106E+02  0.34943243221E+02  0.40659139046E+02  0.00000000000E+00 0. -1.
         11    1    4    4    0    0  0.12048611456E+02 -0.10417461945E+02 -0.76221634003E+01  0.17657574197E+02  0.51100000000E-03 0. -1.
        -11    1    4    4    0    0  0.15036272514E+01  0.60270696059E+00 -0.42876059329E+01  0.45834174465E+01  0.51100000000E-03 0.  1.
         12    1    4    4    0    0 -0.12253298912E+02 -0.10932488122E+02 -0.23033473888E+02  0.28287869310E+02  0.00000000000E+00 0. -1.
</event>
<event>
 8    1  0.1338956E-013  0.9118800E+02  0.7816164E-02  0.1184000E+00
        -11   -1    0    0    0    0  0.00000000000E+00  0.00000000000E+00  0.45593999997E+02  0.45594000000E+02  0.51100000000E-03 0. -1.
         11   -1    0    0    0    0 -0.00000000000E+00 -0.00000000000E+00 -0.45593999997E+02  0.45594000000E+02  0.51100000000E-03 0.  1.
         23    2    1    2    0    0  0.00000000000E+00 -0.88817841970E-15 -0.35527136788E-14  0.91188000000E+02  0.91188000000E+02 0.  0.
    9900012    2    3    3    0    0  0.37220866216E+02 -0.57974017580E+01 -0.15302392186E+02  0.50528856432E+02  0.29999989612E+02 0.  0.
         12    1    3    3    0    0 -0.37220866216E+02  0.57974017580E+01  0.15302392186E+02  0.40659143568E+02  0.00000000000E+00 0. -1.
         11    1    4    4    0    0  0.15691109078E+02 -0.11284029128E+02 -0.11259319557E+02  0.22367666275E+02  0.51100000000E-03 0. -1.
        -11    1    4    4    0    0  0.14374015472E+02  0.17775908420E+01 -0.10454304418E+02  0.17862380331E+02  0.51100000000E-03 0.  1.
         12    1    4    4    0    0  0.71557416673E+01  0.37090365279E+01  0.64112317892E+01  0.10298809826E+02  0.00000000000E+00 0. -1.
</event>
<event>
 8    1  0.1338956E-013  0.9118800E+02  0.7816164E-02  0.1184000E+00
        -11   -1    0    0    0    0  0.00000000000E+00  0.00000000000E+00  0.45593999997E+02  0.45594000000E+02  0.51100000000E-03 0.  1.
         11   -1    0    0    0    0 -0.00000000000E+00 -0.00000000000E+00 -0.45593999997E+02  0.45594000000E+02  0.51100000000E-03 0. -1.
         23    2    1    2    0    0  0.35527136788E-14  0.35527136788E-14  0.17763568394E-14  0.91188000000E+02  0.91188000000E+02 0.  0.
    9900012    2    3    3    0    0 -0.31143778863E+02  0.25787945144E+02  0.42675987913E+01  0.50528862330E+02  0.30000007538E+02 0.  0.
         12    1    3    3    0    0  0.31143778863E+02 -0.25787945144E+02 -0.42675987913E+01  0.40659137670E+02  0.00000000000E+00 0. -1.
         11    1    4    4    0    0 -0.80992360306E+01  0.38245348662E+01  0.31133177592E+01  0.94824806329E+01  0.51100000000E-03 0. -1.
        -11    1    4    4    0    0 -0.22692077471E+02  0.91397768918E+01  0.89333055389E+01  0.26043614375E+02  0.51100000000E-03 0.  1.
         12    1    4    4    0    0 -0.35246536141E+00  0.12823633386E+02 -0.77790245068E+01  0.15002767322E+02  0.00000000000E+00 0. -1.
</event>
<event>
 8    1  0.1338956E-013  0.9118800E+02  0.7816164E-02  0.1184000E+00
        -11   -1    0    0    0    0  0.00000000000E+00  0.00000000000E+00  0.45593999997E+02  0.45594000000E+02  0.51100000000E-03 0.  1.
         11   -1    0    0    0    0 -0.00000000000E+00 -0.00000000000E+00 -0.45593999997E+02  0.45594000000E+02  0.51100000000E-03 0. -1.
         23    2    1    2    0    0 -0.17763568394E-14  0.00000000000E+00  0.35527136788E-14  0.91188000000E+02  0.91188000000E+02 0.  0.
    9900012    2    3    3    0    0  0.44240618740E+01  0.36894807675E+02 -0.16503554060E+02  0.50528850311E+02  0.29999971006E+02 0.  0.
        -12    1    3    3    0    0 -0.44240618740E+01 -0.36894807675E+02  0.16503554060E+02  0.40659149689E+02  0.00000000000E+00 0.  1.
         11    1    4    4    0    0  0.10333705712E+02  0.15198005139E+02 -0.99508517404E+01  0.20899384789E+02  0.51100000000E-03 0. -1.
        -11    1    4    4    0    0 -0.52095809841E+01 -0.16991897846E+01 -0.15446509513E+01  0.56932351766E+01  0.51100000000E-03 0.  1.
         12    1    4    4    0    0 -0.70006285398E+00  0.23395992320E+02 -0.50080513680E+01  0.23936230346E+02  0.00000000000E+00 0. -1.
</event>
<event>
 8    1  0.1338956E-013  0.9118800E+02  0.7816164E-02  0.1184000E+00
        -11   -1    0    0    0    0  0.00000000000E+00  0.00000000000E+00  0.45593999997E+02  0.45594000000E+02  0.51100000000E-03 0.  1.
         11   -1    0    0    0    0 -0.00000000000E+00 -0.00000000000E+00 -0.45593999997E+02  0.45594000000E+02  0.51100000000E-03 0. -1.
         23    2    1    2    0    0  0.00000000000E+00  0.00000000000E+00  0.88817841970E-15  0.91188000000E+02  0.91188000000E+02 0.  0.
    9900012    2    3    3    0    0 -0.25365247550E+02 -0.31434538338E+02  0.46521412535E+01  0.50528826348E+02  0.29999898168E+02 0.  0.
         12    1    3    3    0    0  0.25365247550E+02  0.31434538338E+02 -0.46521412535E+01  0.40659173652E+02  0.00000000000E+00 0. -1.
         11    1    4    4    0    0  0.26392223745E+01 -0.11154506877E+01 -0.16657367146E+01  0.33142727773E+01  0.51100000000E-03 0. -1.
        -11    1    4    4    0    0 -0.14558169160E+02 -0.44588591428E+01  0.94179199099E+01  0.17903042475E+02  0.51100000000E-03 0.  1.
        -12    1    4    4    0    0 -0.13446300765E+02 -0.25860228507E+02 -0.31000419418E+01  0.29311511096E+02  0.00000000000E+00 0.  1.
</event>
<event>
 8    1  0.1338956E-013  0.9118800E+02  0.7816164E-02  0.1184000E+00
        -11   -1    0    0    0    0  0.00000000000E+00  0.00000000000E+00  0.45593999997E+02  0.45594000000E+02  0.51100000000E-03 0. -1.
         11   -1    0    0    0    0 -0.00000000000E+00 -0.00000000000E+00 -0.45593999997E+02  0.45594000000E+02  0.51100000000E-03 0.  1.
         23    2    1    2    0    0  0.00000000000E+00 -0.71054273576E-14 -0.35527136788E-14  0.91188000000E+02  0.91188000000E+02 0.  0.
    9900012    2    3    3    0    0 -0.20350474887E+02 -0.19011632544E+02 -0.29624008906E+02  0.50528857070E+02  0.29999991550E+02 0.  0.
         12    1    3    3    0    0  0.20350474887E+02  0.19011632544E+02  0.29624008906E+02  0.40659142930E+02  0.00000000000E+00 0. -1.
         11    1    4    4    0    0 -0.75204896837E+01 -0.85098844993E+01  0.50932357269E+00  0.11368170919E+02  0.51100000000E-03 0. -1.
        -11    1    4    4    0    0 -0.11816284001E+02 -0.15736396009E+02 -0.23738814555E+02  0.30834883553E+02  0.51100000000E-03 0.  1.
        -12    1    4    4    0    0 -0.10137012022E+01  0.52346479642E+01 -0.63945179239E+01  0.83258025989E+01  0.00000000000E+00 0.  1.
</event>
<event>
 8    1  0.1338956E-013  0.9118800E+02  0.7816164E-02  0.1184000E+00
        -11   -1    0    0    0    0  0.00000000000E+00  0.00000000000E+00  0.45593999997E+02  0.45594000000E+02  0.51100000000E-03 0. -1.
         11   -1    0    0    0    0 -0.00000000000E+00 -0.00000000000E+00 -0.45593999997E+02  0.45594000000E+02  0.51100000000E-03 0.  1.
         23    2    1    2    0    0 -0.17763568394E-14  0.00000000000E+00  0.00000000000E+00  0.91188000000E+02  0.91188000000E+02 0.  0.
    9900012    2    3    3    0    0  0.12577040849E+02  0.48825008915E+01 -0.38355511481E+02  0.50528855488E+02  0.29999986740E+02 0.  0.
         12    1    3    3    0    0 -0.12577040849E+02 -0.48825008915E+01  0.38355511481E+02  0.40659144512E+02  0.00000000000E+00 0. -1.
         11    1    4    4    0    0 -0.16657430112E+01  0.72390990666E+01 -0.14238944857E+02  0.16060099812E+02  0.51100000000E-03 0. -1.
        -11    1    4    4    0    0 -0.45260284701E+01  0.23541724410E+01 -0.34612081862E+01  0.61649836953E+01  0.51100000000E-03 0.  1.
        -12    1    4    4    0    0  0.18768812331E+02 -0.47107706161E+01 -0.20655358438E+02  0.28303771980E+02  0.00000000000E+00 0.  1.
</event>
<event>
 8    1  0.1338956E-013  0.9118800E+02  0.7816164E-02  0.1184000E+00
        -11   -1    0    0    0    0  0.00000000000E+00  0.00000000000E+00  0.45593999997E+02  0.45594000000E+02  0.51100000000E-03 0. -1.
         11   -1    0    0    0    0 -0.00000000000E+00 -0.00000000000E+00 -0.45593999997E+02  0.45594000000E+02  0.51100000000E-03 0.  1.
         23    2    1    2    0    0  0.00000000000E+00  0.35527136788E-14  0.00000000000E+00  0.91188000000E+02  0.91188000000E+02 0.  0.
    9900012    2    3    3    0    0 -0.19379074206E+02  0.26933223234E+02  0.23499322212E+02  0.50528866030E+02  0.30000018783E+02 0.  0.
        -12    1    3    3    0    0  0.19379074206E+02 -0.26933223234E+02 -0.23499322212E+02  0.40659133970E+02  0.00000000000E+00 0.  1.
         11    1    4    4    0    0 -0.10070650210E+02  0.20327490146E+02  0.22332401515E+01  0.22795004126E+02  0.51100000000E-03 0. -1.
        -11    1    4    4    0    0 -0.46114190843E+01  0.10611085721E+02  0.14925849998E+02  0.18884949684E+02  0.51100000000E-03 0.  1.
        -12    1    4    4    0    0 -0.46970049113E+01 -0.40053526335E+01  0.63402320624E+01  0.88489122191E+01  0.00000000000E+00 0.  1.
</event>
<event>
 8    1  0.1338956E-013  0.9118800E+02  0.7816164E-02  0.1184000E+00
        -11   -1    0    0    0    0  0.00000000000E+00  0.00000000000E+00  0.45593999997E+02  0.45594000000E+02  0.51100000000E-03 0.  1.
         11   -1    0    0    0    0 -0.00000000000E+00 -0.00000000000E+00 -0.45593999997E+02  0.45594000000E+02  0.51100000000E-03 0. -1.
         23    2    1    2    0    0  0.71054273576E-14 -0.35527136788E-14 -0.35527136788E-14  0.91188000000E+02  0.91188000000E+02 0.  0.
    9900012    2    3    3    0    0 -0.34309964125E+02  0.15952304457E+02  0.14883423276E+02  0.50528856574E+02  0.29999990042E+02 0.  0.
        -12    1    3    3    0    0  0.34309964125E+02 -0.15952304457E+02 -0.14883423276E+02  0.40659143426E+02  0.00000000000E+00 0.  1.
         11    1    4    4    0    0 -0.45136074019E+01  0.51527425515E+01 -0.40157463929E+01  0.79403795208E+01  0.51100000000E-03 0. -1.
        -11    1    4    4    0    0 -0.27784180478E+02  0.15457142465E+01  0.99318932517E+01  0.29546445153E+02  0.51100000000E-03 0.  1.
         12    1    4    4    0    0 -0.20121762451E+01  0.92538476594E+01  0.89672764173E+01  0.13042031900E+02  0.00000000000E+00 0. -1.
</event>
<event>
 8    1  0.1338956E-013  0.9118800E+02  0.7816164E-02  0.1184000E+00
        -11   -1    0    0    0    0  0.00000000000E+00  0.00000000000E+00  0.45593999997E+02  0.45594000000E+02  0.51100000000E-03 0.  1.
         11   -1    0    0    0    0 -0.00000000000E+00 -0.00000000000E+00 -0.45593999997E+02  0.45594000000E+02  0.51100000000E-03 0. -1.
         23    2    1    2    0    0  0.00000000000E+00  0.00000000000E+00 -0.71054273576E-14  0.91188000000E+02  0.91188000000E+02 0.  0.
    9900012    2    3    3    0    0 -0.14932817991E+02 -0.15243883416E+02  0.34609269953E+02  0.50528848491E+02  0.29999965474E+02 0.  0.
        -12    1    3    3    0    0  0.14932817991E+02  0.15243883416E+02 -0.34609269953E+02  0.40659151509E+02  0.00000000000E+00 0.  1.
         11    1    4    4    0    0  0.14721427905E+00 -0.13335914958E+02  0.15909615883E+02  0.20760158420E+02  0.51100000000E-03 0. -1.
        -11    1    4    4    0    0  0.35716357122E+01 -0.24244650857E+01  0.21257009866E+01  0.48117790429E+01  0.51100000000E-03 0.  1.
         12    1    4    4    0    0 -0.18651667982E+02  0.51649662773E+00  0.16573953083E+02  0.24956911029E+02  0.00000000000E+00 0. -1.
</event>
<event>
 8    1  0.1338956E-013  0.9118800E+02  0.7816164E-02  0.1184000E+00
        -11   -1    0    0    0    0  0.00000000000E+00  0.00000000000E+00  0.45593999997E+02  0.45594000000E+02  0.51100000000E-03 0. -1.
         11   -1    0    0    0    0 -0.00000000000E+00 -0.00000000000E+00 -0.45593999997E+02  0.45594000000E+02  0.51100000000E-03 0.  1.
         23    2    1    2    0    0  0.22204460493E-15 -0.71054273576E-14  0.00000000000E+00  0.91188000000E+02  0.91188000000E+02 0.  0.
    9900012    2    3    3    0    0 -0.14199193662E+01 -0.35531381049E+02  0.19714766746E+02  0.50528840662E+02  0.29999941677E+02 0.  0.
        -12    1    3    3    0    0  0.14199193662E+01  0.35531381049E+02 -0.19714766746E+02  0.40659159338E+02  0.00000000000E+00 0.  1.
         11    1    4    4    0    0  0.28928885479E+01 -0.99455582700E+01  0.22867569303E+01  0.10607176390E+02  0.51100000000E-03 0. -1.
        -11    1    4    4    0    0  0.15728135815E+01 -0.37131575600E+01 -0.60678767311E+01  0.72856303716E+01  0.51100000000E-03 0.  1.
         12    1    4    4    0    0 -0.58856214956E+01 -0.21872665219E+02  0.23495886546E+02  0.32636033900E+02  0.00000000000E+00 0. -1.
</event>
<event>
 8    1  0.1338956E-013  0.9118800E+02  0.7816164E-02  0.1184000E+00
        -11   -1    0    0    0    0  0.00000000000E+00  0.00000000000E+00  0.45593999997E+02  0.45594000000E+02  0.51100000000E-03 0.  1.
         11   -1    0    0    0    0 -0.00000000000E+00 -0.00000000000E+00 -0.45593999997E+02  0.45594000000E+02  0.51100000000E-03 0. -1.
         23    2    1    2    0    0  0.00000000000E+00  0.00000000000E+00  0.88817841970E-15  0.91188000000E+02  0.91188000000E+02 0.  0.
    9900012    2    3    3    0    0  0.39897686433E+02 -0.36211494686E+01 -0.69446054700E+01  0.50528860175E+02  0.30000000988E+02 0.  0.
        -12    1    3    3    0    0 -0.39897686433E+02  0.36211494686E+01  0.69446054700E+01  0.40659139825E+02  0.00000000000E+00 0.  1.
         11    1    4    4    0    0  0.96770698938E+01  0.58090331491E+01 -0.83732609769E+01  0.14053542169E+02  0.51100000000E-03 0.  1.
        -11    1    4    4    0    0  0.99707971255E+01  0.37584155751E+01 -0.45410717151E+01  0.11582910495E+02  0.51100000000E-03 0. -1.
        -12    1    4    4    0    0  0.20249819414E+02 -0.13188598193E+02  0.59697272220E+01  0.24892407511E+02  0.00000000000E+00 0.  1.
</event>
<event>
 8    1  0.1338956E-013  0.9118800E+02  0.7816164E-02  0.1184000E+00
        -11   -1    0    0    0    0  0.00000000000E+00  0.00000000000E+00  0.45593999997E+02  0.45594000000E+02  0.51100000000E-03 0. -1.
         11   -1    0    0    0    0 -0.00000000000E+00 -0.00000000000E+00 -0.45593999997E+02  0.45594000000E+02  0.51100000000E-03 0.  1.
         23    2    1    2    0    0  0.11102230246E-15  0.00000000000E+00  0.35527136788E-14  0.91188000000E+02  0.91188000000E+02 0.  0.
    9900012    2    3    3    0    0  0.43722608887E+00 -0.31511442873E+02 -0.25690505350E+02  0.50528877238E+02  0.30000052854E+02 0.  0.
         12    1    3    3    0    0 -0.43722608887E+00  0.31511442873E+02  0.25690505350E+02  0.40659122762E+02  0.00000000000E+00 0. -1.
         11    1    4    4    0    0  0.76311720701E+01 -0.72330619772E+01 -0.62483859304E+01  0.12230874855E+02  0.51100000000E-03 0. -1.
        -11    1    4    4    0    0  0.35166200225E+01  0.22668552689E+01 -0.39312847418E+01  0.57411017388E+01  0.51100000000E-03 0.  1.
         12    1    4    4    0    0 -0.10710566004E+02 -0.26545236165E+02 -0.15510834678E+02  0.32556900644E+02  0.00000000000E+00 0. -1.
</event>
<event>
 8    1  0.1338956E-013  0.9118800E+02  0.7816164E-02  0.1184000E+00
        -11   -1    0    0    0    0  0.00000000000E+00  0.00000000000E+00  0.45593999997E+02  0.45594000000E+02  0.51100000000E-03 0.  1.
         11   -1    0    0    0    0 -0.00000000000E+00 -0.00000000000E+00 -0.45593999997E+02  0.45594000000E+02  0.51100000000E-03 0. -1.
         23    2    1    2    0    0 -0.35527136788E-14 -0.17763568394E-14  0.00000000000E+00  0.91188000000E+02  0.91188000000E+02 0.  0.
    9900012    2    3    3    0    0 -0.25389439509E+02 -0.13214942634E+02  0.28877427719E+02  0.50528878279E+02  0.30000056018E+02 0.  0.
        -12    1    3    3    0    0  0.25389439509E+02  0.13214942634E+02 -0.28877427719E+02  0.40659121721E+02  0.00000000000E+00 0.  1.
         11    1    4    4    0    0  0.32575402786E+01  0.34262504643E+01  0.33424092039E+01  0.57898584143E+01  0.51100000000E-03 0. -1.
        -11    1    4    4    0    0 -0.11022641999E+01 -0.54309423789E+01  0.93827793339E+01  0.10897094557E+02  0.51100000000E-03 0.  1.
         12    1    4    4    0    0 -0.27544715588E+02 -0.11210250720E+02  0.16152239182E+02  0.33841925308E+02  0.00000000000E+00 0. -1.
</event>
<event>
 8    1  0.1338956E-013  0.9118800E+02  0.7816164E-02  0.1184000E+00
        -11   -1    0    0    0    0  0.00000000000E+00  0.00000000000E+00  0.45593999997E+02  0.45594000000E+02  0.51100000000E-03 0. -1.
         11   -1    0    0    0    0 -0.00000000000E+00 -0.00000000000E+00 -0.45593999997E+02  0.45594000000E+02  0.51100000000E-03 0.  1.
         23    2    1    2    0    0  0.00000000000E+00 -0.44408920985E-15  0.00000000000E+00  0.91188000000E+02  0.91188000000E+02 0.  0.
    9900012    2    3    3    0    0  0.25362538494E+02 -0.31716373364E+01 -0.31620386974E+02  0.50528849558E+02  0.29999968717E+02 0.  0.
         12    1    3    3    0    0 -0.25362538494E+02  0.31716373364E+01  0.31620386974E+02  0.40659150442E+02  0.00000000000E+00 0. -1.
         11    1    4    4    0    0  0.27336416072E+01 -0.59155114348E+01 -0.71095387436E+01  0.96442528679E+01  0.51100000000E-03 0. -1.
        -11    1    4    4    0    0  0.27591247437E+02  0.29382125643E+01 -0.21132937356E+02  0.34878518744E+02  0.51100000000E-03 0.  1.
         12    1    4    4    0    0 -0.49623505503E+01 -0.19433846582E+00 -0.33779108746E+01  0.60060779465E+01  0.00000000000E+00 0. -1.
</event>
<event>
 8    1  0.1338956E-013  0.9118800E+02  0.7816164E-02  0.1184000E+00
        -11   -1    0    0    0    0  0.00000000000E+00  0.00000000000E+00  0.45593999997E+02  0.45594000000E+02  0.51100000000E-03 0. -1.
         11   -1    0    0    0    0 -0.00000000000E+00 -0.00000000000E+00 -0.45593999997E+02  0.45594000000E+02  0.51100000000E-03 0.  1.
         23    2    1    2    0    0  0.00000000000E+00  0.00000000000E+00  0.00000000000E+00  0.91188000000E+02  0.91188000000E+02 0.  0.
    9900012    2    3    3    0    0  0.21583862699E+02  0.19383528805E+02  0.28488271686E+02  0.50528856605E+02  0.29999990137E+02 0.  0.
        -12    1    3    3    0    0 -0.21583862699E+02 -0.19383528805E+02 -0.28488271686E+02  0.40659143395E+02  0.00000000000E+00 0.  1.
         11    1    4    4    0    0  0.81416730408E+01  0.12911687543E+02  0.99448577176E+00  0.15296650527E+02  0.51100000000E-03 0. -1.
        -11    1    4    4    0    0  0.24743415112E+01 -0.53501643443E+01  0.78588734888E+01  0.98238748567E+01  0.51100000000E-03 0.  1.
         12    1    4    4    0    0  0.10967848147E+02  0.11822005606E+02  0.19634912425E+02  0.25408331222E+02  0.00000000000E+00 0. -1.
</event>
<event>
 8    1  0.1338956E-013  0.9118800E+02  0.7816164E-02  0.1184000E+00
        -11   -1    0    0    0    0  0.00000000000E+00  0.00000000000E+00  0.45593999997E+02  0.45594000000E+02  0.51100000000E-03 0.  1.
         11   -1    0    0    0    0 -0.00000000000E+00 -0.00000000000E+00 -0.45593999997E+02  0.45594000000E+02  0.51100000000E-03 0. -1.
         23    2    1    2    0    0  0.00000000000E+00  0.00000000000E+00  0.17763568394E-14  0.91188000000E+02  0.91188000000E+02 0.  0.
    9900012    2    3    3    0    0 -0.32761314645E+02  0.23337715862E+02  0.59340304995E+01  0.50528862812E+02  0.30000009004E+02 0.  0.
        -12    1    3    3    0    0  0.32761314645E+02 -0.23337715862E+02 -0.59340304995E+01  0.40659137188E+02  0.00000000000E+00 0.  1.
         11    1    4    4    0    0 -0.18882182439E+02  0.12361027743E+02  0.98912681239E+01  0.24640799619E+02  0.51100000000E-03 0. -1.
        -11    1    4    4    0    0 -0.10789005435E+02 -0.30439141710E+01 -0.12733709774E+01  0.11282265981E+02  0.51100000000E-03 0.  1.
        -12    1    4    4    0    0 -0.30901267714E+01  0.14020602289E+02 -0.26838666471E+01  0.14605797212E+02  0.00000000000E+00 0.  1.
</event>
<event>
 8    1  0.1338956E-013  0.9118800E+02  0.7816164E-02  0.1184000E+00
        -11   -1    0    0    0    0  0.00000000000E+00  0.00000000000E+00  0.45593999997E+02  0.45594000000E+02  0.51100000000E-03 0. -1.
         11   -1    0    0    0    0 -0.00000000000E+00 -0.00000000000E+00 -0.45593999997E+02  0.45594000000E+02  0.51100000000E-03 0.  1.
         23    2    1    2    0    0  0.00000000000E+00  0.00000000000E+00  0.00000000000E+00  0.91188000000E+02  0.91188000000E+02 0.  0.
    9900012    2    3    3    0    0 -0.24607484419E+02  0.71727032312E+01 -0.31562478211E+02  0.50528855987E+02  0.29999988257E+02 0.  0.
         12    1    3    3    0    0  0.24607484419E+02 -0.71727032312E+01  0.31562478211E+02  0.40659144013E+02  0.00000000000E+00 0. -1.
         11    1    4    4    0    0  0.20953770414E+01 -0.12753815040E+01  0.39508155603E+01  0.46503921102E+01  0.51100000000E-03 0. -1.
        -11    1    4    4    0    0 -0.13944252257E+02  0.67148292702E+00 -0.14885476363E+02  0.20407608070E+02  0.51100000000E-03 0.  1.
        -12    1    4    4    0    0 -0.12758609204E+02  0.77766018083E+01 -0.20627817408E+02  0.25470855806E+02  0.00000000000E+00 0.  1.
</event>
<event>
 8    1  0.1338956E-013  0.9118800E+02  0.7816164E-02  0.1184000E+00
        -11   -1    0    0    0    0  0.00000000000E+00  0.00000000000E+00  0.45593999997E+02  0.45594000000E+02  0.51100000000E-03 0. -1.
         11   -1    0    0    0    0 -0.00000000000E+00 -0.00000000000E+00 -0.45593999997E+02  0.45594000000E+02  0.51100000000E-03 0.  1.
         23    2    1    2    0    0  0.00000000000E+00 -0.35527136788E-14 -0.35527136788E-14  0.91188000000E+02  0.91188000000E+02 0.  0.
    9900012    2    3    3    0    0  0.17669505373E+02  0.25289738086E+02 -0.26483595466E+02  0.50528891532E+02  0.30000096301E+02 0.  0.
         12    1    3    3    0    0 -0.17669505373E+02 -0.25289738086E+02  0.26483595466E+02  0.40659108468E+02  0.00000000000E+00 0. -1.
         11    1    4    4    0    0 -0.79115435003E+00 -0.15955323122E+00 -0.91592255869E+01  0.91947156591E+01  0.51100000000E-03 0. -1.
        -11    1    4    4    0    0  0.33691801287E+01 -0.31087271923E+01  0.19524061917E+00  0.45884287786E+01  0.51100000000E-03 0.  1.
        -12    1    4    4    0    0  0.15091479594E+02  0.28558018510E+02 -0.17519610498E+02  0.36745747095E+02  0.00000000000E+00 0.  1.
</event>
<event>
 8    1  0.1338956E-013  0.9118800E+02  0.7816164E-02  0.1184000E+00
        -11   -1    0    0    0    0  0.00000000000E+00  0.00000000000E+00  0.45593999997E+02  0.45594000000E+02  0.51100000000E-03 0. -1.
         11   -1    0    0    0    0 -0.00000000000E+00 -0.00000000000E+00 -0.45593999997E+02  0.45594000000E+02  0.51100000000E-03 0.  1.
         23    2    1    2    0    0  0.00000000000E+00 -0.35527136788E-14 -0.35527136788E-14  0.91188000000E+02  0.91188000000E+02 0.  0.
    9900012    2    3    3    0    0 -0.23274128604E+02  0.22449661361E+02  0.24647365372E+02  0.50528868464E+02  0.30000026182E+02 0.  0.
        -12    1    3    3    0    0  0.23274128604E+02 -0.22449661361E+02 -0.24647365372E+02  0.40659131536E+02  0.00000000000E+00 0.  1.
         11    1    4    4    0    0 -0.94442050074E+01  0.94821284541E+01 -0.11574075734E+01  0.13432920784E+02  0.51100000000E-03 0. -1.
        -11    1    4    4    0    0 -0.88720671283E+01 -0.10538008897E+01  0.22074620996E+01  0.92030951655E+01  0.51100000000E-03 0.  1.
         12    1    4    4    0    0 -0.49578564684E+01  0.14021333796E+02  0.23597310846E+02  0.27892852514E+02  0.00000000000E+00 0. -1.
</event>
<event>
 8    1  0.1338956E-013  0.9118800E+02  0.7816164E-02  0.1184000E+00
        -11   -1    0    0    0    0  0.00000000000E+00  0.00000000000E+00  0.45593999997E+02  0.45594000000E+02  0.51100000000E-03 0. -1.
         11   -1    0    0    0    0 -0.00000000000E+00 -0.00000000000E+00 -0.45593999997E+02  0.45594000000E+02  0.51100000000E-03 0.  1.
         23    2    1    2    0    0  0.00000000000E+00  0.00000000000E+00  0.17763568394E-14  0.91188000000E+02  0.91188000000E+02 0.  0.
    9900012    2    3    3    0    0  0.48658751827E+01  0.37360984173E+02  0.15285504368E+02  0.50528849450E+02  0.29999968389E+02 0.  0.
        -12    1    3    3    0    0 -0.48658751827E+01 -0.37360984173E+02 -0.15285504368E+02  0.40659150550E+02  0.00000000000E+00 0.  1.
         11    1    4    4    0    0  0.23540187841E+01  0.58945781218E+00 -0.44492917546E+01  0.50680432444E+01  0.51100000000E-03 0. -1.
        -11    1    4    4    0    0  0.66487948278E+01  0.74371283433E+01  0.20501666047E+00  0.99779448159E+01  0.51100000000E-03 0.  1.
         12    1    4    4    0    0 -0.41369384293E+01  0.29334398017E+02  0.19529779462E+02  0.35482861390E+02  0.00000000000E+00 0. -1.
</event>
<event>
 8    1  0.1338956E-013  0.9118800E+02  0.7816164E-02  0.1184000E+00
        -11   -1    0    0    0    0  0.00000000000E+00  0.00000000000E+00  0.45593999997E+02  0.45594000000E+02  0.51100000000E-03 0. -1.
         11   -1    0    0    0    0 -0.00000000000E+00 -0.00000000000E+00 -0.45593999997E+02  0.45594000000E+02  0.51100000000E-03 0.  1.
         23    2    1    2    0    0  0.00000000000E+00  0.22204460493E-15  0.35527136788E-14  0.91188000000E+02  0.91188000000E+02 0.  0.
    9900012    2    3    3    0    0  0.34094170001E+02 -0.13283166656E+01 -0.22113108277E+02  0.50528850834E+02  0.29999972596E+02 0.  0.
         12    1    3    3    0    0 -0.34094170001E+02  0.13283166656E+01  0.22113108277E+02  0.40659149166E+02  0.00000000000E+00 0. -1.
         11    1    4    4    0    0 -0.44574994682E+01 -0.54003424216E-01  0.78040557111E+00  0.45256216142E+01  0.51100000000E-03 0. -1.
        -11    1    4    4    0    0 -0.15209089341E+00 -0.10465976307E+01 -0.46509680538E-01  0.10586130794E+01  0.51100000000E-03 0.  1.
        -12    1    4    4    0    0  0.38703760363E+02 -0.22771561069E+00 -0.22847004167E+02  0.44944616141E+02  0.00000000000E+00 0.  1.
</event>
<event>
 8    1  0.1338956E-013  0.9118800E+02  0.7816164E-02  0.1184000E+00
        -11   -1    0    0    0    0  0.00000000000E+00  0.00000000000E+00  0.45593999997E+02  0.45594000000E+02  0.51100000000E-03 0.  1.
         11   -1    0    0    0    0 -0.00000000000E+00 -0.00000000000E+00 -0.45593999997E+02  0.45594000000E+02  0.51100000000E-03 0. -1.
         23    2    1    2    0    0  0.00000000000E+00  0.00000000000E+00  0.17763568394E-14  0.91188000000E+02  0.91188000000E+02 0.  0.
    9900012    2    3    3    0    0  0.27380960532E+02  0.27362333543E+02 -0.12440087640E+02  0.50528805749E+02  0.29999835556E+02 0.  0.
         12    1    3    3    0    0 -0.27380960532E+02 -0.27362333543E+02  0.12440087640E+02  0.40659194251E+02  0.00000000000E+00 0. -1.
         11    1    4    4    0    0  0.14007870928E+01  0.55283318669E+01 -0.10175121512E+02  0.11664379785E+02  0.51100000000E-03 0. -1.
        -11    1    4    4    0    0  0.24456402784E+01  0.13307760890E+02 -0.28442170624E+01  0.13826323706E+02  0.51100000000E-03 0.  1.
         12    1    4    4    0    0  0.23534533161E+02  0.85262407862E+01  0.57925093418E+00  0.25038102258E+02  0.00000000000E+00 0. -1.
</event>
<event>
 8    1  0.1338956E-013  0.9118800E+02  0.7816164E-02  0.1184000E+00
        -11   -1    0    0    0    0  0.00000000000E+00  0.00000000000E+00  0.45593999997E+02  0.45594000000E+02  0.51100000000E-03 0.  1.
         11   -1    0    0    0    0 -0.00000000000E+00 -0.00000000000E+00 -0.45593999997E+02  0.45594000000E+02  0.51100000000E-03 0. -1.
         23    2    1    2    0    0  0.00000000000E+00  0.35527136788E-14  0.00000000000E+00  0.91188000000E+02  0.91188000000E+02 0.  0.
    9900012    2    3    3    0    0  0.30966537136E+02  0.21094062386E+02 -0.15788598904E+02  0.50528859017E+02  0.29999997468E+02 0.  0.
         12    1    3    3    0    0 -0.30966537136E+02 -0.21094062386E+02  0.15788598904E+02  0.40659140983E+02  0.00000000000E+00 0. -1.
         11    1    4    4    0    0  0.45461825178E+01  0.41598030936E+01 -0.68477354122E+01  0.92121234143E+01  0.51100000000E-03 0. -1.
        -11    1    4    4    0    0  0.22284359434E+02  0.19524111208E+02 -0.15264992162E+02  0.33328720045E+02  0.51100000000E-03 0.  1.
         12    1    4    4    0    0  0.41359951835E+01 -0.25898519158E+01  0.63241286707E+01  0.79880155575E+01  0.00000000000E+00 0. -1.
</event>
<event>
 8    1  0.1486104E-013  0.9118800E+02  0.7816164E-02  0.1184000E+00
        -11   -1    0    0    0    0  0.00000000000E+00  0.00000000000E+00  0.45593999997E+02  0.45594000000E+02  0.51100000000E-03 0. -1.
         11   -1    0    0    0    0 -0.00000000000E+00 -0.00000000000E+00 -0.45593999997E+02  0.45594000000E+02  0.51100000000E-03 0.  1.
         23    2    1    2    0    0  0.88817841970E-15  0.10658141036E-13  0.35527136788E-14  0.91188000000E+02  0.91188000000E+02 0.  0.
    9900012    2    3    3    0    0 -0.43450349716E+01 -0.28634469035E+02 -0.28536886405E+02  0.50528855500E+02  0.29999986776E+02 0.  0.
         12    1    3    3    0    0  0.43450349716E+01  0.28634469035E+02  0.28536886405E+02  0.40659144500E+02  0.00000000000E+00 0. -1.
         11    1    4    4    0    0 -0.34623228885E+01 -0.16367766352E+02 -0.71898960653E+01  0.18209504684E+02  0.51100000000E-03 0. -1.
        -11    1    4    4    0    0 -0.27961607063E+01 -0.17997441963E+02 -0.16446722802E+02  0.24540194032E+02  0.51100000000E-03 0.  1.
         12    1    4    4    0    0  0.19134486232E+01  0.57307392804E+01 -0.49002675375E+01  0.77791567841E+01  0.00000000000E+00 0. -1.
</event>
<event>
 8    1  0.1338956E-013  0.9118800E+02  0.7816164E-02  0.1184000E+00
        -11   -1    0    0    0    0  0.00000000000E+00  0.00000000000E+00  0.45593999997E+02  0.45594000000E+02  0.51100000000E-03 0. -1.
         11   -1    0    0    0    0 -0.00000000000E+00 -0.00000000000E+00 -0.45593999997E+02  0.45594000000E+02  0.51100000000E-03 0.  1.
         23    2    1    2    0    0 -0.17763568394E-14  0.00000000000E+00  0.00000000000E+00  0.91188000000E+02  0.91188000000E+02 0.  0.
    9900012    2    3    3    0    0 -0.12075517449E+02  0.29610706885E+02 -0.25110816668E+02  0.50528865754E+02  0.30000017947E+02 0.  0.
         12    1    3    3    0    0  0.12075517449E+02 -0.29610706885E+02  0.25110816668E+02  0.40659134246E+02  0.00000000000E+00 0. -1.
         11    1    4    4    0    0  0.37733150453E+01  0.69308454080E+01  0.43214196611E+01  0.89971769267E+01  0.51100000000E-03 0. -1.
        -11    1    4    4    0    0 -0.14479098637E+01  0.28856771718E+00  0.41785834711E+00  0.15343794055E+01  0.51100000000E-03 0.  1.
        -12    1    4    4    0    0 -0.14400922631E+02  0.22391293760E+02 -0.29850094676E+02  0.39997309422E+02  0.00000000000E+00 0.  1.
</event>
<event>
 8    1  0.1338956E-013  0.9118800E+02  0.7816164E-02  0.1184000E+00
        -11   -1    0    0    0    0  0.00000000000E+00  0.00000000000E+00  0.45593999997E+02  0.45594000000E+02  0.51100000000E-03 0. -1.
         11   -1    0    0    0    0 -0.00000000000E+00 -0.00000000000E+00 -0.45593999997E+02  0.45594000000E+02  0.51100000000E-03 0.  1.
         23    2    1    2    0    0  0.00000000000E+00  0.00000000000E+00  0.00000000000E+00  0.91188000000E+02  0.91188000000E+02 0.  0.
    9900012    2    3    3    0    0  0.25216050783E+02  0.11524354640E+02 -0.29740667663E+02  0.50528840146E+02  0.29999940109E+02 0.  0.
         12    1    3    3    0    0 -0.25216050783E+02 -0.11524354640E+02  0.29740667663E+02  0.40659159854E+02  0.00000000000E+00 0. -1.
         11    1    4    4    0    0  0.48760638174E+01  0.53628049022E+01 -0.29376780859E+00  0.72541005340E+01  0.51100000000E-03 0.  1.
        -11    1    4    4    0    0  0.14311834972E+02 -0.55917474633E+01 -0.62647769270E+01  0.16593483364E+02  0.51100000000E-03 0. -1.
        -12    1    4    4    0    0  0.60281519937E+01  0.11753297201E+02 -0.23182122928E+02  0.26681256248E+02  0.00000000000E+00 0.  1.
</event>
<event>
 8    1  0.1338956E-013  0.9118800E+02  0.7816164E-02  0.1184000E+00
        -11   -1    0    0    0    0  0.00000000000E+00  0.00000000000E+00  0.45593999997E+02  0.45594000000E+02  0.51100000000E-03 0. -1.
         11   -1    0    0    0    0 -0.00000000000E+00 -0.00000000000E+00 -0.45593999997E+02  0.45594000000E+02  0.51100000000E-03 0.  1.
         23    2    1    2    0    0  0.35527136788E-14  0.00000000000E+00 -0.35527136788E-14  0.91188000000E+02  0.91188000000E+02 0.  0.
    9900012    2    3    3    0    0 -0.27518285578E+02 -0.56692463409E+01  0.29389961229E+02  0.50528853228E+02  0.29999979871E+02 0.  0.
        -12    1    3    3    0    0  0.27518285578E+02  0.56692463409E+01 -0.29389961229E+02  0.40659146772E+02  0.00000000000E+00 0.  1.
         11    1    4    4    0    0  0.48021939926E+00 -0.93027804388E+01  0.14302724204E+02  0.17068692231E+02  0.51100000000E-03 0. -1.
        -11    1    4    4    0    0 -0.64696878823E+01  0.40406632367E+01  0.73128360691E+01  0.10566995426E+02  0.51100000000E-03 0.  1.
        -12    1    4    4    0    0 -0.21528817095E+02 -0.40712913882E+00  0.77744009556E+01  0.22893165571E+02  0.00000000000E+00 0.  1.
</event>
<event>
 8    1  0.1338956E-013  0.9118800E+02  0.7816164E-02  0.1184000E+00
        -11   -1    0    0    0    0  0.00000000000E+00  0.00000000000E+00  0.45593999997E+02  0.45594000000E+02  0.51100000000E-03 0. -1.
         11   -1    0    0    0    0 -0.00000000000E+00 -0.00000000000E+00 -0.45593999997E+02  0.45594000000E+02  0.51100000000E-03 0.  1.
         23    2    1    2    0    0  0.00000000000E+00  0.35527136788E-14  0.00000000000E+00  0.91188000000E+02  0.91188000000E+02 0.  0.
    9900012    2    3    3    0    0 -0.20728563016E+02 -0.20088728152E+02  0.28634519134E+02  0.50528855770E+02  0.29999987599E+02 0.  0.
        -12    1    3    3    0    0  0.20728563016E+02  0.20088728152E+02 -0.28634519134E+02  0.40659144230E+02  0.00000000000E+00 0.  1.
         11    1    4    4    0    0 -0.55553590206E+00 -0.62528237922E+01  0.12647692411E+02  0.14119863636E+02  0.51100000000E-03 0.  1.
        -11    1    4    4    0    0 -0.12264413275E+02 -0.71387922279E+01 -0.32501011924E+01  0.14558205434E+02  0.51100000000E-03 0. -1.
         12    1    4    4    0    0 -0.79086138390E+01 -0.66971121315E+01  0.19236927916E+02  0.21850786700E+02  0.00000000000E+00 0. -1.
</event>
<event>
 8    1  0.1338956E-013  0.9118800E+02  0.7816164E-02  0.1184000E+00
        -11   -1    0    0    0    0  0.00000000000E+00  0.00000000000E+00  0.45593999997E+02  0.45594000000E+02  0.51100000000E-03 0.  1.
         11   -1    0    0    0    0 -0.00000000000E+00 -0.00000000000E+00 -0.45593999997E+02  0.45594000000E+02  0.51100000000E-03 0. -1.
         23    2    1    2    0    0  0.00000000000E+00  0.00000000000E+00  0.00000000000E+00  0.91188000000E+02  0.91188000000E+02 0.  0.
    9900012    2    3    3    0    0 -0.23446220606E+02 -0.31585181096E+02  0.10286692756E+02  0.50528868511E+02  0.30000026327E+02 0.  0.
        -12    1    3    3    0    0  0.23446220606E+02  0.31585181096E+02 -0.10286692756E+02  0.40659131489E+02  0.00000000000E+00 0.  1.
         11    1    4    4    0    0 -0.45061993740E+01 -0.21285722738E+02  0.30700004679E+01  0.21972999987E+02  0.51100000000E-03 0. -1.
        -11    1    4    4    0    0 -0.24312811141E+01 -0.10112841701E+02  0.59853644283E+01  0.12000220112E+02  0.51100000000E-03 0.  1.
        -12    1    4    4    0    0 -0.16508740118E+02 -0.18661665613E+00  0.12313278593E+01  0.16555648413E+02  0.00000000000E+00 0.  1.
</event>
<event>
 8    1  0.1338956E-013  0.9118800E+02  0.7816164E-02  0.1184000E+00
        -11   -1    0    0    0    0  0.00000000000E+00  0.00000000000E+00  0.45593999997E+02  0.45594000000E+02  0.51100000000E-03 0. -1.
         11   -1    0    0    0    0 -0.00000000000E+00 -0.00000000000E+00 -0.45593999997E+02  0.45594000000E+02  0.51100000000E-03 0.  1.
         23    2    1    2    0    0  0.35527136788E-14  0.00000000000E+00  0.00000000000E+00  0.91188000000E+02  0.91188000000E+02 0.  0.
    9900012    2    3    3    0    0  0.24783366708E+02  0.19514004249E+02 -0.25654518105E+02  0.50528856792E+02  0.29999990706E+02 0.  0.
         12    1    3    3    0    0 -0.24783366708E+02 -0.19514004249E+02  0.25654518105E+02  0.40659143208E+02  0.00000000000E+00 0. -1.
         11    1    4    4    0    0  0.68865722472E+01  0.52372199539E+01 -0.37718379231E+00  0.86600010413E+01  0.51100000000E-03 0. -1.
        -11    1    4    4    0    0  0.19973532158E+02  0.18806216342E+02 -0.17205109364E+02  0.32382580942E+02  0.51100000000E-03 0.  1.
        -12    1    4    4    0    0 -0.20767376971E+01 -0.45294320472E+01 -0.80722249487E+01  0.94862748092E+01  0.00000000000E+00 0.  1.
</event>
<event>
 8    1  0.1338956E-013  0.9118800E+02  0.7816164E-02  0.1184000E+00
        -11   -1    0    0    0    0  0.00000000000E+00  0.00000000000E+00  0.45593999997E+02  0.45594000000E+02  0.51100000000E-03 0.  1.
         11   -1    0    0    0    0 -0.00000000000E+00 -0.00000000000E+00 -0.45593999997E+02  0.45594000000E+02  0.51100000000E-03 0. -1.
         23    2    1    2    0    0  0.00000000000E+00  0.11102230246E-15  0.71054273576E-14  0.91188000000E+02  0.91188000000E+02 0.  0.
    9900012    2    3    3    0    0  0.27919214478E+02 -0.32870521643E+00  0.29556313077E+02  0.50528853097E+02  0.29999979474E+02 0.  0.
        -12    1    3    3    0    0 -0.27919214478E+02  0.32870521643E+00 -0.29556313077E+02  0.40659146903E+02  0.00000000000E+00 0.  1.
         11    1    4    4    0    0  0.51776037198E+01 -0.64134426904E+01  0.19198618034E+02  0.20893222875E+02  0.51100000000E-03 0. -1.
        -11    1    4    4    0    0  0.44786929002E+01  0.55251044714E+01  0.87754622291E+01  0.11295760581E+02  0.51100000000E-03 0.  1.
        -12    1    4    4    0    0  0.18262917858E+02  0.55963300258E+00  0.15822328143E+01  0.18339869641E+02  0.00000000000E+00 0.  1.
</event>
<event>
 8    1  0.1338956E-013  0.9118800E+02  0.7816164E-02  0.1184000E+00
        -11   -1    0    0    0    0  0.00000000000E+00  0.00000000000E+00  0.45593999997E+02  0.45594000000E+02  0.51100000000E-03 0. -1.
         11   -1    0    0    0    0 -0.00000000000E+00 -0.00000000000E+00 -0.45593999997E+02  0.45594000000E+02  0.51100000000E-03 0.  1.
         23    2    1    2    0    0  0.35527136788E-14  0.88817841970E-15  0.71054273576E-14  0.91188000000E+02  0.91188000000E+02 0.  0.
    9900012    2    3    3    0    0 -0.16557088343E+02 -0.62191044491E+01 -0.36610803364E+02  0.50528863788E+02  0.30000011970E+02 0.  0.
         12    1    3    3    0    0  0.16557088343E+02  0.62191044491E+01  0.36610803364E+02  0.40659136212E+02  0.00000000000E+00 0. -1.
         11    1    4    4    0    0 -0.18824660579E+00  0.22760396806E+01 -0.98040124646E+01  0.10066501581E+02  0.51100000000E-03 0. -1.
        -11    1    4    4    0    0 -0.22152468993E+02 -0.32431759924E+01 -0.21318483712E+02  0.30914847906E+02  0.51100000000E-03 0.  1.
         12    1    4    4    0    0  0.57836272556E+01 -0.52519681372E+01 -0.54883071879E+01  0.95475143014E+01  0.00000000000E+00 0. -1.
</event>
<event>
 8    1  0.1338956E-013  0.9118800E+02  0.7816164E-02  0.1184000E+00
        -11   -1    0    0    0    0  0.00000000000E+00  0.00000000000E+00  0.45593999997E+02  0.45594000000E+02  0.51100000000E-03 0. -1.
         11   -1    0    0    0    0 -0.00000000000E+00 -0.00000000000E+00 -0.45593999997E+02  0.45594000000E+02  0.51100000000E-03 0.  1.
         23    2    1    2    0    0 -0.22204460493E-14  0.00000000000E+00  0.00000000000E+00  0.91188000000E+02  0.91188000000E+02 0.  0.
    9900012    2    3    3    0    0 -0.24843247850E+01 -0.16182678460E+02  0.37217128599E+02  0.50528860647E+02  0.30000002423E+02 0.  0.
        -12    1    3    3    0    0  0.24843247850E+01  0.16182678460E+02 -0.37217128599E+02  0.40659139353E+02  0.00000000000E+00 0.  1.
         11    1    4    4    0    0  0.11534373169E+01 -0.73298617148E+00 -0.48609184744E+00  0.14505074687E+01  0.51100000000E-03 0. -1.
        -11    1    4    4    0    0 -0.10675675755E+02 -0.11312645399E+02  0.65573122840E+01  0.16880294529E+02  0.51100000000E-03 0.  1.
         12    1    4    4    0    0  0.70379136529E+01 -0.41370468899E+01  0.31145908162E+02  0.32198058649E+02  0.00000000000E+00 0. -1.
</event>
<event>
 8    1  0.1338956E-013  0.9118800E+02  0.7816164E-02  0.1184000E+00
        -11   -1    0    0    0    0  0.00000000000E+00  0.00000000000E+00  0.45593999997E+02  0.45594000000E+02  0.51100000000E-03 0. -1.
         11   -1    0    0    0    0 -0.00000000000E+00 -0.00000000000E+00 -0.45593999997E+02  0.45594000000E+02  0.51100000000E-03 0.  1.
         23    2    1    2    0    0  0.71054273576E-14  0.00000000000E+00 -0.88817841970E-15  0.91188000000E+02  0.91188000000E+02 0.  0.
    9900012    2    3    3    0    0  0.37237960309E+02  0.14427675111E+02 -0.76387704037E+01  0.50528753692E+02  0.29999677320E+02 0.  0.
         12    1    3    3    0    0 -0.37237960309E+02 -0.14427675111E+02  0.76387704037E+01  0.40659246308E+02  0.00000000000E+00 0. -1.
         11    1    4    4    0    0 -0.36893448146E+01  0.33951392298E+00 -0.12814091551E+01  0.39202735298E+01  0.51100000000E-03 0. -1.
        -11    1    4    4    0    0  0.51317502840E+01  0.31811668042E+01 -0.69201795473E+01  0.91838754587E+01  0.51100000000E-03 0.  1.
         12    1    4    4    0    0  0.35795554839E+02  0.10906994384E+02  0.56281829868E+00  0.37424604703E+02  0.00000000000E+00 0. -1.
</event>
<event>
 8    1  0.1338956E-013  0.9118800E+02  0.7816164E-02  0.1184000E+00
        -11   -1    0    0    0    0  0.00000000000E+00  0.00000000000E+00  0.45593999997E+02  0.45594000000E+02  0.51100000000E-03 0. -1.
         11   -1    0    0    0    0 -0.00000000000E+00 -0.00000000000E+00 -0.45593999997E+02  0.45594000000E+02  0.51100000000E-03 0.  1.
         23    2    1    2    0    0 -0.35527136788E-14  0.25535129566E-14 -0.71054273576E-14  0.91188000000E+02  0.91188000000E+02 0.  0.
    9900012    2    3    3    0    0 -0.20708800015E+02 -0.65484684118E+00 -0.34984039648E+02  0.50528852781E+02  0.29999978514E+02 0.  0.
         12    1    3    3    0    0  0.20708800015E+02  0.65484684118E+00  0.34984039648E+02  0.40659147219E+02  0.00000000000E+00 0. -1.
         11    1    4    4    0    0 -0.92559607960E+01  0.53683728664E+01 -0.16259205640E+02  0.19464172364E+02  0.51100000000E-03 0. -1.
        -11    1    4    4    0    0 -0.65744663244E+01  0.73516845467E+01 -0.11332077532E+02  0.15022877706E+02  0.51100000000E-03 0.  1.
         12    1    4    4    0    0 -0.48783728948E+01 -0.13374904254E+02 -0.73927564762E+01  0.16041802711E+02  0.00000000000E+00 0. -1.
</event>
<event>
 8    1  0.1733864E-013  0.9118800E+02  0.7816164E-02  0.1184000E+00
        -11   -1    0    0    0    0  0.00000000000E+00  0.00000000000E+00  0.45593999997E+02  0.45594000000E+02  0.51100000000E-03 0. -1.
         11   -1    0    0    0    0 -0.00000000000E+00 -0.00000000000E+00 -0.45593999997E+02  0.45594000000E+02  0.51100000000E-03 0.  1.
         23    2    1    2    0    0  0.00000000000E+00 -0.88817841970E-15  0.00000000000E+00  0.91188000000E+02  0.91188000000E+02 0.  0.
    9900012    2    3    3    0    0  0.28367718923E+02  0.70002078659E+01 -0.28274286272E+02  0.50528860176E+02  0.30000000991E+02 0.  0.
         12    1    3    3    0    0 -0.28367718923E+02 -0.70002078659E+01  0.28274286272E+02  0.40659139824E+02  0.00000000000E+00 0. -1.
         11    1    4    4    0    0  0.39251501618E+01 -0.28535519786E+01  0.10920825613E+01  0.49741539249E+01  0.51100000000E-03 0. -1.
        -11    1    4    4    0    0 -0.58464302248E+00 -0.48382420177E+01 -0.85452844994E+01  0.98372903140E+01  0.51100000000E-03 0.  1.
        -12    1    4    4    0    0  0.25027211783E+02  0.14692001862E+02 -0.20821084334E+02  0.35717415937E+02  0.00000000000E+00 0.  1.
</event>
<event>
 8    1  0.1338956E-013  0.9118800E+02  0.7816164E-02  0.1184000E+00
        -11   -1    0    0    0    0  0.00000000000E+00  0.00000000000E+00  0.45593999997E+02  0.45594000000E+02  0.51100000000E-03 0. -1.
         11   -1    0    0    0    0 -0.00000000000E+00 -0.00000000000E+00 -0.45593999997E+02  0.45594000000E+02  0.51100000000E-03 0.  1.
         23    2    1    2    0    0 -0.17763568394E-14  0.00000000000E+00  0.35527136788E-14  0.91188000000E+02  0.91188000000E+02 0.  0.
    9900012    2    3    3    0    0 -0.13539218270E+02 -0.32559823553E+02  0.20241382193E+02  0.50528854728E+02  0.29999984431E+02 0.  0.
        -12    1    3    3    0    0  0.13539218270E+02  0.32559823553E+02 -0.20241382193E+02  0.40659145272E+02  0.00000000000E+00 0.  1.
         11    1    4    4    0    0 -0.25821867506E+01 -0.12106204991E+02  0.12304615623E+02  0.17453694554E+02  0.51100000000E-03 0. -1.
        -11    1    4    4    0    0 -0.11780305921E+02 -0.94484157308E+01  0.13905695370E+02  0.20528432269E+02  0.51100000000E-03 0.  1.
        -12    1    4    4    0    0  0.82327440121E+00 -0.11005202831E+02 -0.59689288004E+01  0.12546727905E+02  0.00000000000E+00 0.  1.
</event>
<event>
 8    1  0.1338956E-013  0.9118800E+02  0.7816164E-02  0.1184000E+00
        -11   -1    0    0    0    0  0.00000000000E+00  0.00000000000E+00  0.45593999997E+02  0.45594000000E+02  0.51100000000E-03 0. -1.
         11   -1    0    0    0    0 -0.00000000000E+00 -0.00000000000E+00 -0.45593999997E+02  0.45594000000E+02  0.51100000000E-03 0.  1.
         23    2    1    2    0    0  0.00000000000E+00  0.35527136788E-14  0.00000000000E+00  0.91188000000E+02  0.91188000000E+02 0.  0.
    9900012    2    3    3    0    0  0.18026677907E+02 -0.24908369132E+02 -0.26604092713E+02  0.50528859351E+02  0.29999998484E+02 0.  0.
         12    1    3    3    0    0 -0.18026677907E+02  0.24908369132E+02  0.26604092713E+02  0.40659140649E+02  0.00000000000E+00 0. -1.
         11    1    4    4    0    0 -0.37228680515E+00  0.11985735194E+01 -0.17252206621E+01  0.21334391346E+01  0.51100000000E-03 0. -1.
        -11    1    4    4    0    0 -0.64294786516E+01 -0.74734345320E+01 -0.97374919555E+01  0.13856737324E+02  0.51100000000E-03 0.  1.
        -12    1    4    4    0    0  0.24828443364E+02 -0.18633508120E+02 -0.15141380096E+02  0.34538682892E+02  0.00000000000E+00 0.  1.
</event>
<event>
 8    1  0.1338956E-013  0.9118800E+02  0.7816164E-02  0.1184000E+00
        -11   -1    0    0    0    0  0.00000000000E+00  0.00000000000E+00  0.45593999997E+02  0.45594000000E+02  0.51100000000E-03 0. -1.
         11   -1    0    0    0    0 -0.00000000000E+00 -0.00000000000E+00 -0.45593999997E+02  0.45594000000E+02  0.51100000000E-03 0.  1.
         23    2    1    2    0    0 -0.35527136788E-14 -0.17763568394E-14  0.71054273576E-14  0.91188000000E+02  0.91188000000E+02 0.  0.
    9900012    2    3    3    0    0  0.21730522505E+02  0.13978177371E+02 -0.31393636620E+02  0.50528862390E+02  0.30000007720E+02 0.  0.
         12    1    3    3    0    0 -0.21730522505E+02 -0.13978177371E+02  0.31393636620E+02  0.40659137610E+02  0.00000000000E+00 0. -1.
         11    1    4    4    0    0  0.79537159614E+01 -0.12850924789E+01 -0.79199916861E+01  0.11297757691E+02  0.51100000000E-03 0. -1.
        -11    1    4    4    0    0  0.11439540606E+02  0.31065671213E+01 -0.24077239728E+02  0.26837051287E+02  0.51100000000E-03 0.  1.
        -12    1    4    4    0    0  0.23372659374E+01  0.12156702729E+02  0.60359479426E+00  0.12394053412E+02  0.00000000000E+00 0.  1.
</event>
<event>
 8    1  0.1338956E-013  0.9118800E+02  0.7816164E-02  0.1184000E+00
        -11   -1    0    0    0    0  0.00000000000E+00  0.00000000000E+00  0.45593999997E+02  0.45594000000E+02  0.51100000000E-03 0. -1.
         11   -1    0    0    0    0 -0.00000000000E+00 -0.00000000000E+00 -0.45593999997E+02  0.45594000000E+02  0.51100000000E-03 0.  1.
         23    2    1    2    0    0 -0.35527136788E-14 -0.35527136788E-14  0.00000000000E+00  0.91188000000E+02  0.91188000000E+02 0.  0.
    9900012    2    3    3    0    0 -0.26629319636E+02 -0.18875066836E+02 -0.24244117294E+02  0.50528855448E+02  0.29999986620E+02 0.  0.
         12    1    3    3    0    0  0.26629319636E+02  0.18875066836E+02  0.24244117294E+02  0.40659144552E+02  0.00000000000E+00 0. -1.
         11    1    4    4    0    0 -0.54103157678E+01 -0.25902810495E+01  0.10163816429E+01  0.60839218048E+01  0.51100000000E-03 0.  1.
        -11    1    4    4    0    0  0.24019520143E+01 -0.11300284691E+02 -0.12922404633E+02  0.17333619049E+02  0.51100000000E-03 0. -1.
         12    1    4    4    0    0 -0.23620955882E+02 -0.49845010959E+01 -0.12338094304E+02  0.27111314594E+02  0.00000000000E+00 0. -1.
</event>
<event>
 8    1  0.1338956E-013  0.9118800E+02  0.7816164E-02  0.1184000E+00
        -11   -1    0    0    0    0  0.00000000000E+00  0.00000000000E+00  0.45593999997E+02  0.45594000000E+02  0.51100000000E-03 0. -1.
         11   -1    0    0    0    0 -0.00000000000E+00 -0.00000000000E+00 -0.45593999997E+02  0.45594000000E+02  0.51100000000E-03 0.  1.
         23    2    1    2    0    0 -0.71054273576E-14 -0.17763568394E-14  0.00000000000E+00  0.91188000000E+02  0.91188000000E+02 0.  0.
    9900012    2    3    3    0    0 -0.37485430111E+02  0.12768338842E+02  0.92183390780E+01  0.50528859297E+02  0.29999998318E+02 0.  0.
        -12    1    3    3    0    0  0.37485430111E+02 -0.12768338842E+02 -0.92183390780E+01  0.40659140703E+02  0.00000000000E+00 0.  1.
         11    1    4    4    0    0 -0.27485498080E+02  0.15549140105E+02  0.93524606456E+01  0.32934736725E+02  0.51100000000E-03 0. -1.
        -11    1    4    4    0    0 -0.28212646110E+01  0.57578843687E+01 -0.51213073742E+00  0.64323436290E+01  0.51100000000E-03 0.  1.
         12    1    4    4    0    0 -0.71786674197E+01 -0.85386856320E+01  0.37800916974E+00  0.11161778943E+02  0.00000000000E+00 0. -1.
</event>
<event>
 8    1  0.1338956E-013  0.9118800E+02  0.7816164E-02  0.1184000E+00
        -11   -1    0    0    0    0  0.00000000000E+00  0.00000000000E+00  0.45593999997E+02  0.45594000000E+02  0.51100000000E-03 0. -1.
         11   -1    0    0    0    0 -0.00000000000E+00 -0.00000000000E+00 -0.45593999997E+02  0.45594000000E+02  0.51100000000E-03 0.  1.
         23    2    1    2    0    0  0.00000000000E+00  0.00000000000E+00  0.35527136788E-14  0.91188000000E+02  0.91188000000E+02 0.  0.
    9900012    2    3    3    0    0 -0.20578352761E+01 -0.28276184771E+02 -0.29144233448E+02  0.50528884730E+02  0.30000075626E+02 0.  0.
         12    1    3    3    0    0  0.20578352761E+01  0.28276184771E+02  0.29144233448E+02  0.40659115270E+02  0.00000000000E+00 0. -1.
         11    1    4    4    0    0  0.18043055066E+01 -0.25700095881E+01  0.23870955180E+01  0.39444509019E+01  0.51100000000E-03 0. -1.
        -11    1    4    4    0    0 -0.38064432416E+01 -0.14193032828E+02 -0.19273643692E+01  0.14820456291E+02  0.51100000000E-03 0.  1.
        -12    1    4    4    0    0 -0.55697541103E-01 -0.11513142355E+02 -0.29603964597E+02  0.31763977537E+02  0.00000000000E+00 0.  1.
</event>
<event>
 8    1  0.1338956E-013  0.9118800E+02  0.7816164E-02  0.1184000E+00
        -11   -1    0    0    0    0  0.00000000000E+00  0.00000000000E+00  0.45593999997E+02  0.45594000000E+02  0.51100000000E-03 0. -1.
         11   -1    0    0    0    0 -0.00000000000E+00 -0.00000000000E+00 -0.45593999997E+02  0.45594000000E+02  0.51100000000E-03 0.  1.
         23    2    1    2    0    0  0.00000000000E+00  0.35527136788E-14  0.00000000000E+00  0.91188000000E+02  0.91188000000E+02 0.  0.
    9900012    2    3    3    0    0 -0.35368636196E+02  0.16155190673E+02  0.11884239567E+02  0.50528858812E+02  0.29999996845E+02 0.  0.
        -12    1    3    3    0    0  0.35368636196E+02 -0.16155190673E+02 -0.11884239567E+02  0.40659141188E+02  0.00000000000E+00 0.  1.
         11    1    4    4    0    0 -0.78443718212E+01  0.20447653609E+01  0.49829889227E+01  0.95155353772E+01  0.51100000000E-03 0. -1.
        -11    1    4    4    0    0 -0.21435252599E+02 -0.24677178413E+01 -0.11419644699E+01  0.21607030533E+02  0.51100000000E-03 0.  1.
        -12    1    4    4    0    0 -0.60890117755E+01  0.16578143154E+02  0.80432151139E+01  0.19406292902E+02  0.00000000000E+00 0.  1.
</event>
<event>
 8    1  0.1338956E-013  0.9118800E+02  0.7816164E-02  0.1184000E+00
        -11   -1    0    0    0    0  0.00000000000E+00  0.00000000000E+00  0.45593999997E+02  0.45594000000E+02  0.51100000000E-03 0. -1.
         11   -1    0    0    0    0 -0.00000000000E+00 -0.00000000000E+00 -0.45593999997E+02  0.45594000000E+02  0.51100000000E-03 0.  1.
         23    2    1    2    0    0  0.00000000000E+00 -0.19428902931E-15  0.35527136788E-14  0.91188000000E+02  0.91188000000E+02 0.  0.
    9900012    2    3    3    0    0 -0.33753107521E+02  0.24716107695E+00  0.22667860085E+02  0.50528865273E+02  0.30000016484E+02 0.  0.
        -12    1    3    3    0    0  0.33753107521E+02 -0.24716107695E+00 -0.22667860085E+02  0.40659134727E+02  0.00000000000E+00 0.  1.
         11    1    4    4    0    0 -0.13892299189E+02 -0.81764866964E+01  0.13275519030E+02  0.20882775611E+02  0.51100000000E-03 0. -1.
        -11    1    4    4    0    0 -0.10795442455E+02 -0.41132525932E+01  0.81241406958E+01  0.14123104722E+02  0.51100000000E-03 0.  1.
        -12    1    4    4    0    0 -0.90653658775E+01  0.12536900367E+02  0.12682003598E+01  0.15522984940E+02  0.00000000000E+00 0.  1.
</event>
<event>
 8    1  0.1338956E-013  0.9118800E+02  0.7816164E-02  0.1184000E+00
        -11   -1    0    0    0    0  0.00000000000E+00  0.00000000000E+00  0.45593999997E+02  0.45594000000E+02  0.51100000000E-03 0. -1.
         11   -1    0    0    0    0 -0.00000000000E+00 -0.00000000000E+00 -0.45593999997E+02  0.45594000000E+02  0.51100000000E-03 0.  1.
         23    2    1    2    0    0  0.00000000000E+00  0.00000000000E+00  0.00000000000E+00  0.91188000000E+02  0.91188000000E+02 0.  0.
    9900012    2    3    3    0    0 -0.75463927936E+01 -0.34502699307E+01 -0.39803436692E+02  0.50528856142E+02  0.29999988729E+02 0.  0.
         12    1    3    3    0    0  0.75463927936E+01  0.34502699307E+01  0.39803436692E+02  0.40659143858E+02  0.00000000000E+00 0. -1.
         11    1    4    4    0    0 -0.31614081997E+01 -0.26407084718E+01 -0.32652634152E+01  0.52564045192E+01  0.51100000000E-03 0. -1.
        -11    1    4    4    0    0 -0.11180707636E+02 -0.31451721406E+01 -0.45287467889E+01  0.12466349858E+02  0.51100000000E-03 0.  1.
         12    1    4    4    0    0  0.67957230426E+01  0.23356106817E+01 -0.32009426488E+02  0.32806101765E+02  0.00000000000E+00 0. -1.
</event>
<event>
 8    1  0.1338956E-013  0.9118800E+02  0.7816164E-02  0.1184000E+00
        -11   -1    0    0    0    0  0.00000000000E+00  0.00000000000E+00  0.45593999997E+02  0.45594000000E+02  0.51100000000E-03 0. -1.
         11   -1    0    0    0    0 -0.00000000000E+00 -0.00000000000E+00 -0.45593999997E+02  0.45594000000E+02  0.51100000000E-03 0.  1.
         23    2    1    2    0    0 -0.35527136788E-14 -0.22204460493E-15  0.00000000000E+00  0.91188000000E+02  0.91188000000E+02 0.  0.
    9900012    2    3    3    0    0  0.90997766724E+01 -0.60620450547E+00  0.39623122396E+02  0.50528865137E+02  0.30000016071E+02 0.  0.
        -12    1    3    3    0    0 -0.90997766724E+01  0.60620450547E+00 -0.39623122396E+02  0.40659134863E+02  0.00000000000E+00 0.  1.
         11    1    4    4    0    0  0.39722104182E+01 -0.23393832539E+01  0.92534175450E+01  0.10338128754E+02  0.51100000000E-03 0. -1.
        -11    1    4    4    0    0  0.14505093233E+02  0.49999084038E+01  0.12679340164E+02  0.19903830812E+02  0.51100000000E-03 0.  1.
        -12    1    4    4    0    0 -0.93775269790E+01 -0.32667296554E+01  0.17690364687E+02  0.20286905571E+02  0.00000000000E+00 0.  1.
</event>
<event>
 8    1  0.1338956E-013  0.9118800E+02  0.7816164E-02  0.1184000E+00
        -11   -1    0    0    0    0  0.00000000000E+00  0.00000000000E+00  0.45593999997E+02  0.45594000000E+02  0.51100000000E-03 0. -1.
         11   -1    0    0    0    0 -0.00000000000E+00 -0.00000000000E+00 -0.45593999997E+02  0.45594000000E+02  0.51100000000E-03 0.  1.
         23    2    1    2    0    0  0.00000000000E+00  0.00000000000E+00  0.00000000000E+00  0.91188000000E+02  0.91188000000E+02 0.  0.
    9900012    2    3    3    0    0  0.33029039680E+02  0.15695006794E+02 -0.17773957841E+02  0.50528877066E+02  0.30000052329E+02 0.  0.
         12    1    3    3    0    0 -0.33029039680E+02 -0.15695006794E+02  0.17773957841E+02  0.40659122934E+02  0.00000000000E+00 0. -1.
         11    1    4    4    0    0  0.44875396216E+01  0.59102055380E+01 -0.35434255680E+00  0.74292731990E+01  0.51100000000E-03 0. -1.
        -11    1    4    4    0    0  0.31401046009E+02  0.13460161201E+02 -0.12642959464E+02  0.36428643322E+02  0.51100000000E-03 0.  1.
         12    1    4    4    0    0 -0.28595459502E+01 -0.36753599450E+01 -0.47766558196E+01  0.66709605445E+01  0.00000000000E+00 0. -1.
</event>
<event>
 8    1  0.1338956E-013  0.9118800E+02  0.7816164E-02  0.1184000E+00
        -11   -1    0    0    0    0  0.00000000000E+00  0.00000000000E+00  0.45593999997E+02  0.45594000000E+02  0.51100000000E-03 0. -1.
         11   -1    0    0    0    0 -0.00000000000E+00 -0.00000000000E+00 -0.45593999997E+02  0.45594000000E+02  0.51100000000E-03 0.  1.
         23    2    1    2    0    0  0.00000000000E+00  0.00000000000E+00 -0.35527136788E-14  0.91188000000E+02  0.91188000000E+02 0.  0.
    9900012    2    3    3    0    0  0.15332662131E+02  0.23076830606E+02  0.29757939885E+02  0.50528860498E+02  0.30000001969E+02 0.  0.
        -12    1    3    3    0    0 -0.15332662131E+02 -0.23076830606E+02 -0.29757939885E+02  0.40659139502E+02  0.00000000000E+00 0.  1.
         11    1    4    4    0    0 -0.62218929730E+00  0.18468044371E+01  0.11076641251E+02  0.11246767883E+02  0.51100000000E-03 0. -1.
        -11    1    4    4    0    0  0.33556472745E+01 -0.21897870232E+01  0.10839302709E+02  0.11556211288E+02  0.51100000000E-03 0.  1.
         12    1    4    4    0    0  0.12599204153E+02  0.23419813193E+02  0.78419959252E+01  0.27725881327E+02  0.00000000000E+00 0. -1.
</event>
<event>
 8    1  0.1338956E-013  0.9118800E+02  0.7816164E-02  0.1184000E+00
        -11   -1    0    0    0    0  0.00000000000E+00  0.00000000000E+00  0.45593999997E+02  0.45594000000E+02  0.51100000000E-03 0. -1.
         11   -1    0    0    0    0 -0.00000000000E+00 -0.00000000000E+00 -0.45593999997E+02  0.45594000000E+02  0.51100000000E-03 0.  1.
         23    2    1    2    0    0  0.00000000000E+00  0.00000000000E+00  0.00000000000E+00  0.91188000000E+02  0.91188000000E+02 0.  0.
    9900012    2    3    3    0    0 -0.23458052739E+02  0.98015577436E+01 -0.31730350820E+02  0.50528856678E+02  0.29999990359E+02 0.  0.
         12    1    3    3    0    0  0.23458052739E+02 -0.98015577436E+01  0.31730350820E+02  0.40659143322E+02  0.00000000000E+00 0. -1.
         11    1    4    4    0    0 -0.43254922853E+01 -0.17030429582E+01 -0.74513387915E+01  0.87825217834E+01  0.51100000000E-03 0. -1.
        -11    1    4    4    0    0 -0.63568784367E+01  0.11696690243E+02 -0.25646973172E+02  0.28896188317E+02  0.51100000000E-03 0.  1.
         12    1    4    4    0    0 -0.12775682017E+02 -0.19208954144E+00  0.13679611431E+01  0.12850146578E+02  0.00000000000E+00 0. -1.
</event>
<event>
 8    1  0.1338956E-013  0.9118800E+02  0.7816164E-02  0.1184000E+00
        -11   -1    0    0    0    0  0.00000000000E+00  0.00000000000E+00  0.45593999997E+02  0.45594000000E+02  0.51100000000E-03 0. -1.
         11   -1    0    0    0    0 -0.00000000000E+00 -0.00000000000E+00 -0.45593999997E+02  0.45594000000E+02  0.51100000000E-03 0.  1.
         23    2    1    2    0    0 -0.28865798640E-14  0.00000000000E+00  0.00000000000E+00  0.91188000000E+02  0.91188000000E+02 0.  0.
    9900012    2    3    3    0    0  0.13002204043E+01 -0.84438102142E+01 -0.39751419565E+02  0.50528882185E+02  0.30000067889E+02 0.  0.
         12    1    3    3    0    0 -0.13002204043E+01  0.84438102142E+01  0.39751419565E+02  0.40659117815E+02  0.00000000000E+00 0. -1.
         11    1    4    4    0    0 -0.46030539413E+01  0.99932245147E+00 -0.15552618818E+02  0.16250252408E+02  0.51100000000E-03 0. -1.
        -11    1    4    4    0    0 -0.77226835290E+01 -0.26741938029E+00 -0.93988552333E+01  0.12167573052E+02  0.51100000000E-03 0.  1.
         12    1    4    4    0    0  0.13625957875E+02 -0.91757132854E+01 -0.14799945514E+02  0.22111056725E+02  0.00000000000E+00 0. -1.
</event>
<event>
 8    1  0.1338956E-013  0.9118800E+02  0.7816164E-02  0.1184000E+00
        -11   -1    0    0    0    0  0.00000000000E+00  0.00000000000E+00  0.45593999997E+02  0.45594000000E+02  0.51100000000E-03 0. -1.
         11   -1    0    0    0    0 -0.00000000000E+00 -0.00000000000E+00 -0.45593999997E+02  0.45594000000E+02  0.51100000000E-03 0.  1.
         23    2    1    2    0    0  0.00000000000E+00  0.17763568394E-14  0.00000000000E+00  0.91188000000E+02  0.91188000000E+02 0.  0.
    9900012    2    3    3    0    0 -0.18081292978E+02  0.13654571772E+02  0.33760683392E+02  0.50528877664E+02  0.30000054149E+02 0.  0.
        -12    1    3    3    0    0  0.18081292978E+02 -0.13654571772E+02 -0.33760683392E+02  0.40659122336E+02  0.00000000000E+00 0.  1.
         11    1    4    4    0    0 -0.50516070258E+01  0.42344234020E+01  0.96979113862E+01  0.11725978023E+02  0.51100000000E-03 0. -1.
        -11    1    4    4    0    0 -0.96344141191E+01  0.23166026373E+00  0.26924862611E+02  0.28597619285E+02  0.51100000000E-03 0.  1.
        -12    1    4    4    0    0 -0.33952718332E+01  0.91884881061E+01 -0.28620906058E+01  0.10205280355E+02  0.00000000000E+00 0.  1.
</event>
<event>
 8    1  0.1338956E-013  0.9118800E+02  0.7816164E-02  0.1184000E+00
        -11   -1    0    0    0    0  0.00000000000E+00  0.00000000000E+00  0.45593999997E+02  0.45594000000E+02  0.51100000000E-03 0. -1.
         11   -1    0    0    0    0 -0.00000000000E+00 -0.00000000000E+00 -0.45593999997E+02  0.45594000000E+02  0.51100000000E-03 0.  1.
         23    2    1    2    0    0 -0.44408920985E-15 -0.35527136788E-14 -0.71054273576E-14  0.91188000000E+02  0.91188000000E+02 0.  0.
    9900012    2    3    3    0    0  0.91532632471E+00  0.27501571094E+02  0.29933225147E+02  0.50528779612E+02  0.29999756107E+02 0.  0.
        -12    1    3    3    0    0 -0.91532632471E+00 -0.27501571094E+02 -0.29933225147E+02  0.40659220388E+02  0.00000000000E+00 0.  1.
         11    1    4    4    0    0 -0.11041807933E+02  0.62673054490E+01  0.18829246936E+02  0.22709935721E+02  0.51100000000E-03 0. -1.
        -11    1    4    4    0    0  0.18373295708E+01  0.91678565304E+01  0.17823011490E+01  0.95185067611E+01  0.51100000000E-03 0.  1.
        -12    1    4    4    0    0  0.10119804687E+02  0.12066409114E+02  0.93216770616E+01  0.18300337129E+02  0.00000000000E+00 0.  1.
</event>
<event>
 8    1  0.1338956E-013  0.9118800E+02  0.7816164E-02  0.1184000E+00
        -11   -1    0    0    0    0  0.00000000000E+00  0.00000000000E+00  0.45593999997E+02  0.45594000000E+02  0.51100000000E-03 0. -1.
         11   -1    0    0    0    0 -0.00000000000E+00 -0.00000000000E+00 -0.45593999997E+02  0.45594000000E+02  0.51100000000E-03 0.  1.
         23    2    1    2    0    0  0.00000000000E+00 -0.17763568394E-14  0.00000000000E+00  0.91188000000E+02  0.91188000000E+02 0.  0.
    9900012    2    3    3    0    0  0.14551311291E+02 -0.15813238985E+02  0.34516172128E+02  0.50528864177E+02  0.30000013153E+02 0.  0.
        -12    1    3    3    0    0 -0.14551311291E+02  0.15813238985E+02 -0.34516172128E+02  0.40659135823E+02  0.00000000000E+00 0.  1.
         11    1    4    4    0    0 -0.21086918412E+01 -0.55367876626E+01  0.25700614054E+01  0.64581587771E+01  0.51100000000E-03 0. -1.
        -11    1    4    4    0    0  0.22786640922E+01 -0.90708037683E+01  0.37813035840E+00  0.93602763782E+01  0.51100000000E-03 0.  1.
         12    1    4    4    0    0  0.14381339040E+02 -0.12056475540E+01  0.31567980364E+02  0.34710429022E+02  0.00000000000E+00 0. -1.
</event>
<event>
 8    1  0.1338956E-013  0.9118800E+02  0.7816164E-02  0.1184000E+00
        -11   -1    0    0    0    0  0.00000000000E+00  0.00000000000E+00  0.45593999997E+02  0.45594000000E+02  0.51100000000E-03 0. -1.
         11   -1    0    0    0    0 -0.00000000000E+00 -0.00000000000E+00 -0.45593999997E+02  0.45594000000E+02  0.51100000000E-03 0.  1.
         23    2    1    2    0    0  0.00000000000E+00  0.17763568394E-14 -0.71054273576E-14  0.91188000000E+02  0.91188000000E+02 0.  0.
    9900012    2    3    3    0    0 -0.21140489255E+02 -0.53709159591E+01  0.34313263255E+02  0.50528842860E+02  0.29999948356E+02 0.  0.
        -12    1    3    3    0    0  0.21140489255E+02  0.53709159591E+01 -0.34313263255E+02  0.40659157140E+02  0.00000000000E+00 0.  1.
         11    1    4    4    0    0 -0.19105964988E+02 -0.36884400954E+01  0.10360326032E+02  0.22044927857E+02  0.51100000000E-03 0. -1.
        -11    1    4    4    0    0 -0.20878365043E+01 -0.44594029068E+01  0.59310624955E+00  0.49595474429E+01  0.51100000000E-03 0.  1.
        -12    1    4    4    0    0  0.53312237592E-01  0.27769270431E+01  0.23359830973E+02  0.23524367560E+02  0.00000000000E+00 0.  1.
</event>
<event>
 8    1  0.1338956E-013  0.9118800E+02  0.7816164E-02  0.1184000E+00
        -11   -1    0    0    0    0  0.00000000000E+00  0.00000000000E+00  0.45593999997E+02  0.45594000000E+02  0.51100000000E-03 0. -1.
         11   -1    0    0    0    0 -0.00000000000E+00 -0.00000000000E+00 -0.45593999997E+02  0.45594000000E+02  0.51100000000E-03 0.  1.
         23    2    1    2    0    0  0.00000000000E+00  0.35527136788E-14 -0.35527136788E-14  0.91188000000E+02  0.91188000000E+02 0.  0.
    9900012    2    3    3    0    0  0.59539044920E+01  0.31525337752E+02 -0.24977379706E+02  0.50528863314E+02  0.30000010529E+02 0.  0.
         12    1    3    3    0    0 -0.59539044920E+01 -0.31525337752E+02  0.24977379706E+02  0.40659136686E+02  0.00000000000E+00 0. -1.
         11    1    4    4    0    0 -0.51946436370E+01  0.11300301136E+02 -0.43425650105E+01  0.13173420187E+02  0.51100000000E-03 0. -1.
        -11    1    4    4    0    0 -0.11750918206E+01  0.10454664064E+02  0.10448311029E+01  0.10572252067E+02  0.51100000000E-03 0.  1.
        -12    1    4    4    0    0  0.12323639950E+02  0.97703725522E+01 -0.21679645798E+02  0.26783191060E+02  0.00000000000E+00 0.  1.
</event>
<event>
 8    1  0.1338956E-013  0.9118800E+02  0.7816164E-02  0.1184000E+00
        -11   -1    0    0    0    0  0.00000000000E+00  0.00000000000E+00  0.45593999997E+02  0.45594000000E+02  0.51100000000E-03 0. -1.
         11   -1    0    0    0    0 -0.00000000000E+00 -0.00000000000E+00 -0.45593999997E+02  0.45594000000E+02  0.51100000000E-03 0.  1.
         23    2    1    2    0    0  0.17763568394E-14 -0.88817841970E-15  0.71054273576E-14  0.91188000000E+02  0.91188000000E+02 0.  0.
    9900012    2    3    3    0    0  0.15723615555E+02  0.53049152418E+01 -0.37118562507E+02  0.50528906375E+02  0.30000141417E+02 0.  0.
         12    1    3    3    0    0 -0.15723615555E+02 -0.53049152418E+01  0.37118562507E+02  0.40659093625E+02  0.00000000000E+00 0. -1.
         11    1    4    4    0    0  0.42708637942E+00  0.75556180566E+01 -0.51401870738E-01  0.75678536855E+01  0.51100000000E-03 0. -1.
        -11    1    4    4    0    0  0.37201513186E+01 -0.13212141266E+01  0.17341280949E+00  0.39516078835E+01  0.51100000000E-03 0.  1.
        -12    1    4    4    0    0  0.11576377857E+02 -0.92948868807E+00 -0.37240573446E+02  0.39009444806E+02  0.00000000000E+00 0.  1.
</event>
<event>
 8    1  0.1338956E-013  0.9118800E+02  0.7816164E-02  0.1184000E+00
        -11   -1    0    0    0    0  0.00000000000E+00  0.00000000000E+00  0.45593999997E+02  0.45594000000E+02  0.51100000000E-03 0. -1.
         11   -1    0    0    0    0 -0.00000000000E+00 -0.00000000000E+00 -0.45593999997E+02  0.45594000000E+02  0.51100000000E-03 0.  1.
         23    2    1    2    0    0  0.00000000000E+00  0.00000000000E+00  0.00000000000E+00  0.91188000000E+02  0.91188000000E+02 0.  0.
    9900012    2    3    3    0    0 -0.15012508504E+02 -0.36347537287E+02  0.10326886414E+02  0.50528887105E+02  0.30000082845E+02 0.  0.
        -12    1    3    3    0    0  0.15012508504E+02  0.36347537287E+02 -0.10326886414E+02  0.40659112895E+02  0.00000000000E+00 0.  1.
         11    1    4    4    0    0  0.13252815248E+01 -0.51498371122E+00 -0.86732361633E+00  0.16654818700E+01  0.51100000000E-03 0. -1.
        -11    1    4    4    0    0  0.76210503003E+00  0.36541608414E+01 -0.14644377403E+01  0.40097722738E+01  0.51100000000E-03 0.  1.
         12    1    4    4    0    0 -0.17099895058E+02 -0.39486714417E+02  0.12658647771E+02  0.44853632961E+02  0.00000000000E+00 0. -1.
</event>
<event>
 8    1  0.1338956E-013  0.9118800E+02  0.7816164E-02  0.1184000E+00
        -11   -1    0    0    0    0  0.00000000000E+00  0.00000000000E+00  0.45593999997E+02  0.45594000000E+02  0.51100000000E-03 0. -1.
         11   -1    0    0    0    0 -0.00000000000E+00 -0.00000000000E+00 -0.45593999997E+02  0.45594000000E+02  0.51100000000E-03 0.  1.
         23    2    1    2    0    0  0.35527136788E-14  0.00000000000E+00  0.00000000000E+00  0.91188000000E+02  0.91188000000E+02 0.  0.
    9900012    2    3    3    0    0  0.28793710093E+02 -0.24743034540E+02 -0.14555764969E+02  0.50528858432E+02  0.29999995691E+02 0.  0.
         12    1    3    3    0    0 -0.28793710093E+02  0.24743034540E+02  0.14555764969E+02  0.40659141568E+02  0.00000000000E+00 0. -1.
         11    1    4    4    0    0  0.33905117540E+01  0.34992721568E+00 -0.21925767696E+01  0.40528276748E+01  0.51100000000E-03 0. -1.
        -11    1    4    4    0    0  0.18339109582E+02 -0.55638674505E+01 -0.16513733001E+02  0.25297884084E+02  0.51100000000E-03 0.  1.
         12    1    4    4    0    0  0.70640887570E+01 -0.19529094306E+02  0.41505448012E+01  0.21178146673E+02  0.00000000000E+00 0. -1.
</event>
<event>
 8    1  0.1341127E-013  0.9118800E+02  0.7816164E-02  0.1184000E+00
        -11   -1    0    0    0    0  0.00000000000E+00  0.00000000000E+00  0.45593999997E+02  0.45594000000E+02  0.51100000000E-03 0. -1.
         11   -1    0    0    0    0 -0.00000000000E+00 -0.00000000000E+00 -0.45593999997E+02  0.45594000000E+02  0.51100000000E-03 0.  1.
         23    2    1    2    0    0  0.00000000000E+00  0.00000000000E+00  0.00000000000E+00  0.91188000000E+02  0.91188000000E+02 0.  0.
    9900012    2    3    3    0    0 -0.82702945490E+01  0.29017756157E+02 -0.27253216197E+02  0.50528859116E+02  0.29999997769E+02 0.  0.
         12    1    3    3    0    0  0.82702945490E+01 -0.29017756157E+02  0.27253216197E+02  0.40659140884E+02  0.00000000000E+00 0. -1.
         11    1    4    4    0    0 -0.72004682442E+01  0.51230988272E+01  0.29970374699E+00  0.88420985702E+01  0.51100000000E-03 0. -1.
        -11    1    4    4    0    0 -0.57227443465E+01  0.11711847956E+02 -0.25288662031E+02  0.28450546795E+02  0.51100000000E-03 0.  1.
         12    1    4    4    0    0  0.46529180417E+01  0.12182809374E+02 -0.22642579137E+01  0.13236213751E+02  0.00000000000E+00 0. -1.
</event>
<event>
 8    1  0.1338956E-013  0.9118800E+02  0.7816164E-02  0.1184000E+00
        -11   -1    0    0    0    0  0.00000000000E+00  0.00000000000E+00  0.45593999997E+02  0.45594000000E+02  0.51100000000E-03 0. -1.
         11   -1    0    0    0    0 -0.00000000000E+00 -0.00000000000E+00 -0.45593999997E+02  0.45594000000E+02  0.51100000000E-03 0.  1.
         23    2    1    2    0    0  0.00000000000E+00  0.88817841970E-15  0.71054273576E-14  0.91188000000E+02  0.91188000000E+02 0.  0.
    9900012    2    3    3    0    0  0.11084219631E+02 -0.14433295906E+01 -0.39092493501E+02  0.50528853757E+02  0.29999981479E+02 0.  0.
         12    1    3    3    0    0 -0.11084219631E+02  0.14433295906E+01  0.39092493501E+02  0.40659146243E+02  0.00000000000E+00 0. -1.
         11    1    4    4    0    0  0.13857849399E+02  0.26484633542E+01 -0.16068960961E+02  0.21383775503E+02  0.51100000000E-03 0. -1.
        -11    1    4    4    0    0  0.11478645297E+01  0.59883994445E+01 -0.13172475975E+02  0.14515255577E+02  0.51100000000E-03 0.  1.
         12    1    4    4    0    0 -0.39214942978E+01 -0.10080192389E+02 -0.98510565642E+01  0.14629822677E+02  0.00000000000E+00 0. -1.
</event>
<event>
 8    1  0.1338956E-013  0.9118800E+02  0.7816164E-02  0.1184000E+00
        -11   -1    0    0    0    0  0.00000000000E+00  0.00000000000E+00  0.45593999997E+02  0.45594000000E+02  0.51100000000E-03 0. -1.
         11   -1    0    0    0    0 -0.00000000000E+00 -0.00000000000E+00 -0.45593999997E+02  0.45594000000E+02  0.51100000000E-03 0.  1.
         23    2    1    2    0    0  0.00000000000E+00  0.00000000000E+00  0.00000000000E+00  0.91188000000E+02  0.91188000000E+02 0.  0.
    9900012    2    3    3    0    0 -0.22925866042E+02  0.20160031249E+02  0.26854117915E+02  0.50528857822E+02  0.29999993835E+02 0.  0.
        -12    1    3    3    0    0  0.22925866042E+02 -0.20160031249E+02 -0.26854117915E+02  0.40659142178E+02  0.00000000000E+00 0.  1.
         11    1    4    4    0    0 -0.28548560298E+00  0.90266135487E+01  0.24690306175E+01  0.93625512889E+01  0.51100000000E-03 0. -1.
        -11    1    4    4    0    0 -0.13139113672E+02  0.12853760581E+02  0.25513219471E+02  0.31444869807E+02  0.51100000000E-03 0.  1.
        -12    1    4    4    0    0 -0.95012667667E+01 -0.17203428814E+01 -0.11281321739E+01  0.97214367253E+01  0.00000000000E+00 0.  1.
</event>
<event>
 8    1  0.1338956E-013  0.9118800E+02  0.7816164E-02  0.1184000E+00
        -11   -1    0    0    0    0  0.00000000000E+00  0.00000000000E+00  0.45593999997E+02  0.45594000000E+02  0.51100000000E-03 0. -1.
         11   -1    0    0    0    0 -0.00000000000E+00 -0.00000000000E+00 -0.45593999997E+02  0.45594000000E+02  0.51100000000E-03 0.  1.
         23    2    1    2    0    0  0.11102230246E-15  0.88817841970E-15 -0.71054273576E-14  0.91188000000E+02  0.91188000000E+02 0.  0.
    9900012    2    3    3    0    0 -0.60839434736E+00 -0.66816229453E+01  0.40101769652E+02  0.50528853943E+02  0.29999982046E+02 0.  0.
        -12    1    3    3    0    0  0.60839434736E+00  0.66816229453E+01 -0.40101769652E+02  0.40659146057E+02  0.00000000000E+00 0.  1.
         11    1    4    4    0    0 -0.52180296382E+00  0.45902851847E+01  0.12421781942E+02  0.13253062412E+02  0.51100000000E-03 0. -1.
        -11    1    4    4    0    0  0.40938762684E+01  0.48070113993E+01  0.18772440795E+01  0.65872017648E+01  0.51100000000E-03 0.  1.
         12    1    4    4    0    0 -0.41804676520E+01 -0.16078919529E+02  0.25802743630E+02  0.30688589766E+02  0.00000000000E+00 0. -1.
</event>
<event>
 8    1  0.1338956E-013  0.9118800E+02  0.7816164E-02  0.1184000E+00
        -11   -1    0    0    0    0  0.00000000000E+00  0.00000000000E+00  0.45593999997E+02  0.45594000000E+02  0.51100000000E-03 0.  1.
         11   -1    0    0    0    0 -0.00000000000E+00 -0.00000000000E+00 -0.45593999997E+02  0.45594000000E+02  0.51100000000E-03 0. -1.
         23    2    1    2    0    0  0.00000000000E+00  0.00000000000E+00  0.00000000000E+00  0.91188000000E+02  0.91188000000E+02 0.  0.
    9900012    2    3    3    0    0  0.96933317752E+01  0.38348951141E+02 -0.94107985713E+01  0.50528857556E+02  0.29999993028E+02 0.  0.
         12    1    3    3    0    0 -0.96933317752E+01 -0.38348951141E+02  0.94107985713E+01  0.40659142444E+02  0.00000000000E+00 0. -1.
         11    1    4    4    0    0  0.70611209061E+01  0.33611784716E+02 -0.73061164731E+01  0.35113969278E+02  0.51100000000E-03 0. -1.
        -11    1    4    4    0    0 -0.10107835671E+01  0.93432137547E+01 -0.13364433215E+01  0.94922814802E+01  0.51100000000E-03 0.  1.
        -12    1    4    4    0    0  0.36429944362E+01 -0.46060473300E+01 -0.76823877668E+00  0.59226067982E+01  0.00000000000E+00 0.  1.
</event>
<event>
 8    1  0.1338956E-013  0.9118800E+02  0.7816164E-02  0.1184000E+00
        -11   -1    0    0    0    0  0.00000000000E+00  0.00000000000E+00  0.45593999997E+02  0.45594000000E+02  0.51100000000E-03 0. -1.
         11   -1    0    0    0    0 -0.00000000000E+00 -0.00000000000E+00 -0.45593999997E+02  0.45594000000E+02  0.51100000000E-03 0.  1.
         23    2    1    2    0    0 -0.71054273576E-14  0.88817841970E-15  0.35527136788E-14  0.91188000000E+02  0.91188000000E+02 0.  0.
    9900012    2    3    3    0    0 -0.33043037419E+02 -0.76819198554E+01  0.22412294213E+02  0.50528866384E+02  0.30000019861E+02 0.  0.
        -12    1    3    3    0    0  0.33043037419E+02  0.76819198554E+01 -0.22412294213E+02  0.40659133616E+02  0.00000000000E+00 0.  1.
         11    1    4    4    0    0 -0.54763650037E+01 -0.76116258313E+01 -0.26437630831E+01  0.97425307262E+01  0.51100000000E-03 0. -1.
        -11    1    4    4    0    0 -0.10631950852E+01  0.34972800983E+01 -0.62652242230E+00  0.37086227204E+01  0.51100000000E-03 0.  1.
         12    1    4    4    0    0 -0.26503477330E+02 -0.35675741224E+01  0.25682579718E+02  0.37077712937E+02  0.00000000000E+00 0. -1.
</event>
<event>
 8    1  0.1338956E-013  0.9118800E+02  0.7816164E-02  0.1184000E+00
        -11   -1    0    0    0    0  0.00000000000E+00  0.00000000000E+00  0.45593999997E+02  0.45594000000E+02  0.51100000000E-03 0. -1.
         11   -1    0    0    0    0 -0.00000000000E+00 -0.00000000000E+00 -0.45593999997E+02  0.45594000000E+02  0.51100000000E-03 0.  1.
         23    2    1    2    0    0 -0.13322676296E-14  0.00000000000E+00 -0.71054273576E-14  0.91188000000E+02  0.91188000000E+02 0.  0.
    9900012    2    3    3    0    0  0.34823918468E+01  0.26997627399E+02  0.30202098632E+02  0.50528859577E+02  0.29999999171E+02 0.  0.
        -12    1    3    3    0    0 -0.34823918468E+01 -0.26997627399E+02 -0.30202098632E+02  0.40659140423E+02  0.00000000000E+00 0.  1.
         11    1    4    4    0    0  0.88578669960E+01  0.92292476653E+01  0.11914867598E+02  0.17481558578E+02  0.51100000000E-03 0. -1.
        -11    1    4    4    0    0  0.43713478952E+01  0.48417632005E+01  0.15234843251E+02  0.16572622076E+02  0.51100000000E-03 0.  1.
         12    1    4    4    0    0 -0.97468230444E+01  0.12926616533E+02  0.30523877832E+01  0.16474678923E+02  0.00000000000E+00 0. -1.
</event>
<event>
 8    1  0.1338956E-013  0.9118800E+02  0.7816164E-02  0.1184000E+00
        -11   -1    0    0    0    0  0.00000000000E+00  0.00000000000E+00  0.45593999997E+02  0.45594000000E+02  0.51100000000E-03 0. -1.
         11   -1    0    0    0    0 -0.00000000000E+00 -0.00000000000E+00 -0.45593999997E+02  0.45594000000E+02  0.51100000000E-03 0.  1.
         23    2    1    2    0    0 -0.17763568394E-14  0.00000000000E+00 -0.71054273576E-14  0.91188000000E+02  0.91188000000E+02 0.  0.
    9900012    2    3    3    0    0 -0.65142409083E+01 -0.18515288751E+02 -0.35607785528E+02  0.50528860285E+02  0.30000001322E+02 0.  0.
         12    1    3    3    0    0  0.65142409083E+01  0.18515288751E+02  0.35607785528E+02  0.40659139715E+02  0.00000000000E+00 0. -1.
         11    1    4    4    0    0  0.40587204562E+01 -0.11145783437E+01 -0.39018123633E+01  0.57393062825E+01  0.51100000000E-03 0. -1.
        -11    1    4    4    0    0 -0.10025019841E+02 -0.14083643380E+02 -0.35641977097E+02  0.39613136272E+02  0.51100000000E-03 0.  1.
         12    1    4    4    0    0 -0.54794152336E+00 -0.33170670269E+01  0.39360039314E+01  0.51764177306E+01  0.00000000000E+00 0. -1.
</event>
<event>
 8    1  0.1338956E-013  0.9118800E+02  0.7816164E-02  0.1184000E+00
        -11   -1    0    0    0    0  0.00000000000E+00  0.00000000000E+00  0.45593999997E+02  0.45594000000E+02  0.51100000000E-03 0. -1.
         11   -1    0    0    0    0 -0.00000000000E+00 -0.00000000000E+00 -0.45593999997E+02  0.45594000000E+02  0.51100000000E-03 0.  1.
         23    2    1    2    0    0 -0.88817841970E-15  0.00000000000E+00  0.00000000000E+00  0.91188000000E+02  0.91188000000E+02 0.  0.
    9900012    2    3    3    0    0 -0.26102787254E+01 -0.20715428679E+02  0.34888689858E+02  0.50528890069E+02  0.30000091854E+02 0.  0.
        -12    1    3    3    0    0  0.26102787254E+01  0.20715428679E+02 -0.34888689858E+02  0.40659109931E+02  0.00000000000E+00 0.  1.
         11    1    4    4    0    0  0.52566405229E+00  0.12756137255E+01  0.85776358838E+00  0.16245835488E+01  0.51100000000E-03 0. -1.
        -11    1    4    4    0    0  0.67068229839E+01  0.18237651718E+01  0.10172967441E+01  0.70244207495E+01  0.51100000000E-03 0.  1.
        -12    1    4    4    0    0 -0.98427657616E+01 -0.23814807576E+02  0.33013629525E+02  0.41879885771E+02  0.00000000000E+00 0.  1.
</event>
<event>
 8    1  0.1338956E-013  0.9118800E+02  0.7816164E-02  0.1184000E+00
        -11   -1    0    0    0    0  0.00000000000E+00  0.00000000000E+00  0.45593999997E+02  0.45594000000E+02  0.51100000000E-03 0.  1.
         11   -1    0    0    0    0 -0.00000000000E+00 -0.00000000000E+00 -0.45593999997E+02  0.45594000000E+02  0.51100000000E-03 0. -1.
         23    2    1    2    0    0  0.00000000000E+00  0.00000000000E+00  0.00000000000E+00  0.91188000000E+02  0.91188000000E+02 0.  0.
    9900012    2    3    3    0    0  0.34566638069E+01  0.12410361537E+02  0.38564230630E+02  0.50528862254E+02  0.30000007308E+02 0.  0.
        -12    1    3    3    0    0 -0.34566638069E+01 -0.12410361537E+02 -0.38564230630E+02  0.40659137746E+02  0.00000000000E+00 0.  1.
         11    1    4    4    0    0  0.23053766336E+01  0.15438376614E+02  0.36452440972E+02  0.39653987024E+02  0.51100000000E-03 0.  1.
        -11    1    4    4    0    0 -0.27220030467E+01  0.23986003517E+01 -0.60008460383E+00  0.36773204954E+01  0.51100000000E-03 0. -1.
        -12    1    4    4    0    0  0.38732902200E+01 -0.54266154287E+01  0.27118742623E+01  0.71975547343E+01  0.00000000000E+00 0.  1.
</event>
<event>
 8    1  0.1338956E-013  0.9118800E+02  0.7816164E-02  0.1184000E+00
        -11   -1    0    0    0    0  0.00000000000E+00  0.00000000000E+00  0.45593999997E+02  0.45594000000E+02  0.51100000000E-03 0. -1.
         11   -1    0    0    0    0 -0.00000000000E+00 -0.00000000000E+00 -0.45593999997E+02  0.45594000000E+02  0.51100000000E-03 0.  1.
         23    2    1    2    0    0  0.17763568394E-14  0.00000000000E+00  0.71054273576E-14  0.91188000000E+02  0.91188000000E+02 0.  0.
    9900012    2    3    3    0    0  0.56526681014E+01 -0.87048805446E+01  0.39312053349E+02  0.50528866456E+02  0.30000020081E+02 0.  0.
        -12    1    3    3    0    0 -0.56526681014E+01  0.87048805446E+01 -0.39312053349E+02  0.40659133544E+02  0.00000000000E+00 0.  1.
         11    1    4    4    0    0  0.16108621801E+02 -0.44152843343E+01  0.24079227572E+02  0.29305146866E+02  0.51100000000E-03 0. -1.
        -11    1    4    4    0    0  0.10581156764E+01 -0.26241702697E+01  0.49267286021E+01  0.56814200134E+01  0.51100000000E-03 0.  1.
        -12    1    4    4    0    0 -0.11514069376E+02 -0.16654259407E+01  0.10306097175E+02  0.15542299577E+02  0.00000000000E+00 0.  1.
</event>
<event>
 8    1  0.1338956E-013  0.9118800E+02  0.7816164E-02  0.1184000E+00
        -11   -1    0    0    0    0  0.00000000000E+00  0.00000000000E+00  0.45593999997E+02  0.45594000000E+02  0.51100000000E-03 0. -1.
         11   -1    0    0    0    0 -0.00000000000E+00 -0.00000000000E+00 -0.45593999997E+02  0.45594000000E+02  0.51100000000E-03 0.  1.
         23    2    1    2    0    0 -0.35527136788E-14 -0.66613381478E-15 -0.71054273576E-14  0.91188000000E+02  0.91188000000E+02 0.  0.
    9900012    2    3    3    0    0  0.26447135016E+02 -0.91354268005E+00  0.30868867689E+02  0.50528775915E+02  0.29999744870E+02 0.  0.
        -12    1    3    3    0    0 -0.26447135016E+02  0.91354268005E+00 -0.30868867689E+02  0.40659224085E+02  0.00000000000E+00 0.  1.
         11    1    4    4    0    0  0.78856298059E+01 -0.16620157325E+01  0.12498589415E+01  0.81552192715E+01  0.51100000000E-03 0. -1.
        -11    1    4    4    0    0  0.11112477013E+02 -0.57414545475E+01  0.15343189951E+01  0.12601808629E+02  0.51100000000E-03 0.  1.
        -12    1    4    4    0    0  0.74490281968E+01  0.64899276000E+01  0.28084689752E+02  0.29771748014E+02  0.00000000000E+00 0.  1.
</event>
<event>
 8    1  0.1338956E-013  0.9118800E+02  0.7816164E-02  0.1184000E+00
        -11   -1    0    0    0    0  0.00000000000E+00  0.00000000000E+00  0.45593999997E+02  0.45594000000E+02  0.51100000000E-03 0. -1.
         11   -1    0    0    0    0 -0.00000000000E+00 -0.00000000000E+00 -0.45593999997E+02  0.45594000000E+02  0.51100000000E-03 0.  1.
         23    2    1    2    0    0  0.00000000000E+00 -0.35527136788E-14 -0.35527136788E-14  0.91188000000E+02  0.91188000000E+02 0.  0.
    9900012    2    3    3    0    0 -0.76146863551E+01 -0.26378818425E+02  0.29988999529E+02  0.50528860775E+02  0.30000002811E+02 0.  0.
        -12    1    3    3    0    0  0.76146863551E+01  0.26378818425E+02 -0.29988999529E+02  0.40659139225E+02  0.00000000000E+00 0.  1.
         11    1    4    4    0    0  0.62424484490E-01  0.54950888080E+00 -0.32558200740E+01  0.33024568796E+01  0.51100000000E-03 0. -1.
        -11    1    4    4    0    0  0.22590500914E+01 -0.46414392860E+01 -0.91891236242E+00  0.52431542178E+01  0.51100000000E-03 0.  1.
         12    1    4    4    0    0 -0.99361609309E+01 -0.22286888020E+02  0.34163731966E+02  0.41983249677E+02  0.00000000000E+00 0. -1.
</event>
<event>
 8    1  0.1338956E-013  0.9118800E+02  0.7816164E-02  0.1184000E+00
        -11   -1    0    0    0    0  0.00000000000E+00  0.00000000000E+00  0.45593999997E+02  0.45594000000E+02  0.51100000000E-03 0. -1.
         11   -1    0    0    0    0 -0.00000000000E+00 -0.00000000000E+00 -0.45593999997E+02  0.45594000000E+02  0.51100000000E-03 0.  1.
         23    2    1    2    0    0  0.44408920985E-15 -0.17763568394E-14  0.00000000000E+00  0.91188000000E+02  0.91188000000E+02 0.  0.
    9900012    2    3    3    0    0  0.25516137998E+01 -0.14241689544E+02  0.37997752662E+02  0.50528860051E+02  0.30000000612E+02 0.  0.
        -12    1    3    3    0    0 -0.25516137998E+01  0.14241689544E+02 -0.37997752662E+02  0.40659139949E+02  0.00000000000E+00 0.  1.
         11    1    4    4    0    0  0.86629856075E+01 -0.15029468280E+01  0.27836014208E+02  0.29191605917E+02  0.51100000000E-03 0. -1.
        -11    1    4    4    0    0 -0.26482809117E+01 -0.51290702894E+01  0.11502630338E+02  0.12869780837E+02  0.51100000000E-03 0.  1.
        -12    1    4    4    0    0 -0.34630908960E+01 -0.76096724266E+01 -0.13408918845E+01  0.84674732973E+01  0.00000000000E+00 0.  1.
</event>
<event>
 8    1  0.1338956E-013  0.9118800E+02  0.7816164E-02  0.1184000E+00
        -11   -1    0    0    0    0  0.00000000000E+00  0.00000000000E+00  0.45593999997E+02  0.45594000000E+02  0.51100000000E-03 0. -1.
         11   -1    0    0    0    0 -0.00000000000E+00 -0.00000000000E+00 -0.45593999997E+02  0.45594000000E+02  0.51100000000E-03 0.  1.
         23    2    1    2    0    0  0.00000000000E+00  0.00000000000E+00  0.00000000000E+00  0.91188000000E+02  0.91188000000E+02 0.  0.
    9900012    2    3    3    0    0  0.26563290993E+02  0.23803854824E+02 -0.19517533536E+02  0.50528855295E+02  0.29999986154E+02 0.  0.
         12    1    3    3    0    0 -0.26563290993E+02 -0.23803854824E+02  0.19517533536E+02  0.40659144705E+02  0.00000000000E+00 0. -1.
         11    1    4    4    0    0 -0.14936880145E+01  0.64235675865E+01 -0.95349384931E+01  0.11593462673E+02  0.51100000000E-03 0. -1.
        -11    1    4    4    0    0  0.48344379392E+01  0.18728481339E+01 -0.97126651564E+01  0.11009778155E+02  0.51100000000E-03 0.  1.
         12    1    4    4    0    0  0.23222541068E+02  0.15507439103E+02 -0.26992988667E+00  0.27925614467E+02  0.00000000000E+00 0. -1.
</event>
<event>
 8    1  0.1338956E-013  0.9118800E+02  0.7816164E-02  0.1184000E+00
        -11   -1    0    0    0    0  0.00000000000E+00  0.00000000000E+00  0.45593999997E+02  0.45594000000E+02  0.51100000000E-03 0. -1.
         11   -1    0    0    0    0 -0.00000000000E+00 -0.00000000000E+00 -0.45593999997E+02  0.45594000000E+02  0.51100000000E-03 0.  1.
         23    2    1    2    0    0 -0.71054273576E-14 -0.13322676296E-14 -0.35527136788E-14  0.91188000000E+02  0.91188000000E+02 0.  0.
    9900012    2    3    3    0    0 -0.36903402593E+02 -0.16820655283E+01  0.16984506387E+02  0.50528881409E+02  0.30000065530E+02 0.  0.
        -12    1    3    3    0    0  0.36903402593E+02  0.16820655283E+01 -0.16984506387E+02  0.40659118591E+02  0.00000000000E+00 0.  1.
         11    1    4    4    0    0 -0.27735029104E+02  0.57176740799E+01  0.14138899054E+02  0.31651731438E+02  0.51100000000E-03 0. -1.
        -11    1    4    4    0    0  0.30562742333E+01  0.16297182186E+01  0.52973314602E+00  0.35039136873E+01  0.51100000000E-03 0.  1.
        -12    1    4    4    0    0 -0.12224647722E+02 -0.90294578268E+01  0.23158741867E+01  0.15373236284E+02  0.00000000000E+00 0.  1.
</event>
<event>
 8    1  0.1338956E-013  0.9118800E+02  0.7816164E-02  0.1184000E+00
        -11   -1    0    0    0    0  0.00000000000E+00  0.00000000000E+00  0.45593999997E+02  0.45594000000E+02  0.51100000000E-03 0. -1.
         11   -1    0    0    0    0 -0.00000000000E+00 -0.00000000000E+00 -0.45593999997E+02  0.45594000000E+02  0.51100000000E-03 0.  1.
         23    2    1    2    0    0  0.00000000000E+00  0.00000000000E+00  0.71054273576E-14  0.91188000000E+02  0.91188000000E+02 0.  0.
    9900012    2    3    3    0    0 -0.20400788828E+02 -0.62221321717E+01  0.34615884968E+02  0.50528848438E+02  0.29999965313E+02 0.  0.
        -12    1    3    3    0    0  0.20400788828E+02  0.62221321717E+01 -0.34615884968E+02  0.40659151562E+02  0.00000000000E+00 0.  1.
         11    1    4    4    0    0 -0.25008967114E+02 -0.42258059938E+01  0.22819126946E+02  0.34117714274E+02  0.51100000000E-03 0. -1.
        -11    1    4    4    0    0 -0.23095004828E+01  0.55728849928E+00  0.75207517460E+01  0.78870824795E+01  0.51100000000E-03 0.  1.
        -12    1    4    4    0    0  0.69176787685E+01 -0.25536146772E+01  0.42760062760E+01  0.85240516854E+01  0.00000000000E+00 0.  1.
</event>
<event>
 8    1  0.1338956E-013  0.9118800E+02  0.7816164E-02  0.1184000E+00
        -11   -1    0    0    0    0  0.00000000000E+00  0.00000000000E+00  0.45593999997E+02  0.45594000000E+02  0.51100000000E-03 0. -1.
         11   -1    0    0    0    0 -0.00000000000E+00 -0.00000000000E+00 -0.45593999997E+02  0.45594000000E+02  0.51100000000E-03 0.  1.
         23    2    1    2    0    0 -0.35527136788E-14  0.17763568394E-14  0.71054273576E-14  0.91188000000E+02  0.91188000000E+02 0.  0.
    9900012    2    3    3    0    0 -0.16752725752E+02  0.14457847910E+02  0.34109829947E+02  0.50528884352E+02  0.30000074475E+02 0.  0.
        -12    1    3    3    0    0  0.16752725752E+02 -0.14457847910E+02 -0.34109829947E+02  0.40659115648E+02  0.00000000000E+00 0.  1.
         11    1    4    4    0    0 -0.59034722239E+01  0.46220982427E+01  0.87647052511E+01  0.11534072779E+02  0.51100000000E-03 0. -1.
        -11    1    4    4    0    0 -0.73586679720E+01  0.18419782333E+02  0.20549573917E+02  0.28560871205E+02  0.51100000000E-03 0.  1.
        -12    1    4    4    0    0 -0.34905855557E+01 -0.85840326662E+01  0.47955507791E+01  0.10433940368E+02  0.00000000000E+00 0.  1.
</event>
<event>
 8    1  0.1338956E-013  0.9118800E+02  0.7816164E-02  0.1184000E+00
        -11   -1    0    0    0    0  0.00000000000E+00  0.00000000000E+00  0.45593999997E+02  0.45594000000E+02  0.51100000000E-03 0.  1.
         11   -1    0    0    0    0 -0.00000000000E+00 -0.00000000000E+00 -0.45593999997E+02  0.45594000000E+02  0.51100000000E-03 0. -1.
         23    2    1    2    0    0  0.00000000000E+00 -0.88817841970E-15  0.00000000000E+00  0.91188000000E+02  0.91188000000E+02 0.  0.
    9900012    2    3    3    0    0  0.37113738987E+02 -0.55666936167E+01  0.15644417928E+02  0.50528861892E+02  0.30000006207E+02 0.  0.
         12    1    3    3    0    0 -0.37113738987E+02  0.55666936167E+01 -0.15644417928E+02  0.40659138108E+02  0.00000000000E+00 0. -1.
         11    1    4    4    0    0 -0.24383483655E+01 -0.58703968003E+00 -0.22939629426E+01  0.33988857851E+01  0.51100000000E-03 0. -1.
        -11    1    4    4    0    0  0.16387735978E+02 -0.10793813752E+02  0.94851967449E+01  0.21795257818E+02  0.51100000000E-03 0.  1.
         12    1    4    4    0    0  0.23164351374E+02  0.58141598150E+01  0.84531841253E+01  0.25334718289E+02  0.00000000000E+00 0. -1.
</event>
<event>
 8    1  0.1338956E-013  0.9118800E+02  0.7816164E-02  0.1184000E+00
        -11   -1    0    0    0    0  0.00000000000E+00  0.00000000000E+00  0.45593999997E+02  0.45594000000E+02  0.51100000000E-03 0. -1.
         11   -1    0    0    0    0 -0.00000000000E+00 -0.00000000000E+00 -0.45593999997E+02  0.45594000000E+02  0.51100000000E-03 0.  1.
         23    2    1    2    0    0 -0.13322676296E-14  0.00000000000E+00  0.00000000000E+00  0.91188000000E+02  0.91188000000E+02 0.  0.
    9900012    2    3    3    0    0 -0.28742495350E+01 -0.15928976158E+02  0.37298417672E+02  0.50528861388E+02  0.30000004675E+02 0.  0.
        -12    1    3    3    0    0  0.28742495350E+01  0.15928976158E+02 -0.37298417672E+02  0.40659138612E+02  0.00000000000E+00 0.  1.
         11    1    4    4    0    0 -0.69494209386E+01 -0.11094782791E+01  0.15637032406E+02  0.17147658037E+02  0.51100000000E-03 0. -1.
        -11    1    4    4    0    0  0.10175971466E+02 -0.11663252990E+01  0.67741979333E+01  0.12280084196E+02  0.51100000000E-03 0.  1.
         12    1    4    4    0    0 -0.61008000619E+01 -0.13653172580E+02  0.14887187333E+02  0.21101119155E+02  0.00000000000E+00 0. -1.
</event>
<event>
 8    1  0.1338956E-013  0.9118800E+02  0.7816164E-02  0.1184000E+00
        -11   -1    0    0    0    0  0.00000000000E+00  0.00000000000E+00  0.45593999997E+02  0.45594000000E+02  0.51100000000E-03 0. -1.
         11   -1    0    0    0    0 -0.00000000000E+00 -0.00000000000E+00 -0.45593999997E+02  0.45594000000E+02  0.51100000000E-03 0.  1.
         23    2    1    2    0    0  0.00000000000E+00 -0.88817841970E-15  0.00000000000E+00  0.91188000000E+02  0.91188000000E+02 0.  0.
    9900012    2    3    3    0    0  0.21249612182E+02 -0.63746997158E+01 -0.34073200307E+02  0.50528858426E+02  0.29999995672E+02 0.  0.
         12    1    3    3    0    0 -0.21249612182E+02  0.63746997158E+01  0.34073200307E+02  0.40659141574E+02  0.00000000000E+00 0. -1.
         11    1    4    4    0    0  0.99155810562E+01  0.10375960975E+02 -0.15978079516E+02  0.21477391348E+02  0.51100000000E-03 0. -1.
        -11    1    4    4    0    0  0.47855305260E+01 -0.76147772541E+01 -0.14834155877E+02  0.17347573775E+02  0.51100000000E-03 0.  1.
        -12    1    4    4    0    0  0.65485005994E+01 -0.91358834370E+01 -0.32609649146E+01  0.11703893303E+02  0.00000000000E+00 0.  1.
</event>
<event>
 8    1  0.1338956E-013  0.9118800E+02  0.7816164E-02  0.1184000E+00
        -11   -1    0    0    0    0  0.00000000000E+00  0.00000000000E+00  0.45593999997E+02  0.45594000000E+02  0.51100000000E-03 0. -1.
         11   -1    0    0    0    0 -0.00000000000E+00 -0.00000000000E+00 -0.45593999997E+02  0.45594000000E+02  0.51100000000E-03 0.  1.
         23    2    1    2    0    0 -0.35527136788E-14  0.00000000000E+00 -0.71054273576E-14  0.91188000000E+02  0.91188000000E+02 0.  0.
    9900012    2    3    3    0    0 -0.18414392412E+02  0.17381980693E+02 -0.31811034110E+02  0.50528868284E+02  0.30000025637E+02 0.  0.
         12    1    3    3    0    0  0.18414392412E+02 -0.17381980693E+02  0.31811034110E+02  0.40659131716E+02  0.00000000000E+00 0. -1.
         11    1    4    4    0    0 -0.95035296715E+01  0.57596772088E+00 -0.94546726228E+01  0.13417885441E+02  0.51100000000E-03 0. -1.
        -11    1    4    4    0    0 -0.16148804416E+02  0.14806988533E+02 -0.14681578042E+02  0.26373841729E+02  0.51100000000E-03 0.  1.
        -12    1    4    4    0    0  0.72379416749E+01  0.19990244394E+01 -0.76747834448E+01  0.10737141115E+02  0.00000000000E+00 0.  1.
</event>
<event>
 8    1  0.1338956E-013  0.9118800E+02  0.7816164E-02  0.1184000E+00
        -11   -1    0    0    0    0  0.00000000000E+00  0.00000000000E+00  0.45593999997E+02  0.45594000000E+02  0.51100000000E-03 0. -1.
         11   -1    0    0    0    0 -0.00000000000E+00 -0.00000000000E+00 -0.45593999997E+02  0.45594000000E+02  0.51100000000E-03 0.  1.
         23    2    1    2    0    0  0.35527136788E-14  0.44408920985E-15 -0.35527136788E-14  0.91188000000E+02  0.91188000000E+02 0.  0.
    9900012    2    3    3    0    0  0.27854977225E+02 -0.20367553398E+01 -0.29548594781E+02  0.50528836432E+02  0.29999928819E+02 0.  0.
         12    1    3    3    0    0 -0.27854977225E+02  0.20367553398E+01  0.29548594781E+02  0.40659163568E+02  0.00000000000E+00 0. -1.
         11    1    4    4    0    0  0.19137087535E+00 -0.13106071184E+01  0.92128618045E+00  0.16134070529E+01  0.51100000000E-03 0. -1.
        -11    1    4    4    0    0  0.24897982240E+02 -0.37818787767E+01 -0.85257209310E+01  0.26587591925E+02  0.51100000000E-03 0.  1.
        -12    1    4    4    0    0  0.27656241094E+01  0.30557305553E+01 -0.21944160030E+02  0.22327837454E+02  0.00000000000E+00 0.  1.
</event>
<event>
 8    1  0.1338956E-013  0.9118800E+02  0.7816164E-02  0.1184000E+00
        -11   -1    0    0    0    0  0.00000000000E+00  0.00000000000E+00  0.45593999997E+02  0.45594000000E+02  0.51100000000E-03 0. -1.
         11   -1    0    0    0    0 -0.00000000000E+00 -0.00000000000E+00 -0.45593999997E+02  0.45594000000E+02  0.51100000000E-03 0.  1.
         23    2    1    2    0    0  0.00000000000E+00  0.00000000000E+00  0.00000000000E+00  0.91188000000E+02  0.91188000000E+02 0.  0.
    9900012    2    3    3    0    0  0.62276043614E+01  0.22383257204E+02  0.33367232402E+02  0.50528862560E+02  0.30000008238E+02 0.  0.
        -12    1    3    3    0    0 -0.62276043614E+01 -0.22383257204E+02 -0.33367232402E+02  0.40659137440E+02  0.00000000000E+00 0.  1.
         11    1    4    4    0    0 -0.61795384140E+00 -0.29106905948E+01 -0.63953431828E+00  0.30435162386E+01  0.51100000000E-03 0. -1.
        -11    1    4    4    0    0  0.85288994435E+01  0.82594744008E+00  0.99415783075E+01  0.13124758832E+02  0.51100000000E-03 0.  1.
         12    1    4    4    0    0 -0.16833412407E+01  0.24468000359E+02  0.24065188413E+02  0.34360587490E+02  0.00000000000E+00 0. -1.
</event>
<event>
 8    1  0.1338956E-013  0.9118800E+02  0.7816164E-02  0.1184000E+00
        -11   -1    0    0    0    0  0.00000000000E+00  0.00000000000E+00  0.45593999997E+02  0.45594000000E+02  0.51100000000E-03 0. -1.
         11   -1    0    0    0    0 -0.00000000000E+00 -0.00000000000E+00 -0.45593999997E+02  0.45594000000E+02  0.51100000000E-03 0.  1.
         23    2    1    2    0    0 -0.35527136788E-14  0.35527136788E-14  0.00000000000E+00  0.91188000000E+02  0.91188000000E+02 0.  0.
    9900012    2    3    3    0    0  0.17929046905E+02  0.30633917782E+02  0.19831240049E+02  0.50528859287E+02  0.29999998290E+02 0.  0.
        -12    1    3    3    0    0 -0.17929046905E+02 -0.30633917782E+02 -0.19831240049E+02  0.40659140713E+02  0.00000000000E+00 0.  1.
         11    1    4    4    0    0 -0.21267423922E+01  0.26997902816E+01 -0.21916004398E+01  0.40761518024E+01  0.51100000000E-03 0. -1.
        -11    1    4    4    0    0  0.10316131622E+01  0.15665373395E+01  0.12404841002E+02  0.12545849732E+02  0.51100000000E-03 0.  1.
         12    1    4    4    0    0  0.19024176135E+02  0.26367590161E+02  0.96179994865E+01  0.33906857753E+02  0.00000000000E+00 0. -1.
</event>
<event>
 8    1  0.1338956E-013  0.9118800E+02  0.7816164E-02  0.1184000E+00
        -11   -1    0    0    0    0  0.00000000000E+00  0.00000000000E+00  0.45593999997E+02  0.45594000000E+02  0.51100000000E-03 0. -1.
         11   -1    0    0    0    0 -0.00000000000E+00 -0.00000000000E+00 -0.45593999997E+02  0.45594000000E+02  0.51100000000E-03 0.  1.
         23    2    1    2    0    0  0.35527136788E-14  0.00000000000E+00  0.00000000000E+00  0.91188000000E+02  0.91188000000E+02 0.  0.
    9900012    2    3    3    0    0  0.20012574337E+02  0.52343811714E+01 -0.35003770999E+02  0.50528857584E+02  0.29999993113E+02 0.  0.
         12    1    3    3    0    0 -0.20012574337E+02 -0.52343811714E+01  0.35003770999E+02  0.40659142416E+02  0.00000000000E+00 0. -1.
         11    1    4    4    0    0  0.11196205609E+01  0.70754708850E-01 -0.13648137063E+02  0.13694166714E+02  0.51100000000E-03 0. -1.
        -11    1    4    4    0    0  0.32241315677E+01 -0.40563555771E+01 -0.17498838026E+02  0.18249887054E+02  0.51100000000E-03 0.  1.
         12    1    4    4    0    0  0.15668822209E+02  0.92199820397E+01 -0.38567959094E+01  0.18584803817E+02  0.00000000000E+00 0. -1.
</event>
<event>
 8    1  0.1338956E-013  0.9118800E+02  0.7816164E-02  0.1184000E+00
        -11   -1    0    0    0    0  0.00000000000E+00  0.00000000000E+00  0.45593999997E+02  0.45594000000E+02  0.51100000000E-03 0. -1.
         11   -1    0    0    0    0 -0.00000000000E+00 -0.00000000000E+00 -0.45593999997E+02  0.45594000000E+02  0.51100000000E-03 0.  1.
         23    2    1    2    0    0  0.17763568394E-14  0.88817841970E-15  0.71054273576E-14  0.91188000000E+02  0.91188000000E+02 0.  0.
    9900012    2    3    3    0    0 -0.91407976048E+01 -0.34019804654E+01 -0.39471989699E+02  0.50528860526E+02  0.30000002055E+02 0.  0.
         12    1    3    3    0    0  0.91407976048E+01  0.34019804654E+01  0.39471989699E+02  0.40659139474E+02  0.00000000000E+00 0. -1.
         11    1    4    4    0    0 -0.71193737730E+01 -0.70866704083E+01 -0.81482957034E+01  0.12934492782E+02  0.51100000000E-03 0. -1.
        -11    1    4    4    0    0 -0.98259155023E+01 -0.24176129853E+01 -0.20859945910E+02  0.23184710730E+02  0.51100000000E-03 0.  1.
        -12    1    4    4    0    0  0.78044916705E+01  0.61023029283E+01 -0.10463748086E+02  0.14409657014E+02  0.00000000000E+00 0.  1.
</event>
<event>
 8    1  0.1338956E-013  0.9118800E+02  0.7816164E-02  0.1184000E+00
        -11   -1    0    0    0    0  0.00000000000E+00  0.00000000000E+00  0.45593999997E+02  0.45594000000E+02  0.51100000000E-03 0.  1.
         11   -1    0    0    0    0 -0.00000000000E+00 -0.00000000000E+00 -0.45593999997E+02  0.45594000000E+02  0.51100000000E-03 0. -1.
         23    2    1    2    0    0  0.00000000000E+00  0.00000000000E+00  0.88817841970E-15  0.91188000000E+02  0.91188000000E+02 0.  0.
    9900012    2    3    3    0    0 -0.40266401091E+02 -0.43713633477E+01  0.35601290502E+01  0.50528851052E+02  0.29999973257E+02 0.  0.
        -12    1    3    3    0    0  0.40266401091E+02  0.43713633477E+01 -0.35601290502E+01  0.40659148948E+02  0.00000000000E+00 0.  1.
         11    1    4    4    0    0 -0.14639569462E+02 -0.62344345507E+00  0.96301414278E-01  0.14653154951E+02  0.51100000000E-03 0. -1.
        -11    1    4    4    0    0 -0.26270037246E+02 -0.97098850637E+00 -0.51629622593E+01  0.26790182066E+02  0.51100000000E-03 0.  1.
        -12    1    4    4    0    0  0.64320561720E+00 -0.27769313862E+01  0.86267898952E+01  0.90855140353E+01  0.00000000000E+00 0.  1.
</event>
<event>
 8    1  0.1338956E-013  0.9118800E+02  0.7816164E-02  0.1184000E+00
        -11   -1    0    0    0    0  0.00000000000E+00  0.00000000000E+00  0.45593999997E+02  0.45594000000E+02  0.51100000000E-03 0. -1.
         11   -1    0    0    0    0 -0.00000000000E+00 -0.00000000000E+00 -0.45593999997E+02  0.45594000000E+02  0.51100000000E-03 0.  1.
         23    2    1    2    0    0  0.00000000000E+00  0.00000000000E+00  0.17763568394E-14  0.91188000000E+02  0.91188000000E+02 0.  0.
    9900012    2    3    3    0    0 -0.38859400083E+02 -0.49592529147E+01  0.10886618882E+02  0.50528860377E+02  0.30000001600E+02 0.  0.
        -12    1    3    3    0    0  0.38859400083E+02  0.49592529147E+01 -0.10886618882E+02  0.40659139623E+02  0.00000000000E+00 0.  1.
         11    1    4    4    0    0 -0.28373088692E+02 -0.43009284237E+01  0.77555388781E+00  0.28707692895E+02  0.51100000000E-03 0. -1.
        -11    1    4    4    0    0 -0.14953768872E+01 -0.31605329553E+01 -0.37397029042E+01  0.51196189965E+01  0.51100000000E-03 0.  1.
        -12    1    4    4    0    0 -0.89909345031E+01  0.25022084643E+01  0.13850767898E+02  0.16701548485E+02  0.00000000000E+00 0.  1.
</event>
<event>
 8    1  0.1338956E-013  0.9118800E+02  0.7816164E-02  0.1184000E+00
        -11   -1    0    0    0    0  0.00000000000E+00  0.00000000000E+00  0.45593999997E+02  0.45594000000E+02  0.51100000000E-03 0. -1.
         11   -1    0    0    0    0 -0.00000000000E+00 -0.00000000000E+00 -0.45593999997E+02  0.45594000000E+02  0.51100000000E-03 0.  1.
         23    2    1    2    0    0  0.00000000000E+00 -0.35527136788E-14  0.00000000000E+00  0.91188000000E+02  0.91188000000E+02 0.  0.
    9900012    2    3    3    0    0 -0.94213065419E+01 -0.30797933458E+02 -0.24817171679E+02  0.50528859178E+02  0.29999997956E+02 0.  0.
         12    1    3    3    0    0  0.94213065419E+01  0.30797933458E+02  0.24817171679E+02  0.40659140822E+02  0.00000000000E+00 0. -1.
         11    1    4    4    0    0 -0.49633111420E+01 -0.77723602432E+01  0.71507842333E+00  0.92496150544E+01  0.51100000000E-03 0. -1.
        -11    1    4    4    0    0  0.31540287769E+01 -0.18903631747E+02 -0.26352022631E+02  0.32584110971E+02  0.51100000000E-03 0.  1.
         12    1    4    4    0    0 -0.76120241768E+01 -0.41219414676E+01  0.81977252874E+00  0.86951331519E+01  0.00000000000E+00 0. -1.
</event>
<event>
 8    1  0.1338956E-013  0.9118800E+02  0.7816164E-02  0.1184000E+00
        -11   -1    0    0    0    0  0.00000000000E+00  0.00000000000E+00  0.45593999997E+02  0.45594000000E+02  0.51100000000E-03 0.  1.
         11   -1    0    0    0    0 -0.00000000000E+00 -0.00000000000E+00 -0.45593999997E+02  0.45594000000E+02  0.51100000000E-03 0. -1.
         23    2    1    2    0    0  0.00000000000E+00  0.00000000000E+00  0.17763568394E-14  0.91188000000E+02  0.91188000000E+02 0.  0.
    9900012    2    3    3    0    0  0.19378230205E+02 -0.34826893406E+02  0.80458461145E+01  0.50528881099E+02  0.30000064587E+02 0.  0.
         12    1    3    3    0    0 -0.19378230205E+02  0.34826893406E+02 -0.80458461145E+01  0.40659118901E+02  0.00000000000E+00 0. -1.
         11    1    4    4    0    0  0.10192527717E+02 -0.93028323353E+01  0.79123044269E+00  0.13822313721E+02  0.51100000000E-03 0. -1.
        -11    1    4    4    0    0  0.10594535675E+02 -0.25266958360E+02 -0.18778333718E+01  0.27462513165E+02  0.51100000000E-03 0.  1.
        -12    1    4    4    0    0 -0.14088331872E+01 -0.25710271061E+00  0.91324490436E+01  0.92440542127E+01  0.00000000000E+00 0.  1.
</event>
<event>
 8    1  0.1338956E-013  0.9118800E+02  0.7816164E-02  0.1184000E+00
        -11   -1    0    0    0    0  0.00000000000E+00  0.00000000000E+00  0.45593999997E+02  0.45594000000E+02  0.51100000000E-03 0. -1.
         11   -1    0    0    0    0 -0.00000000000E+00 -0.00000000000E+00 -0.45593999997E+02  0.45594000000E+02  0.51100000000E-03 0.  1.
         23    2    1    2    0    0  0.35527136788E-14  0.88817841970E-15  0.71054273576E-14  0.91188000000E+02  0.91188000000E+02 0.  0.
    9900012    2    3    3    0    0  0.16904791680E+02  0.44736392548E+00  0.36975621413E+02  0.50528822744E+02  0.29999887213E+02 0.  0.
        -12    1    3    3    0    0 -0.16904791680E+02 -0.44736392548E+00 -0.36975621413E+02  0.40659177256E+02  0.00000000000E+00 0.  1.
         11    1    4    4    0    0  0.23190076635E+01 -0.26768987893E+01  0.12537422551E+02  0.13028067706E+02  0.51100000000E-03 0. -1.
        -11    1    4    4    0    0 -0.64110086746E+01 -0.95771021779E+00  0.91310823307E+01  0.11197986689E+02  0.51100000000E-03 0.  1.
         12    1    4    4    0    0  0.20996792691E+02  0.40819729326E+01  0.15307116532E+02  0.26302768350E+02  0.00000000000E+00 0. -1.
</event>
<event>
 8    1  0.1338956E-013  0.9118800E+02  0.7816164E-02  0.1184000E+00
        -11   -1    0    0    0    0  0.00000000000E+00  0.00000000000E+00  0.45593999997E+02  0.45594000000E+02  0.51100000000E-03 0. -1.
         11   -1    0    0    0    0 -0.00000000000E+00 -0.00000000000E+00 -0.45593999997E+02  0.45594000000E+02  0.51100000000E-03 0.  1.
         23    2    1    2    0    0 -0.71054273576E-14  0.35527136788E-14  0.00000000000E+00  0.91188000000E+02  0.91188000000E+02 0.  0.
    9900012    2    3    3    0    0 -0.23529704762E+02  0.18641888674E+02 -0.27422589868E+02  0.50528862594E+02  0.30000008340E+02 0.  0.
         12    1    3    3    0    0  0.23529704762E+02 -0.18641888674E+02  0.27422589868E+02  0.40659137406E+02  0.00000000000E+00 0. -1.
         11    1    4    4    0    0 -0.20323264206E+01  0.21330335797E+01 -0.64668238700E+01  0.71063347908E+01  0.51100000000E-03 0. -1.
        -11    1    4    4    0    0 -0.22011477737E+02  0.40880713988E+01 -0.21417296832E+02  0.30982544824E+02  0.51100000000E-03 0.  1.
        -12    1    4    4    0    0  0.51409939545E+00  0.12420783696E+02  0.46153083372E+00  0.12439982979E+02  0.00000000000E+00 0.  1.
</event>
<event>
 8    1  0.1338956E-013  0.9118800E+02  0.7816164E-02  0.1184000E+00
        -11   -1    0    0    0    0  0.00000000000E+00  0.00000000000E+00  0.45593999997E+02  0.45594000000E+02  0.51100000000E-03 0. -1.
         11   -1    0    0    0    0 -0.00000000000E+00 -0.00000000000E+00 -0.45593999997E+02  0.45594000000E+02  0.51100000000E-03 0.  1.
         23    2    1    2    0    0  0.00000000000E+00  0.00000000000E+00  0.00000000000E+00  0.91188000000E+02  0.91188000000E+02 0.  0.
    9900012    2    3    3    0    0  0.18550286537E+02 -0.26487013715E+02  0.24647323130E+02  0.50528861253E+02  0.30000004265E+02 0.  0.
        -12    1    3    3    0    0 -0.18550286537E+02  0.26487013715E+02 -0.24647323130E+02  0.40659138747E+02  0.00000000000E+00 0.  1.
         11    1    4    4    0    0  0.51275258127E+01 -0.22452475517E+01  0.48858243078E+01  0.74299351920E+01  0.51100000000E-03 0.  1.
        -11    1    4    4    0    0  0.17081187066E+02 -0.56860284669E+01  0.15396972735E+02  0.23688913884E+02  0.51100000000E-03 0. -1.
        -12    1    4    4    0    0 -0.36584263421E+01 -0.18555737697E+02  0.43645260870E+01  0.19410012178E+02  0.00000000000E+00 0.  1.
</event>
<event>
 8    1  0.1338956E-013  0.9118800E+02  0.7816164E-02  0.1184000E+00
        -11   -1    0    0    0    0  0.00000000000E+00  0.00000000000E+00  0.45593999997E+02  0.45594000000E+02  0.51100000000E-03 0. -1.
         11   -1    0    0    0    0 -0.00000000000E+00 -0.00000000000E+00 -0.45593999997E+02  0.45594000000E+02  0.51100000000E-03 0.  1.
         23    2    1    2    0    0  0.17763568394E-14  0.00000000000E+00  0.00000000000E+00  0.91188000000E+02  0.91188000000E+02 0.  0.
    9900012    2    3    3    0    0 -0.78112552584E+01 -0.82269854060E+01  0.39044418099E+02  0.50528861024E+02  0.30000003569E+02 0.  0.
        -12    1    3    3    0    0  0.78112552584E+01  0.82269854060E+01 -0.39044418099E+02  0.40659138976E+02  0.00000000000E+00 0.  1.
         11    1    4    4    0    0 -0.12775109934E+02 -0.11011669982E+02  0.15859205560E+02  0.23151127637E+02  0.51100000000E-03 0. -1.
        -11    1    4    4    0    0 -0.50606845473E+00 -0.88572461721E+00  0.20061396971E+02  0.20087315950E+02  0.51100000000E-03 0.  1.
        -12    1    4    4    0    0  0.54699231306E+01  0.36704091932E+01  0.31238155675E+01  0.72904174365E+01  0.00000000000E+00 0.  1.
</event>
<event>
 8    1  0.1338956E-013  0.9118800E+02  0.7816164E-02  0.1184000E+00
        -11   -1    0    0    0    0  0.00000000000E+00  0.00000000000E+00  0.45593999997E+02  0.45594000000E+02  0.51100000000E-03 0. -1.
         11   -1    0    0    0    0 -0.00000000000E+00 -0.00000000000E+00 -0.45593999997E+02  0.45594000000E+02  0.51100000000E-03 0.  1.
         23    2    1    2    0    0  0.44408920985E-15  0.00000000000E+00 -0.71054273576E-14  0.91188000000E+02  0.91188000000E+02 0.  0.
    9900012    2    3    3    0    0  0.36107257835E+01 -0.18142743541E+02 -0.36207313163E+02  0.50528855760E+02  0.29999987568E+02 0.  0.
         12    1    3    3    0    0 -0.36107257835E+01  0.18142743541E+02  0.36207313163E+02  0.40659144240E+02  0.00000000000E+00 0. -1.
         11    1    4    4    0    0 -0.60086893670E+01 -0.99413419746E+01 -0.59950473264E+01  0.13071924911E+02  0.51100000000E-03 0. -1.
        -11    1    4    4    0    0  0.58125814969E+01  0.24333408467E+01 -0.13241603897E+01  0.64389946679E+01  0.51100000000E-03 0.  1.
         12    1    4    4    0    0  0.38068336536E+01 -0.10634742413E+02 -0.28888105446E+02  0.31017936181E+02  0.00000000000E+00 0. -1.
</event>
<event>
 8    1  0.1338956E-013  0.9118800E+02  0.7816164E-02  0.1184000E+00
        -11   -1    0    0    0    0  0.00000000000E+00  0.00000000000E+00  0.45593999997E+02  0.45594000000E+02  0.51100000000E-03 0. -1.
         11   -1    0    0    0    0 -0.00000000000E+00 -0.00000000000E+00 -0.45593999997E+02  0.45594000000E+02  0.51100000000E-03 0.  1.
         23    2    1    2    0    0 -0.17763568394E-14 -0.88817841970E-15 -0.71054273576E-14  0.91188000000E+02  0.91188000000E+02 0.  0.
    9900012    2    3    3    0    0 -0.41116344574E+01  0.57270954139E+01  0.40043232206E+02  0.50528860741E+02  0.30000002708E+02 0.  0.
        -12    1    3    3    0    0  0.41116344574E+01 -0.57270954139E+01 -0.40043232206E+02  0.40659139259E+02  0.00000000000E+00 0.  1.
         11    1    4    4    0    0 -0.12822312988E+02 -0.22612142801E+01  0.13770389733E+02  0.18951211942E+02  0.51100000000E-03 0. -1.
        -11    1    4    4    0    0  0.76907083862E+00 -0.15234602124E+01 -0.73865658195E+00  0.18595738170E+01  0.51100000000E-03 0.  1.
         12    1    4    4    0    0  0.79416076921E+01  0.95117699063E+01  0.27011499055E+02  0.29718074982E+02  0.00000000000E+00 0. -1.
</event>
<event>
 8    1  0.1338956E-013  0.9118800E+02  0.7816164E-02  0.1184000E+00
        -11   -1    0    0    0    0  0.00000000000E+00  0.00000000000E+00  0.45593999997E+02  0.45594000000E+02  0.51100000000E-03 0.  1.
         11   -1    0    0    0    0 -0.00000000000E+00 -0.00000000000E+00 -0.45593999997E+02  0.45594000000E+02  0.51100000000E-03 0. -1.
         23    2    1    2    0    0  0.71054273576E-14  0.00000000000E+00  0.11102230246E-14  0.91188000000E+02  0.91188000000E+02 0.  0.
    9900012    2    3    3    0    0 -0.36017673603E+02  0.18823415102E+02 -0.12538566550E+01  0.50528856817E+02  0.29999990780E+02 0.  0.
         12    1    3    3    0    0  0.36017673603E+02 -0.18823415102E+02  0.12538566550E+01  0.40659143183E+02  0.00000000000E+00 0. -1.
         11    1    4    4    0    0 -0.29180805129E+02  0.10584989507E+02 -0.19388260919E+01  0.31101775476E+02  0.51100000000E-03 0.  1.
        -11    1    4    4    0    0 -0.94666569451E+01  0.80761580770E+01 -0.48038534003E+01  0.13338625520E+02  0.51100000000E-03 0. -1.
         12    1    4    4    0    0  0.26297884713E+01  0.16226751846E+00  0.54888228373E+01  0.60884558215E+01  0.00000000000E+00 0. -1.
</event>
<event>
 8    1  0.1338956E-013  0.9118800E+02  0.7816164E-02  0.1184000E+00
        -11   -1    0    0    0    0  0.00000000000E+00  0.00000000000E+00  0.45593999997E+02  0.45594000000E+02  0.51100000000E-03 0. -1.
         11   -1    0    0    0    0 -0.00000000000E+00 -0.00000000000E+00 -0.45593999997E+02  0.45594000000E+02  0.51100000000E-03 0.  1.
         23    2    1    2    0    0  0.00000000000E+00  0.17763568394E-14  0.00000000000E+00  0.91188000000E+02  0.91188000000E+02 0.  0.
    9900012    2    3    3    0    0 -0.34205942488E+02  0.11684245269E+02  0.18617142317E+02  0.50528854940E+02  0.29999985075E+02 0.  0.
        -12    1    3    3    0    0  0.34205942488E+02 -0.11684245269E+02 -0.18617142317E+02  0.40659145060E+02  0.00000000000E+00 0.  1.
         11    1    4    4    0    0 -0.21196759897E+02  0.14777509201E+02  0.22184755017E+02  0.34056434983E+02  0.51100000000E-03 0. -1.
        -11    1    4    4    0    0 -0.10586753782E+02  0.16830803633E+01 -0.21628019002E+01  0.10935713396E+02  0.51100000000E-03 0.  1.
        -12    1    4    4    0    0 -0.24224288085E+01 -0.47763442954E+01 -0.14048108000E+01  0.55367065611E+01  0.00000000000E+00 0.  1.
</event>
<event>
 8    1  0.1338956E-013  0.9118800E+02  0.7816164E-02  0.1184000E+00
        -11   -1    0    0    0    0  0.00000000000E+00  0.00000000000E+00  0.45593999997E+02  0.45594000000E+02  0.51100000000E-03 0. -1.
         11   -1    0    0    0    0 -0.00000000000E+00 -0.00000000000E+00 -0.45593999997E+02  0.45594000000E+02  0.51100000000E-03 0.  1.
         23    2    1    2    0    0 -0.71054273576E-14 -0.17763568394E-14  0.00000000000E+00  0.91188000000E+02  0.91188000000E+02 0.  0.
    9900012    2    3    3    0    0 -0.33854706267E+02 -0.10122333690E+02  0.20113758637E+02  0.50528855121E+02  0.29999985626E+02 0.  0.
        -12    1    3    3    0    0  0.33854706267E+02  0.10122333690E+02 -0.20113758637E+02  0.40659144879E+02  0.00000000000E+00 0.  1.
         11    1    4    4    0    0  0.26751176366E+00 -0.59556424936E+00  0.45962267442E+01  0.46423657616E+01  0.51100000000E-03 0. -1.
        -11    1    4    4    0    0 -0.91449126490E+00 -0.50679901410E+01 -0.45150560255E+01  0.68488356323E+01  0.51100000000E-03 0.  1.
        -12    1    4    4    0    0 -0.33207726766E+02 -0.44587792997E+01  0.20032587919E+02  0.39037653727E+02  0.00000000000E+00 0.  1.
</event>
<event>
 8    1  0.1338956E-013  0.9118800E+02  0.7816164E-02  0.1184000E+00
        -11   -1    0    0    0    0  0.00000000000E+00  0.00000000000E+00  0.45593999997E+02  0.45594000000E+02  0.51100000000E-03 0. -1.
         11   -1    0    0    0    0 -0.00000000000E+00 -0.00000000000E+00 -0.45593999997E+02  0.45594000000E+02  0.51100000000E-03 0.  1.
         23    2    1    2    0    0  0.00000000000E+00 -0.35527136788E-14 -0.71054273576E-14  0.91188000000E+02  0.91188000000E+02 0.  0.
    9900012    2    3    3    0    0 -0.26952194320E+01  0.19588098074E+02  0.35527548524E+02  0.50528874357E+02  0.30000044097E+02 0.  0.
        -12    1    3    3    0    0  0.26952194320E+01 -0.19588098074E+02 -0.35527548524E+02  0.40659125643E+02  0.00000000000E+00 0.  1.
         11    1    4    4    0    0 -0.60014138665E+01  0.44782905055E+01  0.23870367330E+02  0.25017323818E+02  0.51100000000E-03 0. -1.
        -11    1    4    4    0    0  0.68746333778E+01  0.11917484316E+02  0.14463342186E+02  0.19961845705E+02  0.51100000000E-03 0.  1.
        -12    1    4    4    0    0 -0.35684389433E+01  0.31923232517E+01 -0.28061609925E+01  0.55497048346E+01  0.00000000000E+00 0.  1.
</event>
<event>
 8    1  0.1338956E-013  0.9118800E+02  0.7816164E-02  0.1184000E+00
        -11   -1    0    0    0    0  0.00000000000E+00  0.00000000000E+00  0.45593999997E+02  0.45594000000E+02  0.51100000000E-03 0.  1.
         11   -1    0    0    0    0 -0.00000000000E+00 -0.00000000000E+00 -0.45593999997E+02  0.45594000000E+02  0.51100000000E-03 0. -1.
         23    2    1    2    0    0  0.17763568394E-14 -0.71054273576E-14  0.35527136788E-14  0.91188000000E+02  0.91188000000E+02 0.  0.
    9900012    2    3    3    0    0  0.86464377108E+01 -0.34372135692E+02  0.19923889479E+02  0.50528856268E+02  0.29999989111E+02 0.  0.
        -12    1    3    3    0    0 -0.86464377108E+01  0.34372135692E+02 -0.19923889479E+02  0.40659143732E+02  0.00000000000E+00 0.  1.
         11    1    4    4    0    0  0.82043471129E+01 -0.21844228028E+02  0.56463374186E+01  0.24007555814E+02  0.51100000000E-03 0. -1.
        -11    1    4    4    0    0  0.59194924281E+01 -0.13394148020E+02  0.45681802702E+01  0.15339878195E+02  0.51100000000E-03 0.  1.
        -12    1    4    4    0    0 -0.54774018302E+01  0.86624035640E+00  0.97093717898E+01  0.11181422258E+02  0.00000000000E+00 0.  1.
</event>
<event>
 8    1  0.1338956E-013  0.9118800E+02  0.7816164E-02  0.1184000E+00
        -11   -1    0    0    0    0  0.00000000000E+00  0.00000000000E+00  0.45593999997E+02  0.45594000000E+02  0.51100000000E-03 0. -1.
         11   -1    0    0    0    0 -0.00000000000E+00 -0.00000000000E+00 -0.45593999997E+02  0.45594000000E+02  0.51100000000E-03 0.  1.
         23    2    1    2    0    0 -0.88817841970E-15  0.44408920985E-15 -0.71054273576E-14  0.91188000000E+02  0.91188000000E+02 0.  0.
    9900012    2    3    3    0    0  0.59137141628E+01  0.28535063580E+01 -0.40125446596E+02  0.50528856154E+02  0.29999988766E+02 0.  0.
         12    1    3    3    0    0 -0.59137141628E+01 -0.28535063580E+01  0.40125446596E+02  0.40659143846E+02  0.00000000000E+00 0. -1.
         11    1    4    4    0    0  0.10343967132E+01  0.11112730406E+02 -0.98269222072E+01  0.14870479278E+02  0.51100000000E-03 0. -1.
        -11    1    4    4    0    0  0.89119228051E+01 -0.15279274730E+01 -0.23834507083E+02  0.25491972435E+02  0.51100000000E-03 0.  1.
         12    1    4    4    0    0 -0.40326053556E+01 -0.67312965748E+01 -0.64640173060E+01  0.10166404441E+02  0.00000000000E+00 0. -1.
</event>
<event>
 8    1  0.1654796E-013  0.9118800E+02  0.7816164E-02  0.1184000E+00
        -11   -1    0    0    0    0  0.00000000000E+00  0.00000000000E+00  0.45593999997E+02  0.45594000000E+02  0.51100000000E-03 0. -1.
         11   -1    0    0    0    0 -0.00000000000E+00 -0.00000000000E+00 -0.45593999997E+02  0.45594000000E+02  0.51100000000E-03 0.  1.
         23    2    1    2    0    0  0.35527136788E-14  0.88817841970E-15  0.00000000000E+00  0.91188000000E+02  0.91188000000E+02 0.  0.
    9900012    2    3    3    0    0  0.18114128962E+02  0.48923151592E+01 -0.36070901923E+02  0.50528851199E+02  0.29999973705E+02 0.  0.
         12    1    3    3    0    0 -0.18114128962E+02 -0.48923151592E+01  0.36070901923E+02  0.40659148801E+02  0.00000000000E+00 0. -1.
         11    1    4    4    0    0  0.15384862479E+02  0.16828630460E+01 -0.21004920694E+02  0.26090855010E+02  0.51100000000E-03 0. -1.
        -11    1    4    4    0    0  0.60761451165E+01  0.39302545319E+01 -0.18330644279E+02  0.19707332648E+02  0.51100000000E-03 0.  1.
         12    1    4    4    0    0 -0.33468786327E+01 -0.72080241869E+00  0.32646630503E+01  0.47306635413E+01  0.00000000000E+00 0. -1.
</event>
<event>
 8    1  0.1338956E-013  0.9118800E+02  0.7816164E-02  0.1184000E+00
        -11   -1    0    0    0    0  0.00000000000E+00  0.00000000000E+00  0.45593999997E+02  0.45594000000E+02  0.51100000000E-03 0. -1.
         11   -1    0    0    0    0 -0.00000000000E+00 -0.00000000000E+00 -0.45593999997E+02  0.45594000000E+02  0.51100000000E-03 0.  1.
         23    2    1    2    0    0  0.88817841970E-15  0.00000000000E+00  0.35527136788E-14  0.91188000000E+02  0.91188000000E+02 0.  0.
    9900012    2    3    3    0    0  0.66727315239E+01  0.29525106808E+02  0.27146097164E+02  0.50528832900E+02  0.29999918082E+02 0.  0.
        -12    1    3    3    0    0 -0.66727315239E+01 -0.29525106808E+02 -0.27146097164E+02  0.40659167100E+02  0.00000000000E+00 0.  1.
         11    1    4    4    0    0  0.11096668836E+02  0.63593713395E+01  0.21760752141E+02  0.25240998338E+02  0.51100000000E-03 0. -1.
        -11    1    4    4    0    0  0.16303913488E+01  0.52120324267E+01  0.28856747826E+01  0.61766153498E+01  0.51100000000E-03 0.  1.
        -12    1    4    4    0    0 -0.60543286605E+01  0.17953703042E+02  0.24996702404E+01  0.19111219212E+02  0.00000000000E+00 0.  1.
</event>
<event>
 8    1  0.1338956E-013  0.9118800E+02  0.7816164E-02  0.1184000E+00
        -11   -1    0    0    0    0  0.00000000000E+00  0.00000000000E+00  0.45593999997E+02  0.45594000000E+02  0.51100000000E-03 0. -1.
         11   -1    0    0    0    0 -0.00000000000E+00 -0.00000000000E+00 -0.45593999997E+02  0.45594000000E+02  0.51100000000E-03 0.  1.
         23    2    1    2    0    0  0.00000000000E+00  0.88817841970E-15  0.00000000000E+00  0.91188000000E+02  0.91188000000E+02 0.  0.
    9900012    2    3    3    0    0 -0.19162204298E+02  0.40707980252E+01  0.35628708036E+02  0.50528852118E+02  0.29999976498E+02 0.  0.
        -12    1    3    3    0    0  0.19162204298E+02 -0.40707980252E+01 -0.35628708036E+02  0.40659147882E+02  0.00000000000E+00 0.  1.
         11    1    4    4    0    0  0.29944365874E+01  0.62530902810E+00  0.68183576207E+01  0.74731293821E+01  0.51100000000E-03 0. -1.
        -11    1    4    4    0    0  0.13261675821E+01  0.79691836483E+01  0.70244681521E+01  0.10705594872E+02  0.51100000000E-03 0.  1.
         12    1    4    4    0    0 -0.23482808468E+02 -0.45236946512E+01  0.21785882264E+02  0.32350127864E+02  0.00000000000E+00 0. -1.
</event>
<event>
 8    1  0.1338956E-013  0.9118800E+02  0.7816164E-02  0.1184000E+00
        -11   -1    0    0    0    0  0.00000000000E+00  0.00000000000E+00  0.45593999997E+02  0.45594000000E+02  0.51100000000E-03 0. -1.
         11   -1    0    0    0    0 -0.00000000000E+00 -0.00000000000E+00 -0.45593999997E+02  0.45594000000E+02  0.51100000000E-03 0.  1.
         23    2    1    2    0    0  0.00000000000E+00 -0.14210854715E-13 -0.17763568394E-14  0.91188000000E+02  0.91188000000E+02 0.  0.
    9900012    2    3    3    0    0 -0.80357695336E+01  0.37378205174E+02  0.13836964602E+02  0.50528863223E+02  0.30000010254E+02 0.  0.
        -12    1    3    3    0    0  0.80357695336E+01 -0.37378205174E+02 -0.13836964602E+02  0.40659136777E+02  0.00000000000E+00 0.  1.
         11    1    4    4    0    0 -0.16785857920E-01  0.27031496970E+01  0.20414264384E+00  0.27108992105E+01  0.51100000000E-03 0. -1.
        -11    1    4    4    0    0  0.35619294186E+01  0.31093023172E+02  0.25618578970E+01  0.31401059653E+02  0.51100000000E-03 0.  1.
         12    1    4    4    0    0 -0.11580913094E+02  0.35820323047E+01  0.11070964061E+02  0.16416904360E+02  0.00000000000E+00 0. -1.
</event>
<event>
 8    1  0.1338956E-013  0.9118800E+02  0.7816164E-02  0.1184000E+00
        -11   -1    0    0    0    0  0.00000000000E+00  0.00000000000E+00  0.45593999997E+02  0.45594000000E+02  0.51100000000E-03 0. -1.
         11   -1    0    0    0    0 -0.00000000000E+00 -0.00000000000E+00 -0.45593999997E+02  0.45594000000E+02  0.51100000000E-03 0.  1.
         23    2    1    2    0    0  0.00000000000E+00  0.00000000000E+00  0.00000000000E+00  0.91188000000E+02  0.91188000000E+02 0.  0.
    9900012    2    3    3    0    0 -0.13514438994E+02 -0.32530826391E+02 -0.20304501016E+02  0.50528837582E+02  0.29999932314E+02 0.  0.
         12    1    3    3    0    0  0.13514438994E+02  0.32530826391E+02  0.20304501016E+02  0.40659162418E+02  0.00000000000E+00 0. -1.
         11    1    4    4    0    0  0.58022048526E+01 -0.15814077162E-01 -0.28655845172E+01  0.64712754633E+01  0.51100000000E-03 0. -1.
        -11    1    4    4    0    0 -0.92646340039E+01 -0.79558832972E+01 -0.11690279108E+02  0.16905388139E+02  0.51100000000E-03 0.  1.
         12    1    4    4    0    0 -0.10052009843E+02 -0.24559129017E+02 -0.57486373913E+01  0.27152173979E+02  0.00000000000E+00 0. -1.
</event>
<event>
 8    1  0.1338956E-013  0.9118800E+02  0.7816164E-02  0.1184000E+00
        -11   -1    0    0    0    0  0.00000000000E+00  0.00000000000E+00  0.45593999997E+02  0.45594000000E+02  0.51100000000E-03 0. -1.
         11   -1    0    0    0    0 -0.00000000000E+00 -0.00000000000E+00 -0.45593999997E+02  0.45594000000E+02  0.51100000000E-03 0.  1.
         23    2    1    2    0    0 -0.35527136788E-14  0.00000000000E+00  0.12767564783E-14  0.91188000000E+02  0.91188000000E+02 0.  0.
    9900012    2    3    3    0    0 -0.31326361859E+02  0.25914838497E+02  0.49558287590E+00  0.50528863216E+02  0.30000010231E+02 0.  0.
        -12    1    3    3    0    0  0.31326361859E+02 -0.25914838497E+02 -0.49558287590E+00  0.40659136784E+02  0.00000000000E+00 0.  1.
         11    1    4    4    0    0 -0.54802260064E+01  0.96354164215E+00 -0.86483126713E+00  0.56310942950E+01  0.51100000000E-03 0. -1.
        -11    1    4    4    0    0 -0.86761123881E+01  0.28307482254E+01 -0.10996484348E+02  0.14290231977E+02  0.51100000000E-03 0.  1.
         12    1    4    4    0    0 -0.17170023464E+02  0.22120548630E+02  0.12356898491E+02  0.30607536944E+02  0.00000000000E+00 0. -1.
</event>
<event>
 8    1  0.1338956E-013  0.9118800E+02  0.7816164E-02  0.1184000E+00
        -11   -1    0    0    0    0  0.00000000000E+00  0.00000000000E+00  0.45593999997E+02  0.45594000000E+02  0.51100000000E-03 0. -1.
         11   -1    0    0    0    0 -0.00000000000E+00 -0.00000000000E+00 -0.45593999997E+02  0.45594000000E+02  0.51100000000E-03 0.  1.
         23    2    1    2    0    0  0.00000000000E+00  0.00000000000E+00  0.00000000000E+00  0.91188000000E+02  0.91188000000E+02 0.  0.
    9900012    2    3    3    0    0  0.18171491476E+02  0.34925329111E+02  0.10157967588E+02  0.50528855623E+02  0.29999987151E+02 0.  0.
        -12    1    3    3    0    0 -0.18171491476E+02 -0.34925329111E+02 -0.10157967588E+02  0.40659144377E+02  0.00000000000E+00 0.  1.
         11    1    4    4    0    0 -0.24355967544E+01  0.14347440951E+02  0.70147974545E+01  0.16155140884E+02  0.51100000000E-03 0. -1.
        -11    1    4    4    0    0 -0.32090129850E+01  0.12881844206E+01  0.12148821693E+01  0.36651224244E+01  0.51100000000E-03 0.  1.
         12    1    4    4    0    0  0.23816101215E+02  0.19289703739E+02  0.19282879644E+01  0.30708592314E+02  0.00000000000E+00 0. -1.
</event>
<event>
 8    1  0.1338956E-013  0.9118800E+02  0.7816164E-02  0.1184000E+00
        -11   -1    0    0    0    0  0.00000000000E+00  0.00000000000E+00  0.45593999997E+02  0.45594000000E+02  0.51100000000E-03 0. -1.
         11   -1    0    0    0    0 -0.00000000000E+00 -0.00000000000E+00 -0.45593999997E+02  0.45594000000E+02  0.51100000000E-03 0.  1.
         23    2    1    2    0    0  0.17763568394E-14 -0.71054273576E-14 -0.35527136788E-14  0.91188000000E+02  0.91188000000E+02 0.  0.
    9900012    2    3    3    0    0  0.56684571926E+01  0.33899384732E+02  0.21722398087E+02  0.50528901746E+02  0.30000127348E+02 0.  0.
        -12    1    3    3    0    0 -0.56684571926E+01 -0.33899384732E+02 -0.21722398087E+02  0.40659098254E+02  0.00000000000E+00 0.  1.
         11    1    4    4    0    0  0.25267072931E+01  0.15761971637E+02  0.93226484586E+01  0.18486096780E+02  0.51100000000E-03 0. -1.
        -11    1    4    4    0    0  0.12063393685E+02  0.16546431934E+02  0.89141762988E+01  0.22333213300E+02  0.51100000000E-03 0.  1.
        -12    1    4    4    0    0 -0.89216437858E+01  0.15909811615E+01  0.34855733295E+01  0.97095916666E+01  0.00000000000E+00 0.  1.
</event>
<event>
 8    1  0.1338956E-013  0.9118800E+02  0.7816164E-02  0.1184000E+00
        -11   -1    0    0    0    0  0.00000000000E+00  0.00000000000E+00  0.45593999997E+02  0.45594000000E+02  0.51100000000E-03 0. -1.
         11   -1    0    0    0    0 -0.00000000000E+00 -0.00000000000E+00 -0.45593999997E+02  0.45594000000E+02  0.51100000000E-03 0.  1.
         23    2    1    2    0    0 -0.35527136788E-14  0.00000000000E+00  0.00000000000E+00  0.91188000000E+02  0.91188000000E+02 0.  0.
    9900012    2    3    3    0    0  0.16120641661E+02  0.14019805115E+02 -0.34593868003E+02  0.50528859251E+02  0.29999998179E+02 0.  0.
         12    1    3    3    0    0 -0.16120641661E+02 -0.14019805115E+02  0.34593868003E+02  0.40659140749E+02  0.00000000000E+00 0. -1.
         11    1    4    4    0    0  0.51282860285E+01  0.28260476792E+01  0.13910255733E+01  0.60183731591E+01  0.51100000000E-03 0. -1.
        -11    1    4    4    0    0  0.47487044768E+01  0.11809557250E+02 -0.63609456348E+01  0.14229457695E+02  0.51100000000E-03 0.  1.
        -12    1    4    4    0    0  0.62436511560E+01 -0.61579981394E+00 -0.29623947941E+02  0.30281028397E+02  0.00000000000E+00 0.  1.
</event>
<event>
 8    1  0.1338956E-013  0.9118800E+02  0.7816164E-02  0.1184000E+00
        -11   -1    0    0    0    0  0.00000000000E+00  0.00000000000E+00  0.45593999997E+02  0.45594000000E+02  0.51100000000E-03 0. -1.
         11   -1    0    0    0    0 -0.00000000000E+00 -0.00000000000E+00 -0.45593999997E+02  0.45594000000E+02  0.51100000000E-03 0.  1.
         23    2    1    2    0    0 -0.35527136788E-14  0.17763568394E-14 -0.71054273576E-14  0.91188000000E+02  0.91188000000E+02 0.  0.
    9900012    2    3    3    0    0 -0.25006507093E+02  0.15741568854E+02 -0.27929289454E+02  0.50528836255E+02  0.29999928282E+02 0.  0.
         12    1    3    3    0    0  0.25006507093E+02 -0.15741568854E+02  0.27929289454E+02  0.40659163745E+02  0.00000000000E+00 0. -1.
         11    1    4    4    0    0  0.74217179096E+00  0.55057705973E+01 -0.92624172257E+01  0.10800773211E+02  0.51100000000E-03 0. -1.
        -11    1    4    4    0    0 -0.38399061031E+00 -0.10453918811E+01 -0.10824035944E+02  0.10881178583E+02  0.51100000000E-03 0.  1.
        -12    1    4    4    0    0 -0.25364688274E+02  0.11281190138E+02 -0.78428362849E+01  0.28846884462E+02  0.00000000000E+00 0.  1.
</event>
<event>
 8    1  0.1338956E-013  0.9118800E+02  0.7816164E-02  0.1184000E+00
        -11   -1    0    0    0    0  0.00000000000E+00  0.00000000000E+00  0.45593999997E+02  0.45594000000E+02  0.51100000000E-03 0.  1.
         11   -1    0    0    0    0 -0.00000000000E+00 -0.00000000000E+00 -0.45593999997E+02  0.45594000000E+02  0.51100000000E-03 0. -1.
         23    2    1    2    0    0 -0.35527136788E-14  0.00000000000E+00  0.35527136788E-14  0.91188000000E+02  0.91188000000E+02 0.  0.
    9900012    2    3    3    0    0 -0.17163511504E+02 -0.33113430051E+02  0.16188864592E+02  0.50528871705E+02  0.30000036036E+02 0.  0.
        -12    1    3    3    0    0  0.17163511504E+02  0.33113430051E+02 -0.16188864592E+02  0.40659128295E+02  0.00000000000E+00 0.  1.
         11    1    4    4    0    0 -0.96387698276E+01 -0.19760784212E+02  0.45357837449E+01  0.22449227401E+02  0.51100000000E-03 0. -1.
        -11    1    4    4    0    0 -0.30959948691E+01  0.53131618329E+01  0.13188272636E+01  0.62892112784E+01  0.51100000000E-03 0.  1.
         12    1    4    4    0    0 -0.44287468077E+01 -0.18665807672E+02  0.10334253584E+02  0.21790433026E+02  0.00000000000E+00 0. -1.
</event>
<event>
 8    1  0.1338956E-013  0.9118800E+02  0.7816164E-02  0.1184000E+00
        -11   -1    0    0    0    0  0.00000000000E+00  0.00000000000E+00  0.45593999997E+02  0.45594000000E+02  0.51100000000E-03 0. -1.
         11   -1    0    0    0    0 -0.00000000000E+00 -0.00000000000E+00 -0.45593999997E+02  0.45594000000E+02  0.51100000000E-03 0.  1.
         23    2    1    2    0    0 -0.88817841970E-15  0.00000000000E+00  0.00000000000E+00  0.91188000000E+02  0.91188000000E+02 0.  0.
    9900012    2    3    3    0    0  0.77252084876E+01 -0.19380195377E+02 -0.34898332923E+02  0.50528874827E+02  0.30000045523E+02 0.  0.
         12    1    3    3    0    0 -0.77252084876E+01  0.19380195377E+02  0.34898332923E+02  0.40659125173E+02  0.00000000000E+00 0. -1.
         11    1    4    4    0    0 -0.44316738137E+00 -0.72780942738E+00 -0.23668414253E+02  0.23683748382E+02  0.51100000000E-03 0.  1.
        -11    1    4    4    0    0 -0.10258476296E+01 -0.31155454636E+01 -0.78096854562E+01  0.84705474487E+01  0.51100000000E-03 0. -1.
         12    1    4    4    0    0  0.91942234986E+01 -0.15536840486E+02 -0.34202332137E+01  0.18374578996E+02  0.00000000000E+00 0. -1.
</event>
<event>
 8    1  0.1338956E-013  0.9118800E+02  0.7816164E-02  0.1184000E+00
        -11   -1    0    0    0    0  0.00000000000E+00  0.00000000000E+00  0.45593999997E+02  0.45594000000E+02  0.51100000000E-03 0. -1.
         11   -1    0    0    0    0 -0.00000000000E+00 -0.00000000000E+00 -0.45593999997E+02  0.45594000000E+02  0.51100000000E-03 0.  1.
         23    2    1    2    0    0  0.00000000000E+00 -0.88817841970E-15 -0.35527136788E-14  0.91188000000E+02  0.91188000000E+02 0.  0.
    9900012    2    3    3    0    0 -0.26953410388E+02 -0.19510230618E+01  0.30378836752E+02  0.50528849185E+02  0.29999967583E+02 0.  0.
        -12    1    3    3    0    0  0.26953410388E+02  0.19510230618E+01 -0.30378836752E+02  0.40659150815E+02  0.00000000000E+00 0.  1.
         11    1    4    4    0    0 -0.14246834617E+02  0.49518033967E+01  0.92673958332E+01  0.17702465344E+02  0.51100000000E-03 0. -1.
        -11    1    4    4    0    0 -0.19476031698E+01  0.71337122559E+01  0.72503629967E+01  0.10356194885E+02  0.51100000000E-03 0.  1.
         12    1    4    4    0    0 -0.10758972602E+02 -0.14036538714E+02  0.13861077922E+02  0.22470188956E+02  0.00000000000E+00 0. -1.
</event>
<event>
 8    1  0.1338956E-013  0.9118800E+02  0.7816164E-02  0.1184000E+00
        -11   -1    0    0    0    0  0.00000000000E+00  0.00000000000E+00  0.45593999997E+02  0.45594000000E+02  0.51100000000E-03 0. -1.
         11   -1    0    0    0    0 -0.00000000000E+00 -0.00000000000E+00 -0.45593999997E+02  0.45594000000E+02  0.51100000000E-03 0.  1.
         23    2    1    2    0    0 -0.88817841970E-15 -0.71054273576E-14  0.00000000000E+00  0.91188000000E+02  0.91188000000E+02 0.  0.
    9900012    2    3    3    0    0 -0.59975803563E+01 -0.39155547818E+02  0.91672447145E+01  0.50528852558E+02  0.29999977836E+02 0.  0.
        -12    1    3    3    0    0  0.59975803563E+01  0.39155547818E+02 -0.91672447145E+01  0.40659147442E+02  0.00000000000E+00 0.  1.
         11    1    4    4    0    0 -0.17400237480E+01  0.24544996669E+01  0.37899458431E+01  0.48390020679E+01  0.51100000000E-03 0. -1.
        -11    1    4    4    0    0 -0.10564466440E+02 -0.23792158522E+02 -0.23537906699E-01  0.26032197613E+02  0.51100000000E-03 0.  1.
         12    1    4    4    0    0  0.63069098315E+01 -0.17817888963E+02  0.54008367781E+01  0.19657652877E+02  0.00000000000E+00 0. -1.
</event>
<event>
 8    1  0.1338956E-013  0.9118800E+02  0.7816164E-02  0.1184000E+00
        -11   -1    0    0    0    0  0.00000000000E+00  0.00000000000E+00  0.45593999997E+02  0.45594000000E+02  0.51100000000E-03 0. -1.
         11   -1    0    0    0    0 -0.00000000000E+00 -0.00000000000E+00 -0.45593999997E+02  0.45594000000E+02  0.51100000000E-03 0.  1.
         23    2    1    2    0    0  0.17763568394E-14  0.00000000000E+00  0.00000000000E+00  0.91188000000E+02  0.91188000000E+02 0.  0.
    9900012    2    3    3    0    0 -0.13953694743E+02 -0.15839530412E+02  0.34750095310E+02  0.50528862716E+02  0.30000008710E+02 0.  0.
        -12    1    3    3    0    0  0.13953694743E+02  0.15839530412E+02 -0.34750095310E+02  0.40659137284E+02  0.00000000000E+00 0.  1.
         11    1    4    4    0    0 -0.12432994421E+01 -0.29155060557E+01 -0.99066014096E+00  0.33207494394E+01  0.51100000000E-03 0. -1.
        -11    1    4    4    0    0  0.73331114132E+01 -0.63402582872E+01  0.10019400247E+02  0.13941369363E+02  0.51100000000E-03 0.  1.
         12    1    4    4    0    0 -0.20043506714E+02 -0.65837660692E+01  0.25721355204E+02  0.33266743913E+02  0.00000000000E+00 0. -1.
</event>
<event>
 8    1  0.1338956E-013  0.9118800E+02  0.7816164E-02  0.1184000E+00
        -11   -1    0    0    0    0  0.00000000000E+00  0.00000000000E+00  0.45593999997E+02  0.45594000000E+02  0.51100000000E-03 0. -1.
         11   -1    0    0    0    0 -0.00000000000E+00 -0.00000000000E+00 -0.45593999997E+02  0.45594000000E+02  0.51100000000E-03 0.  1.
         23    2    1    2    0    0  0.00000000000E+00  0.00000000000E+00  0.00000000000E+00  0.91188000000E+02  0.91188000000E+02 0.  0.
    9900012    2    3    3    0    0  0.37382791023E+02  0.43373556949E+01 -0.15390953977E+02  0.50528841334E+02  0.29999943719E+02 0.  0.
         12    1    3    3    0    0 -0.37382791023E+02 -0.43373556949E+01  0.15390953977E+02  0.40659158666E+02  0.00000000000E+00 0. -1.
         11    1    4    4    0    0  0.10832980110E+01  0.44689764739E+01 -0.61298871012E+01  0.76629499176E+01  0.51100000000E-03 0. -1.
        -11    1    4    4    0    0  0.57515023282E+01  0.69045300999E+01  0.25910443881E+01  0.93523166229E+01  0.51100000000E-03 0.  1.
        -12    1    4    4    0    0  0.30547990684E+02 -0.70361508790E+01 -0.11852111264E+02  0.33513574793E+02  0.00000000000E+00 0.  1.
</event>
<event>
 8    1  0.1338956E-013  0.9118800E+02  0.7816164E-02  0.1184000E+00
        -11   -1    0    0    0    0  0.00000000000E+00  0.00000000000E+00  0.45593999997E+02  0.45594000000E+02  0.51100000000E-03 0. -1.
         11   -1    0    0    0    0 -0.00000000000E+00 -0.00000000000E+00 -0.45593999997E+02  0.45594000000E+02  0.51100000000E-03 0.  1.
         23    2    1    2    0    0 -0.35527136788E-14  0.17763568394E-14  0.00000000000E+00  0.91188000000E+02  0.91188000000E+02 0.  0.
    9900012    2    3    3    0    0  0.15298271995E+02 -0.13280584898E+02 -0.35252706229E+02  0.50528876083E+02  0.30000049341E+02 0.  0.
         12    1    3    3    0    0 -0.15298271995E+02  0.13280584898E+02  0.35252706229E+02  0.40659123917E+02  0.00000000000E+00 0. -1.
         11    1    4    4    0    0  0.83723090020E+01 -0.76364723959E+01 -0.78499427654E+01  0.13785241034E+02  0.51100000000E-03 0. -1.
        -11    1    4    4    0    0  0.14829665626E+02 -0.49581294738E+01 -0.13146978689E+02  0.20429025414E+02  0.51100000000E-03 0.  1.
        -12    1    4    4    0    0 -0.79037026324E+01 -0.68598302808E+00 -0.14255784774E+02  0.16314609635E+02  0.00000000000E+00 0.  1.
</event>
<event>
 8    1  0.1338956E-013  0.9118800E+02  0.7816164E-02  0.1184000E+00
        -11   -1    0    0    0    0  0.00000000000E+00  0.00000000000E+00  0.45593999997E+02  0.45594000000E+02  0.51100000000E-03 0. -1.
         11   -1    0    0    0    0 -0.00000000000E+00 -0.00000000000E+00 -0.45593999997E+02  0.45594000000E+02  0.51100000000E-03 0.  1.
         23    2    1    2    0    0  0.26645352591E-14  0.00000000000E+00 -0.88817841970E-15  0.91188000000E+02  0.91188000000E+02 0.  0.
    9900012    2    3    3    0    0  0.72815131593E+01  0.39457325665E+02  0.65775750499E+01  0.50528862330E+02  0.30000007538E+02 0.  0.
        -12    1    3    3    0    0 -0.72815131593E+01 -0.39457325665E+02 -0.65775750499E+01  0.40659137670E+02  0.00000000000E+00 0.  1.
         11    1    4    4    0    0  0.27944380185E+01  0.95286833133E+00  0.65011101931E+00  0.30231583641E+01  0.51100000000E-03 0. -1.
        -11    1    4    4    0    0  0.14809838040E+02  0.13810158852E+02  0.42304123156E+01  0.20686908394E+02  0.51100000000E-03 0.  1.
        -12    1    4    4    0    0 -0.10322762899E+02  0.24694298482E+02  0.16970517149E+01  0.26818795572E+02  0.00000000000E+00 0.  1.
</event>
<event>
 8    1  0.1338956E-013  0.9118800E+02  0.7816164E-02  0.1184000E+00
        -11   -1    0    0    0    0  0.00000000000E+00  0.00000000000E+00  0.45593999997E+02  0.45594000000E+02  0.51100000000E-03 0. -1.
         11   -1    0    0    0    0 -0.00000000000E+00 -0.00000000000E+00 -0.45593999997E+02  0.45594000000E+02  0.51100000000E-03 0.  1.
         23    2    1    2    0    0  0.00000000000E+00  0.11102230246E-15  0.00000000000E+00  0.91188000000E+02  0.91188000000E+02 0.  0.
    9900012    2    3    3    0    0  0.19784991227E+02 -0.69954594027E+00 -0.35513809518E+02  0.50528857008E+02  0.29999991362E+02 0.  0.
         12    1    3    3    0    0 -0.19784991227E+02  0.69954594027E+00  0.35513809518E+02  0.40659142992E+02  0.00000000000E+00 0. -1.
         11    1    4    4    0    0  0.45863324550E+01  0.40552952105E+01  0.21254627302E+01  0.64805444764E+01  0.51100000000E-03 0. -1.
        -11    1    4    4    0    0  0.61654361642E+00  0.17978737936E+01  0.10605038567E+01  0.21764983115E+01  0.51100000000E-03 0.  1.
        -12    1    4    4    0    0  0.14582115156E+02 -0.65527149443E+01 -0.38699776104E+02  0.41871814220E+02  0.00000000000E+00 0.  1.
</event>
<event>
 8    1  0.1338956E-013  0.9118800E+02  0.7816164E-02  0.1184000E+00
        -11   -1    0    0    0    0  0.00000000000E+00  0.00000000000E+00  0.45593999997E+02  0.45594000000E+02  0.51100000000E-03 0. -1.
         11   -1    0    0    0    0 -0.00000000000E+00 -0.00000000000E+00 -0.45593999997E+02  0.45594000000E+02  0.51100000000E-03 0.  1.
         23    2    1    2    0    0  0.17763568394E-14  0.00000000000E+00  0.00000000000E+00  0.91188000000E+02  0.91188000000E+02 0.  0.
    9900012    2    3    3    0    0 -0.10930046732E+02 -0.22838782480E+02  0.31813353436E+02  0.50528863713E+02  0.30000011741E+02 0.  0.
        -12    1    3    3    0    0  0.10930046732E+02  0.22838782480E+02 -0.31813353436E+02  0.40659136287E+02  0.00000000000E+00 0.  1.
         11    1    4    4    0    0 -0.11337177563E+02 -0.91302845219E+01  0.98210112451E+01  0.17559782251E+02  0.51100000000E-03 0. -1.
        -11    1    4    4    0    0  0.40459544651E+00 -0.11863557031E+02  0.10182990510E+01  0.11914051205E+02  0.51100000000E-03 0.  1.
         12    1    4    4    0    0  0.25353841992E-02 -0.18449409274E+01  0.20974043140E+02  0.21055030257E+02  0.00000000000E+00 0. -1.
</event>
<event>
 8    1  0.1338956E-013  0.9118800E+02  0.7816164E-02  0.1184000E+00
        -11   -1    0    0    0    0  0.00000000000E+00  0.00000000000E+00  0.45593999997E+02  0.45594000000E+02  0.51100000000E-03 0. -1.
         11   -1    0    0    0    0 -0.00000000000E+00 -0.00000000000E+00 -0.45593999997E+02  0.45594000000E+02  0.51100000000E-03 0.  1.
         23    2    1    2    0    0  0.66613381478E-15 -0.17763568394E-14  0.00000000000E+00  0.91188000000E+02  0.91188000000E+02 0.  0.
    9900012    2    3    3    0    0  0.15071093676E+01 -0.14708573490E+02 -0.37875497022E+02  0.50528846204E+02  0.29999958521E+02 0.  0.
         12    1    3    3    0    0 -0.15071093676E+01  0.14708573490E+02  0.37875497022E+02  0.40659153796E+02  0.00000000000E+00 0. -1.
         11    1    4    4    0    0 -0.45818313275E+01 -0.64355802537E+00 -0.94390787393E+01  0.10512067016E+02  0.51100000000E-03 0. -1.
        -11    1    4    4    0    0 -0.86759748931E+01 -0.83355783602E+01 -0.94962669492E+01  0.15327540350E+02  0.51100000000E-03 0.  1.
         12    1    4    4    0    0  0.14764915588E+02 -0.57294371041E+01 -0.18940151334E+02  0.24689238838E+02  0.00000000000E+00 0. -1.
</event>
<event>
 8    1  0.1338956E-013  0.9118800E+02  0.7816164E-02  0.1184000E+00
        -11   -1    0    0    0    0  0.00000000000E+00  0.00000000000E+00  0.45593999997E+02  0.45594000000E+02  0.51100000000E-03 0. -1.
         11   -1    0    0    0    0 -0.00000000000E+00 -0.00000000000E+00 -0.45593999997E+02  0.45594000000E+02  0.51100000000E-03 0.  1.
         23    2    1    2    0    0  0.15543122345E-14  0.00000000000E+00 -0.71054273576E-14  0.91188000000E+02  0.91188000000E+02 0.  0.
    9900012    2    3    3    0    0 -0.10824940555E+01 -0.11757916248E+02  0.38906878145E+02  0.50528861361E+02  0.30000004594E+02 0.  0.
        -12    1    3    3    0    0  0.10824940555E+01  0.11757916248E+02 -0.38906878145E+02  0.40659138639E+02  0.00000000000E+00 0.  1.
         11    1    4    4    0    0  0.26714250008E+00 -0.93631321100E+01  0.11996042401E+02  0.15219876530E+02  0.51100000000E-03 0. -1.
        -11    1    4    4    0    0 -0.11964327768E+02 -0.79674264754E+00  0.16095241952E+02  0.20070793495E+02  0.51100000000E-03 0.  1.
        -12    1    4    4    0    0  0.10614691212E+02 -0.15980414906E+01  0.10815593792E+02  0.15238191337E+02  0.00000000000E+00 0.  1.
</event>
<event>
 8    1  0.1338956E-013  0.9118800E+02  0.7816164E-02  0.1184000E+00
        -11   -1    0    0    0    0  0.00000000000E+00  0.00000000000E+00  0.45593999997E+02  0.45594000000E+02  0.51100000000E-03 0. -1.
         11   -1    0    0    0    0 -0.00000000000E+00 -0.00000000000E+00 -0.45593999997E+02  0.45594000000E+02  0.51100000000E-03 0.  1.
         23    2    1    2    0    0  0.00000000000E+00  0.88817841970E-15  0.00000000000E+00  0.91188000000E+02  0.91188000000E+02 0.  0.
    9900012    2    3    3    0    0  0.33115219929E+02 -0.63078963929E+01  0.22732316662E+02  0.50528861191E+02  0.30000004077E+02 0.  0.
        -12    1    3    3    0    0 -0.33115219929E+02  0.63078963929E+01 -0.22732316662E+02  0.40659138809E+02  0.00000000000E+00 0.  1.
         11    1    4    4    0    0 -0.42915344957E+01  0.15267102425E+01  0.30450265845E+00  0.45651762970E+01  0.51100000000E-03 0.  1.
        -11    1    4    4    0    0  0.30392066143E+01 -0.47041570270E+01  0.34938383525E+01  0.66009678741E+01  0.51100000000E-03 0. -1.
         12    1    4    4    0    0  0.34367547811E+02 -0.31304496083E+01  0.18933975651E+02  0.39362717020E+02  0.00000000000E+00 0. -1.
</event>
<event>
 8    1  0.1338956E-013  0.9118800E+02  0.7816164E-02  0.1184000E+00
        -11   -1    0    0    0    0  0.00000000000E+00  0.00000000000E+00  0.45593999997E+02  0.45594000000E+02  0.51100000000E-03 0. -1.
         11   -1    0    0    0    0 -0.00000000000E+00 -0.00000000000E+00 -0.45593999997E+02  0.45594000000E+02  0.51100000000E-03 0.  1.
         23    2    1    2    0    0  0.00000000000E+00 -0.22204460493E-15  0.00000000000E+00  0.91188000000E+02  0.91188000000E+02 0.  0.
    9900012    2    3    3    0    0 -0.17950453153E+02  0.13783241692E+01  0.36456091576E+02  0.50528866230E+02  0.30000019391E+02 0.  0.
        -12    1    3    3    0    0  0.17950453153E+02 -0.13783241692E+01 -0.36456091576E+02  0.40659133770E+02  0.00000000000E+00 0.  1.
         11    1    4    4    0    0 -0.14653565030E+02  0.24060019207E+01  0.15921862414E+02  0.21772035190E+02  0.51100000000E-03 0. -1.
        -11    1    4    4    0    0 -0.75237014087E+01  0.98990358152E+00 -0.10861241481E+00  0.75893207144E+01  0.51100000000E-03 0.  1.
        -12    1    4    4    0    0  0.42268132849E+01 -0.20175813329E+01  0.20642841577E+02  0.21167510325E+02  0.00000000000E+00 0.  1.
</event>
<event>
 8    1  0.1338956E-013  0.9118800E+02  0.7816164E-02  0.1184000E+00
        -11   -1    0    0    0    0  0.00000000000E+00  0.00000000000E+00  0.45593999997E+02  0.45594000000E+02  0.51100000000E-03 0. -1.
         11   -1    0    0    0    0 -0.00000000000E+00 -0.00000000000E+00 -0.45593999997E+02  0.45594000000E+02  0.51100000000E-03 0.  1.
         23    2    1    2    0    0  0.35527136788E-14 -0.35527136788E-14  0.00000000000E+00  0.91188000000E+02  0.91188000000E+02 0.  0.
    9900012    2    3    3    0    0  0.22287441035E+02 -0.30373042168E+02  0.15294244730E+02  0.50528860311E+02  0.30000001401E+02 0.  0.
        -12    1    3    3    0    0 -0.22287441035E+02  0.30373042168E+02 -0.15294244730E+02  0.40659139689E+02  0.00000000000E+00 0.  1.
         11    1    4    4    0    0  0.74676656609E+00 -0.18138982496E+02  0.68813408552E+01  0.19414767537E+02  0.51100000000E-03 0. -1.
        -11    1    4    4    0    0  0.80395161532E+01 -0.14108852759E+02  0.57436548810E+01  0.17224491801E+02  0.51100000000E-03 0.  1.
        -12    1    4    4    0    0  0.13501158316E+02  0.18747930874E+01  0.26692489933E+01  0.13889600972E+02  0.00000000000E+00 0.  1.
</event>
<event>
 8    1  0.1338956E-013  0.9118800E+02  0.7816164E-02  0.1184000E+00
        -11   -1    0    0    0    0  0.00000000000E+00  0.00000000000E+00  0.45593999997E+02  0.45594000000E+02  0.51100000000E-03 0. -1.
         11   -1    0    0    0    0 -0.00000000000E+00 -0.00000000000E+00 -0.45593999997E+02  0.45594000000E+02  0.51100000000E-03 0.  1.
         23    2    1    2    0    0  0.00000000000E+00  0.44408920985E-15  0.00000000000E+00  0.91188000000E+02  0.91188000000E+02 0.  0.
    9900012    2    3    3    0    0  0.89180352867E+01 -0.30019760712E+01  0.39555306487E+02  0.50528862220E+02  0.30000007204E+02 0.  0.
        -12    1    3    3    0    0 -0.89180352867E+01  0.30019760712E+01 -0.39555306487E+02  0.40659137780E+02  0.00000000000E+00 0.  1.
         11    1    4    4    0    0 -0.11561512164E+01 -0.37653236638E+01  0.39109426907E+01  0.55506595031E+01  0.51100000000E-03 0.  1.
        -11    1    4    4    0    0  0.12744856147E+02  0.65930375288E+01  0.35795134226E+02  0.38564117215E+02  0.51100000000E-03 0. -1.
         12    1    4    4    0    0 -0.26706696437E+01 -0.58296899363E+01 -0.15077042937E+00  0.64140855016E+01  0.00000000000E+00 0. -1.
</event>
<event>
 8    1  0.1338956E-013  0.9118800E+02  0.7816164E-02  0.1184000E+00
        -11   -1    0    0    0    0  0.00000000000E+00  0.00000000000E+00  0.45593999997E+02  0.45594000000E+02  0.51100000000E-03 0. -1.
         11   -1    0    0    0    0 -0.00000000000E+00 -0.00000000000E+00 -0.45593999997E+02  0.45594000000E+02  0.51100000000E-03 0.  1.
         23    2    1    2    0    0  0.00000000000E+00  0.11102230246E-15  0.71054273576E-14  0.91188000000E+02  0.91188000000E+02 0.  0.
    9900012    2    3    3    0    0 -0.51753864866E+01 -0.71182059141E+00 -0.40322149450E+02  0.50528842974E+02  0.29999948703E+02 0.  0.
         12    1    3    3    0    0  0.51753864866E+01  0.71182059141E+00  0.40322149450E+02  0.40659157026E+02  0.00000000000E+00 0. -1.
         11    1    4    4    0    0 -0.44983101351E+01 -0.91050528607E+00  0.85589134035E+00  0.46686576438E+01  0.51100000000E-03 0. -1.
        -11    1    4    4    0    0 -0.34386468459E+01 -0.26902882719E+01  0.12153251511E+00  0.43676897246E+01  0.51100000000E-03 0.  1.
         12    1    4    4    0    0  0.27615704944E+01  0.28889729665E+01 -0.41299573305E+02  0.41492495605E+02  0.00000000000E+00 0. -1.
</event>
<event>
 8    1  0.1338956E-013  0.9118800E+02  0.7816164E-02  0.1184000E+00
        -11   -1    0    0    0    0  0.00000000000E+00  0.00000000000E+00  0.45593999997E+02  0.45594000000E+02  0.51100000000E-03 0. -1.
         11   -1    0    0    0    0 -0.00000000000E+00 -0.00000000000E+00 -0.45593999997E+02  0.45594000000E+02  0.51100000000E-03 0.  1.
         23    2    1    2    0    0 -0.35527136788E-14 -0.35527136788E-14 -0.35527136788E-14  0.91188000000E+02  0.91188000000E+02 0.  0.
    9900012    2    3    3    0    0 -0.19705482974E+02 -0.30571229162E+02 -0.18173061571E+02  0.50528852461E+02  0.29999977541E+02 0.  0.
         12    1    3    3    0    0  0.19705482974E+02  0.30571229162E+02  0.18173061571E+02  0.40659147539E+02  0.00000000000E+00 0. -1.
         11    1    4    4    0    0 -0.11812227128E+02 -0.89555630629E+01 -0.32210418372E+01  0.15169242904E+02  0.51100000000E-03 0. -1.
        -11    1    4    4    0    0 -0.96718292968E+01 -0.17842071860E+02 -0.48243775501E+00  0.20300654094E+02  0.51100000000E-03 0.  1.
         12    1    4    4    0    0  0.17785734511E+01 -0.37735942393E+01 -0.14469581979E+02  0.15058955464E+02  0.00000000000E+00 0. -1.
</event>
<event>
 8    1  0.1338956E-013  0.9118800E+02  0.7816164E-02  0.1184000E+00
        -11   -1    0    0    0    0  0.00000000000E+00  0.00000000000E+00  0.45593999997E+02  0.45594000000E+02  0.51100000000E-03 0. -1.
         11   -1    0    0    0    0 -0.00000000000E+00 -0.00000000000E+00 -0.45593999997E+02  0.45594000000E+02  0.51100000000E-03 0.  1.
         23    2    1    2    0    0 -0.71054273576E-14 -0.17763568394E-14  0.00000000000E+00  0.91188000000E+02  0.91188000000E+02 0.  0.
    9900012    2    3    3    0    0 -0.37082477782E+02  0.15545084876E+02 -0.60337943181E+01  0.50528849786E+02  0.29999969410E+02 0.  0.
         12    1    3    3    0    0  0.37082477782E+02 -0.15545084876E+02  0.60337943181E+01  0.40659150214E+02  0.00000000000E+00 0. -1.
         11    1    4    4    0    0 -0.32329538169E+02  0.60255104052E+01 -0.68686641541E+01  0.33595897985E+02  0.51100000000E-03 0.  1.
        -11    1    4    4    0    0 -0.93376614895E+01  0.70850603683E+01  0.57282718105E+00  0.11735336968E+02  0.51100000000E-03 0. -1.
         12    1    4    4    0    0  0.45847218767E+01  0.24345141021E+01  0.26204265495E+00  0.51976148331E+01  0.00000000000E+00 0. -1.
</event>
<event>
 8    1  0.1338956E-013  0.9118800E+02  0.7816164E-02  0.1184000E+00
        -11   -1    0    0    0    0  0.00000000000E+00  0.00000000000E+00  0.45593999997E+02  0.45594000000E+02  0.51100000000E-03 0. -1.
         11   -1    0    0    0    0 -0.00000000000E+00 -0.00000000000E+00 -0.45593999997E+02  0.45594000000E+02  0.51100000000E-03 0.  1.
         23    2    1    2    0    0  0.00000000000E+00 -0.88817841970E-15 -0.71054273576E-14  0.91188000000E+02  0.91188000000E+02 0.  0.
    9900012    2    3    3    0    0 -0.75850432278E+01 -0.32714101921E+01 -0.39811184533E+02  0.50528863028E+02  0.30000009659E+02 0.  0.
         12    1    3    3    0    0  0.75850432278E+01  0.32714101921E+01  0.39811184533E+02  0.40659136972E+02  0.00000000000E+00 0. -1.
         11    1    4    4    0    0 -0.81915306896E+01 -0.74602647005E+01 -0.13801161071E+02  0.17698270300E+02  0.51100000000E-03 0. -1.
        -11    1    4    4    0    0 -0.25483686530E+01  0.21173285378E+01 -0.28248761584E+02  0.28442394313E+02  0.51100000000E-03 0.  1.
         12    1    4    4    0    0  0.31548561148E+01  0.20715259706E+01  0.22387381223E+01  0.43881984153E+01  0.00000000000E+00 0. -1.
</event>
<event>
 8    1  0.1338956E-013  0.9118800E+02  0.7816164E-02  0.1184000E+00
        -11   -1    0    0    0    0  0.00000000000E+00  0.00000000000E+00  0.45593999997E+02  0.45594000000E+02  0.51100000000E-03 0. -1.
         11   -1    0    0    0    0 -0.00000000000E+00 -0.00000000000E+00 -0.45593999997E+02  0.45594000000E+02  0.51100000000E-03 0.  1.
         23    2    1    2    0    0  0.00000000000E+00  0.00000000000E+00  0.00000000000E+00  0.91188000000E+02  0.91188000000E+02 0.  0.
    9900012    2    3    3    0    0  0.21496669369E+02  0.38992919329E+01 -0.34290735735E+02  0.50528857992E+02  0.29999994353E+02 0.  0.
         12    1    3    3    0    0 -0.21496669369E+02 -0.38992919329E+01  0.34290735735E+02  0.40659142008E+02  0.00000000000E+00 0. -1.
         11    1    4    4    0    0  0.65688087864E+01  0.44729291928E+01 -0.46253598469E+00  0.79605454734E+01  0.51100000000E-03 0. -1.
        -11    1    4    4    0    0  0.71127159438E+01  0.80948470859E+00  0.65033286976E+00  0.71881100919E+01  0.51100000000E-03 0.  1.
         12    1    4    4    0    0  0.78151446388E+01 -0.13831219686E+01 -0.34478532620E+02  0.35380202427E+02  0.00000000000E+00 0. -1.
</event>
<event>
 8    1  0.1338956E-013  0.9118800E+02  0.7816164E-02  0.1184000E+00
        -11   -1    0    0    0    0  0.00000000000E+00  0.00000000000E+00  0.45593999997E+02  0.45594000000E+02  0.51100000000E-03 0. -1.
         11   -1    0    0    0    0 -0.00000000000E+00 -0.00000000000E+00 -0.45593999997E+02  0.45594000000E+02  0.51100000000E-03 0.  1.
         23    2    1    2    0    0  0.35527136788E-14  0.00000000000E+00  0.35527136788E-14  0.91188000000E+02  0.91188000000E+02 0.  0.
    9900012    2    3    3    0    0  0.30623427564E+02 -0.12730277590E+02  0.23522573797E+02  0.50528858822E+02  0.29999996874E+02 0.  0.
        -12    1    3    3    0    0 -0.30623427564E+02  0.12730277590E+02 -0.23522573797E+02  0.40659141178E+02  0.00000000000E+00 0.  1.
         11    1    4    4    0    0  0.11163041261E+02 -0.90166614513E+01  0.14943048911E+02  0.20717345026E+02  0.51100000000E-03 0. -1.
        -11    1    4    4    0    0  0.16328719399E+02 -0.11352041904E+02  0.83048085175E+01  0.21551468103E+02  0.51100000000E-03 0.  1.
        -12    1    4    4    0    0  0.31316669045E+01  0.76384257647E+01  0.27471636818E+00  0.82600456927E+01  0.00000000000E+00 0.  1.
</event>
<event>
 8    1  0.1338956E-013  0.9118800E+02  0.7816164E-02  0.1184000E+00
        -11   -1    0    0    0    0  0.00000000000E+00  0.00000000000E+00  0.45593999997E+02  0.45594000000E+02  0.51100000000E-03 0. -1.
         11   -1    0    0    0    0 -0.00000000000E+00 -0.00000000000E+00 -0.45593999997E+02  0.45594000000E+02  0.51100000000E-03 0.  1.
         23    2    1    2    0    0  0.44408920985E-15 -0.35527136788E-14 -0.71054273576E-14  0.91188000000E+02  0.91188000000E+02 0.  0.
    9900012    2    3    3    0    0  0.19260337250E+01 -0.93222184329E+01 -0.39529150446E+02  0.50528842392E+02  0.29999946936E+02 0.  0.
         12    1    3    3    0    0 -0.19260337250E+01  0.93222184329E+01  0.39529150446E+02  0.40659157608E+02  0.00000000000E+00 0. -1.
         11    1    4    4    0    0  0.21522560460E+01 -0.11076625807E+02 -0.26737193168E+02  0.29020705438E+02  0.51100000000E-03 0.  1.
        -11    1    4    4    0    0  0.45331171534E+01 -0.59465259668E+01 -0.89796854895E+01  0.11685250273E+02  0.51100000000E-03 0. -1.
         12    1    4    4    0    0 -0.47593394745E+01  0.77009333411E+01 -0.38122717879E+01  0.98228866807E+01  0.00000000000E+00 0. -1.
</event>
<event>
 8    1  0.1338956E-013  0.9118800E+02  0.7816164E-02  0.1184000E+00
        -11   -1    0    0    0    0  0.00000000000E+00  0.00000000000E+00  0.45593999997E+02  0.45594000000E+02  0.51100000000E-03 0. -1.
         11   -1    0    0    0    0 -0.00000000000E+00 -0.00000000000E+00 -0.45593999997E+02  0.45594000000E+02  0.51100000000E-03 0.  1.
         23    2    1    2    0    0  0.00000000000E+00  0.00000000000E+00 -0.35527136788E-14  0.91188000000E+02  0.91188000000E+02 0.  0.
    9900012    2    3    3    0    0 -0.18433614781E+02  0.30046178039E+02 -0.20263114434E+02  0.50528870948E+02  0.30000033734E+02 0.  0.
         12    1    3    3    0    0  0.18433614781E+02 -0.30046178039E+02  0.20263114434E+02  0.40659129052E+02  0.00000000000E+00 0. -1.
         11    1    4    4    0    0 -0.10192346911E+02  0.10748421777E+01 -0.15680971911E+02  0.18733181834E+02  0.51100000000E-03 0. -1.
        -11    1    4    4    0    0  0.18426962902E+01  0.69049222750E+01 -0.18416696981E+01  0.73800561501E+01  0.51100000000E-03 0.  1.
        -12    1    4    4    0    0 -0.10083964160E+02  0.22066413587E+02 -0.27404728248E+01  0.24415632965E+02  0.00000000000E+00 0.  1.
</event>
<event>
 8    1  0.1338956E-013  0.9118800E+02  0.7816164E-02  0.1184000E+00
        -11   -1    0    0    0    0  0.00000000000E+00  0.00000000000E+00  0.45593999997E+02  0.45594000000E+02  0.51100000000E-03 0. -1.
         11   -1    0    0    0    0 -0.00000000000E+00 -0.00000000000E+00 -0.45593999997E+02  0.45594000000E+02  0.51100000000E-03 0.  1.
         23    2    1    2    0    0 -0.35527136788E-14  0.00000000000E+00 -0.71054273576E-14  0.91188000000E+02  0.91188000000E+02 0.  0.
    9900012    2    3    3    0    0  0.21061524305E+02 -0.23032084545E+02  0.26059698156E+02  0.50528774816E+02  0.29999741531E+02 0.  0.
        -12    1    3    3    0    0 -0.21061524305E+02  0.23032084545E+02 -0.26059698156E+02  0.40659225184E+02  0.00000000000E+00 0.  1.
         11    1    4    4    0    0  0.25566765546E+01 -0.75461037606E+00  0.91968593684E+01  0.95753983901E+01  0.51100000000E-03 0. -1.
        -11    1    4    4    0    0  0.31394569627E+01  0.20213109804E+01  0.10994438736E+02  0.11611183036E+02  0.51100000000E-03 0.  1.
         12    1    4    4    0    0  0.15365390788E+02 -0.24298785150E+02  0.58684000508E+01  0.29342193391E+02  0.00000000000E+00 0. -1.
</event>
<event>
 8    1  0.1338956E-013  0.9118800E+02  0.7816164E-02  0.1184000E+00
        -11   -1    0    0    0    0  0.00000000000E+00  0.00000000000E+00  0.45593999997E+02  0.45594000000E+02  0.51100000000E-03 0. -1.
         11   -1    0    0    0    0 -0.00000000000E+00 -0.00000000000E+00 -0.45593999997E+02  0.45594000000E+02  0.51100000000E-03 0.  1.
         23    2    1    2    0    0  0.71054273576E-14  0.17763568394E-14  0.71054273576E-14  0.91188000000E+02  0.91188000000E+02 0.  0.
    9900012    2    3    3    0    0  0.23931357069E+02  0.11869930920E+02  0.30652243748E+02  0.50528866242E+02  0.30000019428E+02 0.  0.
        -12    1    3    3    0    0 -0.23931357069E+02 -0.11869930920E+02 -0.30652243748E+02  0.40659133758E+02  0.00000000000E+00 0.  1.
         11    1    4    4    0    0  0.11329545366E+02  0.11034686853E+02  0.70480376076E+01  0.17314668536E+02  0.51100000000E-03 0. -1.
        -11    1    4    4    0    0 -0.40711822884E+01 -0.34456560792E+01  0.22575642604E+01  0.57916895369E+01  0.51100000000E-03 0.  1.
         12    1    4    4    0    0  0.16672993992E+02  0.42809001464E+01  0.21346641880E+02  0.27422508169E+02  0.00000000000E+00 0. -1.
</event>
<event>
 8    1  0.1395380E-013  0.9118800E+02  0.7816164E-02  0.1184000E+00
        -11   -1    0    0    0    0  0.00000000000E+00  0.00000000000E+00  0.45593999997E+02  0.45594000000E+02  0.51100000000E-03 0. -1.
         11   -1    0    0    0    0 -0.00000000000E+00 -0.00000000000E+00 -0.45593999997E+02  0.45594000000E+02  0.51100000000E-03 0.  1.
         23    2    1    2    0    0  0.00000000000E+00  0.35527136788E-14 -0.35527136788E-14  0.91188000000E+02  0.91188000000E+02 0.  0.
    9900012    2    3    3    0    0  0.20872533902E+02 -0.24822180050E+02 -0.24522695823E+02  0.50528857064E+02  0.29999991530E+02 0.  0.
         12    1    3    3    0    0 -0.20872533902E+02  0.24822180050E+02  0.24522695823E+02  0.40659142936E+02  0.00000000000E+00 0. -1.
         11    1    4    4    0    0  0.92412481842E+01 -0.92193672709E+01 -0.20292901406E+02  0.24128805370E+02  0.51100000000E-03 0. -1.
        -11    1    4    4    0    0  0.43804148215E+01 -0.89984954763E+01 -0.10699508260E+02  0.14650612005E+02  0.51100000000E-03 0.  1.
         12    1    4    4    0    0  0.72508708959E+01 -0.66043173027E+01  0.64697138429E+01  0.11749439688E+02  0.00000000000E+00 0. -1.
</event>
<event>
 8    1  0.1338956E-013  0.9118800E+02  0.7816164E-02  0.1184000E+00
        -11   -1    0    0    0    0  0.00000000000E+00  0.00000000000E+00  0.45593999997E+02  0.45594000000E+02  0.51100000000E-03 0. -1.
         11   -1    0    0    0    0 -0.00000000000E+00 -0.00000000000E+00 -0.45593999997E+02  0.45594000000E+02  0.51100000000E-03 0.  1.
         23    2    1    2    0    0  0.17763568394E-14  0.77715611724E-15  0.00000000000E+00  0.91188000000E+02  0.91188000000E+02 0.  0.
    9900012    2    3    3    0    0 -0.12917626094E+02  0.66546802185E+00  0.38546828452E+02  0.50528857175E+02  0.29999991869E+02 0.  0.
        -12    1    3    3    0    0  0.12917626094E+02 -0.66546802185E+00 -0.38546828452E+02  0.40659142825E+02  0.00000000000E+00 0.  1.
         11    1    4    4    0    0 -0.12631608070E+02 -0.76945416818E+01  0.16213154789E+02  0.21946067588E+02  0.51100000000E-03 0. -1.
        -11    1    4    4    0    0 -0.64545940858E+01  0.49180134361E+01  0.42326756537E+01  0.91522775538E+01  0.51100000000E-03 0.  1.
         12    1    4    4    0    0  0.61685760619E+01  0.34419962676E+01  0.18100998009E+02  0.19430512033E+02  0.00000000000E+00 0. -1.
</event>
<event>
 8    1  0.1338956E-013  0.9118800E+02  0.7816164E-02  0.1184000E+00
        -11   -1    0    0    0    0  0.00000000000E+00  0.00000000000E+00  0.45593999997E+02  0.45594000000E+02  0.51100000000E-03 0. -1.
         11   -1    0    0    0    0 -0.00000000000E+00 -0.00000000000E+00 -0.45593999997E+02  0.45594000000E+02  0.51100000000E-03 0.  1.
         23    2    1    2    0    0  0.17763568394E-14  0.00000000000E+00  0.71054273576E-14  0.91188000000E+02  0.91188000000E+02 0.  0.
    9900012    2    3    3    0    0 -0.49247064758E+01  0.31753961801E+02 -0.24911818070E+02  0.50528861993E+02  0.30000006513E+02 0.  0.
         12    1    3    3    0    0  0.49247064758E+01 -0.31753961801E+02  0.24911818070E+02  0.40659138007E+02  0.00000000000E+00 0. -1.
         11    1    4    4    0    0 -0.29641085599E+01  0.58856931854E+01  0.29705826968E+01  0.72285327451E+01  0.51100000000E-03 0. -1.
        -11    1    4    4    0    0 -0.91595046112E+01  0.11728605251E+02 -0.55016930389E+01  0.15865854292E+02  0.51100000000E-03 0.  1.
        -12    1    4    4    0    0  0.71989066953E+01  0.14139663364E+02 -0.22380707728E+02  0.27434474955E+02  0.00000000000E+00 0.  1.
</event>
<event>
 8    1  0.1338956E-013  0.9118800E+02  0.7816164E-02  0.1184000E+00
        -11   -1    0    0    0    0  0.00000000000E+00  0.00000000000E+00  0.45593999997E+02  0.45594000000E+02  0.51100000000E-03 0. -1.
         11   -1    0    0    0    0 -0.00000000000E+00 -0.00000000000E+00 -0.45593999997E+02  0.45594000000E+02  0.51100000000E-03 0.  1.
         23    2    1    2    0    0  0.35527136788E-14 -0.17763568394E-14  0.71054273576E-14  0.91188000000E+02  0.91188000000E+02 0.  0.
    9900012    2    3    3    0    0  0.13815527290E+02 -0.12027544480E+02  0.36299244893E+02  0.50528858342E+02  0.29999995416E+02 0.  0.
        -12    1    3    3    0    0 -0.13815527290E+02  0.12027544480E+02 -0.36299244893E+02  0.40659141658E+02  0.00000000000E+00 0.  1.
         11    1    4    4    0    0  0.15821160343E+00 -0.24440955034E+01  0.58947850509E+01  0.63833474603E+01  0.51100000000E-03 0. -1.
        -11    1    4    4    0    0 -0.46426204484E+01 -0.56408375764E+01 -0.12092569126E+01  0.74050844514E+01  0.51100000000E-03 0.  1.
        -12    1    4    4    0    0  0.18299936135E+02 -0.39426114006E+01  0.31613716755E+02  0.36740426430E+02  0.00000000000E+00 0.  1.
</event>
<event>
 8    1  0.1338956E-013  0.9118800E+02  0.7816164E-02  0.1184000E+00
        -11   -1    0    0    0    0  0.00000000000E+00  0.00000000000E+00  0.45593999997E+02  0.45594000000E+02  0.51100000000E-03 0. -1.
         11   -1    0    0    0    0 -0.00000000000E+00 -0.00000000000E+00 -0.45593999997E+02  0.45594000000E+02  0.51100000000E-03 0.  1.
         23    2    1    2    0    0 -0.35527136788E-14 -0.66613381478E-15  0.00000000000E+00  0.91188000000E+02  0.91188000000E+02 0.  0.
    9900012    2    3    3    0    0 -0.28193806178E+02  0.15215981020E+01  0.29256808467E+02  0.50528845935E+02  0.29999957705E+02 0.  0.
        -12    1    3    3    0    0  0.28193806178E+02 -0.15215981020E+01 -0.29256808467E+02  0.40659154065E+02  0.00000000000E+00 0.  1.
         11    1    4    4    0    0 -0.17421351233E+02 -0.60469483062E+01  0.13339245991E+02  0.22759713233E+02  0.51100000000E-03 0. -1.
        -11    1    4    4    0    0 -0.81732293833E+01 -0.46359520647E+01  0.31347013832E+01  0.99055581934E+01  0.51100000000E-03 0.  1.
         12    1    4    4    0    0 -0.25992255617E+01  0.12204498473E+02  0.12782861093E+02  0.17863574509E+02  0.00000000000E+00 0. -1.
</event>
<event>
 8    1  0.1338956E-013  0.9118800E+02  0.7816164E-02  0.1184000E+00
        -11   -1    0    0    0    0  0.00000000000E+00  0.00000000000E+00  0.45593999997E+02  0.45594000000E+02  0.51100000000E-03 0. -1.
         11   -1    0    0    0    0 -0.00000000000E+00 -0.00000000000E+00 -0.45593999997E+02  0.45594000000E+02  0.51100000000E-03 0.  1.
         23    2    1    2    0    0  0.00000000000E+00  0.00000000000E+00 -0.71054273576E-14  0.91188000000E+02  0.91188000000E+02 0.  0.
    9900012    2    3    3    0    0  0.94236333275E+01  0.19442286436E+02 -0.34443551394E+02  0.50528860811E+02  0.30000002922E+02 0.  0.
         12    1    3    3    0    0 -0.94236333275E+01 -0.19442286436E+02  0.34443551394E+02  0.40659139189E+02  0.00000000000E+00 0. -1.
         11    1    4    4    0    0  0.11906366941E+02  0.11511908076E+02 -0.33722243207E+02  0.37569605912E+02  0.51100000000E-03 0. -1.
        -11    1    4    4    0    0  0.14600556027E+01  0.86434874442E+01 -0.14550214030E+01  0.88858722197E+01  0.51100000000E-03 0.  1.
        -12    1    4    4    0    0 -0.39427892160E+01 -0.71310908351E+00  0.73371321598E+00  0.40733826791E+01  0.00000000000E+00 0.  1.
</event>
<event>
 8    1  0.1338956E-013  0.9118800E+02  0.7816164E-02  0.1184000E+00
        -11   -1    0    0    0    0  0.00000000000E+00  0.00000000000E+00  0.45593999997E+02  0.45594000000E+02  0.51100000000E-03 0. -1.
         11   -1    0    0    0    0 -0.00000000000E+00 -0.00000000000E+00 -0.45593999997E+02  0.45594000000E+02  0.51100000000E-03 0.  1.
         23    2    1    2    0    0 -0.88817841970E-15  0.00000000000E+00  0.00000000000E+00  0.91188000000E+02  0.91188000000E+02 0.  0.
    9900012    2    3    3    0    0 -0.44543218515E+01  0.89384595566E+01  0.39413519876E+02  0.50528897803E+02  0.30000115363E+02 0.  0.
        -12    1    3    3    0    0  0.44543218515E+01 -0.89384595566E+01 -0.39413519876E+02  0.40659102197E+02  0.00000000000E+00 0.  1.
         11    1    4    4    0    0 -0.21366180853E+00  0.25276816490E+01 -0.25913350472E+01  0.36262712909E+01  0.51100000000E-03 0. -1.
        -11    1    4    4    0    0  0.55125925381E+01 -0.35291888359E+01  0.94619652242E+01  0.11505330786E+02  0.51100000000E-03 0.  1.
         12    1    4    4    0    0 -0.97532525811E+01  0.99399667435E+01  0.32542889699E+02  0.35397295726E+02  0.00000000000E+00 0. -1.
</event>
<event>
 8    1  0.1338956E-013  0.9118800E+02  0.7816164E-02  0.1184000E+00
        -11   -1    0    0    0    0  0.00000000000E+00  0.00000000000E+00  0.45593999997E+02  0.45594000000E+02  0.51100000000E-03 0. -1.
         11   -1    0    0    0    0 -0.00000000000E+00 -0.00000000000E+00 -0.45593999997E+02  0.45594000000E+02  0.51100000000E-03 0.  1.
         23    2    1    2    0    0  0.00000000000E+00 -0.35527136788E-14  0.00000000000E+00  0.91188000000E+02  0.91188000000E+02 0.  0.
    9900012    2    3    3    0    0  0.94706432042E+01  0.27122916475E+02  0.28771856065E+02  0.50528863484E+02  0.30000011046E+02 0.  0.
        -12    1    3    3    0    0 -0.94706432042E+01 -0.27122916475E+02 -0.28771856065E+02  0.40659136516E+02  0.00000000000E+00 0.  1.
         11    1    4    4    0    0  0.78307395059E+01  0.63427382662E-01  0.13005014231E+02  0.15180741077E+02  0.51100000000E-03 0. -1.
        -11    1    4    4    0    0  0.45143701561E+01  0.12076413564E+01 -0.45167709230E+00  0.46948853030E+01  0.51100000000E-03 0.  1.
        -12    1    4    4    0    0 -0.28744664578E+01  0.25851847736E+02  0.16218518927E+02  0.30653237104E+02  0.00000000000E+00 0.  1.
</event>
<event>
 8    1  0.1338956E-013  0.9118800E+02  0.7816164E-02  0.1184000E+00
        -11   -1    0    0    0    0  0.00000000000E+00  0.00000000000E+00  0.45593999997E+02  0.45594000000E+02  0.51100000000E-03 0. -1.
         11   -1    0    0    0    0 -0.00000000000E+00 -0.00000000000E+00 -0.45593999997E+02  0.45594000000E+02  0.51100000000E-03 0.  1.
         23    2    1    2    0    0  0.35527136788E-14  0.00000000000E+00  0.35527136788E-14  0.91188000000E+02  0.91188000000E+02 0.  0.
    9900012    2    3    3    0    0 -0.27082130423E+02  0.15201169673E+02 -0.26242111508E+02  0.50528858788E+02  0.29999996773E+02 0.  0.
         12    1    3    3    0    0  0.27082130423E+02 -0.15201169673E+02  0.26242111508E+02  0.40659141212E+02  0.00000000000E+00 0. -1.
         11    1    4    4    0    0  0.29712211404E+01 -0.23460063757E+01  0.20509676063E+01  0.43056206711E+01  0.51100000000E-03 0. -1.
        -11    1    4    4    0    0 -0.32916965795E+01  0.39060299694E+01 -0.22564710194E+00  0.51130473662E+01  0.51100000000E-03 0.  1.
        -12    1    4    4    0    0 -0.26761654984E+02  0.13641146079E+02 -0.28067432012E+02  0.41110190751E+02  0.00000000000E+00 0.  1.
</event>
<event>
 8    1  0.1338956E-013  0.9118800E+02  0.7816164E-02  0.1184000E+00
        -11   -1    0    0    0    0  0.00000000000E+00  0.00000000000E+00  0.45593999997E+02  0.45594000000E+02  0.51100000000E-03 0. -1.
         11   -1    0    0    0    0 -0.00000000000E+00 -0.00000000000E+00 -0.45593999997E+02  0.45594000000E+02  0.51100000000E-03 0.  1.
         23    2    1    2    0    0 -0.17763568394E-14  0.00000000000E+00  0.71054273576E-14  0.91188000000E+02  0.91188000000E+02 0.  0.
    9900012    2    3    3    0    0 -0.85220886726E+01 -0.17171341186E+02  0.35856440679E+02  0.50528864598E+02  0.30000014433E+02 0.  0.
        -12    1    3    3    0    0  0.85220886726E+01  0.17171341186E+02 -0.35856440679E+02  0.40659135402E+02  0.00000000000E+00 0.  1.
         11    1    4    4    0    0 -0.55393451451E+01 -0.12712543745E+02  0.58496859025E+01  0.15050313569E+02  0.51100000000E-03 0. -1.
        -11    1    4    4    0    0 -0.12979449411E+01 -0.21463789920E+01 -0.20836478691E+01  0.32608576404E+01  0.51100000000E-03 0.  1.
        -12    1    4    4    0    0 -0.16847985864E+01 -0.23124184489E+01  0.32090402645E+02  0.32217693389E+02  0.00000000000E+00 0.  1.
</event>
<event>
 8    1  0.1338956E-013  0.9118800E+02  0.7816164E-02  0.1184000E+00
        -11   -1    0    0    0    0  0.00000000000E+00  0.00000000000E+00  0.45593999997E+02  0.45594000000E+02  0.51100000000E-03 0. -1.
         11   -1    0    0    0    0 -0.00000000000E+00 -0.00000000000E+00 -0.45593999997E+02  0.45594000000E+02  0.51100000000E-03 0.  1.
         23    2    1    2    0    0  0.00000000000E+00 -0.44408920985E-15  0.00000000000E+00  0.91188000000E+02  0.91188000000E+02 0.  0.
    9900012    2    3    3    0    0  0.19894382868E+02 -0.33044664504E+01  0.35305243162E+02  0.50528853883E+02  0.29999981863E+02 0.  0.
        -12    1    3    3    0    0 -0.19894382868E+02  0.33044664504E+01 -0.35305243162E+02  0.40659146117E+02  0.00000000000E+00 0.  1.
         11    1    4    4    0    0  0.80603141507E+01  0.72127557058E+01  0.59333568567E+01  0.12336824264E+02  0.51100000000E-03 0. -1.
        -11    1    4    4    0    0  0.28331665988E+01 -0.91050846442E+01  0.25584564252E+01  0.98729478321E+01  0.51100000000E-03 0.  1.
         12    1    4    4    0    0  0.90009021181E+01 -0.14121375120E+01  0.26813429880E+02  0.28319081787E+02  0.00000000000E+00 0. -1.
</event>
<event>
 8    1  0.1338956E-013  0.9118800E+02  0.7816164E-02  0.1184000E+00
        -11   -1    0    0    0    0  0.00000000000E+00  0.00000000000E+00  0.45593999997E+02  0.45594000000E+02  0.51100000000E-03 0.  1.
         11   -1    0    0    0    0 -0.00000000000E+00 -0.00000000000E+00 -0.45593999997E+02  0.45594000000E+02  0.51100000000E-03 0. -1.
         23    2    1    2    0    0  0.00000000000E+00  0.00000000000E+00  0.17763568394E-14  0.91188000000E+02  0.91188000000E+02 0.  0.
    9900012    2    3    3    0    0 -0.25051142492E+02  0.28359376961E+02 -0.14877890598E+02  0.50528860432E+02  0.30000001769E+02 0.  0.
         12    1    3    3    0    0  0.25051142492E+02 -0.28359376961E+02  0.14877890598E+02  0.40659139568E+02  0.00000000000E+00 0. -1.
         11    1    4    4    0    0  0.13002788861E+01 -0.20327339989E+01 -0.28498630270E+00  0.24298045489E+01  0.51100000000E-03 0. -1.
        -11    1    4    4    0    0 -0.12512864445E+02  0.14140701798E+01 -0.90600635895E+01  0.15513095229E+02  0.51100000000E-03 0.  1.
        -12    1    4    4    0    0 -0.13838556933E+02  0.28978040780E+02 -0.55328407058E+01  0.32585960654E+02  0.00000000000E+00 0.  1.
</event>
<event>
 8    1  0.1338956E-013  0.9118800E+02  0.7816164E-02  0.1184000E+00
        -11   -1    0    0    0    0  0.00000000000E+00  0.00000000000E+00  0.45593999997E+02  0.45594000000E+02  0.51100000000E-03 0. -1.
         11   -1    0    0    0    0 -0.00000000000E+00 -0.00000000000E+00 -0.45593999997E+02  0.45594000000E+02  0.51100000000E-03 0.  1.
         23    2    1    2    0    0  0.00000000000E+00  0.44408920985E-15 -0.35527136788E-14  0.91188000000E+02  0.91188000000E+02 0.  0.
    9900012    2    3    3    0    0 -0.31004786096E+02 -0.24830536782E+01  0.26185932433E+02  0.50528863588E+02  0.30000011361E+02 0.  0.
        -12    1    3    3    0    0  0.31004786096E+02  0.24830536782E+01 -0.26185932433E+02  0.40659136412E+02  0.00000000000E+00 0.  1.
         11    1    4    4    0    0 -0.14489698009E+02  0.68003820366E+01  0.22631482931E+02  0.27719678284E+02  0.51100000000E-03 0. -1.
        -11    1    4    4    0    0  0.93968798964E+00  0.10084673891E+01  0.20763855279E+01  0.24922674645E+01  0.51100000000E-03 0.  1.
        -12    1    4    4    0    0 -0.17454776077E+02 -0.10291903104E+02  0.14780639736E+01  0.20316917839E+02  0.00000000000E+00 0.  1.
</event>
<event>
 8    1  0.1338956E-013  0.9118800E+02  0.7816164E-02  0.1184000E+00
        -11   -1    0    0    0    0  0.00000000000E+00  0.00000000000E+00  0.45593999997E+02  0.45594000000E+02  0.51100000000E-03 0. -1.
         11   -1    0    0    0    0 -0.00000000000E+00 -0.00000000000E+00 -0.45593999997E+02  0.45594000000E+02  0.51100000000E-03 0.  1.
         23    2    1    2    0    0  0.00000000000E+00  0.00000000000E+00  0.00000000000E+00  0.91188000000E+02  0.91188000000E+02 0.  0.
    9900012    2    3    3    0    0 -0.14812424425E+02  0.12565945306E+02 -0.35719098490E+02  0.50528869467E+02  0.30000029231E+02 0.  0.
         12    1    3    3    0    0  0.14812424425E+02 -0.12565945306E+02  0.35719098490E+02  0.40659130533E+02  0.00000000000E+00 0. -1.
         11    1    4    4    0    0  0.30847066277E+01 -0.13065851777E+01  0.10959453384E+01  0.35247235709E+01  0.51100000000E-03 0. -1.
        -11    1    4    4    0    0 -0.15579532874E+01  0.18040330679E+01  0.20545205833E+01  0.31468728675E+01  0.51100000000E-03 0.  1.
         12    1    4    4    0    0 -0.16339177765E+02  0.12068497415E+02 -0.38869564412E+02  0.43857273028E+02  0.00000000000E+00 0. -1.
</event>
<event>
 8    1  0.1338956E-013  0.9118800E+02  0.7816164E-02  0.1184000E+00
        -11   -1    0    0    0    0  0.00000000000E+00  0.00000000000E+00  0.45593999997E+02  0.45594000000E+02  0.51100000000E-03 0. -1.
         11   -1    0    0    0    0 -0.00000000000E+00 -0.00000000000E+00 -0.45593999997E+02  0.45594000000E+02  0.51100000000E-03 0.  1.
         23    2    1    2    0    0  0.00000000000E+00  0.00000000000E+00 -0.35527136788E-14  0.91188000000E+02  0.91188000000E+02 0.  0.
    9900012    2    3    3    0    0  0.21384666797E+02 -0.20287083131E+02 -0.28005282690E+02  0.50528861119E+02  0.30000003859E+02 0.  0.
         12    1    3    3    0    0 -0.21384666797E+02  0.20287083131E+02  0.28005282690E+02  0.40659138881E+02  0.00000000000E+00 0. -1.
         11    1    4    4    0    0  0.70535151301E+01 -0.21681904216E+02 -0.20864341324E+02  0.30905950644E+02  0.51100000000E-03 0. -1.
        -11    1    4    4    0    0  0.48472178199E+01 -0.27310112599E+01 -0.74229751791E+01  0.92765566815E+01  0.51100000000E-03 0.  1.
         12    1    4    4    0    0  0.94839338470E+01  0.41258323443E+01  0.28203381323E+00  0.10346353793E+02  0.00000000000E+00 0. -1.
</event>
<event>
 8    1  0.1338956E-013  0.9118800E+02  0.7816164E-02  0.1184000E+00
        -11   -1    0    0    0    0  0.00000000000E+00  0.00000000000E+00  0.45593999997E+02  0.45594000000E+02  0.51100000000E-03 0.  1.
         11   -1    0    0    0    0 -0.00000000000E+00 -0.00000000000E+00 -0.45593999997E+02  0.45594000000E+02  0.51100000000E-03 0. -1.
         23    2    1    2    0    0  0.00000000000E+00  0.00000000000E+00  0.44408920985E-15  0.91188000000E+02  0.91188000000E+02 0.  0.
    9900012    2    3    3    0    0 -0.37447841425E+02  0.15641266877E+02 -0.24855784684E+01  0.50528829359E+02  0.29999907320E+02 0.  0.
        -12    1    3    3    0    0  0.37447841425E+02 -0.15641266877E+02  0.24855784684E+01  0.40659170641E+02  0.00000000000E+00 0.  1.
         11    1    4    4    0    0 -0.10070088797E+02  0.93038755858E+01 -0.48708905273E+01  0.14549720412E+02  0.51100000000E-03 0. -1.
        -11    1    4    4    0    0 -0.13311001777E+02  0.13952566510E+02 -0.20165075578E+01  0.19388738575E+02  0.51100000000E-03 0.  1.
         12    1    4    4    0    0 -0.14066750851E+02 -0.76151752197E+01  0.44018196167E+01  0.16590370372E+02  0.00000000000E+00 0. -1.
</event>
<event>
 8    1  0.1338956E-013  0.9118800E+02  0.7816164E-02  0.1184000E+00
        -11   -1    0    0    0    0  0.00000000000E+00  0.00000000000E+00  0.45593999997E+02  0.45594000000E+02  0.51100000000E-03 0. -1.
         11   -1    0    0    0    0 -0.00000000000E+00 -0.00000000000E+00 -0.45593999997E+02  0.45594000000E+02  0.51100000000E-03 0.  1.
         23    2    1    2    0    0 -0.17763568394E-14  0.00000000000E+00  0.00000000000E+00  0.91188000000E+02  0.91188000000E+02 0.  0.
    9900012    2    3    3    0    0 -0.12820022785E+02  0.37969087971E+01  0.38397875666E+02  0.50528851506E+02  0.29999974638E+02 0.  0.
        -12    1    3    3    0    0  0.12820022785E+02 -0.37969087971E+01 -0.38397875666E+02  0.40659148494E+02  0.00000000000E+00 0.  1.
         11    1    4    4    0    0 -0.35429143333E+01 -0.20441078311E+01  0.60874336497E+01  0.73339939664E+01  0.51100000000E-03 0. -1.
        -11    1    4    4    0    0 -0.43594831965E+01 -0.50390488645E+01 -0.19262238083E+01  0.69359531155E+01  0.51100000000E-03 0.  1.
        -12    1    4    4    0    0 -0.49176252551E+01  0.10880065493E+02  0.34236665824E+02  0.36258904424E+02  0.00000000000E+00 0.  1.
</event>
<event>
 8    1  0.1338956E-013  0.9118800E+02  0.7816164E-02  0.1184000E+00
        -11   -1    0    0    0    0  0.00000000000E+00  0.00000000000E+00  0.45593999997E+02  0.45594000000E+02  0.51100000000E-03 0. -1.
         11   -1    0    0    0    0 -0.00000000000E+00 -0.00000000000E+00 -0.45593999997E+02  0.45594000000E+02  0.51100000000E-03 0.  1.
         23    2    1    2    0    0  0.26645352591E-14  0.00000000000E+00 -0.71054273576E-14  0.91188000000E+02  0.91188000000E+02 0.  0.
    9900012    2    3    3    0    0 -0.79570798501E+01  0.11530704433E+02 -0.38169263061E+02  0.50528869327E+02  0.30000028807E+02 0.  0.
         12    1    3    3    0    0  0.79570798501E+01 -0.11530704433E+02  0.38169263061E+02  0.40659130673E+02  0.00000000000E+00 0. -1.
         11    1    4    4    0    0 -0.35594833341E+01  0.18897500558E+01 -0.20977363636E+01  0.45433000111E+01  0.51100000000E-03 0. -1.
        -11    1    4    4    0    0 -0.13932177417E+02  0.48222322190E+01 -0.30636689813E+02  0.33999503734E+02  0.51100000000E-03 0.  1.
        -12    1    4    4    0    0  0.95345809011E+01  0.48187221578E+01 -0.54348368839E+01  0.11986065583E+02  0.00000000000E+00 0.  1.
</event>
<event>
 8    1  0.1338956E-013  0.9118800E+02  0.7816164E-02  0.1184000E+00
        -11   -1    0    0    0    0  0.00000000000E+00  0.00000000000E+00  0.45593999997E+02  0.45594000000E+02  0.51100000000E-03 0. -1.
         11   -1    0    0    0    0 -0.00000000000E+00 -0.00000000000E+00 -0.45593999997E+02  0.45594000000E+02  0.51100000000E-03 0.  1.
         23    2    1    2    0    0  0.44408920985E-15  0.00000000000E+00  0.00000000000E+00  0.91188000000E+02  0.91188000000E+02 0.  0.
    9900012    2    3    3    0    0  0.21041197529E+01 -0.17358968844E+02 -0.36707015019E+02  0.50528855016E+02  0.29999985306E+02 0.  0.
         12    1    3    3    0    0 -0.21041197529E+01  0.17358968844E+02  0.36707015019E+02  0.40659144984E+02  0.00000000000E+00 0. -1.
         11    1    4    4    0    0 -0.10228407673E+02  0.12841299931E+01 -0.16200545718E+02  0.19202265366E+02  0.51100000000E-03 0. -1.
        -11    1    4    4    0    0  0.26716556493E+01 -0.54791468635E+01 -0.15161050275E+01  0.62815100872E+01  0.51100000000E-03 0.  1.
        -12    1    4    4    0    0  0.96608717767E+01 -0.13163951974E+02 -0.18990364273E+02  0.25045079562E+02  0.00000000000E+00 0.  1.
</event>
<event>
 8    1  0.1338956E-013  0.9118800E+02  0.7816164E-02  0.1184000E+00
        -11   -1    0    0    0    0  0.00000000000E+00  0.00000000000E+00  0.45593999997E+02  0.45594000000E+02  0.51100000000E-03 0. -1.
         11   -1    0    0    0    0 -0.00000000000E+00 -0.00000000000E+00 -0.45593999997E+02  0.45594000000E+02  0.51100000000E-03 0.  1.
         23    2    1    2    0    0 -0.17763568394E-14 -0.44408920985E-15  0.00000000000E+00  0.91188000000E+02  0.91188000000E+02 0.  0.
    9900012    2    3    3    0    0 -0.10473189819E+02 -0.39837467601E+01 -0.39084635155E+02  0.50528847913E+02  0.29999963716E+02 0.  0.
         12    1    3    3    0    0  0.10473189819E+02  0.39837467601E+01  0.39084635155E+02  0.40659152087E+02  0.00000000000E+00 0. -1.
         11    1    4    4    0    0  0.39506031475E+00 -0.67583216705E+01 -0.12805660893E+02  0.14485024529E+02  0.51100000000E-03 0. -1.
        -11    1    4    4    0    0 -0.35383245772E+01 -0.54408883399E+01 -0.23918694993E+02  0.24783602990E+02  0.51100000000E-03 0.  1.
         12    1    4    4    0    0 -0.73299255568E+01  0.82154632503E+01 -0.23602792695E+01  0.11260220394E+02  0.00000000000E+00 0. -1.
</event>
<event>
 8    1  0.1338956E-013  0.9118800E+02  0.7816164E-02  0.1184000E+00
        -11   -1    0    0    0    0  0.00000000000E+00  0.00000000000E+00  0.45593999997E+02  0.45594000000E+02  0.51100000000E-03 0. -1.
         11   -1    0    0    0    0 -0.00000000000E+00 -0.00000000000E+00 -0.45593999997E+02  0.45594000000E+02  0.51100000000E-03 0.  1.
         23    2    1    2    0    0  0.00000000000E+00 -0.35527136788E-14  0.00000000000E+00  0.91188000000E+02  0.91188000000E+02 0.  0.
    9900012    2    3    3    0    0  0.95688205286E+01  0.29133190227E+02 -0.26699456202E+02  0.50528855142E+02  0.29999985689E+02 0.  0.
         12    1    3    3    0    0 -0.95688205286E+01 -0.29133190227E+02  0.26699456202E+02  0.40659144858E+02  0.00000000000E+00 0. -1.
         11    1    4    4    0    0  0.15816224414E-01  0.10793119565E+02  0.19895532657E+01  0.10974971643E+02  0.51100000000E-03 0.  1.
        -11    1    4    4    0    0  0.11596150165E+01  0.57957771214E+01  0.12355475410E+01  0.60384035485E+01  0.51100000000E-03 0. -1.
        -12    1    4    4    0    0  0.83933892876E+01  0.12544293541E+02 -0.29924557008E+02  0.33515479951E+02  0.00000000000E+00 0.  1.
</event>
<event>
 8    1  0.1338956E-013  0.9118800E+02  0.7816164E-02  0.1184000E+00
        -11   -1    0    0    0    0  0.00000000000E+00  0.00000000000E+00  0.45593999997E+02  0.45594000000E+02  0.51100000000E-03 0. -1.
         11   -1    0    0    0    0 -0.00000000000E+00 -0.00000000000E+00 -0.45593999997E+02  0.45594000000E+02  0.51100000000E-03 0.  1.
         23    2    1    2    0    0  0.00000000000E+00  0.16653345369E-14  0.00000000000E+00  0.91188000000E+02  0.91188000000E+02 0.  0.
    9900012    2    3    3    0    0  0.35220650118E+01 -0.88251848941E+00  0.40496686770E+02  0.50528863017E+02  0.30000009628E+02 0.  0.
        -12    1    3    3    0    0 -0.35220650118E+01  0.88251848941E+00 -0.40496686770E+02  0.40659136983E+02  0.00000000000E+00 0.  1.
         11    1    4    4    0    0  0.56285294822E+01  0.44605383738E+01  0.26870252752E+01  0.76679105242E+01  0.51100000000E-03 0.  1.
        -11    1    4    4    0    0  0.77332952163E+00  0.71883409471E+01  0.15690738249E+02  0.17276271333E+02  0.51100000000E-03 0. -1.
        -12    1    4    4    0    0 -0.28797939920E+01 -0.12531397810E+02  0.22118923246E+02  0.25584681160E+02  0.00000000000E+00 0.  1.
</event>
<event>
 8    1  0.1338956E-013  0.9118800E+02  0.7816164E-02  0.1184000E+00
        -11   -1    0    0    0    0  0.00000000000E+00  0.00000000000E+00  0.45593999997E+02  0.45594000000E+02  0.51100000000E-03 0. -1.
         11   -1    0    0    0    0 -0.00000000000E+00 -0.00000000000E+00 -0.45593999997E+02  0.45594000000E+02  0.51100000000E-03 0.  1.
         23    2    1    2    0    0  0.35527136788E-14  0.00000000000E+00  0.35527136788E-14  0.91188000000E+02  0.91188000000E+02 0.  0.
    9900012    2    3    3    0    0 -0.25292617220E+02  0.13359181676E+02 -0.28896035153E+02  0.50528867342E+02  0.30000022774E+02 0.  0.
         12    1    3    3    0    0  0.25292617220E+02 -0.13359181676E+02  0.28896035153E+02  0.40659132658E+02  0.00000000000E+00 0. -1.
         11    1    4    4    0    0 -0.21618441132E+02  0.90730720779E+01 -0.19082620759E+02  0.30229522808E+02  0.51100000000E-03 0.  1.
        -11    1    4    4    0    0 -0.21727554627E+01 -0.65078487019E+01 -0.34482641088E+01  0.76787685636E+01  0.51100000000E-03 0. -1.
        -12    1    4    4    0    0 -0.15014206252E+01  0.10793958300E+02 -0.63651502858E+01  0.12620575971E+02  0.00000000000E+00 0.  1.
</event>
<event>
 8    1  0.1338956E-013  0.9118800E+02  0.7816164E-02  0.1184000E+00
        -11   -1    0    0    0    0  0.00000000000E+00  0.00000000000E+00  0.45593999997E+02  0.45594000000E+02  0.51100000000E-03 0. -1.
         11   -1    0    0    0    0 -0.00000000000E+00 -0.00000000000E+00 -0.45593999997E+02  0.45594000000E+02  0.51100000000E-03 0.  1.
         23    2    1    2    0    0  0.00000000000E+00  0.36082248300E-15  0.00000000000E+00  0.91188000000E+02  0.91188000000E+02 0.  0.
    9900012    2    3    3    0    0 -0.18280824829E+02  0.15836150465E+00 -0.36317376128E+02  0.50528862729E+02  0.30000008752E+02 0.  0.
         12    1    3    3    0    0  0.18280824829E+02 -0.15836150465E+00  0.36317376128E+02  0.40659137271E+02  0.00000000000E+00 0. -1.
         11    1    4    4    0    0 -0.17394236904E+01  0.34152145884E+01  0.23462990905E+01  0.44938185480E+01  0.51100000000E-03 0. -1.
        -11    1    4    4    0    0 -0.18927392766E+02  0.17987601837E+01 -0.32946895045E+02  0.38039185434E+02  0.51100000000E-03 0.  1.
         12    1    4    4    0    0  0.23859916274E+01 -0.50556132675E+01 -0.57167801730E+01  0.79958587470E+01  0.00000000000E+00 0. -1.
</event>
<event>
 8    1  0.1338956E-013  0.9118800E+02  0.7816164E-02  0.1184000E+00
        -11   -1    0    0    0    0  0.00000000000E+00  0.00000000000E+00  0.45593999997E+02  0.45594000000E+02  0.51100000000E-03 0. -1.
         11   -1    0    0    0    0 -0.00000000000E+00 -0.00000000000E+00 -0.45593999997E+02  0.45594000000E+02  0.51100000000E-03 0.  1.
         23    2    1    2    0    0  0.35527136788E-14  0.35527136788E-14  0.71054273576E-14  0.91188000000E+02  0.91188000000E+02 0.  0.
    9900012    2    3    3    0    0 -0.17503578373E+02 -0.19601045269E+02 -0.31025616239E+02  0.50528867022E+02  0.30000021800E+02 0.  0.
         12    1    3    3    0    0  0.17503578373E+02  0.19601045269E+02  0.31025616239E+02  0.40659132978E+02  0.00000000000E+00 0. -1.
         11    1    4    4    0    0 -0.14403875442E+02 -0.19648789204E+01 -0.17053456685E+02  0.22408765296E+02  0.51100000000E-03 0. -1.
        -11    1    4    4    0    0  0.46630560499E+01  0.35179980070E+00 -0.39106955332E+01  0.60960146521E+01  0.51100000000E-03 0.  1.
        -12    1    4    4    0    0 -0.77627589802E+01 -0.17987966149E+02 -0.10061464021E+02  0.22024087074E+02  0.00000000000E+00 0.  1.
</event>
<event>
 8    1  0.1455274E-013  0.9118800E+02  0.7816164E-02  0.1184000E+00
        -11   -1    0    0    0    0  0.00000000000E+00  0.00000000000E+00  0.45593999997E+02  0.45594000000E+02  0.51100000000E-03 0. -1.
         11   -1    0    0    0    0 -0.00000000000E+00 -0.00000000000E+00 -0.45593999997E+02  0.45594000000E+02  0.51100000000E-03 0.  1.
         23    2    1    2    0    0  0.00000000000E+00  0.35527136788E-14  0.35527136788E-14  0.91188000000E+02  0.91188000000E+02 0.  0.
    9900012    2    3    3    0    0 -0.84487041930E+01  0.31454395009E+02 -0.24339398684E+02  0.50528857163E+02  0.29999991834E+02 0.  0.
         12    1    3    3    0    0  0.84487041930E+01 -0.31454395009E+02  0.24339398684E+02  0.40659142837E+02  0.00000000000E+00 0. -1.
         11    1    4    4    0    0  0.95615326728E+00  0.16294209295E+02 -0.16410167234E+02  0.23145389920E+02  0.51100000000E-03 0. -1.
        -11    1    4    4    0    0  0.21215285135E+01  0.14478326809E+02 -0.37713258469E+01  0.15111112776E+02  0.51100000000E-03 0.  1.
         12    1    4    4    0    0 -0.11526385974E+02  0.68185890488E+00 -0.41579056024E+01  0.12272354468E+02  0.00000000000E+00 0. -1.
</event>
<event>
 8    1  0.1338956E-013  0.9118800E+02  0.7816164E-02  0.1184000E+00
        -11   -1    0    0    0    0  0.00000000000E+00  0.00000000000E+00  0.45593999997E+02  0.45594000000E+02  0.51100000000E-03 0. -1.
         11   -1    0    0    0    0 -0.00000000000E+00 -0.00000000000E+00 -0.45593999997E+02  0.45594000000E+02  0.51100000000E-03 0.  1.
         23    2    1    2    0    0  0.00000000000E+00  0.00000000000E+00  0.35527136788E-14  0.91188000000E+02  0.91188000000E+02 0.  0.
    9900012    2    3    3    0    0 -0.25206269262E+02 -0.38340016035E+01  0.31671930910E+02  0.50528846222E+02  0.29999958575E+02 0.  0.
        -12    1    3    3    0    0  0.25206269262E+02  0.38340016035E+01 -0.31671930910E+02  0.40659153778E+02  0.00000000000E+00 0.  1.
         11    1    4    4    0    0 -0.10876257683E+02  0.20791935571E+01  0.96610423023E+01  0.14695297400E+02  0.51100000000E-03 0. -1.
        -11    1    4    4    0    0 -0.20843727319E+02 -0.28675020237E+01  0.15497169543E+02  0.26131318384E+02  0.51100000000E-03 0.  1.
        -12    1    4    4    0    0  0.65137157394E+01 -0.30456931368E+01  0.65137190645E+01  0.97022304379E+01  0.00000000000E+00 0.  1.
</event>
<event>
 8    1  0.1338956E-013  0.9118800E+02  0.7816164E-02  0.1184000E+00
        -11   -1    0    0    0    0  0.00000000000E+00  0.00000000000E+00  0.45593999997E+02  0.45594000000E+02  0.51100000000E-03 0. -1.
         11   -1    0    0    0    0 -0.00000000000E+00 -0.00000000000E+00 -0.45593999997E+02  0.45594000000E+02  0.51100000000E-03 0.  1.
         23    2    1    2    0    0 -0.35527136788E-14  0.35527136788E-14 -0.35527136788E-14  0.91188000000E+02  0.91188000000E+02 0.  0.
    9900012    2    3    3    0    0  0.21405636706E+02 -0.20050415648E+02  0.28159273655E+02  0.50528866423E+02  0.30000019979E+02 0.  0.
        -12    1    3    3    0    0 -0.21405636706E+02  0.20050415648E+02 -0.28159273655E+02  0.40659133577E+02  0.00000000000E+00 0.  1.
         11    1    4    4    0    0  0.10678556570E+01 -0.76780346272E+01 -0.80599740945E+00  0.77937259077E+01  0.51100000000E-03 0. -1.
        -11    1    4    4    0    0 -0.24596842865E+01  0.22836384734E+01  0.43543117515E+00  0.33844721945E+01  0.51100000000E-03 0.  1.
         12    1    4    4    0    0  0.22797465336E+02 -0.14656019494E+02  0.28529839890E+02  0.39350668321E+02  0.00000000000E+00 0. -1.
</event>
<event>
 8    1  0.1338956E-013  0.9118800E+02  0.7816164E-02  0.1184000E+00
        -11   -1    0    0    0    0  0.00000000000E+00  0.00000000000E+00  0.45593999997E+02  0.45594000000E+02  0.51100000000E-03 0. -1.
         11   -1    0    0    0    0 -0.00000000000E+00 -0.00000000000E+00 -0.45593999997E+02  0.45594000000E+02  0.51100000000E-03 0.  1.
         23    2    1    2    0    0  0.21510571102E-15  0.00000000000E+00  0.00000000000E+00  0.91188000000E+02  0.91188000000E+02 0.  0.
    9900012    2    3    3    0    0 -0.22889332560E-01  0.16640890474E+02 -0.37097790595E+02  0.50528858017E+02  0.29999994430E+02 0.  0.
         12    1    3    3    0    0  0.22889332560E-01 -0.16640890474E+02  0.37097790595E+02  0.40659141983E+02  0.00000000000E+00 0. -1.
         11    1    4    4    0    0  0.48006354983E+01  0.99987045255E+01 -0.27887058756E+02  0.30011801674E+02  0.51100000000E-03 0. -1.
        -11    1    4    4    0    0 -0.35880885371E+01  0.92117485843E+01 -0.12646776157E+02  0.16052153710E+02  0.51100000000E-03 0.  1.
         12    1    4    4    0    0 -0.12354362938E+01 -0.25695626356E+01  0.34360443172E+01  0.44649026333E+01  0.00000000000E+00 0. -1.
</event>
<event>
 8    1  0.1338956E-013  0.9118800E+02  0.7816164E-02  0.1184000E+00
        -11   -1    0    0    0    0  0.00000000000E+00  0.00000000000E+00  0.45593999997E+02  0.45594000000E+02  0.51100000000E-03 0. -1.
         11   -1    0    0    0    0 -0.00000000000E+00 -0.00000000000E+00 -0.45593999997E+02  0.45594000000E+02  0.51100000000E-03 0.  1.
         23    2    1    2    0    0  0.35527136788E-14  0.00000000000E+00  0.00000000000E+00  0.91188000000E+02  0.91188000000E+02 0.  0.
    9900012    2    3    3    0    0 -0.26977222439E+02  0.11045169513E+02 -0.28344303053E+02  0.50528858154E+02  0.29999994846E+02 0.  0.
         12    1    3    3    0    0  0.26977222439E+02 -0.11045169513E+02  0.28344303053E+02  0.40659141846E+02  0.00000000000E+00 0. -1.
         11    1    4    4    0    0 -0.92966502005E+00 -0.38886234990E+01 -0.65558001880E+01  0.76788141098E+01  0.51100000000E-03 0. -1.
        -11    1    4    4    0    0  0.30872293520E+01  0.54143296460E+01 -0.32482526460E+01  0.70283067734E+01  0.51100000000E-03 0.  1.
         12    1    4    4    0    0 -0.29134786771E+02  0.95194633656E+01 -0.18540250219E+02  0.35821737271E+02  0.00000000000E+00 0. -1.
</event>
<event>
 8    1  0.1338956E-013  0.9118800E+02  0.7816164E-02  0.1184000E+00
        -11   -1    0    0    0    0  0.00000000000E+00  0.00000000000E+00  0.45593999997E+02  0.45594000000E+02  0.51100000000E-03 0. -1.
         11   -1    0    0    0    0 -0.00000000000E+00 -0.00000000000E+00 -0.45593999997E+02  0.45594000000E+02  0.51100000000E-03 0.  1.
         23    2    1    2    0    0  0.00000000000E+00  0.00000000000E+00  0.00000000000E+00  0.91188000000E+02  0.91188000000E+02 0.  0.
    9900012    2    3    3    0    0  0.16513751239E+02 -0.28634222711E+02 -0.23675799108E+02  0.50528853998E+02  0.29999982211E+02 0.  0.
         12    1    3    3    0    0 -0.16513751239E+02  0.28634222711E+02  0.23675799108E+02  0.40659146002E+02  0.00000000000E+00 0. -1.
         11    1    4    4    0    0  0.57026375146E+01 -0.11717559656E+02  0.28390895902E+01  0.13337230180E+02  0.51100000000E-03 0. -1.
        -11    1    4    4    0    0  0.36153572477E+01 -0.89877664061E+01 -0.12708175177E+01  0.97706566015E+01  0.51100000000E-03 0.  1.
        -12    1    4    4    0    0  0.71957564763E+01 -0.79288966497E+01 -0.25244071180E+02  0.27420967217E+02  0.00000000000E+00 0.  1.
</event>
<event>
 8    1  0.1338956E-013  0.9118800E+02  0.7816164E-02  0.1184000E+00
        -11   -1    0    0    0    0  0.00000000000E+00  0.00000000000E+00  0.45593999997E+02  0.45594000000E+02  0.51100000000E-03 0. -1.
         11   -1    0    0    0    0 -0.00000000000E+00 -0.00000000000E+00 -0.45593999997E+02  0.45594000000E+02  0.51100000000E-03 0.  1.
         23    2    1    2    0    0  0.00000000000E+00  0.88817841970E-15  0.00000000000E+00  0.91188000000E+02  0.91188000000E+02 0.  0.
    9900012    2    3    3    0    0 -0.39571418952E+02 -0.43467763523E+01 -0.82688110550E+01  0.50528869429E+02  0.30000029116E+02 0.  0.
         12    1    3    3    0    0  0.39571418952E+02  0.43467763523E+01  0.82688110550E+01  0.40659130571E+02  0.00000000000E+00 0. -1.
         11    1    4    4    0    0 -0.14724233016E+02 -0.12394347509E+02 -0.14341463598E+00  0.19246907702E+02  0.51100000000E-03 0. -1.
        -11    1    4    4    0    0 -0.11869130653E+02 -0.39597252734E+01 -0.38599334987E+01  0.13094073987E+02  0.51100000000E-03 0.  1.
        -12    1    4    4    0    0 -0.12978055284E+02  0.12007296430E+02 -0.42654629203E+01  0.18187887740E+02  0.00000000000E+00 0.  1.
</event>
<event>
 8    1  0.1338956E-013  0.9118800E+02  0.7816164E-02  0.1184000E+00
        -11   -1    0    0    0    0  0.00000000000E+00  0.00000000000E+00  0.45593999997E+02  0.45594000000E+02  0.51100000000E-03 0. -1.
         11   -1    0    0    0    0 -0.00000000000E+00 -0.00000000000E+00 -0.45593999997E+02  0.45594000000E+02  0.51100000000E-03 0.  1.
         23    2    1    2    0    0  0.99920072216E-15  0.00000000000E+00 -0.71054273576E-14  0.91188000000E+02  0.91188000000E+02 0.  0.
    9900012    2    3    3    0    0  0.31025629292E+00  0.27460763475E+02  0.29982937592E+02  0.50528851752E+02  0.29999975385E+02 0.  0.
        -12    1    3    3    0    0 -0.31025629292E+00 -0.27460763475E+02 -0.29982937592E+02  0.40659148248E+02  0.00000000000E+00 0.  1.
         11    1    4    4    0    0 -0.49702618171E+01  0.48656448201E+00  0.10575893522E+02  0.11695715950E+02  0.51100000000E-03 0. -1.
        -11    1    4    4    0    0 -0.17567690000E+01 -0.26539390736E+01  0.17559988369E+01  0.36349913483E+01  0.51100000000E-03 0.  1.
        -12    1    4    4    0    0  0.70372871100E+01  0.29628138067E+02  0.17651045233E+02  0.35198144454E+02  0.00000000000E+00 0.  1.
</event>
<event>
 8    1  0.1338956E-013  0.9118800E+02  0.7816164E-02  0.1184000E+00
        -11   -1    0    0    0    0  0.00000000000E+00  0.00000000000E+00  0.45593999997E+02  0.45594000000E+02  0.51100000000E-03 0. -1.
         11   -1    0    0    0    0 -0.00000000000E+00 -0.00000000000E+00 -0.45593999997E+02  0.45594000000E+02  0.51100000000E-03 0.  1.
         23    2    1    2    0    0  0.35527136788E-14  0.00000000000E+00  0.35527136788E-14  0.91188000000E+02  0.91188000000E+02 0.  0.
    9900012    2    3    3    0    0 -0.30743662221E+02 -0.10826069420E+02 -0.24306261644E+02  0.50528795618E+02  0.29999804761E+02 0.  0.
         12    1    3    3    0    0  0.30743662221E+02  0.10826069420E+02  0.24306261644E+02  0.40659204382E+02  0.00000000000E+00 0. -1.
         11    1    4    4    0    0 -0.18991017041E+01  0.49858500942E+01  0.40107042860E+01  0.66746563639E+01  0.51100000000E-03 0. -1.
        -11    1    4    4    0    0 -0.11713047947E+02 -0.72187838987E+01 -0.79641749920E+01  0.15897622991E+02  0.51100000000E-03 0.  1.
        -12    1    4    4    0    0 -0.17131512570E+02 -0.85931356154E+01 -0.20352790938E+02  0.27956516264E+02  0.00000000000E+00 0.  1.
</event>
<event>
 8    1  0.1607106E-013  0.9118800E+02  0.7816164E-02  0.1184000E+00
        -11   -1    0    0    0    0  0.00000000000E+00  0.00000000000E+00  0.45593999997E+02  0.45594000000E+02  0.51100000000E-03 0. -1.
         11   -1    0    0    0    0 -0.00000000000E+00 -0.00000000000E+00 -0.45593999997E+02  0.45594000000E+02  0.51100000000E-03 0.  1.
         23    2    1    2    0    0 -0.35527136788E-14  0.88817841970E-15  0.00000000000E+00  0.91188000000E+02  0.91188000000E+02 0.  0.
    9900012    2    3    3    0    0 -0.27304960148E+02 -0.43342686414E+01 -0.29813061136E+02  0.50528863910E+02  0.30000012340E+02 0.  0.
         12    1    3    3    0    0  0.27304960148E+02  0.43342686414E+01  0.29813061136E+02  0.40659136090E+02  0.00000000000E+00 0. -1.
         11    1    4    4    0    0 -0.13292398445E+02  0.47945776489E+01 -0.17306337894E+02  0.22342452032E+02  0.51100000000E-03 0. -1.
        -11    1    4    4    0    0 -0.12262872984E+02 -0.89487599452E+01 -0.17338039960E+02  0.23044869023E+02  0.51100000000E-03 0.  1.
         12    1    4    4    0    0 -0.17496887182E+01 -0.18008634513E+00  0.48313167175E+01  0.51415428548E+01  0.00000000000E+00 0. -1.
</event>
<event>
 8    1  0.1338956E-013  0.9118800E+02  0.7816164E-02  0.1184000E+00
        -11   -1    0    0    0    0  0.00000000000E+00  0.00000000000E+00  0.45593999997E+02  0.45594000000E+02  0.51100000000E-03 0.  1.
         11   -1    0    0    0    0 -0.00000000000E+00 -0.00000000000E+00 -0.45593999997E+02  0.45594000000E+02  0.51100000000E-03 0. -1.
         23    2    1    2    0    0  0.00000000000E+00  0.00000000000E+00  0.00000000000E+00  0.91188000000E+02  0.91188000000E+02 0.  0.
    9900012    2    3    3    0    0 -0.24520136085E+02  0.24418388757E+02  0.21346446844E+02  0.50528861101E+02  0.30000003802E+02 0.  0.
        -12    1    3    3    0    0  0.24520136085E+02 -0.24418388757E+02 -0.21346446844E+02  0.40659138899E+02  0.00000000000E+00 0.  1.
         11    1    4    4    0    0 -0.66436089492E+01  0.52351773507E+01 -0.45124757970E+01  0.95868169818E+01  0.51100000000E-03 0. -1.
        -11    1    4    4    0    0  0.24734146474E+01 -0.66389441462E+00  0.71261078978E-01  0.25619551547E+01  0.51100000000E-03 0.  1.
         12    1    4    4    0    0 -0.20349941784E+02  0.19847105821E+02  0.25787661562E+02  0.38380088964E+02  0.00000000000E+00 0. -1.
</event>
<event>
 8    1  0.1338956E-013  0.9118800E+02  0.7816164E-02  0.1184000E+00
        -11   -1    0    0    0    0  0.00000000000E+00  0.00000000000E+00  0.45593999997E+02  0.45594000000E+02  0.51100000000E-03 0. -1.
         11   -1    0    0    0    0 -0.00000000000E+00 -0.00000000000E+00 -0.45593999997E+02  0.45594000000E+02  0.51100000000E-03 0.  1.
         23    2    1    2    0    0  0.00000000000E+00  0.35527136788E-14  0.00000000000E+00  0.91188000000E+02  0.91188000000E+02 0.  0.
    9900012    2    3    3    0    0  0.13903338412E+02  0.30375555245E+02 -0.23177283061E+02  0.50528885087E+02  0.30000076710E+02 0.  0.
         12    1    3    3    0    0 -0.13903338412E+02 -0.30375555245E+02  0.23177283061E+02  0.40659114913E+02  0.00000000000E+00 0. -1.
         11    1    4    4    0    0  0.53395054745E+01  0.28641830208E+01  0.55810650867E+01  0.82378486786E+01  0.51100000000E-03 0. -1.
        -11    1    4    4    0    0  0.67936205034E+01  0.77132747169E+01 -0.14732218571E+02  0.17963467112E+02  0.51100000000E-03 0.  1.
        -12    1    4    4    0    0  0.17702124339E+01  0.19798097507E+02 -0.14026129576E+02  0.24327569296E+02  0.00000000000E+00 0.  1.
</event>
<event>
 8    1  0.1338956E-013  0.9118800E+02  0.7816164E-02  0.1184000E+00
        -11   -1    0    0    0    0  0.00000000000E+00  0.00000000000E+00  0.45593999997E+02  0.45594000000E+02  0.51100000000E-03 0. -1.
         11   -1    0    0    0    0 -0.00000000000E+00 -0.00000000000E+00 -0.45593999997E+02  0.45594000000E+02  0.51100000000E-03 0.  1.
         23    2    1    2    0    0  0.00000000000E+00  0.17763568394E-14 -0.71054273576E-14  0.91188000000E+02  0.91188000000E+02 0.  0.
    9900012    2    3    3    0    0 -0.14571717457E+02 -0.12597667226E+02  0.35806773469E+02  0.50528914970E+02  0.30000167543E+02 0.  0.
        -12    1    3    3    0    0  0.14571717457E+02  0.12597667226E+02 -0.35806773469E+02  0.40659085030E+02  0.00000000000E+00 0.  1.
         11    1    4    4    0    0  0.30083186765E+01 -0.60250686092E+01  0.44253358977E+01  0.80582275392E+01  0.51100000000E-03 0. -1.
        -11    1    4    4    0    0 -0.34856032254E+01 -0.16334164838E+00  0.25765017687E+02  0.26000235518E+02  0.51100000000E-03 0.  1.
         12    1    4    4    0    0 -0.14094432908E+02 -0.64092569681E+01  0.56164198846E+01  0.16470451913E+02  0.00000000000E+00 0. -1.
</event>
<event>
 8    1  0.1338956E-013  0.9118800E+02  0.7816164E-02  0.1184000E+00
        -11   -1    0    0    0    0  0.00000000000E+00  0.00000000000E+00  0.45593999997E+02  0.45594000000E+02  0.51100000000E-03 0.  1.
         11   -1    0    0    0    0 -0.00000000000E+00 -0.00000000000E+00 -0.45593999997E+02  0.45594000000E+02  0.51100000000E-03 0. -1.
         23    2    1    2    0    0 -0.22204460493E-15  0.00000000000E+00 -0.35527136788E-14  0.91188000000E+02  0.91188000000E+02 0.  0.
    9900012    2    3    3    0    0  0.16937839460E+01  0.27987534227E+02  0.29444771025E+02  0.50528861829E+02  0.30000006014E+02 0.  0.
        -12    1    3    3    0    0 -0.16937839460E+01 -0.27987534227E+02 -0.29444771025E+02  0.40659138171E+02  0.00000000000E+00 0.  1.
         11    1    4    4    0    0 -0.98398310420E+00  0.11121743058E+02  0.57189397576E+01  0.12544626882E+02  0.51100000000E-03 0. -1.
        -11    1    4    4    0    0  0.59792821064E+00  0.22696850146E+02  0.21861533343E+02  0.31518743076E+02  0.51100000000E-03 0.  1.
        -12    1    4    4    0    0  0.20798388395E+01 -0.58310589767E+01  0.18642979236E+01  0.64654918711E+01  0.00000000000E+00 0.  1.
</event>
<event>
 8    1  0.1338956E-013  0.9118800E+02  0.7816164E-02  0.1184000E+00
        -11   -1    0    0    0    0  0.00000000000E+00  0.00000000000E+00  0.45593999997E+02  0.45594000000E+02  0.51100000000E-03 0. -1.
         11   -1    0    0    0    0 -0.00000000000E+00 -0.00000000000E+00 -0.45593999997E+02  0.45594000000E+02  0.51100000000E-03 0.  1.
         23    2    1    2    0    0  0.00000000000E+00  0.00000000000E+00 -0.17763568394E-14  0.91188000000E+02  0.91188000000E+02 0.  0.
    9900012    2    3    3    0    0 -0.28542732124E+02  0.25768115486E+02  0.13209169945E+02  0.50528861994E+02  0.30000006516E+02 0.  0.
        -12    1    3    3    0    0  0.28542732124E+02 -0.25768115486E+02 -0.13209169945E+02  0.40659138006E+02  0.00000000000E+00 0.  1.
         11    1    4    4    0    0 -0.18544136295E+01 -0.33869858139E+01  0.69129536671E+01  0.79182985216E+01  0.51100000000E-03 0. -1.
        -11    1    4    4    0    0 -0.36609758623E+01  0.28549704788E+01  0.60845381942E+01  0.76534440612E+01  0.51100000000E-03 0.  1.
         12    1    4    4    0    0 -0.23027342632E+02  0.26300130821E+02  0.21167808389E+00  0.34957119411E+02  0.00000000000E+00 0. -1.
</event>
<event>
 8    1  0.1338956E-013  0.9118800E+02  0.7816164E-02  0.1184000E+00
        -11   -1    0    0    0    0  0.00000000000E+00  0.00000000000E+00  0.45593999997E+02  0.45594000000E+02  0.51100000000E-03 0. -1.
         11   -1    0    0    0    0 -0.00000000000E+00 -0.00000000000E+00 -0.45593999997E+02  0.45594000000E+02  0.51100000000E-03 0.  1.
         23    2    1    2    0    0  0.88817841970E-15  0.00000000000E+00  0.00000000000E+00  0.91188000000E+02  0.91188000000E+02 0.  0.
    9900012    2    3    3    0    0 -0.59195020038E+01  0.10292409281E+02 -0.38886917166E+02  0.50528849499E+02  0.29999968536E+02 0.  0.
         12    1    3    3    0    0  0.59195020038E+01 -0.10292409281E+02  0.38886917166E+02  0.40659150501E+02  0.00000000000E+00 0. -1.
         11    1    4    4    0    0  0.54360254536E+01  0.34407737326E+01 -0.82074043924E+01  0.10428364384E+02  0.51100000000E-03 0. -1.
        -11    1    4    4    0    0  0.64477454189E+01  0.54973597030E+00 -0.11422759235E+02  0.13128406583E+02  0.51100000000E-03 0.  1.
         12    1    4    4    0    0 -0.17803272876E+02  0.63018995785E+01 -0.19256753539E+02  0.26972078531E+02  0.00000000000E+00 0. -1.
</event>
<event>
 8    1  0.1338956E-013  0.9118800E+02  0.7816164E-02  0.1184000E+00
        -11   -1    0    0    0    0  0.00000000000E+00  0.00000000000E+00  0.45593999997E+02  0.45594000000E+02  0.51100000000E-03 0. -1.
         11   -1    0    0    0    0 -0.00000000000E+00 -0.00000000000E+00 -0.45593999997E+02  0.45594000000E+02  0.51100000000E-03 0.  1.
         23    2    1    2    0    0  0.00000000000E+00  0.35527136788E-14 -0.35527136788E-14  0.91188000000E+02  0.91188000000E+02 0.  0.
    9900012    2    3    3    0    0  0.60849595697E+01  0.27258541548E+02  0.29548479640E+02  0.50528837818E+02  0.29999933032E+02 0.  0.
        -12    1    3    3    0    0 -0.60849595697E+01 -0.27258541548E+02 -0.29548479640E+02  0.40659162182E+02  0.00000000000E+00 0.  1.
         11    1    4    4    0    0  0.51375252808E+01  0.10833604964E+02  0.13459329532E+02  0.18025390821E+02  0.51100000000E-03 0. -1.
        -11    1    4    4    0    0  0.96244037943E+01  0.91554115824E+01  0.16492303178E+02  0.21176561903E+02  0.51100000000E-03 0.  1.
        -12    1    4    4    0    0 -0.86769695054E+01  0.72695250012E+01 -0.40315307033E+00  0.11326885094E+02  0.00000000000E+00 0.  1.
</event>
<event>
 8    1  0.1338956E-013  0.9118800E+02  0.7816164E-02  0.1184000E+00
        -11   -1    0    0    0    0  0.00000000000E+00  0.00000000000E+00  0.45593999997E+02  0.45594000000E+02  0.51100000000E-03 0. -1.
         11   -1    0    0    0    0 -0.00000000000E+00 -0.00000000000E+00 -0.45593999997E+02  0.45594000000E+02  0.51100000000E-03 0.  1.
         23    2    1    2    0    0  0.00000000000E+00  0.00000000000E+00 -0.35527136788E-14  0.91188000000E+02  0.91188000000E+02 0.  0.
    9900012    2    3    3    0    0  0.11260003059E+01  0.34705293385E+02 -0.21152797923E+02  0.50528854342E+02  0.29999983259E+02 0.  0.
         12    1    3    3    0    0 -0.11260003059E+01 -0.34705293385E+02  0.21152797923E+02  0.40659145658E+02  0.00000000000E+00 0. -1.
         11    1    4    4    0    0  0.44117267168E+01  0.36054915900E+01 -0.15311628097E+02  0.16337345484E+02  0.51100000000E-03 0.  1.
        -11    1    4    4    0    0 -0.31475738165E+01  0.22512464266E+01 -0.35505424057E+01  0.52518266384E+01  0.51100000000E-03 0. -1.
        -12    1    4    4    0    0 -0.13815259439E+00  0.28848555369E+02 -0.22906274197E+01  0.28939682220E+02  0.00000000000E+00 0.  1.
</event>
<event>
 8    1  0.1338956E-013  0.9118800E+02  0.7816164E-02  0.1184000E+00
        -11   -1    0    0    0    0  0.00000000000E+00  0.00000000000E+00  0.45593999997E+02  0.45594000000E+02  0.51100000000E-03 0.  1.
         11   -1    0    0    0    0 -0.00000000000E+00 -0.00000000000E+00 -0.45593999997E+02  0.45594000000E+02  0.51100000000E-03 0. -1.
         23    2    1    2    0    0  0.00000000000E+00 -0.35527136788E-14  0.35527136788E-14  0.91188000000E+02  0.91188000000E+02 0.  0.
    9900012    2    3    3    0    0 -0.11290972122E+02 -0.28604334434E+02  0.26598344559E+02  0.50528856709E+02  0.29999990454E+02 0.  0.
        -12    1    3    3    0    0  0.11290972122E+02  0.28604334434E+02 -0.26598344559E+02  0.40659143291E+02  0.00000000000E+00 0.  1.
         11    1    4    4    0    0  0.46049844290E+00  0.26948434107E+01  0.66116922137E+01  0.71546288523E+01  0.51100000000E-03 0. -1.
        -11    1    4    4    0    0  0.44419320969E+00  0.13390899595E+01 -0.17954675947E+01  0.22834565185E+01  0.51100000000E-03 0.  1.
         12    1    4    4    0    0 -0.12195663774E+02 -0.32638267804E+02  0.21782119940E+02  0.41090771339E+02  0.00000000000E+00 0. -1.
</event>
<event>
 8    1  0.1338956E-013  0.9118800E+02  0.7816164E-02  0.1184000E+00
        -11   -1    0    0    0    0  0.00000000000E+00  0.00000000000E+00  0.45593999997E+02  0.45594000000E+02  0.51100000000E-03 0. -1.
         11   -1    0    0    0    0 -0.00000000000E+00 -0.00000000000E+00 -0.45593999997E+02  0.45594000000E+02  0.51100000000E-03 0.  1.
         23    2    1    2    0    0  0.00000000000E+00  0.00000000000E+00  0.00000000000E+00  0.91188000000E+02  0.91188000000E+02 0.  0.
    9900012    2    3    3    0    0 -0.20294605358E+02  0.88573087356E+01  0.34100494198E+02  0.50528848149E+02  0.29999964434E+02 0.  0.
        -12    1    3    3    0    0  0.20294605358E+02 -0.88573087356E+01 -0.34100494198E+02  0.40659151851E+02  0.00000000000E+00 0.  1.
         11    1    4    4    0    0  0.86398538586E+00  0.58718105496E+01 -0.21324786956E+01  0.63065121522E+01  0.51100000000E-03 0.  1.
        -11    1    4    4    0    0 -0.62620019070E+01  0.67109852612E+00  0.16711967126E+01  0.65158222680E+01  0.51100000000E-03 0. -1.
         12    1    4    4    0    0 -0.14896588837E+02  0.23143996598E+01  0.34561776181E+02  0.37706513729E+02  0.00000000000E+00 0. -1.
</event>
<event>
 8    1  0.1338956E-013  0.9118800E+02  0.7816164E-02  0.1184000E+00
        -11   -1    0    0    0    0  0.00000000000E+00  0.00000000000E+00  0.45593999997E+02  0.45594000000E+02  0.51100000000E-03 0. -1.
         11   -1    0    0    0    0 -0.00000000000E+00 -0.00000000000E+00 -0.45593999997E+02  0.45594000000E+02  0.51100000000E-03 0.  1.
         23    2    1    2    0    0 -0.88817841970E-15  0.00000000000E+00  0.00000000000E+00  0.91188000000E+02  0.91188000000E+02 0.  0.
    9900012    2    3    3    0    0 -0.22876339271E+01  0.22482783773E+02 -0.33800249019E+02  0.50528859959E+02  0.30000000330E+02 0.  0.
         12    1    3    3    0    0  0.22876339271E+01 -0.22482783773E+02  0.33800249019E+02  0.40659140041E+02  0.00000000000E+00 0. -1.
         11    1    4    4    0    0 -0.11275632700E+01 -0.29729276419E+01  0.25733042854E+01  0.40904269823E+01  0.51100000000E-03 0. -1.
        -11    1    4    4    0    0 -0.62088448285E+01  0.55557208341E+01 -0.11005874516E+02  0.13803806077E+02  0.51100000000E-03 0.  1.
         12    1    4    4    0    0  0.50487741714E+01  0.19899990581E+02 -0.25367678788E+02  0.32634626899E+02  0.00000000000E+00 0. -1.
</event>
<event>
 8    1  0.1338956E-013  0.9118800E+02  0.7816164E-02  0.1184000E+00
        -11   -1    0    0    0    0  0.00000000000E+00  0.00000000000E+00  0.45593999997E+02  0.45594000000E+02  0.51100000000E-03 0. -1.
         11   -1    0    0    0    0 -0.00000000000E+00 -0.00000000000E+00 -0.45593999997E+02  0.45594000000E+02  0.51100000000E-03 0.  1.
         23    2    1    2    0    0  0.00000000000E+00  0.44408920985E-15  0.00000000000E+00  0.91188000000E+02  0.91188000000E+02 0.  0.
    9900012    2    3    3    0    0 -0.19100664091E+02 -0.20151578547E+01  0.35836704466E+02  0.50528860598E+02  0.30000002274E+02 0.  0.
        -12    1    3    3    0    0  0.19100664091E+02  0.20151578547E+01 -0.35836704466E+02  0.40659139402E+02  0.00000000000E+00 0.  1.
         11    1    4    4    0    0 -0.43505548471E+01  0.60734118815E+01  0.61020881076E+01  0.96461981575E+01  0.51100000000E-03 0. -1.
        -11    1    4    4    0    0 -0.64287367340E+00  0.71849545508E+01  0.87801152464E+01  0.11363418608E+02  0.51100000000E-03 0.  1.
        -12    1    4    4    0    0 -0.14107235570E+02 -0.15273524287E+02  0.20954501112E+02  0.29519243833E+02  0.00000000000E+00 0.  1.
</event>
<event>
 8    1  0.1338956E-013  0.9118800E+02  0.7816164E-02  0.1184000E+00
        -11   -1    0    0    0    0  0.00000000000E+00  0.00000000000E+00  0.45593999997E+02  0.45594000000E+02  0.51100000000E-03 0. -1.
         11   -1    0    0    0    0 -0.00000000000E+00 -0.00000000000E+00 -0.45593999997E+02  0.45594000000E+02  0.51100000000E-03 0.  1.
         23    2    1    2    0    0  0.35527136788E-14  0.17763568394E-14 -0.35527136788E-14  0.91188000000E+02  0.91188000000E+02 0.  0.
    9900012    2    3    3    0    0 -0.28039775717E+02  0.10160412916E+02  0.27635157632E+02  0.50528868796E+02  0.30000027192E+02 0.  0.
        -12    1    3    3    0    0  0.28039775717E+02 -0.10160412916E+02 -0.27635157632E+02  0.40659131204E+02  0.00000000000E+00 0.  1.
         11    1    4    4    0    0 -0.35145442181E+01  0.95555003070E+00  0.45661219233E+01  0.58407676381E+01  0.51100000000E-03 0. -1.
        -11    1    4    4    0    0 -0.86105589688E+00 -0.80174184023E+01  0.11997580267E+01  0.81522901493E+01  0.51100000000E-03 0.  1.
        -12    1    4    4    0    0 -0.23664175602E+02  0.17222281288E+02  0.21869277682E+02  0.36535811008E+02  0.00000000000E+00 0.  1.
</event>
<event>
 8    1  0.1338956E-013  0.9118800E+02  0.7816164E-02  0.1184000E+00
        -11   -1    0    0    0    0  0.00000000000E+00  0.00000000000E+00  0.45593999997E+02  0.45594000000E+02  0.51100000000E-03 0.  1.
         11   -1    0    0    0    0 -0.00000000000E+00 -0.00000000000E+00 -0.45593999997E+02  0.45594000000E+02  0.51100000000E-03 0. -1.
         23    2    1    2    0    0  0.00000000000E+00  0.35527136788E-14 -0.11102230246E-15  0.91188000000E+02  0.91188000000E+02 0.  0.
    9900012    2    3    3    0    0 -0.26164574319E+02  0.31117508610E+02 -0.53092412628E+00  0.50528853774E+02  0.29999981531E+02 0.  0.
        -12    1    3    3    0    0  0.26164574319E+02 -0.31117508610E+02  0.53092412628E+00  0.40659146226E+02  0.00000000000E+00 0.  1.
         11    1    4    4    0    0 -0.60958860850E+01  0.14396042001E+02 -0.24378808705E+01  0.15822424462E+02  0.51100000000E-03 0. -1.
        -11    1    4    4    0    0 -0.15412891950E+02  0.22334300791E+02  0.31152503315E+01  0.27314520223E+02  0.51100000000E-03 0.  1.
         12    1    4    4    0    0 -0.46557962844E+01 -0.56128341821E+01 -0.12082935873E+01  0.73919090897E+01  0.00000000000E+00 0. -1.
</event>
<event>
 8    1  0.1338956E-013  0.9118800E+02  0.7816164E-02  0.1184000E+00
        -11   -1    0    0    0    0  0.00000000000E+00  0.00000000000E+00  0.45593999997E+02  0.45594000000E+02  0.51100000000E-03 0. -1.
         11   -1    0    0    0    0 -0.00000000000E+00 -0.00000000000E+00 -0.45593999997E+02  0.45594000000E+02  0.51100000000E-03 0.  1.
         23    2    1    2    0    0  0.00000000000E+00 -0.35527136788E-14 -0.17763568394E-14  0.91188000000E+02  0.91188000000E+02 0.  0.
    9900012    2    3    3    0    0  0.33150048728E+02  0.19576251767E+02 -0.13076638815E+02  0.50529005342E+02  0.30000442235E+02 0.  0.
         12    1    3    3    0    0 -0.33150048728E+02 -0.19576251767E+02  0.13076638815E+02  0.40658994658E+02  0.00000000000E+00 0. -1.
         11    1    4    4    0    0  0.38642196734E+01  0.37133702891E+01  0.17850858845E+01  0.56487029010E+01  0.51100000000E-03 0. -1.
        -11    1    4    4    0    0  0.24649156844E+02  0.99211456147E+01  0.17606337438E+01  0.26629117426E+02  0.51100000000E-03 0.  1.
         12    1    4    4    0    0  0.46366722099E+01  0.59417358631E+01 -0.16622358443E+02  0.18251185015E+02  0.00000000000E+00 0. -1.
</event>
<event>
 8    1  0.1338956E-013  0.9118800E+02  0.7816164E-02  0.1184000E+00
        -11   -1    0    0    0    0  0.00000000000E+00  0.00000000000E+00  0.45593999997E+02  0.45594000000E+02  0.51100000000E-03 0. -1.
         11   -1    0    0    0    0 -0.00000000000E+00 -0.00000000000E+00 -0.45593999997E+02  0.45594000000E+02  0.51100000000E-03 0.  1.
         23    2    1    2    0    0  0.00000000000E+00  0.00000000000E+00 -0.17763568394E-14  0.91188000000E+02  0.91188000000E+02 0.  0.
    9900012    2    3    3    0    0  0.34187716833E+02  0.18589481811E+02 -0.11781209384E+02  0.50528859443E+02  0.29999998764E+02 0.  0.
         12    1    3    3    0    0 -0.34187716833E+02 -0.18589481811E+02  0.11781209384E+02  0.40659140557E+02  0.00000000000E+00 0. -1.
         11    1    4    4    0    0 -0.19230236280E+01 -0.56903907743E+00 -0.28703999540E+00  0.20258868590E+01  0.51100000000E-03 0. -1.
        -11    1    4    4    0    0  0.22629322153E+02  0.20243239185E+02 -0.15906187239E+02  0.34276548054E+02  0.51100000000E-03 0.  1.
         12    1    4    4    0    0  0.13481418308E+02 -0.10847182967E+01  0.44120178501E+01  0.14226424530E+02  0.00000000000E+00 0. -1.
</event>
<event>
 8    1  0.1338956E-013  0.9118800E+02  0.7816164E-02  0.1184000E+00
        -11   -1    0    0    0    0  0.00000000000E+00  0.00000000000E+00  0.45593999997E+02  0.45594000000E+02  0.51100000000E-03 0. -1.
         11   -1    0    0    0    0 -0.00000000000E+00 -0.00000000000E+00 -0.45593999997E+02  0.45594000000E+02  0.51100000000E-03 0.  1.
         23    2    1    2    0    0  0.00000000000E+00  0.35527136788E-14  0.17763568394E-14  0.91188000000E+02  0.91188000000E+02 0.  0.
    9900012    2    3    3    0    0  0.32905394436E+02 -0.23704125232E+02 -0.29180579389E+01  0.50528860829E+02  0.30000002976E+02 0.  0.
         12    1    3    3    0    0 -0.32905394436E+02  0.23704125232E+02  0.29180579389E+01  0.40659139171E+02  0.00000000000E+00 0. -1.
         11    1    4    4    0    0  0.43259042727E+01 -0.22569586836E+01  0.11102848482E+01  0.50040026960E+01  0.51100000000E-03 0. -1.
        -11    1    4    4    0    0  0.30858302074E+02 -0.15842474977E+02 -0.10909072701E+02  0.36362435119E+02  0.51100000000E-03 0.  1.
         12    1    4    4    0    0 -0.22788119116E+01 -0.56046915715E+01  0.68807299142E+01  0.91624230143E+01  0.00000000000E+00 0. -1.
</event>
<event>
 8    1  0.1338956E-013  0.9118800E+02  0.7816164E-02  0.1184000E+00
        -11   -1    0    0    0    0  0.00000000000E+00  0.00000000000E+00  0.45593999997E+02  0.45594000000E+02  0.51100000000E-03 0. -1.
         11   -1    0    0    0    0 -0.00000000000E+00 -0.00000000000E+00 -0.45593999997E+02  0.45594000000E+02  0.51100000000E-03 0.  1.
         23    2    1    2    0    0  0.77715611724E-15  0.71054273576E-14  0.35527136788E-14  0.91188000000E+02  0.91188000000E+02 0.  0.
    9900012    2    3    3    0    0  0.59873772203E+00 -0.33177445282E+02 -0.23496054245E+02  0.50528856780E+02  0.29999990668E+02 0.  0.
         12    1    3    3    0    0 -0.59873772203E+00  0.33177445282E+02  0.23496054245E+02  0.40659143220E+02  0.00000000000E+00 0. -1.
         11    1    4    4    0    0  0.99697919957E+01 -0.14604819827E+02 -0.10268607899E+02  0.20448516402E+02  0.51100000000E-03 0. -1.
        -11    1    4    4    0    0  0.73729874072E+00  0.24936499404E+01  0.92807084081E+00  0.27610170599E+01  0.51100000000E-03 0.  1.
        -12    1    4    4    0    0 -0.10108353014E+02 -0.21066275396E+02 -0.14155517186E+02  0.27319323318E+02  0.00000000000E+00 0.  1.
</event>
<event>
 8    1  0.1338956E-013  0.9118800E+02  0.7816164E-02  0.1184000E+00
        -11   -1    0    0    0    0  0.00000000000E+00  0.00000000000E+00  0.45593999997E+02  0.45594000000E+02  0.51100000000E-03 0. -1.
         11   -1    0    0    0    0 -0.00000000000E+00 -0.00000000000E+00 -0.45593999997E+02  0.45594000000E+02  0.51100000000E-03 0.  1.
         23    2    1    2    0    0  0.00000000000E+00 -0.35527136788E-14  0.35527136788E-14  0.91188000000E+02  0.91188000000E+02 0.  0.
    9900012    2    3    3    0    0 -0.81247696742E+01 -0.24157400726E+02  0.31679224258E+02  0.50528866442E+02  0.30000020039E+02 0.  0.
        -12    1    3    3    0    0  0.81247696742E+01  0.24157400726E+02 -0.31679224258E+02  0.40659133558E+02  0.00000000000E+00 0.  1.
         11    1    4    4    0    0 -0.39330873012E+01 -0.93198554925E+01  0.15453305729E+02  0.18469800766E+02  0.51100000000E-03 0. -1.
        -11    1    4    4    0    0 -0.71654539915E+01 -0.88313035711E+00  0.16260546308E+02  0.17791262368E+02  0.51100000000E-03 0.  1.
        -12    1    4    4    0    0  0.29737716186E+01 -0.13954414876E+02 -0.34627779637E-01  0.14267803309E+02  0.00000000000E+00 0.  1.
</event>
<event>
 8    1  0.1338956E-013  0.9118800E+02  0.7816164E-02  0.1184000E+00
        -11   -1    0    0    0    0  0.00000000000E+00  0.00000000000E+00  0.45593999997E+02  0.45594000000E+02  0.51100000000E-03 0. -1.
         11   -1    0    0    0    0 -0.00000000000E+00 -0.00000000000E+00 -0.45593999997E+02  0.45594000000E+02  0.51100000000E-03 0.  1.
         23    2    1    2    0    0  0.00000000000E+00 -0.88817841970E-15  0.00000000000E+00  0.91188000000E+02  0.91188000000E+02 0.  0.
    9900012    2    3    3    0    0  0.22164559684E+02 -0.56045462166E+01  0.33622581591E+02  0.50528971026E+02  0.30000337928E+02 0.  0.
        -12    1    3    3    0    0 -0.22164559684E+02  0.56045462166E+01 -0.33622581591E+02  0.40659028974E+02  0.00000000000E+00 0.  1.
         11    1    4    4    0    0  0.32416919837E+01  0.37250246207E+01  0.69365929587E+01  0.85147341401E+01  0.51100000000E-03 0. -1.
        -11    1    4    4    0    0  0.36749433517E+01  0.29903109541E+01 -0.35911787793E+01  0.59450595898E+01  0.51100000000E-03 0.  1.
         12    1    4    4    0    0  0.15247924348E+02 -0.12319881791E+02  0.30277167412E+02  0.36069177296E+02  0.00000000000E+00 0. -1.
</event>
<event>
 8    1  0.1338956E-013  0.9118800E+02  0.7816164E-02  0.1184000E+00
        -11   -1    0    0    0    0  0.00000000000E+00  0.00000000000E+00  0.45593999997E+02  0.45594000000E+02  0.51100000000E-03 0. -1.
         11   -1    0    0    0    0 -0.00000000000E+00 -0.00000000000E+00 -0.45593999997E+02  0.45594000000E+02  0.51100000000E-03 0.  1.
         23    2    1    2    0    0  0.00000000000E+00 -0.46629367034E-14 -0.71054273576E-14  0.91188000000E+02  0.91188000000E+02 0.  0.
    9900012    2    3    3    0    0  0.10858025815E+02 -0.12038829139E+01 -0.39164006602E+02  0.50528862382E+02  0.30000007698E+02 0.  0.
         12    1    3    3    0    0 -0.10858025815E+02  0.12038829139E+01  0.39164006602E+02  0.40659137618E+02  0.00000000000E+00 0. -1.
         11    1    4    4    0    0  0.83730154992E+01 -0.56614810338E+01 -0.16693154968E+02  0.19514640122E+02  0.51100000000E-03 0. -1.
        -11    1    4    4    0    0 -0.26801060057E+00 -0.82195221769E+01 -0.68039699300E+01  0.10673630196E+02  0.51100000000E-03 0.  1.
        -12    1    4    4    0    0  0.27530209165E+01  0.12677120297E+02 -0.15666881704E+02  0.20340592064E+02  0.00000000000E+00 0.  1.
</event>
<event>
 8    1  0.1338956E-013  0.9118800E+02  0.7816164E-02  0.1184000E+00
        -11   -1    0    0    0    0  0.00000000000E+00  0.00000000000E+00  0.45593999997E+02  0.45594000000E+02  0.51100000000E-03 0.  1.
         11   -1    0    0    0    0 -0.00000000000E+00 -0.00000000000E+00 -0.45593999997E+02  0.45594000000E+02  0.51100000000E-03 0. -1.
         23    2    1    2    0    0  0.00000000000E+00 -0.35527136788E-14  0.00000000000E+00  0.91188000000E+02  0.91188000000E+02 0.  0.
    9900012    2    3    3    0    0  0.20681283205E+02 -0.27047715855E+02 -0.22223219611E+02  0.50528857143E+02  0.29999991773E+02 0.  0.
         12    1    3    3    0    0 -0.20681283205E+02  0.27047715855E+02  0.22223219611E+02  0.40659142857E+02  0.00000000000E+00 0. -1.
         11    1    4    4    0    0 -0.25568709576E+01  0.87327541249E+00 -0.33508435683E+00  0.27225871570E+01  0.51100000000E-03 0. -1.
        -11    1    4    4    0    0  0.43009439313E+01 -0.24727148011E+01  0.43821735407E+01  0.66193566446E+01  0.51100000000E-03 0.  1.
        -12    1    4    4    0    0  0.18937210231E+02 -0.25448276467E+02 -0.26270308794E+02  0.41186913342E+02  0.00000000000E+00 0.  1.
</event>
<event>
 8    1  0.1338956E-013  0.9118800E+02  0.7816164E-02  0.1184000E+00
        -11   -1    0    0    0    0  0.00000000000E+00  0.00000000000E+00  0.45593999997E+02  0.45594000000E+02  0.51100000000E-03 0. -1.
         11   -1    0    0    0    0 -0.00000000000E+00 -0.00000000000E+00 -0.45593999997E+02  0.45594000000E+02  0.51100000000E-03 0.  1.
         23    2    1    2    0    0  0.35527136788E-14 -0.17763568394E-14  0.35527136788E-14  0.91188000000E+02  0.91188000000E+02 0.  0.
    9900012    2    3    3    0    0  0.23074496290E+02 -0.14719184287E+02 -0.30067897808E+02  0.50528865188E+02  0.30000016225E+02 0.  0.
         12    1    3    3    0    0 -0.23074496290E+02  0.14719184287E+02  0.30067897808E+02  0.40659134812E+02  0.00000000000E+00 0. -1.
         11    1    4    4    0    0 -0.33331490464E+01 -0.91715441339E+01 -0.17629947319E+02  0.20150487515E+02  0.51100000000E-03 0. -1.
        -11    1    4    4    0    0  0.10075605775E+01  0.72551549476E+00  0.30253236902E+00  0.12779190686E+01  0.51100000000E-03 0.  1.
        -12    1    4    4    0    0  0.25400084759E+02 -0.62731556481E+01 -0.12740482858E+02  0.29100458605E+02  0.00000000000E+00 0.  1.
</event>
<event>
 8    1  0.1581953E-013  0.9118800E+02  0.7816164E-02  0.1184000E+00
        -11   -1    0    0    0    0  0.00000000000E+00  0.00000000000E+00  0.45593999997E+02  0.45594000000E+02  0.51100000000E-03 0. -1.
         11   -1    0    0    0    0 -0.00000000000E+00 -0.00000000000E+00 -0.45593999997E+02  0.45594000000E+02  0.51100000000E-03 0.  1.
         23    2    1    2    0    0 -0.17763568394E-14  0.35527136788E-14 -0.71054273576E-14  0.91188000000E+02  0.91188000000E+02 0.  0.
    9900012    2    3    3    0    0 -0.14202757708E+02  0.18781686473E+02 -0.33146580059E+02  0.50528857819E+02  0.29999993826E+02 0.  0.
         12    1    3    3    0    0  0.14202757708E+02 -0.18781686473E+02  0.33146580059E+02  0.40659142181E+02  0.00000000000E+00 0. -1.
         11    1    4    4    0    0 -0.10971764214E+02  0.58719453881E+01 -0.78529675033E+01  0.14714905758E+02  0.51100000000E-03 0. -1.
        -11    1    4    4    0    0 -0.11601226038E+02  0.88405037610E+01 -0.20989899741E+02  0.25560102577E+02  0.51100000000E-03 0.  1.
         12    1    4    4    0    0  0.83702325442E+01  0.40692373242E+01 -0.43037128153E+01  0.10253849484E+02  0.00000000000E+00 0. -1.
</event>
<event>
 8    1  0.1338956E-013  0.9118800E+02  0.7816164E-02  0.1184000E+00
        -11   -1    0    0    0    0  0.00000000000E+00  0.00000000000E+00  0.45593999997E+02  0.45594000000E+02  0.51100000000E-03 0. -1.
         11   -1    0    0    0    0 -0.00000000000E+00 -0.00000000000E+00 -0.45593999997E+02  0.45594000000E+02  0.51100000000E-03 0.  1.
         23    2    1    2    0    0 -0.17763568394E-14 -0.35527136788E-14  0.71054273576E-14  0.91188000000E+02  0.91188000000E+02 0.  0.
    9900012    2    3    3    0    0  0.13937571920E+02  0.17889091997E+02 -0.33747465495E+02  0.50528844194E+02  0.29999952411E+02 0.  0.
         12    1    3    3    0    0 -0.13937571920E+02 -0.17889091997E+02  0.33747465495E+02  0.40659155806E+02  0.00000000000E+00 0. -1.
         11    1    4    4    0    0 -0.38990071093E+01 -0.88279301742E-01  0.42499774527E+00  0.39230948266E+01  0.51100000000E-03 0. -1.
        -11    1    4    4    0    0  0.99853678869E+01  0.17965887143E+02 -0.13758720685E+02  0.24734248883E+02  0.51100000000E-03 0.  1.
         12    1    4    4    0    0  0.78512111429E+01  0.11484155906E-01 -0.20413742555E+02  0.21871500484E+02  0.00000000000E+00 0. -1.
</event>
<event>
 8    1  0.1338956E-013  0.9118800E+02  0.7816164E-02  0.1184000E+00
        -11   -1    0    0    0    0  0.00000000000E+00  0.00000000000E+00  0.45593999997E+02  0.45594000000E+02  0.51100000000E-03 0. -1.
         11   -1    0    0    0    0 -0.00000000000E+00 -0.00000000000E+00 -0.45593999997E+02  0.45594000000E+02  0.51100000000E-03 0.  1.
         23    2    1    2    0    0 -0.35527136788E-14  0.17763568394E-14  0.35527136788E-14  0.91188000000E+02  0.91188000000E+02 0.  0.
    9900012    2    3    3    0    0 -0.22717381325E+02  0.13914357232E+02  0.30716080831E+02  0.50528851299E+02  0.29999974008E+02 0.  0.
        -12    1    3    3    0    0  0.22717381325E+02 -0.13914357232E+02 -0.30716080831E+02  0.40659148701E+02  0.00000000000E+00 0.  1.
         11    1    4    4    0    0 -0.17921483451E+02  0.89662909148E+01  0.33850065698E+02  0.39337016789E+02  0.51100000000E-03 0. -1.
        -11    1    4    4    0    0 -0.25407369629E+01 -0.74576617278E+00  0.19042599383E+01  0.32615514211E+01  0.51100000000E-03 0.  1.
        -12    1    4    4    0    0 -0.22551609108E+01  0.56938324899E+01 -0.50382448046E+01  0.79302830887E+01  0.00000000000E+00 0.  1.
</event>
<event>
 8    1  0.1338956E-013  0.9118800E+02  0.7816164E-02  0.1184000E+00
        -11   -1    0    0    0    0  0.00000000000E+00  0.00000000000E+00  0.45593999997E+02  0.45594000000E+02  0.51100000000E-03 0. -1.
         11   -1    0    0    0    0 -0.00000000000E+00 -0.00000000000E+00 -0.45593999997E+02  0.45594000000E+02  0.51100000000E-03 0.  1.
         23    2    1    2    0    0  0.00000000000E+00  0.00000000000E+00  0.71054273576E-14  0.91188000000E+02  0.91188000000E+02 0.  0.
    9900012    2    3    3    0    0 -0.16542828055E+02  0.18579485946E+02 -0.32160550707E+02  0.50528886878E+02  0.30000082153E+02 0.  0.
         12    1    3    3    0    0  0.16542828055E+02 -0.18579485946E+02  0.32160550707E+02  0.40659113122E+02  0.00000000000E+00 0. -1.
         11    1    4    4    0    0 -0.12019495067E+02  0.72511840319E+01 -0.47988214421E+01  0.14834979576E+02  0.51100000000E-03 0. -1.
        -11    1    4    4    0    0 -0.65388660980E+01  0.12961240145E+02 -0.29135164612E+02  0.32551625661E+02  0.51100000000E-03 0.  1.
         12    1    4    4    0    0  0.20155331101E+01 -0.16329382303E+01  0.17734353466E+01  0.31422816408E+01  0.00000000000E+00 0. -1.
</event>
<event>
 8    1  0.1338956E-013  0.9118800E+02  0.7816164E-02  0.1184000E+00
        -11   -1    0    0    0    0  0.00000000000E+00  0.00000000000E+00  0.45593999997E+02  0.45594000000E+02  0.51100000000E-03 0. -1.
         11   -1    0    0    0    0 -0.00000000000E+00 -0.00000000000E+00 -0.45593999997E+02  0.45594000000E+02  0.51100000000E-03 0.  1.
         23    2    1    2    0    0  0.35527136788E-14  0.00000000000E+00  0.00000000000E+00  0.91188000000E+02  0.91188000000E+02 0.  0.
    9900012    2    3    3    0    0  0.20028598863E+02  0.28459146121E+02 -0.21026136311E+02  0.50528853691E+02  0.29999981280E+02 0.  0.
         12    1    3    3    0    0 -0.20028598863E+02 -0.28459146121E+02  0.21026136311E+02  0.40659146309E+02  0.00000000000E+00 0. -1.
         11    1    4    4    0    0  0.51774451992E+01  0.88980718184E+01  0.53391459402E+01  0.11596900470E+02  0.51100000000E-03 0. -1.
        -11    1    4    4    0    0  0.39171391339E+01 -0.67518485530E+00 -0.41888257624E-01  0.39751237051E+01  0.51100000000E-03 0.  1.
        -12    1    4    4    0    0  0.10934014530E+02  0.20236259158E+02 -0.26323393994E+02  0.34956829516E+02  0.00000000000E+00 0.  1.
</event>
<event>
 8    1  0.1338956E-013  0.9118800E+02  0.7816164E-02  0.1184000E+00
        -11   -1    0    0    0    0  0.00000000000E+00  0.00000000000E+00  0.45593999997E+02  0.45594000000E+02  0.51100000000E-03 0.  1.
         11   -1    0    0    0    0 -0.00000000000E+00 -0.00000000000E+00 -0.45593999997E+02  0.45594000000E+02  0.51100000000E-03 0. -1.
         23    2    1    2    0    0 -0.17763568394E-14 -0.10658141036E-13  0.35527136788E-14  0.91188000000E+02  0.91188000000E+02 0.  0.
    9900012    2    3    3    0    0  0.12388235775E+02  0.29836406407E+02 -0.24687771410E+02  0.50528860928E+02  0.30000003275E+02 0.  0.
         12    1    3    3    0    0 -0.12388235775E+02 -0.29836406407E+02  0.24687771410E+02  0.40659139072E+02  0.00000000000E+00 0. -1.
         11    1    4    4    0    0  0.54812837430E+01  0.97848146044E+01 -0.53440345197E+01  0.12423597447E+02  0.51100000000E-03 0. -1.
        -11    1    4    4    0    0  0.10703316050E+02  0.24009143466E+02 -0.11888459035E+02  0.28850223620E+02  0.51100000000E-03 0.  1.
         12    1    4    4    0    0 -0.37963640177E+01 -0.39575516632E+01 -0.74552778554E+01  0.92550398607E+01  0.00000000000E+00 0. -1.
</event>
<event>
 8    1  0.1338956E-013  0.9118800E+02  0.7816164E-02  0.1184000E+00
        -11   -1    0    0    0    0  0.00000000000E+00  0.00000000000E+00  0.45593999997E+02  0.45594000000E+02  0.51100000000E-03 0. -1.
         11   -1    0    0    0    0 -0.00000000000E+00 -0.00000000000E+00 -0.45593999997E+02  0.45594000000E+02  0.51100000000E-03 0.  1.
         23    2    1    2    0    0  0.00000000000E+00 -0.35527136788E-14  0.00000000000E+00  0.91188000000E+02  0.91188000000E+02 0.  0.
    9900012    2    3    3    0    0  0.28168178222E+02 -0.23595809429E+02 -0.17405685690E+02  0.50528851198E+02  0.29999973701E+02 0.  0.
         12    1    3    3    0    0 -0.28168178222E+02  0.23595809429E+02  0.17405685690E+02  0.40659148802E+02  0.00000000000E+00 0. -1.
         11    1    4    4    0    0 -0.21149325029E+01  0.20046886635E+01 -0.73567001596E+01  0.79128221027E+01  0.51100000000E-03 0. -1.
        -11    1    4    4    0    0  0.12922330154E+01  0.66233913046E+00  0.12316824117E+01  0.19041011302E+01  0.51100000000E-03 0.  1.
        -12    1    4    4    0    0  0.28990877710E+02 -0.26262837223E+02 -0.11280667942E+02  0.40711927965E+02  0.00000000000E+00 0.  1.
</event>
<event>
 8    1  0.1338956E-013  0.9118800E+02  0.7816164E-02  0.1184000E+00
        -11   -1    0    0    0    0  0.00000000000E+00  0.00000000000E+00  0.45593999997E+02  0.45594000000E+02  0.51100000000E-03 0. -1.
         11   -1    0    0    0    0 -0.00000000000E+00 -0.00000000000E+00 -0.45593999997E+02  0.45594000000E+02  0.51100000000E-03 0.  1.
         23    2    1    2    0    0 -0.71054273576E-14  0.35527136788E-14 -0.35527136788E-14  0.91188000000E+02  0.91188000000E+02 0.  0.
    9900012    2    3    3    0    0  0.32571212999E+02 -0.18006592043E+02  0.16372059216E+02  0.50528860853E+02  0.30000003050E+02 0.  0.
        -12    1    3    3    0    0 -0.32571212999E+02  0.18006592043E+02 -0.16372059216E+02  0.40659139147E+02  0.00000000000E+00 0.  1.
         11    1    4    4    0    0  0.15887510364E+02 -0.75750295244E+01  0.31359905401E+01  0.17878156918E+02  0.51100000000E-03 0. -1.
        -11    1    4    4    0    0  0.21434480795E+02 -0.51086076324E+01  0.12844646028E+02  0.25505289074E+02  0.51100000000E-03 0.  1.
        -12    1    4    4    0    0 -0.47507781607E+01 -0.53229548857E+01  0.39142264808E+00  0.71454148611E+01  0.00000000000E+00 0.  1.
</event>
<event>
 8    1  0.1338956E-013  0.9118800E+02  0.7816164E-02  0.1184000E+00
        -11   -1    0    0    0    0  0.00000000000E+00  0.00000000000E+00  0.45593999997E+02  0.45594000000E+02  0.51100000000E-03 0. -1.
         11   -1    0    0    0    0 -0.00000000000E+00 -0.00000000000E+00 -0.45593999997E+02  0.45594000000E+02  0.51100000000E-03 0.  1.
         23    2    1    2    0    0  0.22204460493E-15  0.22204460493E-15  0.71054273576E-14  0.91188000000E+02  0.91188000000E+02 0.  0.
    9900012    2    3    3    0    0  0.15986165751E+01 -0.57060722523E+00  0.40623675499E+02  0.50528878285E+02  0.30000056035E+02 0.  0.
        -12    1    3    3    0    0 -0.15986165751E+01  0.57060722523E+00 -0.40623675499E+02  0.40659121715E+02  0.00000000000E+00 0.  1.
         11    1    4    4    0    0  0.60315112025E+01 -0.40756042167E+01  0.28225263481E+02  0.29148845190E+02  0.51100000000E-03 0. -1.
        -11    1    4    4    0    0 -0.59325728701E+01 -0.49900987588E+01  0.95394237318E+01  0.12292156519E+02  0.51100000000E-03 0.  1.
        -12    1    4    4    0    0  0.14996782428E+01  0.84950957503E+01  0.28589882870E+01  0.90878765762E+01  0.00000000000E+00 0.  1.
</event>
<event>
 8    1  0.1338956E-013  0.9118800E+02  0.7816164E-02  0.1184000E+00
        -11   -1    0    0    0    0  0.00000000000E+00  0.00000000000E+00  0.45593999997E+02  0.45594000000E+02  0.51100000000E-03 0.  1.
         11   -1    0    0    0    0 -0.00000000000E+00 -0.00000000000E+00 -0.45593999997E+02  0.45594000000E+02  0.51100000000E-03 0. -1.
         23    2    1    2    0    0 -0.35527136788E-14 -0.35527136788E-14  0.00000000000E+00  0.91188000000E+02  0.91188000000E+02 0.  0.
    9900012    2    3    3    0    0  0.26302823944E+02 -0.27560384208E+02  0.14203955760E+02  0.50528859769E+02  0.29999999752E+02 0.  0.
        -12    1    3    3    0    0 -0.26302823944E+02  0.27560384208E+02 -0.14203955760E+02  0.40659140231E+02  0.00000000000E+00 0.  1.
         11    1    4    4    0    0  0.58878206433E+01  0.31494360196E+01  0.16340470708E+01  0.68742628158E+01  0.51100000000E-03 0. -1.
        -11    1    4    4    0    0  0.11284721713E+02 -0.55702223269E+01  0.11243183573E+02  0.16875470305E+02  0.51100000000E-03 0.  1.
        -12    1    4    4    0    0  0.91302815880E+01 -0.25139597900E+02  0.13267251167E+01  0.26779126647E+02  0.00000000000E+00 0.  1.
</event>
<event>
 8    1  0.1338956E-013  0.9118800E+02  0.7816164E-02  0.1184000E+00
        -11   -1    0    0    0    0  0.00000000000E+00  0.00000000000E+00  0.45593999997E+02  0.45594000000E+02  0.51100000000E-03 0. -1.
         11   -1    0    0    0    0 -0.00000000000E+00 -0.00000000000E+00 -0.45593999997E+02  0.45594000000E+02  0.51100000000E-03 0.  1.
         23    2    1    2    0    0  0.00000000000E+00  0.11102230246E-15  0.71054273576E-14  0.91188000000E+02  0.91188000000E+02 0.  0.
    9900012    2    3    3    0    0 -0.12873278296E+02  0.34139568278E+00 -0.38565895029E+02  0.50528854602E+02  0.29999984048E+02 0.  0.
         12    1    3    3    0    0  0.12873278296E+02 -0.34139568278E+00  0.38565895029E+02  0.40659145398E+02  0.00000000000E+00 0. -1.
         11    1    4    4    0    0  0.34715720501E+01  0.79208318482E+00 -0.77699241593E+00  0.36445748375E+01  0.51100000000E-03 0. -1.
        -11    1    4    4    0    0  0.53736321586E+01 -0.17030952239E+01 -0.50006388692E+01  0.75354392890E+01  0.51100000000E-03 0.  1.
        -12    1    4    4    0    0 -0.21718482504E+02  0.12524077218E+01 -0.32788263744E+02  0.39348840475E+02  0.00000000000E+00 0.  1.
</event>
<event>
 8    1  0.1338956E-013  0.9118800E+02  0.7816164E-02  0.1184000E+00
        -11   -1    0    0    0    0  0.00000000000E+00  0.00000000000E+00  0.45593999997E+02  0.45594000000E+02  0.51100000000E-03 0. -1.
         11   -1    0    0    0    0 -0.00000000000E+00 -0.00000000000E+00 -0.45593999997E+02  0.45594000000E+02  0.51100000000E-03 0.  1.
         23    2    1    2    0    0  0.00000000000E+00  0.00000000000E+00  0.00000000000E+00  0.91188000000E+02  0.91188000000E+02 0.  0.
    9900012    2    3    3    0    0 -0.20590138973E+02 -0.31303876163E+02  0.15788592467E+02  0.50528854192E+02  0.29999982802E+02 0.  0.
        -12    1    3    3    0    0  0.20590138973E+02  0.31303876163E+02 -0.15788592467E+02  0.40659145808E+02  0.00000000000E+00 0.  1.
         11    1    4    4    0    0 -0.28013033423E+01 -0.18381214604E+01  0.33295736032E+01  0.47235634386E+01  0.51100000000E-03 0. -1.
        -11    1    4    4    0    0 -0.18409536423E+02 -0.30559821414E+02  0.18114327142E+02  0.40011780318E+02  0.51100000000E-03 0.  1.
        -12    1    4    4    0    0  0.62070079159E+00  0.10940667114E+01 -0.56553082785E+01  0.57935104355E+01  0.00000000000E+00 0.  1.
</event>
<event>
 8    1  0.1338956E-013  0.9118800E+02  0.7816164E-02  0.1184000E+00
        -11   -1    0    0    0    0  0.00000000000E+00  0.00000000000E+00  0.45593999997E+02  0.45594000000E+02  0.51100000000E-03 0.  1.
         11   -1    0    0    0    0 -0.00000000000E+00 -0.00000000000E+00 -0.45593999997E+02  0.45594000000E+02  0.51100000000E-03 0. -1.
         23    2    1    2    0    0  0.00000000000E+00 -0.35527136788E-14  0.17763568394E-14  0.91188000000E+02  0.91188000000E+02 0.  0.
    9900012    2    3    3    0    0  0.23916365007E+02  0.30037997711E+02 -0.13375019099E+02  0.50528868706E+02  0.30000026920E+02 0.  0.
         12    1    3    3    0    0 -0.23916365007E+02 -0.30037997711E+02  0.13375019099E+02  0.40659131294E+02  0.00000000000E+00 0. -1.
         11    1    4    4    0    0  0.13168279350E+02  0.15798052973E+02 -0.88071575979E+01  0.22372931949E+02  0.51100000000E-03 0. -1.
        -11    1    4    4    0    0  0.17010648909E+02  0.11106472971E+02 -0.56107491610E+01  0.21075967939E+02  0.51100000000E-03 0.  1.
        -12    1    4    4    0    0 -0.62625632518E+01  0.31334717673E+01  0.10428876602E+01  0.70799688185E+01  0.00000000000E+00 0.  1.
</event>
<event>
 8    1  0.1338956E-013  0.9118800E+02  0.7816164E-02  0.1184000E+00
        -11   -1    0    0    0    0  0.00000000000E+00  0.00000000000E+00  0.45593999997E+02  0.45594000000E+02  0.51100000000E-03 0. -1.
         11   -1    0    0    0    0 -0.00000000000E+00 -0.00000000000E+00 -0.45593999997E+02  0.45594000000E+02  0.51100000000E-03 0.  1.
         23    2    1    2    0    0 -0.17763568394E-14 -0.35527136788E-14  0.00000000000E+00  0.91188000000E+02  0.91188000000E+02 0.  0.
    9900012    2    3    3    0    0 -0.93251086320E+01  0.31759096904E+02  0.23612905484E+02  0.50528841222E+02  0.29999943379E+02 0.  0.
        -12    1    3    3    0    0  0.93251086320E+01 -0.31759096904E+02 -0.23612905484E+02  0.40659158778E+02  0.00000000000E+00 0.  1.
         11    1    4    4    0    0  0.37498732252E+01 -0.33588320937E+01  0.81765219702E+01  0.96020213512E+01  0.51100000000E-03 0. -1.
        -11    1    4    4    0    0 -0.27585919341E+01  0.26315565366E+01  0.17844961915E+01  0.42094353757E+01  0.51100000000E-03 0.  1.
         12    1    4    4    0    0 -0.10316389923E+02  0.32486372461E+02  0.13651887322E+02  0.36717384495E+02  0.00000000000E+00 0. -1.
</event>
<event>
 8    1  0.1338956E-013  0.9118800E+02  0.7816164E-02  0.1184000E+00
        -11   -1    0    0    0    0  0.00000000000E+00  0.00000000000E+00  0.45593999997E+02  0.45594000000E+02  0.51100000000E-03 0. -1.
         11   -1    0    0    0    0 -0.00000000000E+00 -0.00000000000E+00 -0.45593999997E+02  0.45594000000E+02  0.51100000000E-03 0.  1.
         23    2    1    2    0    0  0.26645352591E-14 -0.71054273576E-14 -0.35527136788E-14  0.91188000000E+02  0.91188000000E+02 0.  0.
    9900012    2    3    3    0    0 -0.73174287692E+01  0.35665977337E+02  0.18098589531E+02  0.50528860238E+02  0.30000001179E+02 0.  0.
        -12    1    3    3    0    0  0.73174287692E+01 -0.35665977337E+02 -0.18098589531E+02  0.40659139762E+02  0.00000000000E+00 0.  1.
         11    1    4    4    0    0 -0.14857034808E+02  0.20557231560E+02  0.12446836080E+02  0.28253406544E+02  0.51100000000E-03 0. -1.
        -11    1    4    4    0    0  0.11124843783E+01 -0.10375453015E+01  0.46226924546E+01  0.48665601338E+01  0.51100000000E-03 0.  1.
         12    1    4    4    0    0  0.64271216602E+01  0.16146291079E+02  0.10290609955E+01  0.17408893560E+02  0.00000000000E+00 0. -1.
</event>
<event>
 8    1  0.1338956E-013  0.9118800E+02  0.7816164E-02  0.1184000E+00
        -11   -1    0    0    0    0  0.00000000000E+00  0.00000000000E+00  0.45593999997E+02  0.45594000000E+02  0.51100000000E-03 0.  1.
         11   -1    0    0    0    0 -0.00000000000E+00 -0.00000000000E+00 -0.45593999997E+02  0.45594000000E+02  0.51100000000E-03 0. -1.
         23    2    1    2    0    0 -0.35527136788E-14  0.00000000000E+00  0.00000000000E+00  0.91188000000E+02  0.91188000000E+02 0.  0.
    9900012    2    3    3    0    0  0.17519729820E+02  0.19931273345E+02 -0.30805340877E+02  0.50528860601E+02  0.30000002283E+02 0.  0.
         12    1    3    3    0    0 -0.17519729820E+02 -0.19931273345E+02  0.30805340877E+02  0.40659139399E+02  0.00000000000E+00 0. -1.
         11    1    4    4    0    0  0.26817225240E+01 -0.32593548775E+01 -0.38694556413E+01  0.57260559842E+01  0.51100000000E-03 0. -1.
        -11    1    4    4    0    0  0.20182515107E+02  0.15256793097E+02 -0.14663146566E+02  0.29242289909E+02  0.51100000000E-03 0.  1.
        -12    1    4    4    0    0 -0.53445078103E+01  0.79338351262E+01 -0.12272738669E+02  0.15560514708E+02  0.00000000000E+00 0.  1.
</event>
<event>
 8    1  0.1338956E-013  0.9118800E+02  0.7816164E-02  0.1184000E+00
        -11   -1    0    0    0    0  0.00000000000E+00  0.00000000000E+00  0.45593999997E+02  0.45594000000E+02  0.51100000000E-03 0. -1.
         11   -1    0    0    0    0 -0.00000000000E+00 -0.00000000000E+00 -0.45593999997E+02  0.45594000000E+02  0.51100000000E-03 0.  1.
         23    2    1    2    0    0  0.00000000000E+00  0.00000000000E+00  0.35527136788E-14  0.91188000000E+02  0.91188000000E+02 0.  0.
    9900012    2    3    3    0    0 -0.26701597898E+02  0.16780480796E+02  0.25663314012E+02  0.50528861395E+02  0.30000004696E+02 0.  0.
        -12    1    3    3    0    0  0.26701597898E+02 -0.16780480796E+02 -0.25663314012E+02  0.40659138605E+02  0.00000000000E+00 0.  1.
         11    1    4    4    0    0 -0.12120392044E+01  0.76435345707E+01  0.18678910168E+01  0.79612610106E+01  0.51100000000E-03 0. -1.
        -11    1    4    4    0    0 -0.23401182096E+02  0.11872540666E+02  0.95692468578E+01  0.27931040637E+02  0.51100000000E-03 0.  1.
        -12    1    4    4    0    0 -0.20883765971E+01 -0.27355944409E+01  0.14226176137E+02  0.14636559748E+02  0.00000000000E+00 0.  1.
</event>
<event>
 8    1  0.1338956E-013  0.9118800E+02  0.7816164E-02  0.1184000E+00
        -11   -1    0    0    0    0  0.00000000000E+00  0.00000000000E+00  0.45593999997E+02  0.45594000000E+02  0.51100000000E-03 0. -1.
         11   -1    0    0    0    0 -0.00000000000E+00 -0.00000000000E+00 -0.45593999997E+02  0.45594000000E+02  0.51100000000E-03 0.  1.
         23    2    1    2    0    0  0.00000000000E+00  0.00000000000E+00  0.00000000000E+00  0.91188000000E+02  0.91188000000E+02 0.  0.
    9900012    2    3    3    0    0 -0.20133167061E+02 -0.14674299842E+02  0.32132317811E+02  0.50528864007E+02  0.30000012635E+02 0.  0.
        -12    1    3    3    0    0  0.20133167061E+02  0.14674299842E+02 -0.32132317811E+02  0.40659135993E+02  0.00000000000E+00 0.  1.
         11    1    4    4    0    0 -0.11393849187E+02 -0.14960697037E+02  0.87337512296E+01  0.20734528351E+02  0.51100000000E-03 0. -1.
        -11    1    4    4    0    0 -0.10438733230E+02  0.42207675682E+01  0.80049237199E+01  0.13815239206E+02  0.51100000000E-03 0.  1.
         12    1    4    4    0    0  0.16994153558E+01 -0.39343703734E+01  0.15393642862E+02  0.15979096450E+02  0.00000000000E+00 0. -1.
</event>
<event>
 8    1  0.1338956E-013  0.9118800E+02  0.7816164E-02  0.1184000E+00
        -11   -1    0    0    0    0  0.00000000000E+00  0.00000000000E+00  0.45593999997E+02  0.45594000000E+02  0.51100000000E-03 0. -1.
         11   -1    0    0    0    0 -0.00000000000E+00 -0.00000000000E+00 -0.45593999997E+02  0.45594000000E+02  0.51100000000E-03 0.  1.
         23    2    1    2    0    0  0.00000000000E+00  0.00000000000E+00 -0.35527136788E-14  0.91188000000E+02  0.91188000000E+02 0.  0.
    9900012    2    3    3    0    0 -0.97239994039E+01  0.32096976210E+02 -0.22986820745E+02  0.50528856205E+02  0.29999988920E+02 0.  0.
         12    1    3    3    0    0  0.97239994039E+01 -0.32096976210E+02  0.22986820745E+02  0.40659143795E+02  0.00000000000E+00 0. -1.
         11    1    4    4    0    0 -0.15652120872E+01  0.12198551621E+01 -0.15169624758E+02  0.15298870907E+02  0.51100000000E-03 0. -1.
        -11    1    4    4    0    0  0.17377593759E+01 -0.17279497939E+00 -0.16066590465E+00  0.17537045212E+01  0.51100000000E-03 0.  1.
        -12    1    4    4    0    0 -0.98965466926E+01  0.31049916027E+02 -0.76565300823E+01  0.33476280776E+02  0.00000000000E+00 0.  1.
</event>
<event>
 8    1  0.1338956E-013  0.9118800E+02  0.7816164E-02  0.1184000E+00
        -11   -1    0    0    0    0  0.00000000000E+00  0.00000000000E+00  0.45593999997E+02  0.45594000000E+02  0.51100000000E-03 0. -1.
         11   -1    0    0    0    0 -0.00000000000E+00 -0.00000000000E+00 -0.45593999997E+02  0.45594000000E+02  0.51100000000E-03 0.  1.
         23    2    1    2    0    0 -0.17763568394E-14  0.00000000000E+00  0.00000000000E+00  0.91188000000E+02  0.91188000000E+02 0.  0.
    9900012    2    3    3    0    0  0.86982924817E+01  0.13047715461E+02 -0.37513485392E+02  0.50528871172E+02  0.30000034414E+02 0.  0.
         12    1    3    3    0    0 -0.86982924817E+01 -0.13047715461E+02  0.37513485392E+02  0.40659128828E+02  0.00000000000E+00 0. -1.
         11    1    4    4    0    0 -0.58138076188E+01 -0.15828056146E+01  0.51465064380E-01  0.60256353654E+01  0.51100000000E-03 0. -1.
        -11    1    4    4    0    0 -0.23631244711E+00  0.36766083508E+01 -0.14030170550E+01  0.39423025829E+01  0.51100000000E-03 0.  1.
         12    1    4    4    0    0  0.14748412548E+02  0.10953912725E+02 -0.36161933401E+02  0.40560933223E+02  0.00000000000E+00 0. -1.
</event>
<event>
 8    1  0.1338956E-013  0.9118800E+02  0.7816164E-02  0.1184000E+00
        -11   -1    0    0    0    0  0.00000000000E+00  0.00000000000E+00  0.45593999997E+02  0.45594000000E+02  0.51100000000E-03 0. -1.
         11   -1    0    0    0    0 -0.00000000000E+00 -0.00000000000E+00 -0.45593999997E+02  0.45594000000E+02  0.51100000000E-03 0.  1.
         23    2    1    2    0    0  0.00000000000E+00  0.00000000000E+00  0.00000000000E+00  0.91188000000E+02  0.91188000000E+02 0.  0.
    9900012    2    3    3    0    0  0.29814033514E+02  0.15875090495E+02 -0.22633393779E+02  0.50528860725E+02  0.30000002661E+02 0.  0.
         12    1    3    3    0    0 -0.29814033514E+02 -0.15875090495E+02  0.22633393779E+02  0.40659139275E+02  0.00000000000E+00 0. -1.
         11    1    4    4    0    0  0.93184669584E+00  0.68971862195E+01  0.18323908900E+01  0.71970252637E+01  0.51100000000E-03 0. -1.
        -11    1    4    4    0    0 -0.20216592518E+01  0.16780476007E+01 -0.61170832994E+01  0.66574513317E+01  0.51100000000E-03 0.  1.
         12    1    4    4    0    0  0.30903846070E+02  0.72998566753E+01 -0.18348701370E+02  0.36674384130E+02  0.00000000000E+00 0. -1.
</event>
<event>
 8    1  0.1338956E-013  0.9118800E+02  0.7816164E-02  0.1184000E+00
        -11   -1    0    0    0    0  0.00000000000E+00  0.00000000000E+00  0.45593999997E+02  0.45594000000E+02  0.51100000000E-03 0. -1.
         11   -1    0    0    0    0 -0.00000000000E+00 -0.00000000000E+00 -0.45593999997E+02  0.45594000000E+02  0.51100000000E-03 0.  1.
         23    2    1    2    0    0  0.00000000000E+00  0.00000000000E+00 -0.35527136788E-14  0.91188000000E+02  0.91188000000E+02 0.  0.
    9900012    2    3    3    0    0 -0.28203428485E+02  0.11639985393E+02 -0.26874564268E+02  0.50528870117E+02  0.30000031207E+02 0.  0.
         12    1    3    3    0    0  0.28203428485E+02 -0.11639985393E+02  0.26874564268E+02  0.40659129883E+02  0.00000000000E+00 0. -1.
         11    1    4    4    0    0 -0.17211930204E+02 -0.38808314131E+01 -0.19676458258E+02  0.26428666323E+02  0.51100000000E-03 0.  1.
        -11    1    4    4    0    0 -0.79453038680E+01  0.11198539838E+01 -0.42805572103E+01  0.90942342609E+01  0.51100000000E-03 0. -1.
         12    1    4    4    0    0 -0.30461944134E+01  0.14400962822E+02 -0.29175488000E+01  0.15005969533E+02  0.00000000000E+00 0. -1.
</event>
<event>
 8    1  0.1338956E-013  0.9118800E+02  0.7816164E-02  0.1184000E+00
        -11   -1    0    0    0    0  0.00000000000E+00  0.00000000000E+00  0.45593999997E+02  0.45594000000E+02  0.51100000000E-03 0. -1.
         11   -1    0    0    0    0 -0.00000000000E+00 -0.00000000000E+00 -0.45593999997E+02  0.45594000000E+02  0.51100000000E-03 0.  1.
         23    2    1    2    0    0  0.00000000000E+00 -0.17763568394E-14  0.00000000000E+00  0.91188000000E+02  0.91188000000E+02 0.  0.
    9900012    2    3    3    0    0  0.24165323910E+02  0.13871872991E+02 -0.29610376099E+02  0.50528854501E+02  0.29999983741E+02 0.  0.
         12    1    3    3    0    0 -0.24165323910E+02 -0.13871872991E+02  0.29610376099E+02  0.40659145499E+02  0.00000000000E+00 0. -1.
         11    1    4    4    0    0  0.28869973670E+01  0.19311666086E+01  0.34143809478E+01  0.48705395784E+01  0.51100000000E-03 0. -1.
        -11    1    4    4    0    0 -0.20251140580E+01  0.69029085265E+01 -0.45149448968E+01  0.84932891600E+01  0.51100000000E-03 0.  1.
        -12    1    4    4    0    0  0.23303440601E+02  0.50377978556E+01 -0.28509812150E+02  0.37165025763E+02  0.00000000000E+00 0.  1.
</event>
<event>
 8    1  0.1338956E-013  0.9118800E+02  0.7816164E-02  0.1184000E+00
        -11   -1    0    0    0    0  0.00000000000E+00  0.00000000000E+00  0.45593999997E+02  0.45594000000E+02  0.51100000000E-03 0. -1.
         11   -1    0    0    0    0 -0.00000000000E+00 -0.00000000000E+00 -0.45593999997E+02  0.45594000000E+02  0.51100000000E-03 0.  1.
         23    2    1    2    0    0  0.00000000000E+00  0.00000000000E+00  0.00000000000E+00  0.91188000000E+02  0.91188000000E+02 0.  0.
    9900012    2    3    3    0    0  0.33018206906E+02  0.23506606118E+02  0.32255458794E+01  0.50528847713E+02  0.29999963109E+02 0.  0.
         12    1    3    3    0    0 -0.33018206906E+02 -0.23506606118E+02 -0.32255458794E+01  0.40659152287E+02  0.00000000000E+00 0. -1.
         11    1    4    4    0    0  0.19131391788E+01  0.57283845266E+01 -0.68805985439E+01  0.91551694351E+01  0.51100000000E-03 0. -1.
        -11    1    4    4    0    0  0.52884558234E+01  0.28675092508E+01 -0.51179280342E+01  0.78983265268E+01  0.51100000000E-03 0.  1.
         12    1    4    4    0    0  0.25816611904E+02  0.14910712340E+02  0.15224072457E+02  0.33475351751E+02  0.00000000000E+00 0. -1.
</event>
<event>
 8    1  0.1338956E-013  0.9118800E+02  0.7816164E-02  0.1184000E+00
        -11   -1    0    0    0    0  0.00000000000E+00  0.00000000000E+00  0.45593999997E+02  0.45594000000E+02  0.51100000000E-03 0. -1.
         11   -1    0    0    0    0 -0.00000000000E+00 -0.00000000000E+00 -0.45593999997E+02  0.45594000000E+02  0.51100000000E-03 0.  1.
         23    2    1    2    0    0  0.00000000000E+00 -0.35527136788E-14  0.00000000000E+00  0.91188000000E+02  0.91188000000E+02 0.  0.
    9900012    2    3    3    0    0 -0.11596782142E+02  0.27014008938E+02 -0.28087788236E+02  0.50528857327E+02  0.29999992330E+02 0.  0.
         12    1    3    3    0    0  0.11596782142E+02 -0.27014008938E+02  0.28087788236E+02  0.40659142673E+02  0.00000000000E+00 0. -1.
         11    1    4    4    0    0  0.19889017894E+00 -0.12447340919E+01 -0.12780851637E+01  0.17951106399E+01  0.51100000000E-03 0. -1.
        -11    1    4    4    0    0 -0.24046712152E+01  0.14543158897E+02 -0.28438346393E+02  0.32031632182E+02  0.51100000000E-03 0.  1.
         12    1    4    4    0    0 -0.93910011058E+01  0.13715584133E+02  0.16286433212E+01  0.16702114505E+02  0.00000000000E+00 0. -1.
</event>
<event>
 8    1  0.1338956E-013  0.9118800E+02  0.7816164E-02  0.1184000E+00
        -11   -1    0    0    0    0  0.00000000000E+00  0.00000000000E+00  0.45593999997E+02  0.45594000000E+02  0.51100000000E-03 0. -1.
         11   -1    0    0    0    0 -0.00000000000E+00 -0.00000000000E+00 -0.45593999997E+02  0.45594000000E+02  0.51100000000E-03 0.  1.
         23    2    1    2    0    0  0.00000000000E+00  0.35527136788E-14  0.00000000000E+00  0.91188000000E+02  0.91188000000E+02 0.  0.
    9900012    2    3    3    0    0  0.41890024419E+01  0.26164683394E+02  0.30838732311E+02  0.50528858234E+02  0.29999995089E+02 0.  0.
        -12    1    3    3    0    0 -0.41890024419E+01 -0.26164683394E+02 -0.30838732311E+02  0.40659141766E+02  0.00000000000E+00 0.  1.
         11    1    4    4    0    0 -0.52697623259E+01  0.10376941983E+02  0.70139355292E+01  0.13588473489E+02  0.51100000000E-03 0. -1.
        -11    1    4    4    0    0  0.80777111338E+00  0.12978840630E+01  0.19445552472E+02  0.19505550708E+02  0.51100000000E-03 0.  1.
        -12    1    4    4    0    0  0.86509936544E+01  0.14489857349E+02  0.43792443092E+01  0.17434834038E+02  0.00000000000E+00 0.  1.
</event>
<event>
 8    1  0.1338956E-013  0.9118800E+02  0.7816164E-02  0.1184000E+00
        -11   -1    0    0    0    0  0.00000000000E+00  0.00000000000E+00  0.45593999997E+02  0.45594000000E+02  0.51100000000E-03 0. -1.
         11   -1    0    0    0    0 -0.00000000000E+00 -0.00000000000E+00 -0.45593999997E+02  0.45594000000E+02  0.51100000000E-03 0.  1.
         23    2    1    2    0    0  0.35527136788E-14  0.00000000000E+00 -0.71054273576E-14  0.91188000000E+02  0.91188000000E+02 0.  0.
    9900012    2    3    3    0    0  0.19651148929E+02 -0.30155982359E+01  0.35466941890E+02  0.50528862602E+02  0.30000008364E+02 0.  0.
        -12    1    3    3    0    0 -0.19651148929E+02  0.30155982359E+01 -0.35466941890E+02  0.40659137398E+02  0.00000000000E+00 0.  1.
         11    1    4    4    0    0 -0.32431173657E+01  0.76786215157E+00  0.89347970188E+01  0.95361428554E+01  0.51100000000E-03 0. -1.
        -11    1    4    4    0    0 -0.27091941660E+01  0.36866556903E+01  0.40565621641E+01  0.61144795412E+01  0.51100000000E-03 0.  1.
        -12    1    4    4    0    0  0.25603460461E+02 -0.74701160778E+01  0.22475582707E+02  0.34878240205E+02  0.00000000000E+00 0.  1.
</event>
<event>
 8    1  0.1338956E-013  0.9118800E+02  0.7816164E-02  0.1184000E+00
        -11   -1    0    0    0    0  0.00000000000E+00  0.00000000000E+00  0.45593999997E+02  0.45594000000E+02  0.51100000000E-03 0. -1.
         11   -1    0    0    0    0 -0.00000000000E+00 -0.00000000000E+00 -0.45593999997E+02  0.45594000000E+02  0.51100000000E-03 0.  1.
         23    2    1    2    0    0  0.00000000000E+00 -0.35527136788E-14  0.35527136788E-14  0.91188000000E+02  0.91188000000E+02 0.  0.
    9900012    2    3    3    0    0  0.24310224121E+02 -0.23645024569E+02 -0.22429702583E+02  0.50528859064E+02  0.29999997611E+02 0.  0.
         12    1    3    3    0    0 -0.24310224121E+02  0.23645024569E+02  0.22429702583E+02  0.40659140936E+02  0.00000000000E+00 0. -1.
         11    1    4    4    0    0  0.40387963852E+01 -0.16716813081E+01  0.24383522122E+01  0.50051929442E+01  0.51100000000E-03 0. -1.
        -11    1    4    4    0    0  0.16204544472E+01 -0.12072379221E+02  0.89402880065E+00  0.12213414773E+02  0.51100000000E-03 0.  1.
        -12    1    4    4    0    0  0.18650973289E+02 -0.99009640397E+01 -0.25762083596E+02  0.33310251346E+02  0.00000000000E+00 0.  1.
</event>
<event>
 8    1  0.1338956E-013  0.9118800E+02  0.7816164E-02  0.1184000E+00
        -11   -1    0    0    0    0  0.00000000000E+00  0.00000000000E+00  0.45593999997E+02  0.45594000000E+02  0.51100000000E-03 0. -1.
         11   -1    0    0    0    0 -0.00000000000E+00 -0.00000000000E+00 -0.45593999997E+02  0.45594000000E+02  0.51100000000E-03 0.  1.
         23    2    1    2    0    0 -0.71054273576E-14  0.17763568394E-14 -0.35527136788E-14  0.91188000000E+02  0.91188000000E+02 0.  0.
    9900012    2    3    3    0    0 -0.28736796827E+02  0.15886274683E+02 -0.23978910338E+02  0.50528863804E+02  0.30000012020E+02 0.  0.
         12    1    3    3    0    0  0.28736796827E+02 -0.15886274683E+02  0.23978910338E+02  0.40659136196E+02  0.00000000000E+00 0. -1.
         11    1    4    4    0    0 -0.16077192632E+02 -0.24744539399E+01 -0.37927241840E+01  0.16702808214E+02  0.51100000000E-03 0. -1.
        -11    1    4    4    0    0 -0.82288219632E+01  0.17377964856E+00 -0.43636102563E+01  0.93158362479E+01  0.51100000000E-03 0.  1.
         12    1    4    4    0    0 -0.44307822317E+01  0.18186948975E+02 -0.15822575897E+02  0.24510219343E+02  0.00000000000E+00 0. -1.
</event>
<event>
 8    1  0.1338956E-013  0.9118800E+02  0.7816164E-02  0.1184000E+00
        -11   -1    0    0    0    0  0.00000000000E+00  0.00000000000E+00  0.45593999997E+02  0.45594000000E+02  0.51100000000E-03 0. -1.
         11   -1    0    0    0    0 -0.00000000000E+00 -0.00000000000E+00 -0.45593999997E+02  0.45594000000E+02  0.51100000000E-03 0.  1.
         23    2    1    2    0    0  0.00000000000E+00  0.00000000000E+00 -0.35527136788E-14  0.91188000000E+02  0.91188000000E+02 0.  0.
    9900012    2    3    3    0    0  0.20478021699E+02 -0.30882845309E+02 -0.16735222416E+02  0.50528841421E+02  0.29999943983E+02 0.  0.
         12    1    3    3    0    0 -0.20478021699E+02  0.30882845309E+02  0.16735222416E+02  0.40659158579E+02  0.00000000000E+00 0. -1.
         11    1    4    4    0    0  0.39415230837E+01 -0.63353137809E+01 -0.81634496953E+01  0.11059553161E+02  0.51100000000E-03 0. -1.
        -11    1    4    4    0    0  0.10604353123E+02 -0.21469879585E+02 -0.16514970322E+02  0.29088696766E+02  0.51100000000E-03 0.  1.
        -12    1    4    4    0    0  0.59321454918E+01 -0.30776519428E+01  0.79431976021E+01  0.10380591494E+02  0.00000000000E+00 0.  1.
</event>
<event>
 8    1  0.1338956E-013  0.9118800E+02  0.7816164E-02  0.1184000E+00
        -11   -1    0    0    0    0  0.00000000000E+00  0.00000000000E+00  0.45593999997E+02  0.45594000000E+02  0.51100000000E-03 0. -1.
         11   -1    0    0    0    0 -0.00000000000E+00 -0.00000000000E+00 -0.45593999997E+02  0.45594000000E+02  0.51100000000E-03 0.  1.
         23    2    1    2    0    0  0.17763568394E-14 -0.71054273576E-14 -0.44408920985E-15  0.91188000000E+02  0.91188000000E+02 0.  0.
    9900012    2    3    3    0    0  0.82097402595E+01 -0.39734576738E+02  0.26323425285E+01  0.50528860180E+02  0.30000001004E+02 0.  0.
         12    1    3    3    0    0 -0.82097402595E+01  0.39734576738E+02 -0.26323425285E+01  0.40659139820E+02  0.00000000000E+00 0. -1.
         11    1    4    4    0    0 -0.43002007900E+01 -0.82274442732E+01  0.31187277616E+01  0.97933155374E+01  0.51100000000E-03 0. -1.
        -11    1    4    4    0    0  0.12242914180E+02 -0.31860270273E+02  0.56389156966E+01  0.34594264553E+02  0.51100000000E-03 0.  1.
        -12    1    4    4    0    0  0.26702686901E+00  0.35313780775E+00 -0.61253009297E+01  0.61412800897E+01  0.00000000000E+00 0.  1.
</event>
<event>
 8    1  0.1338956E-013  0.9118800E+02  0.7816164E-02  0.1184000E+00
        -11   -1    0    0    0    0  0.00000000000E+00  0.00000000000E+00  0.45593999997E+02  0.45594000000E+02  0.51100000000E-03 0.  1.
         11   -1    0    0    0    0 -0.00000000000E+00 -0.00000000000E+00 -0.45593999997E+02  0.45594000000E+02  0.51100000000E-03 0. -1.
         23    2    1    2    0    0  0.17763568394E-14  0.71054273576E-14 -0.88817841970E-15  0.91188000000E+02  0.91188000000E+02 0.  0.
    9900012    2    3    3    0    0 -0.10927626308E+02 -0.38699014516E+02  0.60115108312E+01  0.50528868139E+02  0.30000025195E+02 0.  0.
        -12    1    3    3    0    0  0.10927626308E+02  0.38699014516E+02 -0.60115108312E+01  0.40659131861E+02  0.00000000000E+00 0.  1.
         11    1    4    4    0    0 -0.19685828569E+01 -0.14688323224E+02  0.41652161432E+00  0.14825506673E+02  0.51100000000E-03 0. -1.
        -11    1    4    4    0    0  0.73812673365E+01 -0.58970051670E+01  0.62010659082E+01  0.11300928992E+02  0.51100000000E-03 0.  1.
         12    1    4    4    0    0 -0.16340310788E+02 -0.18113686124E+02 -0.60607669123E+00  0.24402432473E+02  0.00000000000E+00 0. -1.
</event>
<event>
 8    1  0.1338956E-013  0.9118800E+02  0.7816164E-02  0.1184000E+00
        -11   -1    0    0    0    0  0.00000000000E+00  0.00000000000E+00  0.45593999997E+02  0.45594000000E+02  0.51100000000E-03 0. -1.
         11   -1    0    0    0    0 -0.00000000000E+00 -0.00000000000E+00 -0.45593999997E+02  0.45594000000E+02  0.51100000000E-03 0.  1.
         23    2    1    2    0    0  0.00000000000E+00  0.00000000000E+00  0.00000000000E+00  0.91188000000E+02  0.91188000000E+02 0.  0.
    9900012    2    3    3    0    0 -0.96814280437E+01 -0.13043078780E+02  0.37273491816E+02  0.50528866399E+02  0.30000019906E+02 0.  0.
        -12    1    3    3    0    0  0.96814280437E+01  0.13043078780E+02 -0.37273491816E+02  0.40659133601E+02  0.00000000000E+00 0.  1.
         11    1    4    4    0    0 -0.51113266041E+01  0.42236277216E+01  0.18118595621E+02  0.19293734691E+02  0.51100000000E-03 0. -1.
        -11    1    4    4    0    0  0.56490406634E+01 -0.14369029382E+01  0.46771747448E+01  0.74734405948E+01  0.51100000000E-03 0.  1.
        -12    1    4    4    0    0 -0.10219142103E+02 -0.15829803564E+02  0.14477721451E+02  0.23761691114E+02  0.00000000000E+00 0.  1.
</event>
<event>
 8    1  0.1338956E-013  0.9118800E+02  0.7816164E-02  0.1184000E+00
        -11   -1    0    0    0    0  0.00000000000E+00  0.00000000000E+00  0.45593999997E+02  0.45594000000E+02  0.51100000000E-03 0. -1.
         11   -1    0    0    0    0 -0.00000000000E+00 -0.00000000000E+00 -0.45593999997E+02  0.45594000000E+02  0.51100000000E-03 0.  1.
         23    2    1    2    0    0 -0.17763568394E-14  0.00000000000E+00  0.17763568394E-14  0.91188000000E+02  0.91188000000E+02 0.  0.
    9900012    2    3    3    0    0 -0.13079263105E+02  0.35124536991E+02  0.15759759886E+02  0.50528803576E+02  0.29999828949E+02 0.  0.
        -12    1    3    3    0    0  0.13079263105E+02 -0.35124536991E+02 -0.15759759886E+02  0.40659196424E+02  0.00000000000E+00 0.  1.
         11    1    4    4    0    0  0.47294490470E+01  0.64987432979E+01  0.79202993034E+01  0.11284170065E+02  0.51100000000E-03 0.  1.
        -11    1    4    4    0    0 -0.89414352985E+01  0.63685687338E+00  0.32121879766E+01  0.95222373281E+01  0.51100000000E-03 0. -1.
         12    1    4    4    0    0 -0.88672768534E+01  0.27988936820E+02  0.46272726058E+01  0.29722396183E+02  0.00000000000E+00 0. -1.
</event>
<event>
 8    1  0.1338956E-013  0.9118800E+02  0.7816164E-02  0.1184000E+00
        -11   -1    0    0    0    0  0.00000000000E+00  0.00000000000E+00  0.45593999997E+02  0.45594000000E+02  0.51100000000E-03 0. -1.
         11   -1    0    0    0    0 -0.00000000000E+00 -0.00000000000E+00 -0.45593999997E+02  0.45594000000E+02  0.51100000000E-03 0.  1.
         23    2    1    2    0    0  0.35527136788E-14 -0.35527136788E-14  0.35527136788E-14  0.91188000000E+02  0.91188000000E+02 0.  0.
    9900012    2    3    3    0    0 -0.19702284631E+02  0.21985376468E+02 -0.27957661257E+02  0.50528835952E+02  0.29999927359E+02 0.  0.
         12    1    3    3    0    0  0.19702284631E+02 -0.21985376468E+02  0.27957661257E+02  0.40659164048E+02  0.00000000000E+00 0. -1.
         11    1    4    4    0    0 -0.52995687773E+01 -0.97507050398E+00 -0.12979313612E+02  0.14053425697E+02  0.51100000000E-03 0. -1.
        -11    1    4    4    0    0 -0.13268726418E+02  0.49231333170E+01 -0.11111649952E+02  0.17993474021E+02  0.51100000000E-03 0.  1.
         12    1    4    4    0    0 -0.11339894355E+01  0.18037313655E+02 -0.38666976934E+01  0.18481936235E+02  0.00000000000E+00 0. -1.
</event>
<event>
 8    1  0.1338956E-013  0.9118800E+02  0.7816164E-02  0.1184000E+00
        -11   -1    0    0    0    0  0.00000000000E+00  0.00000000000E+00  0.45593999997E+02  0.45594000000E+02  0.51100000000E-03 0. -1.
         11   -1    0    0    0    0 -0.00000000000E+00 -0.00000000000E+00 -0.45593999997E+02  0.45594000000E+02  0.51100000000E-03 0.  1.
         23    2    1    2    0    0 -0.71054273576E-14  0.88817841970E-15 -0.35527136788E-14  0.91188000000E+02  0.91188000000E+02 0.  0.
    9900012    2    3    3    0    0 -0.37400371528E+02  0.58967961471E+01 -0.14819116287E+02  0.50528853393E+02  0.29999980374E+02 0.  0.
         12    1    3    3    0    0  0.37400371528E+02 -0.58967961471E+01  0.14819116287E+02  0.40659146607E+02  0.00000000000E+00 0. -1.
         11    1    4    4    0    0 -0.20293746751E+02  0.84097201273E+01 -0.13376277378E+01  0.22007925801E+02  0.51100000000E-03 0. -1.
        -11    1    4    4    0    0 -0.19863274466E+02  0.14790646811E+01 -0.87878078164E+01  0.21770688352E+02  0.51100000000E-03 0.  1.
         12    1    4    4    0    0  0.27566496889E+01 -0.39919886613E+01 -0.46936807331E+01  0.67502392405E+01  0.00000000000E+00 0. -1.
</event>
<event>
 8    1  0.1338956E-013  0.9118800E+02  0.7816164E-02  0.1184000E+00
        -11   -1    0    0    0    0  0.00000000000E+00  0.00000000000E+00  0.45593999997E+02  0.45594000000E+02  0.51100000000E-03 0. -1.
         11   -1    0    0    0    0 -0.00000000000E+00 -0.00000000000E+00 -0.45593999997E+02  0.45594000000E+02  0.51100000000E-03 0.  1.
         23    2    1    2    0    0  0.44408920985E-15  0.71054273576E-14 -0.35527136788E-14  0.91188000000E+02  0.91188000000E+02 0.  0.
    9900012    2    3    3    0    0  0.65678682675E+00  0.33090628184E+02 -0.23616615863E+02  0.50528860961E+02  0.30000003378E+02 0.  0.
         12    1    3    3    0    0 -0.65678682675E+00 -0.33090628184E+02  0.23616615863E+02  0.40659139039E+02  0.00000000000E+00 0. -1.
         11    1    4    4    0    0  0.48503669615E+01 -0.27174748764E+01 -0.12581548524E+01  0.57003230838E+01  0.51100000000E-03 0. -1.
        -11    1    4    4    0    0  0.28549853223E+01  0.94894401488E+00 -0.33505315733E+01  0.45030542988E+01  0.51100000000E-03 0.  1.
         12    1    4    4    0    0 -0.70485654570E+01  0.34859159046E+02 -0.19007929437E+02  0.40325483579E+02  0.00000000000E+00 0. -1.
</event>
<event>
 8    1  0.1338956E-013  0.9118800E+02  0.7816164E-02  0.1184000E+00
        -11   -1    0    0    0    0  0.00000000000E+00  0.00000000000E+00  0.45593999997E+02  0.45594000000E+02  0.51100000000E-03 0.  1.
         11   -1    0    0    0    0 -0.00000000000E+00 -0.00000000000E+00 -0.45593999997E+02  0.45594000000E+02  0.51100000000E-03 0. -1.
         23    2    1    2    0    0  0.00000000000E+00  0.88817841970E-15  0.17763568394E-14  0.91188000000E+02  0.91188000000E+02 0.  0.
    9900012    2    3    3    0    0 -0.39493761171E+02 -0.51464280553E+01 -0.81806391297E+01  0.50528858964E+02  0.29999997308E+02 0.  0.
         12    1    3    3    0    0  0.39493761171E+02  0.51464280553E+01  0.81806391297E+01  0.40659141036E+02  0.00000000000E+00 0. -1.
         11    1    4    4    0    0 -0.39166410774E+01 -0.63869470036E+01 -0.51490887563E+01  0.90910002001E+01  0.51100000000E-03 0. -1.
        -11    1    4    4    0    0 -0.15049415908E+02 -0.22225488886E+01 -0.11390671442E+02  0.19004526800E+02  0.51100000000E-03 0.  1.
        -12    1    4    4    0    0 -0.20527704186E+02  0.34630678369E+01  0.83591210682E+01  0.22433331964E+02  0.00000000000E+00 0.  1.
</event>
<event>
 8    1  0.1338956E-013  0.9118800E+02  0.7816164E-02  0.1184000E+00
        -11   -1    0    0    0    0  0.00000000000E+00  0.00000000000E+00  0.45593999997E+02  0.45594000000E+02  0.51100000000E-03 0. -1.
         11   -1    0    0    0    0 -0.00000000000E+00 -0.00000000000E+00 -0.45593999997E+02  0.45594000000E+02  0.51100000000E-03 0.  1.
         23    2    1    2    0    0 -0.35527136788E-14  0.00000000000E+00  0.53290705182E-14  0.91188000000E+02  0.91188000000E+02 0.  0.
    9900012    2    3    3    0    0 -0.25655775599E+02 -0.28955366187E+02  0.12511363026E+02  0.50528852722E+02  0.29999978333E+02 0.  0.
        -12    1    3    3    0    0  0.25655775599E+02  0.28955366187E+02 -0.12511363026E+02  0.40659147278E+02  0.00000000000E+00 0.  1.
         11    1    4    4    0    0 -0.85003510748E+01 -0.92195902522E+01  0.14648686229E+02  0.19283174565E+02  0.51100000000E-03 0. -1.
        -11    1    4    4    0    0 -0.36221818328E+01 -0.29494156859E+01  0.65113832139E+01  0.80135738430E+01  0.51100000000E-03 0.  1.
        -12    1    4    4    0    0 -0.13533242691E+02 -0.16786360249E+02 -0.86487064169E+01  0.23232104314E+02  0.00000000000E+00 0.  1.
</event>
<event>
 8    1  0.1338956E-013  0.9118800E+02  0.7816164E-02  0.1184000E+00
        -11   -1    0    0    0    0  0.00000000000E+00  0.00000000000E+00  0.45593999997E+02  0.45594000000E+02  0.51100000000E-03 0. -1.
         11   -1    0    0    0    0 -0.00000000000E+00 -0.00000000000E+00 -0.45593999997E+02  0.45594000000E+02  0.51100000000E-03 0.  1.
         23    2    1    2    0    0  0.00000000000E+00  0.00000000000E+00  0.17763568394E-14  0.91188000000E+02  0.91188000000E+02 0.  0.
    9900012    2    3    3    0    0 -0.38941252124E+02 -0.54169472585E+01 -0.10363462289E+02  0.50528858529E+02  0.29999995983E+02 0.  0.
         12    1    3    3    0    0  0.38941252124E+02  0.54169472585E+01  0.10363462289E+02  0.40659141471E+02  0.00000000000E+00 0. -1.
         11    1    4    4    0    0 -0.25369182234E+01  0.16260694534E+01  0.49470051415E+01  0.57924878999E+01  0.51100000000E-03 0. -1.
        -11    1    4    4    0    0 -0.52702660257E+01  0.52950279193E+01  0.90875389857E+00  0.75258792548E+01  0.51100000000E-03 0.  1.
        -12    1    4    4    0    0 -0.31134067875E+02 -0.12338044631E+02 -0.16219221329E+02  0.37210491374E+02  0.00000000000E+00 0.  1.
</event>
<event>
 8    1  0.1338956E-013  0.9118800E+02  0.7816164E-02  0.1184000E+00
        -11   -1    0    0    0    0  0.00000000000E+00  0.00000000000E+00  0.45593999997E+02  0.45594000000E+02  0.51100000000E-03 0. -1.
         11   -1    0    0    0    0 -0.00000000000E+00 -0.00000000000E+00 -0.45593999997E+02  0.45594000000E+02  0.51100000000E-03 0.  1.
         23    2    1    2    0    0  0.17763568394E-14  0.71054273576E-14 -0.35527136788E-14  0.91188000000E+02  0.91188000000E+02 0.  0.
    9900012    2    3    3    0    0  0.92446676634E+01  0.34620720163E+02 -0.19212168065E+02  0.50528861463E+02  0.30000004903E+02 0.  0.
         12    1    3    3    0    0 -0.92446676634E+01 -0.34620720163E+02  0.19212168065E+02  0.40659138537E+02  0.00000000000E+00 0. -1.
         11    1    4    4    0    0  0.18851579953E+02  0.18679818625E+02 -0.14411799882E+02  0.30199630241E+02  0.51100000000E-03 0. -1.
        -11    1    4    4    0    0 -0.33390021321E+01  0.89850233677E+00 -0.78335214729E+00  0.35454030145E+01  0.51100000000E-03 0.  1.
        -12    1    4    4    0    0 -0.62679101576E+01  0.15042399201E+02 -0.40170160360E+01  0.16783828207E+02  0.00000000000E+00 0.  1.
</event>
<event>
 8    1  0.1338956E-013  0.9118800E+02  0.7816164E-02  0.1184000E+00
        -11   -1    0    0    0    0  0.00000000000E+00  0.00000000000E+00  0.45593999997E+02  0.45594000000E+02  0.51100000000E-03 0. -1.
         11   -1    0    0    0    0 -0.00000000000E+00 -0.00000000000E+00 -0.45593999997E+02  0.45594000000E+02  0.51100000000E-03 0.  1.
         23    2    1    2    0    0  0.00000000000E+00  0.35527136788E-14  0.00000000000E+00  0.91188000000E+02  0.91188000000E+02 0.  0.
    9900012    2    3    3    0    0 -0.93913152185E+01  0.23907130672E+02 -0.31518523930E+02  0.50528867579E+02  0.30000023494E+02 0.  0.
         12    1    3    3    0    0  0.93913152185E+01 -0.23907130672E+02  0.31518523930E+02  0.40659132421E+02  0.00000000000E+00 0. -1.
         11    1    4    4    0    0 -0.62407267920E+01 -0.14757262975E+01 -0.82643583737E+01  0.10460595518E+02  0.51100000000E-03 0. -1.
        -11    1    4    4    0    0 -0.93830909059E+01  0.94484724730E+01 -0.31775389606E+01  0.13689878784E+02  0.51100000000E-03 0.  1.
         12    1    4    4    0    0  0.62325024793E+01  0.15934384497E+02 -0.20076626595E+02  0.26378393277E+02  0.00000000000E+00 0. -1.
</event>
<event>
 8    1  0.1338956E-013  0.9118800E+02  0.7816164E-02  0.1184000E+00
        -11   -1    0    0    0    0  0.00000000000E+00  0.00000000000E+00  0.45593999997E+02  0.45594000000E+02  0.51100000000E-03 0. -1.
         11   -1    0    0    0    0 -0.00000000000E+00 -0.00000000000E+00 -0.45593999997E+02  0.45594000000E+02  0.51100000000E-03 0.  1.
         23    2    1    2    0    0 -0.44408920985E-15  0.00000000000E+00 -0.71054273576E-14  0.91188000000E+02  0.91188000000E+02 0.  0.
    9900012    2    3    3    0    0 -0.27790455427E+01  0.22014053455E+01  0.40504227116E+02  0.50528908840E+02  0.30000148911E+02 0.  0.
        -12    1    3    3    0    0  0.27790455427E+01 -0.22014053455E+01 -0.40504227116E+02  0.40659091160E+02  0.00000000000E+00 0.  1.
         11    1    4    4    0    0 -0.25183581708E+01 -0.15201085841E+00  0.40226645969E+01  0.47483750797E+01  0.51100000000E-03 0. -1.
        -11    1    4    4    0    0 -0.17935061902E+01  0.13659132165E+02  0.10237518132E+02  0.17163779704E+02  0.51100000000E-03 0.  1.
        -12    1    4    4    0    0  0.15328188183E+01 -0.11305715961E+02  0.26244044388E+02  0.28616754057E+02  0.00000000000E+00 0.  1.
</event>
<event>
 8    1  0.1338956E-013  0.9118800E+02  0.7816164E-02  0.1184000E+00
        -11   -1    0    0    0    0  0.00000000000E+00  0.00000000000E+00  0.45593999997E+02  0.45594000000E+02  0.51100000000E-03 0. -1.
         11   -1    0    0    0    0 -0.00000000000E+00 -0.00000000000E+00 -0.45593999997E+02  0.45594000000E+02  0.51100000000E-03 0.  1.
         23    2    1    2    0    0  0.00000000000E+00  0.88817841970E-15  0.00000000000E+00  0.91188000000E+02  0.91188000000E+02 0.  0.
    9900012    2    3    3    0    0 -0.25826003380E+02  0.41047893115E+01 -0.31134125515E+02  0.50528861821E+02  0.30000005991E+02 0.  0.
         12    1    3    3    0    0  0.25826003380E+02 -0.41047893115E+01  0.31134125515E+02  0.40659138179E+02  0.00000000000E+00 0. -1.
         11    1    4    4    0    0 -0.10799290064E+02  0.34348497393E+01 -0.34685971800E+01  0.11851330106E+02  0.51100000000E-03 0. -1.
        -11    1    4    4    0    0 -0.18144738005E+02  0.73205719699E+01 -0.18449986843E+02  0.26892830011E+02  0.51100000000E-03 0.  1.
        -12    1    4    4    0    0  0.31180246896E+01 -0.66506323977E+01 -0.92155414926E+01  0.11784701704E+02  0.00000000000E+00 0.  1.
</event>
<event>
 8    1  0.1338956E-013  0.9118800E+02  0.7816164E-02  0.1184000E+00
        -11   -1    0    0    0    0  0.00000000000E+00  0.00000000000E+00  0.45593999997E+02  0.45594000000E+02  0.51100000000E-03 0. -1.
         11   -1    0    0    0    0 -0.00000000000E+00 -0.00000000000E+00 -0.45593999997E+02  0.45594000000E+02  0.51100000000E-03 0.  1.
         23    2    1    2    0    0 -0.71054273576E-14 -0.44408920985E-15 -0.35527136788E-14  0.91188000000E+02  0.91188000000E+02 0.  0.
    9900012    2    3    3    0    0 -0.36998350760E+02  0.10003304887E+01 -0.16831135255E+02  0.50528859158E+02  0.29999997898E+02 0.  0.
         12    1    3    3    0    0  0.36998350760E+02 -0.10003304887E+01  0.16831135255E+02  0.40659140842E+02  0.00000000000E+00 0. -1.
         11    1    4    4    0    0  0.91249230557E+00  0.21284473120E+01 -0.50586850150E+01  0.55635622141E+01  0.51100000000E-03 0. -1.
        -11    1    4    4    0    0 -0.19648670683E+02  0.96151940184E+01 -0.87617247034E+01  0.23564592839E+02  0.51100000000E-03 0.  1.
         12    1    4    4    0    0 -0.18262172382E+02 -0.10743310842E+02 -0.30107255361E+01  0.21400704106E+02  0.00000000000E+00 0. -1.
</event>
<event>
 8    1  0.1338956E-013  0.9118800E+02  0.7816164E-02  0.1184000E+00
        -11   -1    0    0    0    0  0.00000000000E+00  0.00000000000E+00  0.45593999997E+02  0.45594000000E+02  0.51100000000E-03 0. -1.
         11   -1    0    0    0    0 -0.00000000000E+00 -0.00000000000E+00 -0.45593999997E+02  0.45594000000E+02  0.51100000000E-03 0.  1.
         23    2    1    2    0    0 -0.17763568394E-14  0.00000000000E+00  0.35527136788E-14  0.91188000000E+02  0.91188000000E+02 0.  0.
    9900012    2    3    3    0    0 -0.82494871370E+01 -0.24217379869E+02 -0.31601107549E+02  0.50528861740E+02  0.30000005745E+02 0.  0.
         12    1    3    3    0    0  0.82494871370E+01  0.24217379869E+02  0.31601107549E+02  0.40659138260E+02  0.00000000000E+00 0. -1.
         11    1    4    4    0    0 -0.64815820448E+00 -0.76045438909E+01 -0.55285168163E+01  0.94241018296E+01  0.51100000000E-03 0. -1.
        -11    1    4    4    0    0 -0.11080726241E+02 -0.71261922594E+01 -0.27883510690E+02  0.30839184146E+02  0.51100000000E-03 0.  1.
         12    1    4    4    0    0  0.34793973083E+01 -0.94866437190E+01  0.18109199576E+01  0.10265575764E+02  0.00000000000E+00 0. -1.
</event>
<event>
 8    1  0.1338956E-013  0.9118800E+02  0.7816164E-02  0.1184000E+00
        -11   -1    0    0    0    0  0.00000000000E+00  0.00000000000E+00  0.45593999997E+02  0.45594000000E+02  0.51100000000E-03 0. -1.
         11   -1    0    0    0    0 -0.00000000000E+00 -0.00000000000E+00 -0.45593999997E+02  0.45594000000E+02  0.51100000000E-03 0.  1.
         23    2    1    2    0    0  0.00000000000E+00  0.35527136788E-14  0.00000000000E+00  0.91188000000E+02  0.91188000000E+02 0.  0.
    9900012    2    3    3    0    0  0.16022686492E+02 -0.14969512830E+02  0.34239617592E+02  0.50528877904E+02  0.30000054877E+02 0.  0.
        -12    1    3    3    0    0 -0.16022686492E+02  0.14969512830E+02 -0.34239617592E+02  0.40659122096E+02  0.00000000000E+00 0.  1.
         11    1    4    4    0    0  0.37571622032E+01 -0.56293155382E+01 -0.55100943901E+00  0.67903661841E+01  0.51100000000E-03 0. -1.
        -11    1    4    4    0    0 -0.90295985061E+00 -0.10753552537E+02  0.67529069976E+01  0.12730121046E+02  0.51100000000E-03 0.  1.
         12    1    4    4    0    0  0.13168484139E+02  0.14133552450E+01  0.28037720033E+02  0.31008390674E+02  0.00000000000E+00 0. -1.
</event>
<event>
 8    1  0.1338956E-013  0.9118800E+02  0.7816164E-02  0.1184000E+00
        -11   -1    0    0    0    0  0.00000000000E+00  0.00000000000E+00  0.45593999997E+02  0.45594000000E+02  0.51100000000E-03 0. -1.
         11   -1    0    0    0    0 -0.00000000000E+00 -0.00000000000E+00 -0.45593999997E+02  0.45594000000E+02  0.51100000000E-03 0.  1.
         23    2    1    2    0    0  0.00000000000E+00  0.00000000000E+00  0.00000000000E+00  0.91188000000E+02  0.91188000000E+02 0.  0.
    9900012    2    3    3    0    0  0.17229607954E+02 -0.36643223776E+02  0.36851349938E+01  0.50528862542E+02  0.30000008182E+02 0.  0.
        -12    1    3    3    0    0 -0.17229607954E+02  0.36643223776E+02 -0.36851349938E+01  0.40659137458E+02  0.00000000000E+00 0.  1.
         11    1    4    4    0    0  0.32657417736E+01 -0.13341564146E+02 -0.32173001896E+00  0.13739210809E+02  0.51100000000E-03 0. -1.
        -11    1    4    4    0    0 -0.55732153863E+01 -0.13722758345E+02  0.17192205466E+01  0.14910752693E+02  0.51100000000E-03 0.  1.
         12    1    4    4    0    0  0.19537081567E+02 -0.95789012852E+01  0.22876444661E+01  0.21878899040E+02  0.00000000000E+00 0. -1.
</event>
<event>
 8    1  0.1338956E-013  0.9118800E+02  0.7816164E-02  0.1184000E+00
        -11   -1    0    0    0    0  0.00000000000E+00  0.00000000000E+00  0.45593999997E+02  0.45594000000E+02  0.51100000000E-03 0. -1.
         11   -1    0    0    0    0 -0.00000000000E+00 -0.00000000000E+00 -0.45593999997E+02  0.45594000000E+02  0.51100000000E-03 0.  1.
         23    2    1    2    0    0  0.53290705182E-14  0.71054273576E-14 -0.35527136788E-14  0.91188000000E+02  0.91188000000E+02 0.  0.
    9900012    2    3    3    0    0  0.15021528880E+02  0.32919340337E+02 -0.18542756353E+02  0.50528891411E+02  0.30000095932E+02 0.  0.
         12    1    3    3    0    0 -0.15021528880E+02 -0.32919340337E+02  0.18542756353E+02  0.40659108589E+02  0.00000000000E+00 0. -1.
         11    1    4    4    0    0  0.14930453799E+02  0.25554840026E+02 -0.80281600212E+01  0.30666262455E+02  0.51100000000E-03 0. -1.
        -11    1    4    4    0    0  0.26295718541E+00  0.94504943408E+01 -0.32442116787E+00  0.94597166513E+01  0.51100000000E-03 0.  1.
         12    1    4    4    0    0 -0.17188210438E+00 -0.20859940293E+01 -0.10190175164E+02  0.10402912304E+02  0.00000000000E+00 0. -1.
</event>
<event>
 8    1  0.1338956E-013  0.9118800E+02  0.7816164E-02  0.1184000E+00
        -11   -1    0    0    0    0  0.00000000000E+00  0.00000000000E+00  0.45593999997E+02  0.45594000000E+02  0.51100000000E-03 0. -1.
         11   -1    0    0    0    0 -0.00000000000E+00 -0.00000000000E+00 -0.45593999997E+02  0.45594000000E+02  0.51100000000E-03 0.  1.
         23    2    1    2    0    0 -0.35527136788E-14 -0.71054273576E-14 -0.35527136788E-14  0.91188000000E+02  0.91188000000E+02 0.  0.
    9900012    2    3    3    0    0  0.14584736018E+02  0.29120041365E+02  0.24340857412E+02  0.50528823012E+02  0.29999888026E+02 0.  0.
        -12    1    3    3    0    0 -0.14584736018E+02 -0.29120041365E+02 -0.24340857412E+02  0.40659176988E+02  0.00000000000E+00 0.  1.
         11    1    4    4    0    0  0.14118739838E+02  0.19340126161E+02  0.12773210934E+02  0.27139163811E+02  0.51100000000E-03 0. -1.
        -11    1    4    4    0    0  0.45386866172E+01  0.48425809247E+01 -0.31455082343E+01  0.73446911803E+01  0.51100000000E-03 0.  1.
         12    1    4    4    0    0 -0.40726904371E+01  0.49373342796E+01  0.14713154713E+02  0.16044968021E+02  0.00000000000E+00 0. -1.
</event>
<event>
 8    1  0.1338956E-013  0.9118800E+02  0.7816164E-02  0.1184000E+00
        -11   -1    0    0    0    0  0.00000000000E+00  0.00000000000E+00  0.45593999997E+02  0.45594000000E+02  0.51100000000E-03 0. -1.
         11   -1    0    0    0    0 -0.00000000000E+00 -0.00000000000E+00 -0.45593999997E+02  0.45594000000E+02  0.51100000000E-03 0.  1.
         23    2    1    2    0    0  0.00000000000E+00  0.00000000000E+00 -0.17763568394E-14  0.91188000000E+02  0.91188000000E+02 0.  0.
    9900012    2    3    3    0    0 -0.18581260701E+02 -0.34322360430E+02  0.11396415792E+02  0.50528856285E+02  0.29999989164E+02 0.  0.
        -12    1    3    3    0    0  0.18581260701E+02  0.34322360430E+02 -0.11396415792E+02  0.40659143715E+02  0.00000000000E+00 0.  1.
         11    1    4    4    0    0 -0.31768889345E+01 -0.18439810740E+02  0.79251912353E+01  0.20320627446E+02  0.51100000000E-03 0. -1.
        -11    1    4    4    0    0 -0.13061578876E+02 -0.18104882266E+02  0.87843642632E+01  0.23990761980E+02  0.51100000000E-03 0.  1.
        -12    1    4    4    0    0 -0.23427928901E+01  0.22223325757E+01 -0.53131397063E+01  0.62174668589E+01  0.00000000000E+00 0.  1.
</event>
<event>
 8    1  0.1338956E-013  0.9118800E+02  0.7816164E-02  0.1184000E+00
        -11   -1    0    0    0    0  0.00000000000E+00  0.00000000000E+00  0.45593999997E+02  0.45594000000E+02  0.51100000000E-03 0. -1.
         11   -1    0    0    0    0 -0.00000000000E+00 -0.00000000000E+00 -0.45593999997E+02  0.45594000000E+02  0.51100000000E-03 0.  1.
         23    2    1    2    0    0  0.00000000000E+00 -0.88817841970E-15  0.00000000000E+00  0.91188000000E+02  0.91188000000E+02 0.  0.
    9900012    2    3    3    0    0  0.17560410249E+02 -0.49614745580E+01  0.36334304084E+02  0.50528857226E+02  0.29999992023E+02 0.  0.
        -12    1    3    3    0    0 -0.17560410249E+02  0.49614745580E+01 -0.36334304084E+02  0.40659142774E+02  0.00000000000E+00 0.  1.
         11    1    4    4    0    0  0.80958776421E+01  0.54962245415E+01  0.14122883476E+01  0.98866717172E+01  0.51100000000E-03 0.  1.
        -11    1    4    4    0    0  0.35925563786E+00  0.12107023240E+01  0.18467233600E+02  0.18510364173E+02  0.51100000000E-03 0. -1.
        -12    1    4    4    0    0  0.91052769695E+01 -0.11668401423E+02  0.16454782136E+02  0.22131821335E+02  0.00000000000E+00 0.  1.
</event>
<event>
 8    1  0.1338956E-013  0.9118800E+02  0.7816164E-02  0.1184000E+00
        -11   -1    0    0    0    0  0.00000000000E+00  0.00000000000E+00  0.45593999997E+02  0.45594000000E+02  0.51100000000E-03 0. -1.
         11   -1    0    0    0    0 -0.00000000000E+00 -0.00000000000E+00 -0.45593999997E+02  0.45594000000E+02  0.51100000000E-03 0.  1.
         23    2    1    2    0    0  0.00000000000E+00  0.00000000000E+00  0.00000000000E+00  0.91188000000E+02  0.91188000000E+02 0.  0.
    9900012    2    3    3    0    0  0.22177057499E+02  0.13822457840E+01 -0.34050456604E+02  0.50528854932E+02  0.29999985051E+02 0.  0.
         12    1    3    3    0    0 -0.22177057499E+02 -0.13822457840E+01  0.34050456604E+02  0.40659145068E+02  0.00000000000E+00 0. -1.
         11    1    4    4    0    0 -0.37939109857E+01 -0.43310196896E+01 -0.76570017371E+01  0.95802488476E+01  0.51100000000E-03 0. -1.
        -11    1    4    4    0    0  0.16122405901E+02  0.86409065457E+01 -0.24379150575E+02  0.30478520650E+02  0.51100000000E-03 0.  1.
        -12    1    4    4    0    0  0.98485625843E+01 -0.29276410721E+01 -0.20143042912E+01  0.10470085434E+02  0.00000000000E+00 0.  1.
</event>
<event>
 8    1  0.1338956E-013  0.9118800E+02  0.7816164E-02  0.1184000E+00
        -11   -1    0    0    0    0  0.00000000000E+00  0.00000000000E+00  0.45593999997E+02  0.45594000000E+02  0.51100000000E-03 0.  1.
         11   -1    0    0    0    0 -0.00000000000E+00 -0.00000000000E+00 -0.45593999997E+02  0.45594000000E+02  0.51100000000E-03 0. -1.
         23    2    1    2    0    0  0.00000000000E+00  0.00000000000E+00 -0.17763568394E-14  0.91188000000E+02  0.91188000000E+02 0.  0.
    9900012    2    3    3    0    0  0.39221789620E+02 -0.10210857530E+02 -0.32487801594E+01  0.50528868614E+02  0.30000026640E+02 0.  0.
        -12    1    3    3    0    0 -0.39221789620E+02  0.10210857530E+02  0.32487801594E+01  0.40659131386E+02  0.00000000000E+00 0.  1.
         11    1    4    4    0    0  0.89269642875E+01 -0.59042731743E+01  0.66247379445E+01  0.12587227105E+02  0.51100000000E-03 0. -1.
        -11    1    4    4    0    0  0.22341252153E+02  0.46665646404E+01 -0.68245504481E+00  0.22833618164E+02  0.51100000000E-03 0.  1.
        -12    1    4    4    0    0  0.79535731798E+01 -0.89731489963E+01 -0.91910630591E+01  0.15108023345E+02  0.00000000000E+00 0.  1.
</event>
<event>
 8    1  0.1908071E-013  0.9118800E+02  0.7816164E-02  0.1184000E+00
        -11   -1    0    0    0    0  0.00000000000E+00  0.00000000000E+00  0.45593999997E+02  0.45594000000E+02  0.51100000000E-03 0. -1.
         11   -1    0    0    0    0 -0.00000000000E+00 -0.00000000000E+00 -0.45593999997E+02  0.45594000000E+02  0.51100000000E-03 0.  1.
         23    2    1    2    0    0  0.17763568394E-14  0.00000000000E+00 -0.35527136788E-14  0.91188000000E+02  0.91188000000E+02 0.  0.
    9900012    2    3    3    0    0  0.90825786967E+01 -0.23768109973E+02 -0.31713552929E+02  0.50528859246E+02  0.29999998163E+02 0.  0.
         12    1    3    3    0    0 -0.90825786967E+01  0.23768109973E+02  0.31713552929E+02  0.40659140754E+02  0.00000000000E+00 0. -1.
         11    1    4    4    0    0 -0.43355309451E+01  0.33421604040E+00 -0.67306920697E+01  0.80131607332E+01  0.51100000000E-03 0. -1.
        -11    1    4    4    0    0  0.12176214860E+02 -0.25114026438E+02 -0.27724871333E+02  0.39340094344E+02  0.51100000000E-03 0.  1.
         12    1    4    4    0    0  0.12418947819E+01  0.10117004248E+01  0.27420104736E+01  0.31756041687E+01  0.00000000000E+00 0. -1.
</event>
<event>
 8    1  0.1338956E-013  0.9118800E+02  0.7816164E-02  0.1184000E+00
        -11   -1    0    0    0    0  0.00000000000E+00  0.00000000000E+00  0.45593999997E+02  0.45594000000E+02  0.51100000000E-03 0. -1.
         11   -1    0    0    0    0 -0.00000000000E+00 -0.00000000000E+00 -0.45593999997E+02  0.45594000000E+02  0.51100000000E-03 0.  1.
         23    2    1    2    0    0 -0.88817841970E-15  0.35527136788E-14  0.00000000000E+00  0.91188000000E+02  0.91188000000E+02 0.  0.
    9900012    2    3    3    0    0 -0.61927384942E+01 -0.21024561409E+02 -0.34245922126E+02  0.50528863576E+02  0.30000011326E+02 0.  0.
         12    1    3    3    0    0  0.61927384942E+01  0.21024561409E+02  0.34245922126E+02  0.40659136424E+02  0.00000000000E+00 0. -1.
         11    1    4    4    0    0 -0.59357322022E+01 -0.22155287866E+02 -0.12249878884E+02  0.26002869652E+02  0.51100000000E-03 0. -1.
        -11    1    4    4    0    0  0.31505725300E+01 -0.36478679327E+01 -0.12036785741E+02  0.12966003970E+02  0.51100000000E-03 0.  1.
        -12    1    4    4    0    0 -0.34075788220E+01  0.47785943901E+01 -0.99592575006E+01  0.11559989954E+02  0.00000000000E+00 0.  1.
</event>
<event>
 8    1  0.1338956E-013  0.9118800E+02  0.7816164E-02  0.1184000E+00
        -11   -1    0    0    0    0  0.00000000000E+00  0.00000000000E+00  0.45593999997E+02  0.45594000000E+02  0.51100000000E-03 0. -1.
         11   -1    0    0    0    0 -0.00000000000E+00 -0.00000000000E+00 -0.45593999997E+02  0.45594000000E+02  0.51100000000E-03 0.  1.
         23    2    1    2    0    0  0.17763568394E-14 -0.35527136788E-14  0.00000000000E+00  0.91188000000E+02  0.91188000000E+02 0.  0.
    9900012    2    3    3    0    0  0.13691482376E+02 -0.23272522650E+02 -0.30398969505E+02  0.50528876213E+02  0.30000049738E+02 0.  0.
         12    1    3    3    0    0 -0.13691482376E+02  0.23272522650E+02  0.30398969505E+02  0.40659123787E+02  0.00000000000E+00 0. -1.
         11    1    4    4    0    0  0.12224185856E+02 -0.10033121741E+02 -0.53117955538E+01  0.16682608429E+02  0.51100000000E-03 0. -1.
        -11    1    4    4    0    0  0.40908318662E+01  0.11664723726E+01 -0.16129093162E+02  0.16680623779E+02  0.51100000000E-03 0.  1.
         12    1    4    4    0    0 -0.26235353466E+01 -0.14405873281E+02 -0.89580807888E+01  0.17165644006E+02  0.00000000000E+00 0. -1.
</event>
<event>
 8    1  0.1338956E-013  0.9118800E+02  0.7816164E-02  0.1184000E+00
        -11   -1    0    0    0    0  0.00000000000E+00  0.00000000000E+00  0.45593999997E+02  0.45594000000E+02  0.51100000000E-03 0. -1.
         11   -1    0    0    0    0 -0.00000000000E+00 -0.00000000000E+00 -0.45593999997E+02  0.45594000000E+02  0.51100000000E-03 0.  1.
         23    2    1    2    0    0  0.00000000000E+00  0.00000000000E+00  0.00000000000E+00  0.91188000000E+02  0.91188000000E+02 0.  0.
    9900012    2    3    3    0    0 -0.18079913932E+02 -0.20018293992E+02 -0.30422846013E+02  0.50528868902E+02  0.30000027513E+02 0.  0.
         12    1    3    3    0    0  0.18079913932E+02  0.20018293992E+02  0.30422846013E+02  0.40659131098E+02  0.00000000000E+00 0. -1.
         11    1    4    4    0    0 -0.28681671784E+01 -0.88958742590E+01 -0.10230657362E+01  0.94026392867E+01  0.51100000000E-03 0. -1.
        -11    1    4    4    0    0 -0.11799073152E+01 -0.12175544875E+02 -0.55453433452E+01  0.13430819311E+02  0.51100000000E-03 0.  1.
         12    1    4    4    0    0 -0.14031839438E+02  0.10531251418E+01 -0.23854436932E+02  0.27695410304E+02  0.00000000000E+00 0. -1.
</event>
<event>
 8    1  0.1338956E-013  0.9118800E+02  0.7816164E-02  0.1184000E+00
        -11   -1    0    0    0    0  0.00000000000E+00  0.00000000000E+00  0.45593999997E+02  0.45594000000E+02  0.51100000000E-03 0. -1.
         11   -1    0    0    0    0 -0.00000000000E+00 -0.00000000000E+00 -0.45593999997E+02  0.45594000000E+02  0.51100000000E-03 0.  1.
         23    2    1    2    0    0  0.17763568394E-14  0.00000000000E+00  0.00000000000E+00  0.91188000000E+02  0.91188000000E+02 0.  0.
    9900012    2    3    3    0    0  0.83149197783E+01 -0.32525834454E+02  0.22936791601E+02  0.50528877939E+02  0.30000054983E+02 0.  0.
        -12    1    3    3    0    0 -0.83149197783E+01  0.32525834454E+02 -0.22936791601E+02  0.40659122061E+02  0.00000000000E+00 0.  1.
         11    1    4    4    0    0 -0.12760762672E+01 -0.37293663847E+01 -0.30023694528E+01  0.49548730421E+01  0.51100000000E-03 0. -1.
        -11    1    4    4    0    0 -0.67671926194E+01 -0.87067507981E+01  0.43642413966E+01  0.11859553475E+02  0.51100000000E-03 0.  1.
         12    1    4    4    0    0  0.16358188665E+02 -0.20089717271E+02  0.21574919657E+02  0.33714451421E+02  0.00000000000E+00 0. -1.
</event>
<event>
 8    1  0.1338956E-013  0.9118800E+02  0.7816164E-02  0.1184000E+00
        -11   -1    0    0    0    0  0.00000000000E+00  0.00000000000E+00  0.45593999997E+02  0.45594000000E+02  0.51100000000E-03 0. -1.
         11   -1    0    0    0    0 -0.00000000000E+00 -0.00000000000E+00 -0.45593999997E+02  0.45594000000E+02  0.51100000000E-03 0.  1.
         23    2    1    2    0    0  0.00000000000E+00  0.88817841970E-15  0.00000000000E+00  0.91188000000E+02  0.91188000000E+02 0.  0.
    9900012    2    3    3    0    0 -0.20887483203E+02 -0.34755631695E+01 -0.34710215611E+02  0.50528861277E+02  0.30000004339E+02 0.  0.
         12    1    3    3    0    0  0.20887483203E+02  0.34755631695E+01  0.34710215611E+02  0.40659138723E+02  0.00000000000E+00 0. -1.
         11    1    4    4    0    0 -0.77243745843E+01 -0.10222947027E+01 -0.84169623477E+01  0.11469799676E+02  0.51100000000E-03 0. -1.
        -11    1    4    4    0    0 -0.18704196525E+02 -0.75471168549E+01 -0.13680867421E+02  0.24371542300E+02  0.51100000000E-03 0.  1.
         12    1    4    4    0    0  0.55410879060E+01  0.50938483881E+01 -0.12612385842E+02  0.14687519301E+02  0.00000000000E+00 0. -1.
</event>
<event>
 8    1  0.1338956E-013  0.9118800E+02  0.7816164E-02  0.1184000E+00
        -11   -1    0    0    0    0  0.00000000000E+00  0.00000000000E+00  0.45593999997E+02  0.45594000000E+02  0.51100000000E-03 0. -1.
         11   -1    0    0    0    0 -0.00000000000E+00 -0.00000000000E+00 -0.45593999997E+02  0.45594000000E+02  0.51100000000E-03 0.  1.
         23    2    1    2    0    0  0.00000000000E+00  0.00000000000E+00  0.00000000000E+00  0.91188000000E+02  0.91188000000E+02 0.  0.
    9900012    2    3    3    0    0 -0.10066810394E+02  0.65502151635E+01  0.38844821846E+02  0.50528853742E+02  0.29999981434E+02 0.  0.
        -12    1    3    3    0    0  0.10066810394E+02 -0.65502151635E+01 -0.38844821846E+02  0.40659146258E+02  0.00000000000E+00 0.  1.
         11    1    4    4    0    0 -0.78844398408E+00 -0.82898651336E+01  0.13653079460E+02  0.15992188308E+02  0.51100000000E-03 0. -1.
        -11    1    4    4    0    0 -0.29944162392E+01  0.80689832998E+01  0.23654858022E+02  0.25171955197E+02  0.51100000000E-03 0.  1.
        -12    1    4    4    0    0 -0.62839501703E+01  0.67710969973E+01  0.15368843630E+01  0.93647102377E+01  0.00000000000E+00 0.  1.
</event>
<event>
 8    1  0.1784849E-013  0.9118800E+02  0.7816164E-02  0.1184000E+00
        -11   -1    0    0    0    0  0.00000000000E+00  0.00000000000E+00  0.45593999997E+02  0.45594000000E+02  0.51100000000E-03 0. -1.
         11   -1    0    0    0    0 -0.00000000000E+00 -0.00000000000E+00 -0.45593999997E+02  0.45594000000E+02  0.51100000000E-03 0.  1.
         23    2    1    2    0    0  0.00000000000E+00  0.00000000000E+00  0.00000000000E+00  0.91188000000E+02  0.91188000000E+02 0.  0.
    9900012    2    3    3    0    0 -0.11116133231E+02 -0.31677137705E+02 -0.22938091113E+02  0.50528862096E+02  0.30000006828E+02 0.  0.
         12    1    3    3    0    0  0.11116133231E+02  0.31677137705E+02  0.22938091113E+02  0.40659137904E+02  0.00000000000E+00 0. -1.
         11    1    4    4    0    0 -0.92093064820E+00 -0.17331376801E+02 -0.13805631819E+02  0.22177019756E+02  0.51100000000E-03 0. -1.
        -11    1    4    4    0    0 -0.85320364783E+01 -0.15351438413E+02 -0.14416185219E+02  0.22721987244E+02  0.51100000000E-03 0.  1.
         12    1    4    4    0    0 -0.16631661047E+01  0.10056775095E+01  0.52837259253E+01  0.56298550957E+01  0.00000000000E+00 0. -1.
</event>
<event>
 8    1  0.1338956E-013  0.9118800E+02  0.7816164E-02  0.1184000E+00
        -11   -1    0    0    0    0  0.00000000000E+00  0.00000000000E+00  0.45593999997E+02  0.45594000000E+02  0.51100000000E-03 0. -1.
         11   -1    0    0    0    0 -0.00000000000E+00 -0.00000000000E+00 -0.45593999997E+02  0.45594000000E+02  0.51100000000E-03 0.  1.
         23    2    1    2    0    0 -0.88817841970E-15  0.88817841970E-15 -0.71054273576E-14  0.91188000000E+02  0.91188000000E+02 0.  0.
    9900012    2    3    3    0    0 -0.51561277267E+01 -0.46506342290E+01 -0.40061827945E+02  0.50528879127E+02  0.30000058593E+02 0.  0.
         12    1    3    3    0    0  0.51561277267E+01  0.46506342290E+01  0.40061827945E+02  0.40659120873E+02  0.00000000000E+00 0. -1.
         11    1    4    4    0    0  0.47839331926E+00 -0.47591477806E+00  0.14443082492E+01  0.15941711400E+01  0.51100000000E-03 0. -1.
        -11    1    4    4    0    0  0.55533406219E+01  0.63265149245E+01 -0.62511625330E+01  0.10485295247E+02  0.51100000000E-03 0.  1.
        -12    1    4    4    0    0 -0.11187861668E+02 -0.10501234375E+02 -0.35254973662E+02  0.38449412739E+02  0.00000000000E+00 0.  1.
</event>
<event>
 8    1  0.1338956E-013  0.9118800E+02  0.7816164E-02  0.1184000E+00
        -11   -1    0    0    0    0  0.00000000000E+00  0.00000000000E+00  0.45593999997E+02  0.45594000000E+02  0.51100000000E-03 0. -1.
         11   -1    0    0    0    0 -0.00000000000E+00 -0.00000000000E+00 -0.45593999997E+02  0.45594000000E+02  0.51100000000E-03 0.  1.
         23    2    1    2    0    0  0.88817841970E-15  0.17763568394E-14 -0.71054273576E-14  0.91188000000E+02  0.91188000000E+02 0.  0.
    9900012    2    3    3    0    0  0.74254740395E+01 -0.13186275487E+02  0.37737917727E+02  0.50528856376E+02  0.29999989439E+02 0.  0.
        -12    1    3    3    0    0 -0.74254740395E+01  0.13186275487E+02 -0.37737917727E+02  0.40659143624E+02  0.00000000000E+00 0.  1.
         11    1    4    4    0    0  0.72200714073E+01 -0.15120515211E+00  0.12585834777E+02  0.14510531741E+02  0.51100000000E-03 0. -1.
        -11    1    4    4    0    0  0.79947997194E+01  0.18866274777E+00  0.16655750160E+02  0.18476104293E+02  0.51100000000E-03 0.  1.
         12    1    4    4    0    0 -0.77893970873E+01 -0.13223733083E+02  0.84963327896E+01  0.17542220341E+02  0.00000000000E+00 0. -1.
</event>
<event>
 8    1  0.1338956E-013  0.9118800E+02  0.7816164E-02  0.1184000E+00
        -11   -1    0    0    0    0  0.00000000000E+00  0.00000000000E+00  0.45593999997E+02  0.45594000000E+02  0.51100000000E-03 0.  1.
         11   -1    0    0    0    0 -0.00000000000E+00 -0.00000000000E+00 -0.45593999997E+02  0.45594000000E+02  0.51100000000E-03 0. -1.
         23    2    1    2    0    0  0.00000000000E+00  0.00000000000E+00  0.00000000000E+00  0.91188000000E+02  0.91188000000E+02 0.  0.
    9900012    2    3    3    0    0 -0.31670571791E+02 -0.17343020540E+02 -0.18691169182E+02  0.50528864687E+02  0.30000014701E+02 0.  0.
         12    1    3    3    0    0  0.31670571791E+02  0.17343020540E+02  0.18691169182E+02  0.40659135313E+02  0.00000000000E+00 0. -1.
         11    1    4    4    0    0 -0.19865019501E+02 -0.42968570313E+01 -0.60717641987E+01  0.21211984841E+02  0.51100000000E-03 0. -1.
        -11    1    4    4    0    0 -0.72735614880E+01 -0.14330943107E+02 -0.24149248792E+00  0.16072925867E+02  0.51100000000E-03 0.  1.
         12    1    4    4    0    0 -0.45319908021E+01  0.12847795980E+01 -0.12377912495E+02  0.13243953979E+02  0.00000000000E+00 0. -1.
</event>
<event>
 8    1  0.1338956E-013  0.9118800E+02  0.7816164E-02  0.1184000E+00
        -11   -1    0    0    0    0  0.00000000000E+00  0.00000000000E+00  0.45593999997E+02  0.45594000000E+02  0.51100000000E-03 0.  1.
         11   -1    0    0    0    0 -0.00000000000E+00 -0.00000000000E+00 -0.45593999997E+02  0.45594000000E+02  0.51100000000E-03 0. -1.
         23    2    1    2    0    0  0.00000000000E+00  0.00000000000E+00  0.88817841970E-15  0.91188000000E+02  0.91188000000E+02 0.  0.
    9900012    2    3    3    0    0 -0.30456376820E+02 -0.26415122413E+02  0.52737099410E+01  0.50528910025E+02  0.30000152512E+02 0.  0.
        -12    1    3    3    0    0  0.30456376820E+02  0.26415122413E+02 -0.52737099410E+01  0.40659089975E+02  0.00000000000E+00 0.  1.
         11    1    4    4    0    0  0.23749529055E+01 -0.18599737226E+01 -0.61877501665E+01  0.68839055729E+01  0.51100000000E-03 0. -1.
        -11    1    4    4    0    0 -0.93622360027E+01 -0.37887301651E+01  0.62495692136E+01  0.11876996878E+02  0.51100000000E-03 0.  1.
        -12    1    4    4    0    0 -0.23469093722E+02 -0.20766418525E+02  0.52118908939E+01  0.31768007574E+02  0.00000000000E+00 0.  1.
</event>
<event>
 8    1  0.1338956E-013  0.9118800E+02  0.7816164E-02  0.1184000E+00
        -11   -1    0    0    0    0  0.00000000000E+00  0.00000000000E+00  0.45593999997E+02  0.45594000000E+02  0.51100000000E-03 0. -1.
         11   -1    0    0    0    0 -0.00000000000E+00 -0.00000000000E+00 -0.45593999997E+02  0.45594000000E+02  0.51100000000E-03 0.  1.
         23    2    1    2    0    0  0.00000000000E+00  0.00000000000E+00  0.35527136788E-14  0.91188000000E+02  0.91188000000E+02 0.  0.
    9900012    2    3    3    0    0 -0.21192971726E+02 -0.23853754557E+02 -0.25199640909E+02  0.50528861310E+02  0.30000004439E+02 0.  0.
         12    1    3    3    0    0  0.21192971726E+02  0.23853754557E+02  0.25199640909E+02  0.40659138690E+02  0.00000000000E+00 0. -1.
         11    1    4    4    0    0  0.44903782230E+00 -0.36281088890E+01  0.30045505749E+01  0.47320327022E+01  0.51100000000E-03 0. -1.
        -11    1    4    4    0    0 -0.33854095618E+01  0.18297851449E+01 -0.12631280337E+02  0.13204482375E+02  0.51100000000E-03 0.  1.
        -12    1    4    4    0    0 -0.18256599987E+02 -0.22055430813E+02 -0.15572911147E+02  0.32592346234E+02  0.00000000000E+00 0.  1.
</event>
<event>
 8    1  0.1338956E-013  0.9118800E+02  0.7816164E-02  0.1184000E+00
        -11   -1    0    0    0    0  0.00000000000E+00  0.00000000000E+00  0.45593999997E+02  0.45594000000E+02  0.51100000000E-03 0. -1.
         11   -1    0    0    0    0 -0.00000000000E+00 -0.00000000000E+00 -0.45593999997E+02  0.45594000000E+02  0.51100000000E-03 0.  1.
         23    2    1    2    0    0  0.00000000000E+00  0.00000000000E+00 -0.88817841970E-15  0.91188000000E+02  0.91188000000E+02 0.  0.
    9900012    2    3    3    0    0 -0.35997231436E+02 -0.17907202921E+02 -0.60579661444E+01  0.50528836933E+02  0.29999930342E+02 0.  0.
         12    1    3    3    0    0  0.35997231436E+02  0.17907202921E+02  0.60579661444E+01  0.40659163067E+02  0.00000000000E+00 0. -1.
         11    1    4    4    0    0 -0.16538365454E+02 -0.65480593400E+01  0.71304270124E+01  0.19163444436E+02  0.51100000000E-03 0. -1.
        -11    1    4    4    0    0 -0.40528326630E+01  0.17786888548E+01  0.30799796764E+01  0.53921666986E+01  0.51100000000E-03 0.  1.
         12    1    4    4    0    0 -0.15406033319E+02 -0.13137832436E+02 -0.16268372833E+02  0.25973225798E+02  0.00000000000E+00 0. -1.
</event>
<event>
 8    1  0.1338956E-013  0.9118800E+02  0.7816164E-02  0.1184000E+00
        -11   -1    0    0    0    0  0.00000000000E+00  0.00000000000E+00  0.45593999997E+02  0.45594000000E+02  0.51100000000E-03 0. -1.
         11   -1    0    0    0    0 -0.00000000000E+00 -0.00000000000E+00 -0.45593999997E+02  0.45594000000E+02  0.51100000000E-03 0.  1.
         23    2    1    2    0    0  0.00000000000E+00  0.00000000000E+00  0.00000000000E+00  0.91188000000E+02  0.91188000000E+02 0.  0.
    9900012    2    3    3    0    0 -0.28832597579E+02  0.80638091979E+01 -0.27510386466E+02  0.50528867379E+02  0.30000022886E+02 0.  0.
         12    1    3    3    0    0  0.28832597579E+02 -0.80638091979E+01  0.27510386466E+02  0.40659132621E+02  0.00000000000E+00 0. -1.
         11    1    4    4    0    0 -0.97250524260E+01 -0.29908823420E+01  0.33448910608E+00  0.10180073924E+02  0.51100000000E-03 0. -1.
        -11    1    4    4    0    0 -0.15318473373E+02  0.72384203007E+01 -0.61928374974E+01  0.18038891082E+02  0.51100000000E-03 0.  1.
        -12    1    4    4    0    0 -0.37890717800E+01  0.38162712391E+01 -0.21652038075E+02  0.22309902374E+02  0.00000000000E+00 0.  1.
</event>
<event>
 8    1  0.1338956E-013  0.9118800E+02  0.7816164E-02  0.1184000E+00
        -11   -1    0    0    0    0  0.00000000000E+00  0.00000000000E+00  0.45593999997E+02  0.45594000000E+02  0.51100000000E-03 0.  1.
         11   -1    0    0    0    0 -0.00000000000E+00 -0.00000000000E+00 -0.45593999997E+02  0.45594000000E+02  0.51100000000E-03 0. -1.
         23    2    1    2    0    0  0.88817841970E-15  0.00000000000E+00 -0.44408920985E-15  0.91188000000E+02  0.91188000000E+02 0.  0.
    9900012    2    3    3    0    0 -0.51973779445E+01  0.40176080171E+02  0.34692492206E+01  0.50528857786E+02  0.29999993726E+02 0.  0.
         12    1    3    3    0    0  0.51973779445E+01 -0.40176080171E+02 -0.34692492206E+01  0.40659142214E+02  0.00000000000E+00 0. -1.
         11    1    4    4    0    0  0.28147699117E+01 -0.68512372685E+00 -0.58133957663E+01  0.64952209179E+01  0.51100000000E-03 0. -1.
        -11    1    4    4    0    0  0.37043402842E+00  0.20924545933E+01  0.32932828112E+01  0.39193493759E+01  0.51100000000E-03 0.  1.
         12    1    4    4    0    0 -0.83825818845E+01  0.38768749305E+02  0.59893621756E+01  0.40114287492E+02  0.00000000000E+00 0. -1.
</event>
<event>
 8    1  0.1338956E-013  0.9118800E+02  0.7816164E-02  0.1184000E+00
        -11   -1    0    0    0    0  0.00000000000E+00  0.00000000000E+00  0.45593999997E+02  0.45594000000E+02  0.51100000000E-03 0.  1.
         11   -1    0    0    0    0 -0.00000000000E+00 -0.00000000000E+00 -0.45593999997E+02  0.45594000000E+02  0.51100000000E-03 0. -1.
         23    2    1    2    0    0  0.00000000000E+00  0.44408920985E-15  0.88817841970E-15  0.91188000000E+02  0.91188000000E+02 0.  0.
    9900012    2    3    3    0    0 -0.39988125859E+02  0.11737719301E+01 -0.72620556733E+01  0.50528863230E+02  0.30000010274E+02 0.  0.
         12    1    3    3    0    0  0.39988125859E+02 -0.11737719301E+01  0.72620556733E+01  0.40659136770E+02  0.00000000000E+00 0. -1.
         11    1    4    4    0    0 -0.65140925554E+01 -0.78627945560E+00 -0.65195980202E+01  0.92496916602E+01  0.51100000000E-03 0. -1.
        -11    1    4    4    0    0 -0.12127693671E+02 -0.64477085710E+01 -0.95233763116E+01  0.16713724786E+02  0.51100000000E-03 0.  1.
        -12    1    4    4    0    0 -0.21346339632E+02  0.84077599567E+01  0.87809186585E+01  0.24565446784E+02  0.00000000000E+00 0.  1.
</event>
<event>
 8    1  0.1338956E-013  0.9118800E+02  0.7816164E-02  0.1184000E+00
        -11   -1    0    0    0    0  0.00000000000E+00  0.00000000000E+00  0.45593999997E+02  0.45594000000E+02  0.51100000000E-03 0. -1.
         11   -1    0    0    0    0 -0.00000000000E+00 -0.00000000000E+00 -0.45593999997E+02  0.45594000000E+02  0.51100000000E-03 0.  1.
         23    2    1    2    0    0  0.00000000000E+00  0.00000000000E+00  0.00000000000E+00  0.91188000000E+02  0.91188000000E+02 0.  0.
    9900012    2    3    3    0    0 -0.54149780482E+01  0.19129374822E+02 -0.35467032037E+02  0.50528864128E+02  0.30000013003E+02 0.  0.
         12    1    3    3    0    0  0.54149780482E+01 -0.19129374822E+02  0.35467032037E+02  0.40659135872E+02  0.00000000000E+00 0. -1.
         11    1    4    4    0    0 -0.18776905377E+01  0.82002757998E+01 -0.18570086447E+01  0.86150290955E+01  0.51100000000E-03 0. -1.
        -11    1    4    4    0    0 -0.89091140403E+01  0.11118148885E+02 -0.92937768866E+01  0.17010580140E+02  0.51100000000E-03 0.  1.
        -12    1    4    4    0    0  0.53718265298E+01 -0.18904986216E+00 -0.24316246506E+02  0.24903254893E+02  0.00000000000E+00 0.  1.
</event>
<event>
 8    1  0.1338956E-013  0.9118800E+02  0.7816164E-02  0.1184000E+00
        -11   -1    0    0    0    0  0.00000000000E+00  0.00000000000E+00  0.45593999997E+02  0.45594000000E+02  0.51100000000E-03 0. -1.
         11   -1    0    0    0    0 -0.00000000000E+00 -0.00000000000E+00 -0.45593999997E+02  0.45594000000E+02  0.51100000000E-03 0.  1.
         23    2    1    2    0    0 -0.17763568394E-14 -0.35527136788E-14  0.00000000000E+00  0.91188000000E+02  0.91188000000E+02 0.  0.
    9900012    2    3    3    0    0  0.14012987915E+02  0.28277841652E+02 -0.25635232569E+02  0.50528864401E+02  0.30000013834E+02 0.  0.
         12    1    3    3    0    0 -0.14012987915E+02 -0.28277841652E+02  0.25635232569E+02  0.40659135599E+02  0.00000000000E+00 0. -1.
         11    1    4    4    0    0  0.16884322560E+02  0.11200787493E+02 -0.18506936798E+02  0.27441659911E+02  0.51100000000E-03 0. -1.
        -11    1    4    4    0    0  0.51068910280E+01  0.36586705696E+01 -0.28637168814E+01  0.69041350614E+01  0.51100000000E-03 0.  1.
         12    1    4    4    0    0 -0.79782256728E+01  0.13418383589E+02 -0.42645788896E+01  0.16183069429E+02  0.00000000000E+00 0. -1.
</event>
<event>
 8    1  0.1338956E-013  0.9118800E+02  0.7816164E-02  0.1184000E+00
        -11   -1    0    0    0    0  0.00000000000E+00  0.00000000000E+00  0.45593999997E+02  0.45594000000E+02  0.51100000000E-03 0. -1.
         11   -1    0    0    0    0 -0.00000000000E+00 -0.00000000000E+00 -0.45593999997E+02  0.45594000000E+02  0.51100000000E-03 0.  1.
         23    2    1    2    0    0  0.00000000000E+00  0.00000000000E+00  0.00000000000E+00  0.91188000000E+02  0.91188000000E+02 0.  0.
    9900012    2    3    3    0    0  0.15966017431E+02  0.26473185056E+02  0.26408746779E+02  0.50528866388E+02  0.30000019873E+02 0.  0.
        -12    1    3    3    0    0 -0.15966017431E+02 -0.26473185056E+02 -0.26408746779E+02  0.40659133612E+02  0.00000000000E+00 0.  1.
         11    1    4    4    0    0  0.31075187386E+01  0.18017456383E+01  0.15533871888E+01  0.39135625810E+01  0.51100000000E-03 0.  1.
        -11    1    4    4    0    0  0.37329291846E+01  0.18641763983E+02 -0.48198276690E+00  0.19017950267E+02  0.51100000000E-03 0. -1.
         12    1    4    4    0    0  0.91255695081E+01  0.60296754345E+01  0.25337342357E+02  0.27597353540E+02  0.00000000000E+00 0. -1.
</event>
<event>
 8    1  0.1338956E-013  0.9118800E+02  0.7816164E-02  0.1184000E+00
        -11   -1    0    0    0    0  0.00000000000E+00  0.00000000000E+00  0.45593999997E+02  0.45594000000E+02  0.51100000000E-03 0. -1.
         11   -1    0    0    0    0 -0.00000000000E+00 -0.00000000000E+00 -0.45593999997E+02  0.45594000000E+02  0.51100000000E-03 0.  1.
         23    2    1    2    0    0  0.35527136788E-14  0.00000000000E+00  0.35527136788E-14  0.91188000000E+02  0.91188000000E+02 0.  0.
    9900012    2    3    3    0    0 -0.23355515121E+02 -0.15351685212E+02 -0.29529850068E+02  0.50528851332E+02  0.29999974108E+02 0.  0.
         12    1    3    3    0    0  0.23355515121E+02  0.15351685212E+02  0.29529850068E+02  0.40659148668E+02  0.00000000000E+00 0. -1.
         11    1    4    4    0    0 -0.12090064866E+01 -0.72410480979E+01 -0.38143872704E+00  0.73511883396E+01  0.51100000000E-03 0. -1.
        -11    1    4    4    0    0  0.23868409663E+01 -0.59696016942E+01 -0.10399173447E+02  0.12226036268E+02  0.51100000000E-03 0.  1.
         12    1    4    4    0    0 -0.24533349601E+02 -0.21410354195E+01 -0.18749237894E+02  0.30951626725E+02  0.00000000000E+00 0. -1.
</event>
<event>
 8    1  0.1338956E-013  0.9118800E+02  0.7816164E-02  0.1184000E+00
        -11   -1    0    0    0    0  0.00000000000E+00  0.00000000000E+00  0.45593999997E+02  0.45594000000E+02  0.51100000000E-03 0. -1.
         11   -1    0    0    0    0 -0.00000000000E+00 -0.00000000000E+00 -0.45593999997E+02  0.45594000000E+02  0.51100000000E-03 0.  1.
         23    2    1    2    0    0  0.00000000000E+00  0.35527136788E-14  0.00000000000E+00  0.91188000000E+02  0.91188000000E+02 0.  0.
    9900012    2    3    3    0    0 -0.24734666803E+02 -0.27438960531E+02 -0.16984241499E+02  0.50528871183E+02  0.30000034447E+02 0.  0.
         12    1    3    3    0    0  0.24734666803E+02  0.27438960531E+02  0.16984241499E+02  0.40659128817E+02  0.00000000000E+00 0. -1.
         11    1    4    4    0    0 -0.18741824532E+00 -0.65231719004E+01 -0.65339637813E+01  0.92346943749E+01  0.51100000000E-03 0. -1.
        -11    1    4    4    0    0 -0.17463970651E+02 -0.15538358380E+02 -0.18099492519E+02  0.29563871224E+02  0.51100000000E-03 0.  1.
         12    1    4    4    0    0 -0.70832779066E+01 -0.53774302511E+01  0.76492148013E+01  0.11730305584E+02  0.00000000000E+00 0. -1.
</event>
<event>
 8    1  0.1338956E-013  0.9118800E+02  0.7816164E-02  0.1184000E+00
        -11   -1    0    0    0    0  0.00000000000E+00  0.00000000000E+00  0.45593999997E+02  0.45594000000E+02  0.51100000000E-03 0. -1.
         11   -1    0    0    0    0 -0.00000000000E+00 -0.00000000000E+00 -0.45593999997E+02  0.45594000000E+02  0.51100000000E-03 0.  1.
         23    2    1    2    0    0  0.35527136788E-14 -0.66613381478E-15 -0.71054273576E-14  0.91188000000E+02  0.91188000000E+02 0.  0.
    9900012    2    3    3    0    0 -0.18775772875E+02  0.55799724480E+00  0.36060016111E+02  0.50528858716E+02  0.29999996553E+02 0.  0.
        -12    1    3    3    0    0  0.18775772875E+02 -0.55799724480E+00 -0.36060016111E+02  0.40659141284E+02  0.00000000000E+00 0.  1.
         11    1    4    4    0    0 -0.35991697542E+01 -0.30860549566E+01  0.71051720966E+00  0.47940163831E+01  0.51100000000E-03 0. -1.
        -11    1    4    4    0    0 -0.99937410492E+00 -0.71187863654E+01  0.12883115192E+01  0.73031236296E+01  0.51100000000E-03 0.  1.
         12    1    4    4    0    0 -0.14177229016E+02  0.10762838567E+02  0.34061187383E+02  0.38431718703E+02  0.00000000000E+00 0. -1.
</event>
<event>
 8    1  0.1338956E-013  0.9118800E+02  0.7816164E-02  0.1184000E+00
        -11   -1    0    0    0    0  0.00000000000E+00  0.00000000000E+00  0.45593999997E+02  0.45594000000E+02  0.51100000000E-03 0. -1.
         11   -1    0    0    0    0 -0.00000000000E+00 -0.00000000000E+00 -0.45593999997E+02  0.45594000000E+02  0.51100000000E-03 0.  1.
         23    2    1    2    0    0 -0.17763568394E-14  0.17763568394E-14 -0.71054273576E-14  0.91188000000E+02  0.91188000000E+02 0.  0.
    9900012    2    3    3    0    0  0.10784352307E+02  0.18797243646E+01 -0.39157760890E+02  0.50528857654E+02  0.29999993326E+02 0.  0.
         12    1    3    3    0    0 -0.10784352307E+02 -0.18797243646E+01  0.39157760890E+02  0.40659142346E+02  0.00000000000E+00 0. -1.
         11    1    4    4    0    0  0.92552989067E+01 -0.18375964664E+01 -0.24321722166E+02  0.26087995094E+02  0.51100000000E-03 0.  1.
        -11    1    4    4    0    0  0.22931593374E+01 -0.68394685421E+01 -0.11057007523E+02  0.13202057616E+02  0.51100000000E-03 0. -1.
         12    1    4    4    0    0 -0.76410593740E+00  0.10556789373E+02 -0.37790312014E+01  0.11238804944E+02  0.00000000000E+00 0. -1.
</event>
<event>
 8    1  0.1338956E-013  0.9118800E+02  0.7816164E-02  0.1184000E+00
        -11   -1    0    0    0    0  0.00000000000E+00  0.00000000000E+00  0.45593999997E+02  0.45594000000E+02  0.51100000000E-03 0. -1.
         11   -1    0    0    0    0 -0.00000000000E+00 -0.00000000000E+00 -0.45593999997E+02  0.45594000000E+02  0.51100000000E-03 0.  1.
         23    2    1    2    0    0  0.35527136788E-14  0.00000000000E+00  0.00000000000E+00  0.91188000000E+02  0.91188000000E+02 0.  0.
    9900012    2    3    3    0    0  0.26245126732E+02  0.13929542435E+02  0.27754783315E+02  0.50528845724E+02  0.29999957063E+02 0.  0.
        -12    1    3    3    0    0 -0.26245126732E+02 -0.13929542435E+02 -0.27754783315E+02  0.40659154276E+02  0.00000000000E+00 0.  1.
         11    1    4    4    0    0  0.28017565015E+01 -0.40579678930E+01  0.22812046705E+01  0.54333081934E+01  0.51100000000E-03 0. -1.
        -11    1    4    4    0    0  0.73658639985E+01 -0.46693194988E+01  0.25752349493E+01  0.90934224763E+01  0.51100000000E-03 0.  1.
         12    1    4    4    0    0  0.16077506231E+02  0.22656829827E+02  0.22898343695E+02  0.36002115054E+02  0.00000000000E+00 0. -1.
</event>
<event>
 8    1  0.1338956E-013  0.9118800E+02  0.7816164E-02  0.1184000E+00
        -11   -1    0    0    0    0  0.00000000000E+00  0.00000000000E+00  0.45593999997E+02  0.45594000000E+02  0.51100000000E-03 0. -1.
         11   -1    0    0    0    0 -0.00000000000E+00 -0.00000000000E+00 -0.45593999997E+02  0.45594000000E+02  0.51100000000E-03 0.  1.
         23    2    1    2    0    0  0.00000000000E+00  0.00000000000E+00  0.00000000000E+00  0.91188000000E+02  0.91188000000E+02 0.  0.
    9900012    2    3    3    0    0  0.15489214598E+02 -0.25476213206E+01 -0.37506790000E+02  0.50528862781E+02  0.30000008910E+02 0.  0.
         12    1    3    3    0    0 -0.15489214598E+02  0.25476213206E+01  0.37506790000E+02  0.40659137219E+02  0.00000000000E+00 0. -1.
         11    1    4    4    0    0  0.35858847617E+01 -0.82670369869E+01 -0.60144065742E+01  0.10834000035E+02  0.51100000000E-03 0. -1.
        -11    1    4    4    0    0 -0.16421297801E+01 -0.49907113351E+01 -0.14689525608E+02  0.15600831795E+02  0.51100000000E-03 0.  1.
         12    1    4    4    0    0  0.13545459617E+02  0.10710127001E+02 -0.16802857817E+02  0.24094030951E+02  0.00000000000E+00 0. -1.
</event>
<event>
 8    1  0.1338956E-013  0.9118800E+02  0.7816164E-02  0.1184000E+00
        -11   -1    0    0    0    0  0.00000000000E+00  0.00000000000E+00  0.45593999997E+02  0.45594000000E+02  0.51100000000E-03 0. -1.
         11   -1    0    0    0    0 -0.00000000000E+00 -0.00000000000E+00 -0.45593999997E+02  0.45594000000E+02  0.51100000000E-03 0.  1.
         23    2    1    2    0    0  0.00000000000E+00  0.35527136788E-14  0.17763568394E-14  0.91188000000E+02  0.91188000000E+02 0.  0.
    9900012    2    3    3    0    0  0.33534480958E+02 -0.17254285989E+02  0.15195194714E+02  0.50528859078E+02  0.29999997654E+02 0.  0.
        -12    1    3    3    0    0 -0.33534480958E+02  0.17254285989E+02 -0.15195194714E+02  0.40659140922E+02  0.00000000000E+00 0.  1.
         11    1    4    4    0    0  0.11187412275E+02  0.12609359494E+01 -0.12478277718E+01  0.11327189734E+02  0.51100000000E-03 0. -1.
        -11    1    4    4    0    0  0.91701540586E+01  0.34266111181E+01  0.27196299079E+01  0.10160205525E+02  0.51100000000E-03 0.  1.
         12    1    4    4    0    0  0.13176914625E+02 -0.21941833057E+02  0.13723392578E+02  0.29041463819E+02  0.00000000000E+00 0. -1.
</event>
<event>
 8    1  0.1338956E-013  0.9118800E+02  0.7816164E-02  0.1184000E+00
        -11   -1    0    0    0    0  0.00000000000E+00  0.00000000000E+00  0.45593999997E+02  0.45594000000E+02  0.51100000000E-03 0.  1.
         11   -1    0    0    0    0 -0.00000000000E+00 -0.00000000000E+00 -0.45593999997E+02  0.45594000000E+02  0.51100000000E-03 0. -1.
         23    2    1    2    0    0  0.00000000000E+00 -0.35527136788E-14  0.00000000000E+00  0.91188000000E+02  0.91188000000E+02 0.  0.
    9900012    2    3    3    0    0  0.23574355831E+02 -0.28513761546E+02  0.16863597067E+02  0.50528858883E+02  0.29999997060E+02 0.  0.
        -12    1    3    3    0    0 -0.23574355831E+02  0.28513761546E+02 -0.16863597067E+02  0.40659141117E+02  0.00000000000E+00 0.  1.
         11    1    4    4    0    0  0.12419851638E+02 -0.29819281843E+01  0.74101412168E+01  0.14766678825E+02  0.51100000000E-03 0. -1.
        -11    1    4    4    0    0 -0.38569791209E+01 -0.43904932854E+01  0.78464887050E+01  0.97836651868E+01  0.51100000000E-03 0.  1.
         12    1    4    4    0    0  0.15011483314E+02 -0.21141340076E+02  0.16069671453E+01  0.25978514871E+02  0.00000000000E+00 0. -1.
</event>
<event>
 8    1  0.1338956E-013  0.9118800E+02  0.7816164E-02  0.1184000E+00
        -11   -1    0    0    0    0  0.00000000000E+00  0.00000000000E+00  0.45593999997E+02  0.45594000000E+02  0.51100000000E-03 0. -1.
         11   -1    0    0    0    0 -0.00000000000E+00 -0.00000000000E+00 -0.45593999997E+02  0.45594000000E+02  0.51100000000E-03 0.  1.
         23    2    1    2    0    0  0.00000000000E+00  0.00000000000E+00  0.00000000000E+00  0.91188000000E+02  0.91188000000E+02 0.  0.
    9900012    2    3    3    0    0 -0.28334967912E+02  0.16084695837E+02  0.24322370313E+02  0.50528861490E+02  0.30000004984E+02 0.  0.
        -12    1    3    3    0    0  0.28334967912E+02 -0.16084695837E+02 -0.24322370313E+02  0.40659138510E+02  0.00000000000E+00 0.  1.
         11    1    4    4    0    0 -0.26735928776E+01 -0.38705332644E+00  0.70429921519E+00  0.27917641015E+01  0.51100000000E-03 0. -1.
        -11    1    4    4    0    0 -0.31069054247E+02  0.92732868473E+01  0.17422103565E+02  0.36807739317E+02  0.51100000000E-03 0.  1.
         12    1    4    4    0    0  0.54076792123E+01  0.71984623164E+01  0.61959675327E+01  0.10929358071E+02  0.00000000000E+00 0. -1.
</event>
<event>
 8    1  0.1340437E-013  0.9118800E+02  0.7816164E-02  0.1184000E+00
        -11   -1    0    0    0    0  0.00000000000E+00  0.00000000000E+00  0.45593999997E+02  0.45594000000E+02  0.51100000000E-03 0. -1.
         11   -1    0    0    0    0 -0.00000000000E+00 -0.00000000000E+00 -0.45593999997E+02  0.45594000000E+02  0.51100000000E-03 0.  1.
         23    2    1    2    0    0  0.00000000000E+00  0.00000000000E+00 -0.35527136788E-14  0.91188000000E+02  0.91188000000E+02 0.  0.
    9900012    2    3    3    0    0  0.92967646682E+01  0.24688062183E+02 -0.30939197416E+02  0.50528878214E+02  0.30000055820E+02 0.  0.
         12    1    3    3    0    0 -0.92967646682E+01 -0.24688062183E+02  0.30939197416E+02  0.40659121786E+02  0.00000000000E+00 0. -1.
         11    1    4    4    0    0 -0.32131902475E+01  0.65597255372E+01  0.12096322814E+00  0.73054242213E+01  0.51100000000E-03 0. -1.
        -11    1    4    4    0    0  0.71317832242E+01  0.22197207778E+02 -0.24147700098E+02  0.33566200044E+02  0.51100000000E-03 0.  1.
         12    1    4    4    0    0  0.53781716914E+01 -0.40688711325E+01 -0.69124605459E+01  0.96572539489E+01  0.00000000000E+00 0. -1.
</event>
<event>
 8    1  0.1338956E-013  0.9118800E+02  0.7816164E-02  0.1184000E+00
        -11   -1    0    0    0    0  0.00000000000E+00  0.00000000000E+00  0.45593999997E+02  0.45594000000E+02  0.51100000000E-03 0. -1.
         11   -1    0    0    0    0 -0.00000000000E+00 -0.00000000000E+00 -0.45593999997E+02  0.45594000000E+02  0.51100000000E-03 0.  1.
         23    2    1    2    0    0  0.17763568394E-14 -0.26645352591E-14  0.00000000000E+00  0.91188000000E+02  0.91188000000E+02 0.  0.
    9900012    2    3    3    0    0  0.43078295600E+01 -0.38647731165E+01 -0.40245146877E+02  0.50528859405E+02  0.29999998647E+02 0.  0.
         12    1    3    3    0    0 -0.43078295600E+01  0.38647731165E+01  0.40245146877E+02  0.40659140595E+02  0.00000000000E+00 0. -1.
         11    1    4    4    0    0  0.36374531414E+01 -0.69482114179E+01 -0.36768322214E+02  0.37595454858E+02  0.51100000000E-03 0.  1.
        -11    1    4    4    0    0  0.31307008676E+01 -0.29241056007E+01 -0.46652054735E+01  0.63337053814E+01  0.51100000000E-03 0. -1.
         12    1    4    4    0    0 -0.24603244490E+01  0.60075439020E+01  0.11883808100E+01  0.65996991658E+01  0.00000000000E+00 0. -1.
</event>
<event>
 8    1  0.1338956E-013  0.9118800E+02  0.7816164E-02  0.1184000E+00
        -11   -1    0    0    0    0  0.00000000000E+00  0.00000000000E+00  0.45593999997E+02  0.45594000000E+02  0.51100000000E-03 0.  1.
         11   -1    0    0    0    0 -0.00000000000E+00 -0.00000000000E+00 -0.45593999997E+02  0.45594000000E+02  0.51100000000E-03 0. -1.
         23    2    1    2    0    0  0.00000000000E+00  0.00000000000E+00  0.00000000000E+00  0.91188000000E+02  0.91188000000E+02 0.  0.
    9900012    2    3    3    0    0  0.30383971668E+02  0.26376496489E+02 -0.58532345443E+01  0.50528860118E+02  0.30000000813E+02 0.  0.
         12    1    3    3    0    0 -0.30383971668E+02 -0.26376496489E+02  0.58532345443E+01  0.40659139882E+02  0.00000000000E+00 0. -1.
         11    1    4    4    0    0  0.10693338995E+01  0.55140209284E+01 -0.56175074206E+01  0.79438209742E+01  0.51100000000E-03 0. -1.
        -11    1    4    4    0    0 -0.23935253274E+01 -0.21710648575E+01 -0.10116620689E+01  0.33861403560E+01  0.51100000000E-03 0.  1.
        -12    1    4    4    0    0  0.31708163096E+02  0.23033540418E+02  0.77593494524E+00  0.39198898787E+02  0.00000000000E+00 0.  1.
</event>
<event>
 8    1  0.1338956E-013  0.9118800E+02  0.7816164E-02  0.1184000E+00
        -11   -1    0    0    0    0  0.00000000000E+00  0.00000000000E+00  0.45593999997E+02  0.45594000000E+02  0.51100000000E-03 0. -1.
         11   -1    0    0    0    0 -0.00000000000E+00 -0.00000000000E+00 -0.45593999997E+02  0.45594000000E+02  0.51100000000E-03 0.  1.
         23    2    1    2    0    0 -0.35527136788E-14  0.00000000000E+00  0.00000000000E+00  0.91188000000E+02  0.91188000000E+02 0.  0.
    9900012    2    3    3    0    0 -0.25223716525E+02  0.18983726042E+02 -0.25623196290E+02  0.50528856896E+02  0.29999991022E+02 0.  0.
         12    1    3    3    0    0  0.25223716525E+02 -0.18983726042E+02  0.25623196290E+02  0.40659143104E+02  0.00000000000E+00 0. -1.
         11    1    4    4    0    0 -0.34750410366E+01 -0.32220422579E+01 -0.12240535257E+01  0.48944635878E+01  0.51100000000E-03 0. -1.
        -11    1    4    4    0    0 -0.25232658307E+02  0.18645287389E+02 -0.14521643635E+02  0.34571837110E+02  0.51100000000E-03 0.  1.
         12    1    4    4    0    0  0.34839828180E+01  0.35604809113E+01 -0.98774991293E+01  0.11062556198E+02  0.00000000000E+00 0. -1.
</event>
<event>
 8    1  0.1338956E-013  0.9118800E+02  0.7816164E-02  0.1184000E+00
        -11   -1    0    0    0    0  0.00000000000E+00  0.00000000000E+00  0.45593999997E+02  0.45594000000E+02  0.51100000000E-03 0. -1.
         11   -1    0    0    0    0 -0.00000000000E+00 -0.00000000000E+00 -0.45593999997E+02  0.45594000000E+02  0.51100000000E-03 0.  1.
         23    2    1    2    0    0  0.00000000000E+00  0.00000000000E+00  0.00000000000E+00  0.91188000000E+02  0.91188000000E+02 0.  0.
    9900012    2    3    3    0    0  0.17883444650E+02  0.44104196770E+01 -0.36247662738E+02  0.50528899564E+02  0.30000120714E+02 0.  0.
         12    1    3    3    0    0 -0.17883444650E+02 -0.44104196770E+01  0.36247662738E+02  0.40659100436E+02  0.00000000000E+00 0. -1.
         11    1    4    4    0    0 -0.69995178270E+00  0.24774719679E+01 -0.60892658460E+01  0.66111238571E+01  0.51100000000E-03 0. -1.
        -11    1    4    4    0    0  0.12221642462E+01  0.15705089347E+01 -0.25981340728E+02  0.26057441357E+02  0.51100000000E-03 0.  1.
         12    1    4    4    0    0  0.17361232186E+02  0.36243877436E+00 -0.41770561639E+01  0.17860334350E+02  0.00000000000E+00 0. -1.
</event>
<event>
 8    1  0.1338956E-013  0.9118800E+02  0.7816164E-02  0.1184000E+00
        -11   -1    0    0    0    0  0.00000000000E+00  0.00000000000E+00  0.45593999997E+02  0.45594000000E+02  0.51100000000E-03 0. -1.
         11   -1    0    0    0    0 -0.00000000000E+00 -0.00000000000E+00 -0.45593999997E+02  0.45594000000E+02  0.51100000000E-03 0.  1.
         23    2    1    2    0    0  0.00000000000E+00 -0.35527136788E-14 -0.17763568394E-14  0.91188000000E+02  0.91188000000E+02 0.  0.
    9900012    2    3    3    0    0  0.25319001439E+02  0.28171296017E+02  0.14781465326E+02  0.50528862401E+02  0.30000007753E+02 0.  0.
        -12    1    3    3    0    0 -0.25319001439E+02 -0.28171296017E+02 -0.14781465326E+02  0.40659137599E+02  0.00000000000E+00 0.  1.
         11    1    4    4    0    0  0.79217706892E+01  0.89202288605E+01  0.84139543870E+01  0.14598615087E+02  0.51100000000E-03 0. -1.
        -11    1    4    4    0    0 -0.19020106331E+01 -0.32073828893E+01 -0.30923892536E+01  0.48443597104E+01  0.51100000000E-03 0.  1.
         12    1    4    4    0    0  0.19299241383E+02  0.22458450046E+02  0.94599001928E+01  0.31085887603E+02  0.00000000000E+00 0. -1.
</event>
<event>
 8    1  0.1338956E-013  0.9118800E+02  0.7816164E-02  0.1184000E+00
        -11   -1    0    0    0    0  0.00000000000E+00  0.00000000000E+00  0.45593999997E+02  0.45594000000E+02  0.51100000000E-03 0. -1.
         11   -1    0    0    0    0 -0.00000000000E+00 -0.00000000000E+00 -0.45593999997E+02  0.45594000000E+02  0.51100000000E-03 0.  1.
         23    2    1    2    0    0 -0.71054273576E-14  0.17763568394E-14  0.00000000000E+00  0.91188000000E+02  0.91188000000E+02 0.  0.
    9900012    2    3    3    0    0  0.32608370695E+02  0.31592423085E+01 -0.24080676506E+02  0.50528860408E+02  0.30000001697E+02 0.  0.
         12    1    3    3    0    0 -0.32608370695E+02 -0.31592423085E+01  0.24080676506E+02  0.40659139592E+02  0.00000000000E+00 0. -1.
         11    1    4    4    0    0  0.49659662056E+01 -0.42513588038E+01 -0.20501983405E+01  0.68511448336E+01  0.51100000000E-03 0. -1.
        -11    1    4    4    0    0  0.28523179876E+02  0.13142341687E+02 -0.21021731514E+02  0.37791614564E+02  0.51100000000E-03 0.  1.
         12    1    4    4    0    0 -0.88077538637E+00 -0.57317405749E+01 -0.10087466513E+01  0.58861010105E+01  0.00000000000E+00 0. -1.
</event>
<event>
 8    1  0.1338956E-013  0.9118800E+02  0.7816164E-02  0.1184000E+00
        -11   -1    0    0    0    0  0.00000000000E+00  0.00000000000E+00  0.45593999997E+02  0.45594000000E+02  0.51100000000E-03 0. -1.
         11   -1    0    0    0    0 -0.00000000000E+00 -0.00000000000E+00 -0.45593999997E+02  0.45594000000E+02  0.51100000000E-03 0.  1.
         23    2    1    2    0    0 -0.35527136788E-14  0.00000000000E+00  0.00000000000E+00  0.91188000000E+02  0.91188000000E+02 0.  0.
    9900012    2    3    3    0    0 -0.21272898310E+02 -0.27226277738E+02 -0.21432672696E+02  0.50528857598E+02  0.29999993155E+02 0.  0.
         12    1    3    3    0    0  0.21272898310E+02  0.27226277738E+02  0.21432672696E+02  0.40659142402E+02  0.00000000000E+00 0. -1.
         11    1    4    4    0    0 -0.12175102053E+02 -0.10854702968E+02  0.34204971961E+01  0.16666057958E+02  0.51100000000E-03 0. -1.
        -11    1    4    4    0    0 -0.10366135135E+02 -0.52545746043E+01 -0.10491403590E+02  0.15656847111E+02  0.51100000000E-03 0.  1.
        -12    1    4    4    0    0  0.12683388773E+01 -0.11117000166E+02 -0.14361766302E+02  0.18205952529E+02  0.00000000000E+00 0.  1.
</event>
<event>
 8    1  0.1338956E-013  0.9118800E+02  0.7816164E-02  0.1184000E+00
        -11   -1    0    0    0    0  0.00000000000E+00  0.00000000000E+00  0.45593999997E+02  0.45594000000E+02  0.51100000000E-03 0. -1.
         11   -1    0    0    0    0 -0.00000000000E+00 -0.00000000000E+00 -0.45593999997E+02  0.45594000000E+02  0.51100000000E-03 0.  1.
         23    2    1    2    0    0 -0.17763568394E-14 -0.44408920985E-15  0.00000000000E+00  0.91188000000E+02  0.91188000000E+02 0.  0.
    9900012    2    3    3    0    0  0.10513128174E+02  0.27772992975E+01 -0.39178139042E+02  0.50528857926E+02  0.29999994152E+02 0.  0.
         12    1    3    3    0    0 -0.10513128174E+02 -0.27772992975E+01  0.39178139042E+02  0.40659142074E+02  0.00000000000E+00 0. -1.
         11    1    4    4    0    0  0.92432553120E+01  0.37377568575E+01 -0.20976199096E+02  0.23225191579E+02  0.51100000000E-03 0. -1.
        -11    1    4    4    0    0  0.65686129497E+01  0.90826504303E+00 -0.20261861721E+02  0.21319349477E+02  0.51100000000E-03 0.  1.
         12    1    4    4    0    0 -0.52987400880E+01 -0.18687226030E+01  0.20599217749E+01  0.59843168704E+01  0.00000000000E+00 0. -1.
</event>
<event>
 8    1  0.1338956E-013  0.9118800E+02  0.7816164E-02  0.1184000E+00
        -11   -1    0    0    0    0  0.00000000000E+00  0.00000000000E+00  0.45593999997E+02  0.45594000000E+02  0.51100000000E-03 0. -1.
         11   -1    0    0    0    0 -0.00000000000E+00 -0.00000000000E+00 -0.45593999997E+02  0.45594000000E+02  0.51100000000E-03 0.  1.
         23    2    1    2    0    0  0.00000000000E+00  0.35527136788E-14  0.00000000000E+00  0.91188000000E+02  0.91188000000E+02 0.  0.
    9900012    2    3    3    0    0 -0.13139822022E+02  0.13349639630E+02  0.36087376747E+02  0.50528848982E+02  0.29999966966E+02 0.  0.
        -12    1    3    3    0    0  0.13139822022E+02 -0.13349639630E+02 -0.36087376747E+02  0.40659151018E+02  0.00000000000E+00 0.  1.
         11    1    4    4    0    0 -0.85256422099E+01  0.55025947431E+01  0.29507951637E+01  0.10567512307E+02  0.51100000000E-03 0. -1.
        -11    1    4    4    0    0 -0.23387844235E+01  0.34472742434E+01 -0.18983941281E+01  0.45779376160E+01  0.51100000000E-03 0.  1.
        -12    1    4    4    0    0 -0.22753953883E+01  0.43997706436E+01  0.35034975711E+02  0.35383399059E+02  0.00000000000E+00 0.  1.
</event>
<event>
 8    1  0.1338956E-013  0.9118800E+02  0.7816164E-02  0.1184000E+00
        -11   -1    0    0    0    0  0.00000000000E+00  0.00000000000E+00  0.45593999997E+02  0.45594000000E+02  0.51100000000E-03 0. -1.
         11   -1    0    0    0    0 -0.00000000000E+00 -0.00000000000E+00 -0.45593999997E+02  0.45594000000E+02  0.51100000000E-03 0.  1.
         23    2    1    2    0    0  0.00000000000E+00  0.00000000000E+00  0.00000000000E+00  0.91188000000E+02  0.91188000000E+02 0.  0.
    9900012    2    3    3    0    0 -0.13054141026E+02  0.19505104579E+02  0.33201029619E+02  0.50528830427E+02  0.29999910567E+02 0.  0.
        -12    1    3    3    0    0  0.13054141026E+02 -0.19505104579E+02 -0.33201029619E+02  0.40659169573E+02  0.00000000000E+00 0.  1.
         11    1    4    4    0    0  0.29587082654E+01  0.10652062103E+02  0.16508943321E+02  0.19868708853E+02  0.51100000000E-03 0. -1.
        -11    1    4    4    0    0  0.39172708696E+01  0.10938629265E+01  0.44014284575E+01  0.59928390514E+01  0.51100000000E-03 0.  1.
        -12    1    4    4    0    0 -0.19930120161E+02  0.77591795488E+01  0.12290657841E+02  0.24667282523E+02  0.00000000000E+00 0.  1.
</event>
<event>
 8    1  0.1338956E-013  0.9118800E+02  0.7816164E-02  0.1184000E+00
        -11   -1    0    0    0    0  0.00000000000E+00  0.00000000000E+00  0.45593999997E+02  0.45594000000E+02  0.51100000000E-03 0. -1.
         11   -1    0    0    0    0 -0.00000000000E+00 -0.00000000000E+00 -0.45593999997E+02  0.45594000000E+02  0.51100000000E-03 0.  1.
         23    2    1    2    0    0  0.26645352591E-14  0.17763568394E-14  0.00000000000E+00  0.91188000000E+02  0.91188000000E+02 0.  0.
    9900012    2    3    3    0    0  0.20847434482E+01 -0.13368896268E+02  0.38341773509E+02  0.50528866482E+02  0.30000020157E+02 0.  0.
        -12    1    3    3    0    0 -0.20847434482E+01  0.13368896268E+02 -0.38341773509E+02  0.40659133518E+02  0.00000000000E+00 0.  1.
         11    1    4    4    0    0  0.19297587166E+01 -0.31029373024E+01  0.11104541784E+02  0.11690296707E+02  0.51100000000E-03 0. -1.
        -11    1    4    4    0    0 -0.88956249804E+01 -0.65908071979E+01  0.26872131162E+02  0.29063418876E+02  0.51100000000E-03 0.  1.
        -12    1    4    4    0    0  0.90506097120E+01 -0.36751517672E+01  0.36510056328E+00  0.97751508986E+01  0.00000000000E+00 0.  1.
</event>
<event>
 8    1  0.1338956E-013  0.9118800E+02  0.7816164E-02  0.1184000E+00
        -11   -1    0    0    0    0  0.00000000000E+00  0.00000000000E+00  0.45593999997E+02  0.45594000000E+02  0.51100000000E-03 0. -1.
         11   -1    0    0    0    0 -0.00000000000E+00 -0.00000000000E+00 -0.45593999997E+02  0.45594000000E+02  0.51100000000E-03 0.  1.
         23    2    1    2    0    0  0.00000000000E+00  0.00000000000E+00  0.71054273576E-14  0.91188000000E+02  0.91188000000E+02 0.  0.
    9900012    2    3    3    0    0 -0.32255322942E+01  0.21854532624E+02 -0.34134115580E+02  0.50528898913E+02  0.30000118735E+02 0.  0.
         12    1    3    3    0    0  0.32255322942E+01 -0.21854532624E+02  0.34134115580E+02  0.40659101087E+02  0.00000000000E+00 0. -1.
         11    1    4    4    0    0 -0.15126991776E+01 -0.39215796472E+01  0.24731717054E+00  0.42104883060E+01  0.51100000000E-03 0. -1.
        -11    1    4    4    0    0 -0.33097493354E+01 -0.36137530354E+00 -0.30610648436E+00  0.33434614121E+01  0.51100000000E-03 0.  1.
        -12    1    4    4    0    0  0.15969162188E+01  0.26137487575E+02 -0.34075326266E+02  0.42974949195E+02  0.00000000000E+00 0.  1.
</event>
<event>
 8    1  0.1338956E-013  0.9118800E+02  0.7816164E-02  0.1184000E+00
        -11   -1    0    0    0    0  0.00000000000E+00  0.00000000000E+00  0.45593999997E+02  0.45594000000E+02  0.51100000000E-03 0. -1.
         11   -1    0    0    0    0 -0.00000000000E+00 -0.00000000000E+00 -0.45593999997E+02  0.45594000000E+02  0.51100000000E-03 0.  1.
         23    2    1    2    0    0  0.00000000000E+00 -0.17763568394E-14  0.00000000000E+00  0.91188000000E+02  0.91188000000E+02 0.  0.
    9900012    2    3    3    0    0 -0.73121975941E+01  0.10992185521E+02  0.38456073727E+02  0.50528856100E+02  0.29999988603E+02 0.  0.
        -12    1    3    3    0    0  0.73121975941E+01 -0.10992185521E+02 -0.38456073727E+02  0.40659143900E+02  0.00000000000E+00 0.  1.
         11    1    4    4    0    0 -0.30525515848E+01 -0.15550540508E+01 -0.22016713828E+01  0.40722992790E+01  0.51100000000E-03 0. -1.
        -11    1    4    4    0    0  0.28789042714E+01 -0.35517087145E+01  0.56436093915E+01  0.72631296162E+01  0.51100000000E-03 0.  1.
        -12    1    4    4    0    0 -0.71385502807E+01  0.16098948286E+02  0.35014135718E+02  0.39193427205E+02  0.00000000000E+00 0.  1.
</event>
<event>
 8    1  0.1338956E-013  0.9118800E+02  0.7816164E-02  0.1184000E+00
        -11   -1    0    0    0    0  0.00000000000E+00  0.00000000000E+00  0.45593999997E+02  0.45594000000E+02  0.51100000000E-03 0. -1.
         11   -1    0    0    0    0 -0.00000000000E+00 -0.00000000000E+00 -0.45593999997E+02  0.45594000000E+02  0.51100000000E-03 0.  1.
         23    2    1    2    0    0  0.35527136788E-14 -0.17763568394E-14  0.35527136788E-14  0.91188000000E+02  0.91188000000E+02 0.  0.
    9900012    2    3    3    0    0 -0.25430606445E+02 -0.11265669519E+02  0.29656947533E+02  0.50528860918E+02  0.30000003246E+02 0.  0.
        -12    1    3    3    0    0  0.25430606445E+02  0.11265669519E+02 -0.29656947533E+02  0.40659139082E+02  0.00000000000E+00 0.  1.
         11    1    4    4    0    0 -0.12867946213E+02 -0.10013455954E+02  0.15583837112E+02  0.22554585327E+02  0.51100000000E-03 0. -1.
        -11    1    4    4    0    0 -0.39920936716E+01 -0.61053459334E+01  0.16316398323E+02  0.17872798196E+02  0.51100000000E-03 0.  1.
         12    1    4    4    0    0 -0.85705665603E+01  0.48531323684E+01 -0.22432879016E+01  0.10101477395E+02  0.00000000000E+00 0. -1.
</event>
<event>
 8    1  0.1338956E-013  0.9118800E+02  0.7816164E-02  0.1184000E+00
        -11   -1    0    0    0    0  0.00000000000E+00  0.00000000000E+00  0.45593999997E+02  0.45594000000E+02  0.51100000000E-03 0. -1.
         11   -1    0    0    0    0 -0.00000000000E+00 -0.00000000000E+00 -0.45593999997E+02  0.45594000000E+02  0.51100000000E-03 0.  1.
         23    2    1    2    0    0  0.35527136788E-14 -0.88817841970E-15  0.00000000000E+00  0.91188000000E+02  0.91188000000E+02 0.  0.
    9900012    2    3    3    0    0  0.30233940657E+02  0.63920037618E+01  0.26423793632E+02  0.50528858966E+02  0.29999997312E+02 0.  0.
        -12    1    3    3    0    0 -0.30233940657E+02 -0.63920037618E+01 -0.26423793632E+02  0.40659141034E+02  0.00000000000E+00 0.  1.
         11    1    4    4    0    0  0.31411877000E+01 -0.13239667974E-01  0.10100269311E+02  0.10577460748E+02  0.51100000000E-03 0. -1.
        -11    1    4    4    0    0 -0.30840747378E+01 -0.27991569389E+01  0.48201873450E+01  0.63703220373E+01  0.51100000000E-03 0.  1.
         12    1    4    4    0    0  0.30176827695E+02  0.92044003687E+01  0.11503336976E+02  0.33581076180E+02  0.00000000000E+00 0. -1.
</event>
<event>
 8    1  0.1338956E-013  0.9118800E+02  0.7816164E-02  0.1184000E+00
        -11   -1    0    0    0    0  0.00000000000E+00  0.00000000000E+00  0.45593999997E+02  0.45594000000E+02  0.51100000000E-03 0. -1.
         11   -1    0    0    0    0 -0.00000000000E+00 -0.00000000000E+00 -0.45593999997E+02  0.45594000000E+02  0.51100000000E-03 0.  1.
         23    2    1    2    0    0  0.44408920985E-15 -0.17763568394E-14  0.71054273576E-14  0.91188000000E+02  0.91188000000E+02 0.  0.
    9900012    2    3    3    0    0  0.48214188769E+00 -0.11615313667E+02  0.38961746506E+02  0.50528860029E+02  0.30000000545E+02 0.  0.
        -12    1    3    3    0    0 -0.48214188769E+00  0.11615313667E+02 -0.38961746506E+02  0.40659139971E+02  0.00000000000E+00 0.  1.
         11    1    4    4    0    0 -0.89274992217E+01 -0.80975193377E+01  0.16895971513E+02  0.20754370995E+02  0.51100000000E-03 0. -1.
        -11    1    4    4    0    0  0.55252234290E+01  0.60320259065E+01  0.15573173571E+02  0.17590826183E+02  0.51100000000E-03 0.  1.
         12    1    4    4    0    0  0.38844176804E+01 -0.95498202353E+01  0.64926014218E+01  0.12183662851E+02  0.00000000000E+00 0. -1.
</event>
<event>
 8    1  0.1338956E-013  0.9118800E+02  0.7816164E-02  0.1184000E+00
        -11   -1    0    0    0    0  0.00000000000E+00  0.00000000000E+00  0.45593999997E+02  0.45594000000E+02  0.51100000000E-03 0. -1.
         11   -1    0    0    0    0 -0.00000000000E+00 -0.00000000000E+00 -0.45593999997E+02  0.45594000000E+02  0.51100000000E-03 0.  1.
         23    2    1    2    0    0 -0.17763568394E-14  0.88817841970E-15  0.00000000000E+00  0.91188000000E+02  0.91188000000E+02 0.  0.
    9900012    2    3    3    0    0  0.10508826168E+02 -0.47346747874E+01 -0.38991146358E+02  0.50528904251E+02  0.30000134962E+02 0.  0.
         12    1    3    3    0    0 -0.10508826168E+02  0.47346747874E+01  0.38991146358E+02  0.40659095749E+02  0.00000000000E+00 0. -1.
         11    1    4    4    0    0 -0.28124524217E+01  0.35259569702E+00 -0.61362631232E+01  0.67592852972E+01  0.51100000000E-03 0. -1.
        -11    1    4    4    0    0 -0.60078693153E+01 -0.12702810095E+01 -0.18218624136E+02  0.19225669643E+02  0.51100000000E-03 0.  1.
         12    1    4    4    0    0  0.19329147905E+02 -0.38169894749E+01 -0.14636259100E+02  0.24543949311E+02  0.00000000000E+00 0. -1.
</event>
<event>
 8    1  0.1338956E-013  0.9118800E+02  0.7816164E-02  0.1184000E+00
        -11   -1    0    0    0    0  0.00000000000E+00  0.00000000000E+00  0.45593999997E+02  0.45594000000E+02  0.51100000000E-03 0.  1.
         11   -1    0    0    0    0 -0.00000000000E+00 -0.00000000000E+00 -0.45593999997E+02  0.45594000000E+02  0.51100000000E-03 0. -1.
         23    2    1    2    0    0  0.44408920985E-15  0.00000000000E+00  0.00000000000E+00  0.91188000000E+02  0.91188000000E+02 0.  0.
    9900012    2    3    3    0    0 -0.33259631860E+01 -0.39503900190E+02 -0.90302604709E+01  0.50528858771E+02  0.29999996720E+02 0.  0.
        -12    1    3    3    0    0  0.33259631860E+01  0.39503900190E+02  0.90302604709E+01  0.40659141229E+02  0.00000000000E+00 0.  1.
         11    1    4    4    0    0 -0.12308567243E+01 -0.13880242163E+02  0.60246225210E+01  0.15181311128E+02  0.51100000000E-03 0. -1.
        -11    1    4    4    0    0  0.49999085606E+01 -0.28506371561E+01  0.19245519008E+01  0.60686998682E+01  0.51100000000E-03 0.  1.
         12    1    4    4    0    0 -0.70950150223E+01 -0.22773020871E+02 -0.16979434893E+02  0.29278847775E+02  0.00000000000E+00 0. -1.
</event>
<event>
 8    1  0.1338956E-013  0.9118800E+02  0.7816164E-02  0.1184000E+00
        -11   -1    0    0    0    0  0.00000000000E+00  0.00000000000E+00  0.45593999997E+02  0.45594000000E+02  0.51100000000E-03 0. -1.
         11   -1    0    0    0    0 -0.00000000000E+00 -0.00000000000E+00 -0.45593999997E+02  0.45594000000E+02  0.51100000000E-03 0.  1.
         23    2    1    2    0    0 -0.17763568394E-14  0.00000000000E+00  0.35527136788E-14  0.91188000000E+02  0.91188000000E+02 0.  0.
    9900012    2    3    3    0    0  0.15919391045E+02 -0.20558409431E+02 -0.31258467412E+02  0.50528843657E+02  0.29999950779E+02 0.  0.
         12    1    3    3    0    0 -0.15919391045E+02  0.20558409431E+02  0.31258467412E+02  0.40659156343E+02  0.00000000000E+00 0. -1.
         11    1    4    4    0    0 -0.30121075737E+01  0.29270951923E+01 -0.36736320802E+01  0.55799866686E+01  0.51100000000E-03 0. -1.
        -11    1    4    4    0    0 -0.13072260880E+01 -0.68023884501E+01 -0.58089752911E-01  0.69270992018E+01  0.51100000000E-03 0.  1.
        -12    1    4    4    0    0  0.20238724706E+02 -0.16683116173E+02 -0.27526745579E+02  0.38021757786E+02  0.00000000000E+00 0.  1.
</event>
<event>
 8    1  0.1338956E-013  0.9118800E+02  0.7816164E-02  0.1184000E+00
        -11   -1    0    0    0    0  0.00000000000E+00  0.00000000000E+00  0.45593999997E+02  0.45594000000E+02  0.51100000000E-03 0.  1.
         11   -1    0    0    0    0 -0.00000000000E+00 -0.00000000000E+00 -0.45593999997E+02  0.45594000000E+02  0.51100000000E-03 0. -1.
         23    2    1    2    0    0 -0.88817841970E-15  0.00000000000E+00  0.00000000000E+00  0.91188000000E+02  0.91188000000E+02 0.  0.
    9900012    2    3    3    0    0 -0.43039053994E+01  0.39595302756E+02  0.81764375718E+01  0.50528859166E+02  0.29999997921E+02 0.  0.
        -12    1    3    3    0    0  0.43039053994E+01 -0.39595302756E+02 -0.81764375718E+01  0.40659140834E+02  0.00000000000E+00 0.  1.
         11    1    4    4    0    0 -0.21905036619E+01  0.48923168381E+01 -0.58614569837E+01  0.79429055496E+01  0.51100000000E-03 0.  1.
        -11    1    4    4    0    0 -0.10207608323E+01 -0.23406060388E+01 -0.78553252389E+00  0.26716008147E+01  0.51100000000E-03 0. -1.
         12    1    4    4    0    0 -0.10926409051E+01  0.37043591957E+02  0.14823427079E+02  0.39914352802E+02  0.00000000000E+00 0. -1.
</event>
<event>
 8    1  0.1338956E-013  0.9118800E+02  0.7816164E-02  0.1184000E+00
        -11   -1    0    0    0    0  0.00000000000E+00  0.00000000000E+00  0.45593999997E+02  0.45594000000E+02  0.51100000000E-03 0. -1.
         11   -1    0    0    0    0 -0.00000000000E+00 -0.00000000000E+00 -0.45593999997E+02  0.45594000000E+02  0.51100000000E-03 0.  1.
         23    2    1    2    0    0  0.71054273576E-14  0.00000000000E+00 -0.35527136788E-14  0.91188000000E+02  0.91188000000E+02 0.  0.
    9900012    2    3    3    0    0 -0.29451229299E+02  0.60638707997E+01  0.27368231872E+02  0.50528861395E+02  0.30000004696E+02 0.  0.
        -12    1    3    3    0    0  0.29451229299E+02 -0.60638707997E+01 -0.27368231872E+02  0.40659138605E+02  0.00000000000E+00 0.  1.
         11    1    4    4    0    0 -0.19129414937E+02  0.89124085313E+01  0.17818600091E+02  0.27620066096E+02  0.51100000000E-03 0. -1.
        -11    1    4    4    0    0 -0.12320543185E+02 -0.70558509296E+01  0.11075957570E+02  0.18007155607E+02  0.51100000000E-03 0.  1.
        -12    1    4    4    0    0  0.19987288232E+01  0.42073131980E+01 -0.15263257890E+01  0.49016396919E+01  0.00000000000E+00 0.  1.
</event>
<event>
 8    1  0.1338956E-013  0.9118800E+02  0.7816164E-02  0.1184000E+00
        -11   -1    0    0    0    0  0.00000000000E+00  0.00000000000E+00  0.45593999997E+02  0.45594000000E+02  0.51100000000E-03 0. -1.
         11   -1    0    0    0    0 -0.00000000000E+00 -0.00000000000E+00 -0.45593999997E+02  0.45594000000E+02  0.51100000000E-03 0.  1.
         23    2    1    2    0    0  0.00000000000E+00  0.00000000000E+00  0.00000000000E+00  0.91188000000E+02  0.91188000000E+02 0.  0.
    9900012    2    3    3    0    0 -0.22195615051E+02 -0.25243404852E+02 -0.22875571227E+02  0.50528848817E+02  0.29999966463E+02 0.  0.
         12    1    3    3    0    0  0.22195615051E+02  0.25243404852E+02  0.22875571227E+02  0.40659151183E+02  0.00000000000E+00 0. -1.
         11    1    4    4    0    0 -0.18139510632E+01  0.23587415222E+01 -0.13918162670E+02  0.14232685354E+02  0.51100000000E-03 0. -1.
        -11    1    4    4    0    0  0.84071763385E-01 -0.31851630775E+01 -0.17355204803E+01  0.36282727971E+01  0.51100000000E-03 0.  1.
         12    1    4    4    0    0 -0.20465735751E+02 -0.24416983296E+02 -0.72218880767E+01  0.32667890665E+02  0.00000000000E+00 0. -1.
</event>
<event>
 8    1  0.1338956E-013  0.9118800E+02  0.7816164E-02  0.1184000E+00
        -11   -1    0    0    0    0  0.00000000000E+00  0.00000000000E+00  0.45593999997E+02  0.45594000000E+02  0.51100000000E-03 0. -1.
         11   -1    0    0    0    0 -0.00000000000E+00 -0.00000000000E+00 -0.45593999997E+02  0.45594000000E+02  0.51100000000E-03 0.  1.
         23    2    1    2    0    0 -0.17763568394E-14  0.35527136788E-14  0.35527136788E-14  0.91188000000E+02  0.91188000000E+02 0.  0.
    9900012    2    3    3    0    0  0.81701312276E+01 -0.28710402144E+02 -0.27606651430E+02  0.50528862789E+02  0.30000008933E+02 0.  0.
         12    1    3    3    0    0 -0.81701312276E+01  0.28710402144E+02  0.27606651430E+02  0.40659137211E+02  0.00000000000E+00 0. -1.
         11    1    4    4    0    0 -0.29381688844E+01 -0.22114923616E+02 -0.18941269625E+02  0.29265583511E+02  0.51100000000E-03 0. -1.
        -11    1    4    4    0    0 -0.18037461655E+01 -0.60965068299E+01 -0.16874843045E+01  0.65778795440E+01  0.51100000000E-03 0.  1.
        -12    1    4    4    0    0  0.12912046277E+02 -0.49897169832E+00 -0.69778975002E+01  0.14685399734E+02  0.00000000000E+00 0.  1.
</event>
<event>
 8    1  0.1338956E-013  0.9118800E+02  0.7816164E-02  0.1184000E+00
        -11   -1    0    0    0    0  0.00000000000E+00  0.00000000000E+00  0.45593999997E+02  0.45594000000E+02  0.51100000000E-03 0. -1.
         11   -1    0    0    0    0 -0.00000000000E+00 -0.00000000000E+00 -0.45593999997E+02  0.45594000000E+02  0.51100000000E-03 0.  1.
         23    2    1    2    0    0  0.17763568394E-14  0.71054273576E-14 -0.71054273576E-14  0.91188000000E+02  0.91188000000E+02 0.  0.
    9900012    2    3    3    0    0 -0.11088414252E+02 -0.22903320971E+02  0.31712027857E+02  0.50528834331E+02  0.29999922431E+02 0.  0.
        -12    1    3    3    0    0  0.11088414252E+02  0.22903320971E+02 -0.31712027857E+02  0.40659165669E+02  0.00000000000E+00 0.  1.
         11    1    4    4    0    0  0.29773030616E+01 -0.84299464687E+00  0.23247846445E+00  0.31030662244E+01  0.51100000000E-03 0. -1.
        -11    1    4    4    0    0 -0.68388680206E+01 -0.16407795757E+01 -0.22114596665E+01  0.73724370148E+01  0.51100000000E-03 0.  1.
         12    1    4    4    0    0 -0.72268492932E+01 -0.20419546749E+02  0.33691009059E+02  0.40053331092E+02  0.00000000000E+00 0. -1.
</event>
<event>
 8    1  0.1338956E-013  0.9118800E+02  0.7816164E-02  0.1184000E+00
        -11   -1    0    0    0    0  0.00000000000E+00  0.00000000000E+00  0.45593999997E+02  0.45594000000E+02  0.51100000000E-03 0. -1.
         11   -1    0    0    0    0 -0.00000000000E+00 -0.00000000000E+00 -0.45593999997E+02  0.45594000000E+02  0.51100000000E-03 0.  1.
         23    2    1    2    0    0  0.00000000000E+00  0.88817841970E-15  0.71054273576E-14  0.91188000000E+02  0.91188000000E+02 0.  0.
    9900012    2    3    3    0    0  0.70083552485E+01 -0.41409193977E+01 -0.39835929939E+02  0.50528861165E+02  0.30000003996E+02 0.  0.
         12    1    3    3    0    0 -0.70083552485E+01  0.41409193977E+01  0.39835929939E+02  0.40659138835E+02  0.00000000000E+00 0. -1.
         11    1    4    4    0    0  0.54090276975E+01  0.62654450060E+01 -0.24507626467E+02  0.25867685189E+02  0.51100000000E-03 0.  1.
        -11    1    4    4    0    0 -0.39588967836E+01  0.21154250060E+01 -0.78765036891E+01  0.90657154889E+01  0.51100000000E-03 0. -1.
         12    1    4    4    0    0  0.55582243346E+01 -0.12521789410E+02 -0.74517997830E+01  0.15595460486E+02  0.00000000000E+00 0. -1.
</event>
<event>
 8    1  0.1338956E-013  0.9118800E+02  0.7816164E-02  0.1184000E+00
        -11   -1    0    0    0    0  0.00000000000E+00  0.00000000000E+00  0.45593999997E+02  0.45594000000E+02  0.51100000000E-03 0. -1.
         11   -1    0    0    0    0 -0.00000000000E+00 -0.00000000000E+00 -0.45593999997E+02  0.45594000000E+02  0.51100000000E-03 0.  1.
         23    2    1    2    0    0  0.00000000000E+00 -0.35527136788E-14 -0.35527136788E-14  0.91188000000E+02  0.91188000000E+02 0.  0.
    9900012    2    3    3    0    0  0.19245830017E+02  0.20105214798E+02  0.29640166247E+02  0.50528916264E+02  0.30000171475E+02 0.  0.
        -12    1    3    3    0    0 -0.19245830017E+02 -0.20105214798E+02 -0.29640166247E+02  0.40659083736E+02  0.00000000000E+00 0.  1.
         11    1    4    4    0    0  0.19844309049E+02  0.44491061720E+01  0.22192404379E+02  0.30101394648E+02  0.51100000000E-03 0. -1.
        -11    1    4    4    0    0  0.29481620623E+01  0.30278549056E+01 -0.15717578030E+01  0.45088787661E+01  0.51100000000E-03 0.  1.
         12    1    4    4    0    0 -0.35466410942E+01  0.12628253721E+02  0.90195196709E+01  0.15918642850E+02  0.00000000000E+00 0. -1.
</event>
<event>
 8    1  0.1338956E-013  0.9118800E+02  0.7816164E-02  0.1184000E+00
        -11   -1    0    0    0    0  0.00000000000E+00  0.00000000000E+00  0.45593999997E+02  0.45594000000E+02  0.51100000000E-03 0. -1.
         11   -1    0    0    0    0 -0.00000000000E+00 -0.00000000000E+00 -0.45593999997E+02  0.45594000000E+02  0.51100000000E-03 0.  1.
         23    2    1    2    0    0  0.00000000000E+00 -0.17763568394E-14  0.00000000000E+00  0.91188000000E+02  0.91188000000E+02 0.  0.
    9900012    2    3    3    0    0  0.19783729771E+02  0.10331448210E+02 -0.33985749263E+02  0.50528856640E+02  0.29999990244E+02 0.  0.
         12    1    3    3    0    0 -0.19783729771E+02 -0.10331448210E+02  0.33985749263E+02  0.40659143360E+02  0.00000000000E+00 0. -1.
         11    1    4    4    0    0 -0.14703650399E+01  0.97124725652E+01 -0.53741229517E+01  0.11197110986E+02  0.51100000000E-03 0. -1.
        -11    1    4    4    0    0  0.64666928015E+01  0.74852888425E+01 -0.64112679913E+01  0.11787791242E+02  0.51100000000E-03 0.  1.
        -12    1    4    4    0    0  0.14787402010E+02 -0.68663131980E+01 -0.22200358320E+02  0.27543954412E+02  0.00000000000E+00 0.  1.
</event>
<event>
 8    1  0.1338956E-013  0.9118800E+02  0.7816164E-02  0.1184000E+00
        -11   -1    0    0    0    0  0.00000000000E+00  0.00000000000E+00  0.45593999997E+02  0.45594000000E+02  0.51100000000E-03 0. -1.
         11   -1    0    0    0    0 -0.00000000000E+00 -0.00000000000E+00 -0.45593999997E+02  0.45594000000E+02  0.51100000000E-03 0.  1.
         23    2    1    2    0    0  0.00000000000E+00  0.71054273576E-14 -0.17763568394E-14  0.91188000000E+02  0.91188000000E+02 0.  0.
    9900012    2    3    3    0    0  0.11546176378E+02 -0.36451104204E+02  0.13826352588E+02  0.50528865570E+02  0.30000017387E+02 0.  0.
        -12    1    3    3    0    0 -0.11546176378E+02  0.36451104204E+02 -0.13826352588E+02  0.40659134430E+02  0.00000000000E+00 0.  1.
         11    1    4    4    0    0  0.30202013980E+01 -0.17380920448E+02  0.19582660406E+01  0.17749727273E+02  0.51100000000E-03 0.  1.
        -11    1    4    4    0    0 -0.34552447312E+01 -0.17451310195E+02  0.36506926299E+01  0.18160795704E+02  0.51100000000E-03 0. -1.
         12    1    4    4    0    0  0.11981219712E+02 -0.16188735617E+01  0.82173939178E+01  0.14618342594E+02  0.00000000000E+00 0. -1.
</event>
<event>
 8    1  0.1338956E-013  0.9118800E+02  0.7816164E-02  0.1184000E+00
        -11   -1    0    0    0    0  0.00000000000E+00  0.00000000000E+00  0.45593999997E+02  0.45594000000E+02  0.51100000000E-03 0. -1.
         11   -1    0    0    0    0 -0.00000000000E+00 -0.00000000000E+00 -0.45593999997E+02  0.45594000000E+02  0.51100000000E-03 0.  1.
         23    2    1    2    0    0 -0.44408920985E-15  0.17763568394E-14  0.00000000000E+00  0.91188000000E+02  0.91188000000E+02 0.  0.
    9900012    2    3    3    0    0 -0.21205298036E+01  0.11256554016E+02  0.39012300300E+02  0.50528853063E+02  0.29999979370E+02 0.  0.
        -12    1    3    3    0    0  0.21205298036E+01 -0.11256554016E+02 -0.39012300300E+02  0.40659146937E+02  0.00000000000E+00 0.  1.
         11    1    4    4    0    0 -0.52343716759E+01  0.49038860161E+01  0.12091482486E+02  0.14058829748E+02  0.51100000000E-03 0. -1.
        -11    1    4    4    0    0  0.15137697469E+01  0.50446710513E+01  0.31240526748E+02  0.31681393856E+02  0.51100000000E-03 0.  1.
        -12    1    4    4    0    0  0.16000721254E+01  0.13079969490E+01 -0.43197089346E+01  0.47886294599E+01  0.00000000000E+00 0.  1.
</event>
<event>
 8    1  0.1338956E-013  0.9118800E+02  0.7816164E-02  0.1184000E+00
        -11   -1    0    0    0    0  0.00000000000E+00  0.00000000000E+00  0.45593999997E+02  0.45594000000E+02  0.51100000000E-03 0. -1.
         11   -1    0    0    0    0 -0.00000000000E+00 -0.00000000000E+00 -0.45593999997E+02  0.45594000000E+02  0.51100000000E-03 0.  1.
         23    2    1    2    0    0  0.35527136788E-14  0.00000000000E+00  0.35527136788E-14  0.91188000000E+02  0.91188000000E+02 0.  0.
    9900012    2    3    3    0    0  0.26923156301E+02 -0.67143052295E+01  0.29719148928E+02  0.50528855236E+02  0.29999985975E+02 0.  0.
        -12    1    3    3    0    0 -0.26923156301E+02  0.67143052295E+01 -0.29719148928E+02  0.40659144764E+02  0.00000000000E+00 0.  1.
         11    1    4    4    0    0  0.23629636786E+02 -0.45307639659E+01  0.12510802612E+02  0.27118402221E+02  0.51100000000E-03 0.  1.
        -11    1    4    4    0    0  0.91760090786E+01 -0.16360203994E+01  0.71574130763E+01  0.11751777209E+02  0.51100000000E-03 0. -1.
        -12    1    4    4    0    0 -0.58824895637E+01 -0.54752086425E+00  0.10050933240E+02  0.11658675806E+02  0.00000000000E+00 0.  1.
</event>
<event>
 8    1  0.1338956E-013  0.9118800E+02  0.7816164E-02  0.1184000E+00
        -11   -1    0    0    0    0  0.00000000000E+00  0.00000000000E+00  0.45593999997E+02  0.45594000000E+02  0.51100000000E-03 0. -1.
         11   -1    0    0    0    0 -0.00000000000E+00 -0.00000000000E+00 -0.45593999997E+02  0.45594000000E+02  0.51100000000E-03 0.  1.
         23    2    1    2    0    0  0.00000000000E+00 -0.33306690739E-15  0.00000000000E+00  0.91188000000E+02  0.91188000000E+02 0.  0.
    9900012    2    3    3    0    0 -0.15226613278E+02  0.51684790103E+00  0.37696793890E+02  0.50528866300E+02  0.30000019605E+02 0.  0.
        -12    1    3    3    0    0  0.15226613278E+02 -0.51684790103E+00 -0.37696793890E+02  0.40659133700E+02  0.00000000000E+00 0.  1.
         11    1    4    4    0    0  0.29757029485E+01  0.57846666907E+01  0.23390995745E+02  0.24278712053E+02  0.51100000000E-03 0. -1.
        -11    1    4    4    0    0 -0.65438734995E+01 -0.39337680607E+01  0.12103836814E+02  0.14310823785E+02  0.51100000000E-03 0.  1.
        -12    1    4    4    0    0 -0.11658442727E+02 -0.13340507290E+01  0.22019613307E+01  0.11939330461E+02  0.00000000000E+00 0.  1.
</event>
<event>
 8    1  0.1338956E-013  0.9118800E+02  0.7816164E-02  0.1184000E+00
        -11   -1    0    0    0    0  0.00000000000E+00  0.00000000000E+00  0.45593999997E+02  0.45594000000E+02  0.51100000000E-03 0. -1.
         11   -1    0    0    0    0 -0.00000000000E+00 -0.00000000000E+00 -0.45593999997E+02  0.45594000000E+02  0.51100000000E-03 0.  1.
         23    2    1    2    0    0  0.00000000000E+00  0.35527136788E-14 -0.71054273576E-14  0.91188000000E+02  0.91188000000E+02 0.  0.
    9900012    2    3    3    0    0 -0.16326977605E+02  0.15526789391E+02 -0.33845455584E+02  0.50528852810E+02  0.29999978600E+02 0.  0.
         12    1    3    3    0    0  0.16326977605E+02 -0.15526789391E+02  0.33845455584E+02  0.40659147190E+02  0.00000000000E+00 0. -1.
         11    1    4    4    0    0  0.94490021026E+00  0.12568223045E+02 -0.96348600762E+01  0.15864538943E+02  0.51100000000E-03 0. -1.
        -11    1    4    4    0    0 -0.55979222479E+01  0.57003184624E+01 -0.20670978455E+02  0.22161220964E+02  0.51100000000E-03 0.  1.
         12    1    4    4    0    0 -0.11673955568E+02 -0.27417521164E+01 -0.35396170537E+01  0.12503092903E+02  0.00000000000E+00 0. -1.
</event>
<event>
 8    1  0.1338956E-013  0.9118800E+02  0.7816164E-02  0.1184000E+00
        -11   -1    0    0    0    0  0.00000000000E+00  0.00000000000E+00  0.45593999997E+02  0.45594000000E+02  0.51100000000E-03 0. -1.
         11   -1    0    0    0    0 -0.00000000000E+00 -0.00000000000E+00 -0.45593999997E+02  0.45594000000E+02  0.51100000000E-03 0.  1.
         23    2    1    2    0    0  0.88817841970E-15  0.17763568394E-14  0.00000000000E+00  0.91188000000E+02  0.91188000000E+02 0.  0.
    9900012    2    3    3    0    0 -0.34837795274E+01 -0.66667263406E+01 -0.39957267202E+02  0.50528866191E+02  0.30000019273E+02 0.  0.
         12    1    3    3    0    0  0.34837795274E+01  0.66667263406E+01  0.39957267202E+02  0.40659133809E+02  0.00000000000E+00 0. -1.
         11    1    4    4    0    0  0.32474741971E+01 -0.94623712863E+01 -0.83732954781E+01  0.13045866642E+02  0.51100000000E-03 0. -1.
        -11    1    4    4    0    0  0.56684914058E+01  0.11759639904E+01 -0.18497954505E+02  0.19382698657E+02  0.51100000000E-03 0.  1.
         12    1    4    4    0    0 -0.12399745130E+02  0.16196809553E+01 -0.13086017219E+02  0.18100300891E+02  0.00000000000E+00 0. -1.
</event>
<event>
 8    1  0.1338956E-013  0.9118800E+02  0.7816164E-02  0.1184000E+00
        -11   -1    0    0    0    0  0.00000000000E+00  0.00000000000E+00  0.45593999997E+02  0.45594000000E+02  0.51100000000E-03 0. -1.
         11   -1    0    0    0    0 -0.00000000000E+00 -0.00000000000E+00 -0.45593999997E+02  0.45594000000E+02  0.51100000000E-03 0.  1.
         23    2    1    2    0    0  0.35527136788E-14  0.00000000000E+00 -0.35527136788E-14  0.91188000000E+02  0.91188000000E+02 0.  0.
    9900012    2    3    3    0    0 -0.19994112642E+02 -0.16930134356E+02 -0.31092946033E+02  0.50528864709E+02  0.30000014769E+02 0.  0.
         12    1    3    3    0    0  0.19994112642E+02  0.16930134356E+02  0.31092946033E+02  0.40659135291E+02  0.00000000000E+00 0. -1.
         11    1    4    4    0    0 -0.69397607285E-01  0.11600095370E+01 -0.18517637950E+01  0.21861993430E+01  0.51100000000E-03 0. -1.
        -11    1    4    4    0    0 -0.73652673323E+01 -0.17297393238E+02 -0.30358905395E+02  0.35708683996E+02  0.51100000000E-03 0.  1.
         12    1    4    4    0    0 -0.12559447702E+02 -0.79275065521E+00  0.11177231574E+01  0.12633981369E+02  0.00000000000E+00 0. -1.
</event>
<event>
 8    1  0.1338956E-013  0.9118800E+02  0.7816164E-02  0.1184000E+00
        -11   -1    0    0    0    0  0.00000000000E+00  0.00000000000E+00  0.45593999997E+02  0.45594000000E+02  0.51100000000E-03 0. -1.
         11   -1    0    0    0    0 -0.00000000000E+00 -0.00000000000E+00 -0.45593999997E+02  0.45594000000E+02  0.51100000000E-03 0.  1.
         23    2    1    2    0    0  0.77715611724E-15  0.00000000000E+00  0.00000000000E+00  0.91188000000E+02  0.91188000000E+02 0.  0.
    9900012    2    3    3    0    0 -0.64785296913E+00 -0.30259181252E+02  0.27150063645E+02  0.50528883932E+02  0.30000073200E+02 0.  0.
        -12    1    3    3    0    0  0.64785296913E+00  0.30259181252E+02 -0.27150063645E+02  0.40659116068E+02  0.00000000000E+00 0.  1.
         11    1    4    4    0    0  0.58257754077E+01 -0.91087795663E+01  0.47058500080E+00  0.10822706445E+02  0.51100000000E-03 0. -1.
        -11    1    4    4    0    0  0.90182714204E+00 -0.98198650001E+01  0.72542933603E-01  0.98614554480E+01  0.51100000000E-03 0.  1.
         12    1    4    4    0    0 -0.73754555189E+01 -0.11330536686E+02  0.26606935710E+02  0.29844722039E+02  0.00000000000E+00 0. -1.
</event>
<event>
 8    1  0.1338956E-013  0.9118800E+02  0.7816164E-02  0.1184000E+00
        -11   -1    0    0    0    0  0.00000000000E+00  0.00000000000E+00  0.45593999997E+02  0.45594000000E+02  0.51100000000E-03 0. -1.
         11   -1    0    0    0    0 -0.00000000000E+00 -0.00000000000E+00 -0.45593999997E+02  0.45594000000E+02  0.51100000000E-03 0.  1.
         23    2    1    2    0    0 -0.35527136788E-14 -0.35527136788E-14  0.00000000000E+00  0.91188000000E+02  0.91188000000E+02 0.  0.
    9900012    2    3    3    0    0 -0.31929804713E+02  0.23214031051E+02  0.97343330724E+01  0.50528918518E+02  0.30000178325E+02 0.  0.
        -12    1    3    3    0    0  0.31929804713E+02 -0.23214031051E+02 -0.97343330724E+01  0.40659081482E+02  0.00000000000E+00 0.  1.
         11    1    4    4    0    0 -0.19619970416E+02  0.14043158690E+02  0.35823072530E+01  0.24392344509E+02  0.51100000000E-03 0. -1.
        -11    1    4    4    0    0 -0.63542368259E+01  0.12608588593E+02  0.10851550883E+02  0.17807554261E+02  0.51100000000E-03 0.  1.
         12    1    4    4    0    0 -0.59555974706E+01 -0.34377162324E+01 -0.46995250634E+01  0.83290197471E+01  0.00000000000E+00 0. -1.
</event>
<event>
 8    1  0.1338956E-013  0.9118800E+02  0.7816164E-02  0.1184000E+00
        -11   -1    0    0    0    0  0.00000000000E+00  0.00000000000E+00  0.45593999997E+02  0.45594000000E+02  0.51100000000E-03 0.  1.
         11   -1    0    0    0    0 -0.00000000000E+00 -0.00000000000E+00 -0.45593999997E+02  0.45594000000E+02  0.51100000000E-03 0. -1.
         23    2    1    2    0    0  0.00000000000E+00 -0.17763568394E-14  0.00000000000E+00  0.91188000000E+02  0.91188000000E+02 0.  0.
    9900012    2    3    3    0    0 -0.37098663011E+02 -0.14685576453E+02  0.78223564127E+01  0.50528853270E+02  0.29999980000E+02 0.  0.
        -12    1    3    3    0    0  0.37098663011E+02  0.14685576453E+02 -0.78223564127E+01  0.40659146730E+02  0.00000000000E+00 0.  1.
         11    1    4    4    0    0  0.14526296552E+01 -0.13868474906E+01 -0.22641250348E+01  0.30265064533E+01  0.51100000000E-03 0. -1.
        -11    1    4    4    0    0 -0.28981962306E+01  0.51224786082E+01  0.34625559505E+01  0.68285153917E+01  0.51100000000E-03 0.  1.
        -12    1    4    4    0    0 -0.35653096436E+02 -0.18421207570E+02  0.66239254970E+01  0.40673831425E+02  0.00000000000E+00 0.  1.
</event>
<event>
 8    1  0.1338956E-013  0.9118800E+02  0.7816164E-02  0.1184000E+00
        -11   -1    0    0    0    0  0.00000000000E+00  0.00000000000E+00  0.45593999997E+02  0.45594000000E+02  0.51100000000E-03 0. -1.
         11   -1    0    0    0    0 -0.00000000000E+00 -0.00000000000E+00 -0.45593999997E+02  0.45594000000E+02  0.51100000000E-03 0.  1.
         23    2    1    2    0    0 -0.35527136788E-14  0.00000000000E+00  0.71054273576E-14  0.91188000000E+02  0.91188000000E+02 0.  0.
    9900012    2    3    3    0    0 -0.18223443167E+02 -0.81172576061E+01  0.35428542635E+02  0.50528863448E+02  0.30000010936E+02 0.  0.
        -12    1    3    3    0    0  0.18223443167E+02  0.81172576061E+01 -0.35428542635E+02  0.40659136552E+02  0.00000000000E+00 0.  1.
         11    1    4    4    0    0 -0.58712640545E+01  0.76144872604E+00  0.30704980825E+01  0.66692956521E+01  0.51100000000E-03 0.  1.
        -11    1    4    4    0    0 -0.19625342572E+02 -0.82986193535E+01  0.28563494723E+02  0.35635577521E+02  0.51100000000E-03 0. -1.
         12    1    4    4    0    0  0.72731634598E+01 -0.58008697865E+00  0.37945498304E+01  0.82239902742E+01  0.00000000000E+00 0. -1.
</event>
<event>
 8    1  0.1338956E-013  0.9118800E+02  0.7816164E-02  0.1184000E+00
        -11   -1    0    0    0    0  0.00000000000E+00  0.00000000000E+00  0.45593999997E+02  0.45594000000E+02  0.51100000000E-03 0.  1.
         11   -1    0    0    0    0 -0.00000000000E+00 -0.00000000000E+00 -0.45593999997E+02  0.45594000000E+02  0.51100000000E-03 0. -1.
         23    2    1    2    0    0  0.00000000000E+00  0.00000000000E+00  0.00000000000E+00  0.91188000000E+02  0.91188000000E+02 0.  0.
    9900012    2    3    3    0    0  0.29750232594E+02 -0.94977588032E+01  0.26036134529E+02  0.50528879709E+02  0.30000060363E+02 0.  0.
        -12    1    3    3    0    0 -0.29750232594E+02  0.94977588032E+01 -0.26036134529E+02  0.40659120291E+02  0.00000000000E+00 0.  1.
         11    1    4    4    0    0  0.80400334364E+01 -0.86441024983E+01  0.15274811984E+02  0.19304987104E+02  0.51100000000E-03 0. -1.
        -11    1    4    4    0    0  0.16496804176E+02 -0.85407874761E+01  0.11595086947E+02  0.21898302224E+02  0.51100000000E-03 0.  1.
        -12    1    4    4    0    0  0.52133949816E+01  0.76871311712E+01 -0.83376440277E+00  0.93255903812E+01  0.00000000000E+00 0.  1.
</event>
<event>
 8    1  0.1437180E-013  0.9118800E+02  0.7816164E-02  0.1184000E+00
        -11   -1    0    0    0    0  0.00000000000E+00  0.00000000000E+00  0.45593999997E+02  0.45594000000E+02  0.51100000000E-03 0. -1.
         11   -1    0    0    0    0 -0.00000000000E+00 -0.00000000000E+00 -0.45593999997E+02  0.45594000000E+02  0.51100000000E-03 0.  1.
         23    2    1    2    0    0 -0.35527136788E-14 -0.88817841970E-15  0.00000000000E+00  0.91188000000E+02  0.91188000000E+02 0.  0.
    9900012    2    3    3    0    0 -0.26448873767E+02 -0.10551216408E+01 -0.30862743308E+02  0.50528866589E+02  0.30000020484E+02 0.  0.
         12    1    3    3    0    0  0.26448873767E+02  0.10551216408E+01  0.30862743308E+02  0.40659133411E+02  0.00000000000E+00 0. -1.
         11    1    4    4    0    0 -0.14187578526E+01  0.30713887286E+01  0.27891269932E+01  0.43846929438E+01  0.51100000000E-03 0. -1.
        -11    1    4    4    0    0 -0.46389537455E+01 -0.92856687346E+01 -0.89995210665E+01  0.13738082668E+02  0.51100000000E-03 0.  1.
        -12    1    4    4    0    0 -0.20391162169E+02  0.51591583652E+01 -0.24652349235E+02  0.32406090977E+02  0.00000000000E+00 0.  1.
</event>
<event>
 8    1  0.1338956E-013  0.9118800E+02  0.7816164E-02  0.1184000E+00
        -11   -1    0    0    0    0  0.00000000000E+00  0.00000000000E+00  0.45593999997E+02  0.45594000000E+02  0.51100000000E-03 0.  1.
         11   -1    0    0    0    0 -0.00000000000E+00 -0.00000000000E+00 -0.45593999997E+02  0.45594000000E+02  0.51100000000E-03 0. -1.
         23    2    1    2    0    0  0.00000000000E+00  0.35527136788E-14 -0.88817841970E-15  0.91188000000E+02  0.91188000000E+02 0.  0.
    9900012    2    3    3    0    0 -0.33658287057E+02  0.22304412011E+02 -0.47747165425E+01  0.50528868174E+02  0.30000025302E+02 0.  0.
         12    1    3    3    0    0  0.33658287057E+02 -0.22304412011E+02  0.47747165425E+01  0.40659131826E+02  0.00000000000E+00 0. -1.
         11    1    4    4    0    0 -0.86918890499E+01 -0.32394626198E+01 -0.59396033144E+01  0.11014623966E+02  0.51100000000E-03 0. -1.
        -11    1    4    4    0    0 -0.94277449999E+01  0.24819576522E+01 -0.51096313364E+01  0.11006853421E+02  0.51100000000E-03 0.  1.
        -12    1    4    4    0    0 -0.15538653007E+02  0.23061916978E+02  0.62745181083E+01  0.28507390787E+02  0.00000000000E+00 0.  1.
</event>
<event>
 8    1  0.1338956E-013  0.9118800E+02  0.7816164E-02  0.1184000E+00
        -11   -1    0    0    0    0  0.00000000000E+00  0.00000000000E+00  0.45593999997E+02  0.45594000000E+02  0.51100000000E-03 0. -1.
         11   -1    0    0    0    0 -0.00000000000E+00 -0.00000000000E+00 -0.45593999997E+02  0.45594000000E+02  0.51100000000E-03 0.  1.
         23    2    1    2    0    0 -0.35527136788E-14 -0.35527136788E-14  0.00000000000E+00  0.91188000000E+02  0.91188000000E+02 0.  0.
    9900012    2    3    3    0    0  0.27877121806E+02  0.22250876299E+02  0.19517395053E+02  0.50528878933E+02  0.30000058006E+02 0.  0.
        -12    1    3    3    0    0 -0.27877121806E+02 -0.22250876299E+02 -0.19517395053E+02  0.40659121067E+02  0.00000000000E+00 0.  1.
         11    1    4    4    0    0  0.11771037615E+02  0.19023278194E+02  0.90752146748E+01  0.24141291627E+02  0.51100000000E-03 0. -1.
        -11    1    4    4    0    0  0.78210522119E+00  0.80728044990E+01  0.43194178697E+01  0.91890822203E+01  0.51100000000E-03 0.  1.
         12    1    4    4    0    0  0.15323978969E+02 -0.48452063935E+01  0.61227625085E+01  0.17198505086E+02  0.00000000000E+00 0. -1.
</event>
<event>
 8    1  0.1338956E-013  0.9118800E+02  0.7816164E-02  0.1184000E+00
        -11   -1    0    0    0    0  0.00000000000E+00  0.00000000000E+00  0.45593999997E+02  0.45594000000E+02  0.51100000000E-03 0. -1.
         11   -1    0    0    0    0 -0.00000000000E+00 -0.00000000000E+00 -0.45593999997E+02  0.45594000000E+02  0.51100000000E-03 0.  1.
         23    2    1    2    0    0  0.00000000000E+00  0.00000000000E+00  0.00000000000E+00  0.91188000000E+02  0.91188000000E+02 0.  0.
    9900012    2    3    3    0    0  0.28258770794E+02 -0.18353723238E+02  0.22754082641E+02  0.50528861294E+02  0.30000004388E+02 0.  0.
        -12    1    3    3    0    0 -0.28258770794E+02  0.18353723238E+02 -0.22754082641E+02  0.40659138706E+02  0.00000000000E+00 0.  1.
         11    1    4    4    0    0  0.10580211802E+02  0.61813464068E+00  0.97071346888E+01  0.14371897451E+02  0.51100000000E-03 0. -1.
        -11    1    4    4    0    0  0.24201884994E+01  0.47865482388E+01  0.98929951641E+00  0.54540874772E+01  0.51100000000E-03 0.  1.
        -12    1    4    4    0    0  0.15258370493E+02 -0.23758406117E+02  0.12057648436E+02  0.30702876366E+02  0.00000000000E+00 0.  1.
</event>
<event>
 8    1  0.1338956E-013  0.9118800E+02  0.7816164E-02  0.1184000E+00
        -11   -1    0    0    0    0  0.00000000000E+00  0.00000000000E+00  0.45593999997E+02  0.45594000000E+02  0.51100000000E-03 0. -1.
         11   -1    0    0    0    0 -0.00000000000E+00 -0.00000000000E+00 -0.45593999997E+02  0.45594000000E+02  0.51100000000E-03 0.  1.
         23    2    1    2    0    0  0.00000000000E+00  0.35527136788E-14  0.71054273576E-14  0.91188000000E+02  0.91188000000E+02 0.  0.
    9900012    2    3    3    0    0 -0.16043912415E+02  0.19239464839E+02  0.32024903595E+02  0.50528947095E+02  0.30000265188E+02 0.  0.
        -12    1    3    3    0    0  0.16043912415E+02 -0.19239464839E+02 -0.32024903595E+02  0.40659052905E+02  0.00000000000E+00 0.  1.
         11    1    4    4    0    0 -0.24968675835E+01  0.49354228182E+01  0.77666454071E+01  0.95348585341E+01  0.51100000000E-03 0. -1.
        -11    1    4    4    0    0 -0.87743292819E+01  0.20425469970E+02  0.24685869388E+02  0.33220187018E+02  0.51100000000E-03 0.  1.
        -12    1    4    4    0    0 -0.47727155500E+01 -0.61214279485E+01 -0.42761120041E+00  0.77739015422E+01  0.00000000000E+00 0.  1.
</event>
<event>
 8    1  0.1338956E-013  0.9118800E+02  0.7816164E-02  0.1184000E+00
        -11   -1    0    0    0    0  0.00000000000E+00  0.00000000000E+00  0.45593999997E+02  0.45594000000E+02  0.51100000000E-03 0. -1.
         11   -1    0    0    0    0 -0.00000000000E+00 -0.00000000000E+00 -0.45593999997E+02  0.45594000000E+02  0.51100000000E-03 0.  1.
         23    2    1    2    0    0  0.00000000000E+00  0.00000000000E+00  0.00000000000E+00  0.91188000000E+02  0.91188000000E+02 0.  0.
    9900012    2    3    3    0    0  0.24836854991E+02  0.27607197991E+02 -0.16557123033E+02  0.50528867325E+02  0.30000022720E+02 0.  0.
         12    1    3    3    0    0 -0.24836854991E+02 -0.27607197991E+02  0.16557123033E+02  0.40659132675E+02  0.00000000000E+00 0. -1.
         11    1    4    4    0    0 -0.63559335916E+01  0.24689725249E+01 -0.26395062959E+00  0.68237370513E+01  0.51100000000E-03 0. -1.
        -11    1    4    4    0    0 -0.11865399067E+00 -0.22253612596E+00 -0.17676657683E+00  0.30797366878E+00  0.51100000000E-03 0.  1.
        -12    1    4    4    0    0  0.31311442573E+02  0.25360761592E+02 -0.16116405827E+02  0.43397156604E+02  0.00000000000E+00 0.  1.
</event>
<event>
 8    1  0.1338956E-013  0.9118800E+02  0.7816164E-02  0.1184000E+00
        -11   -1    0    0    0    0  0.00000000000E+00  0.00000000000E+00  0.45593999997E+02  0.45594000000E+02  0.51100000000E-03 0.  1.
         11   -1    0    0    0    0 -0.00000000000E+00 -0.00000000000E+00 -0.45593999997E+02  0.45594000000E+02  0.51100000000E-03 0. -1.
         23    2    1    2    0    0  0.00000000000E+00  0.35527136788E-14  0.17763568394E-14  0.91188000000E+02  0.91188000000E+02 0.  0.
    9900012    2    3    3    0    0 -0.21828709236E+02  0.30380221455E+02 -0.15928125473E+02  0.50528983981E+02  0.30000377306E+02 0.  0.
         12    1    3    3    0    0  0.21828709236E+02 -0.30380221455E+02  0.15928125473E+02  0.40659016019E+02  0.00000000000E+00 0. -1.
         11    1    4    4    0    0 -0.10224725689E+02  0.14612508068E+02 -0.18030383403E+01  0.17925438766E+02  0.51100000000E-03 0. -1.
        -11    1    4    4    0    0 -0.85588112716E+01  0.21274300895E+02 -0.96350588291E+01  0.24873348947E+02  0.51100000000E-03 0.  1.
         12    1    4    4    0    0 -0.30451722759E+01 -0.55065875080E+01 -0.44900283035E+01  0.77301962678E+01  0.00000000000E+00 0. -1.
</event>
<event>
 8    1  0.1338956E-013  0.9118800E+02  0.7816164E-02  0.1184000E+00
        -11   -1    0    0    0    0  0.00000000000E+00  0.00000000000E+00  0.45593999997E+02  0.45594000000E+02  0.51100000000E-03 0. -1.
         11   -1    0    0    0    0 -0.00000000000E+00 -0.00000000000E+00 -0.45593999997E+02  0.45594000000E+02  0.51100000000E-03 0.  1.
         23    2    1    2    0    0 -0.35527136788E-14  0.00000000000E+00  0.00000000000E+00  0.91188000000E+02  0.91188000000E+02 0.  0.
    9900012    2    3    3    0    0  0.26216046952E+02  0.24746898179E+02 -0.18800946300E+02  0.50528859957E+02  0.30000000325E+02 0.  0.
         12    1    3    3    0    0 -0.26216046952E+02 -0.24746898179E+02  0.18800946300E+02  0.40659140043E+02  0.00000000000E+00 0. -1.
         11    1    4    4    0    0  0.56895278679E+01  0.62359054899E+01 -0.93531929342E+01  0.12599185012E+02  0.51100000000E-03 0. -1.
        -11    1    4    4    0    0  0.21725082671E+02  0.13904919590E+02 -0.15605283241E+02  0.30147153617E+02  0.51100000000E-03 0.  1.
         12    1    4    4    0    0 -0.11985635873E+01  0.46060730989E+01  0.61575298750E+01  0.77825213283E+01  0.00000000000E+00 0. -1.
</event>
<event>
 8    1  0.1338956E-013  0.9118800E+02  0.7816164E-02  0.1184000E+00
        -11   -1    0    0    0    0  0.00000000000E+00  0.00000000000E+00  0.45593999997E+02  0.45594000000E+02  0.51100000000E-03 0. -1.
         11   -1    0    0    0    0 -0.00000000000E+00 -0.00000000000E+00 -0.45593999997E+02  0.45594000000E+02  0.51100000000E-03 0.  1.
         23    2    1    2    0    0  0.00000000000E+00  0.22204460493E-15  0.00000000000E+00  0.91188000000E+02  0.91188000000E+02 0.  0.
    9900012    2    3    3    0    0 -0.11540949981E+02  0.11406061581E+01  0.38970131715E+02  0.50528859887E+02  0.30000000112E+02 0.  0.
        -12    1    3    3    0    0  0.11540949981E+02 -0.11406061581E+01 -0.38970131715E+02  0.40659140113E+02  0.00000000000E+00 0.  1.
         11    1    4    4    0    0 -0.54487378361E+01 -0.37444952039E+01  0.49105663243E+00  0.66295644817E+01  0.51100000000E-03 0. -1.
        -11    1    4    4    0    0  0.20284654211E+01  0.30454059830E+01 -0.80153956321E+00  0.37458824725E+01  0.51100000000E-03 0.  1.
         12    1    4    4    0    0 -0.81206775661E+01  0.18396953791E+01  0.39280614645E+02  0.40153412933E+02  0.00000000000E+00 0. -1.
</event>
<event>
 8    1  0.1338956E-013  0.9118800E+02  0.7816164E-02  0.1184000E+00
        -11   -1    0    0    0    0  0.00000000000E+00  0.00000000000E+00  0.45593999997E+02  0.45594000000E+02  0.51100000000E-03 0. -1.
         11   -1    0    0    0    0 -0.00000000000E+00 -0.00000000000E+00 -0.45593999997E+02  0.45594000000E+02  0.51100000000E-03 0.  1.
         23    2    1    2    0    0  0.00000000000E+00  0.00000000000E+00 -0.71054273576E-14  0.91188000000E+02  0.91188000000E+02 0.  0.
    9900012    2    3    3    0    0  0.70236785258E+01  0.22042383639E+02  0.33435996397E+02  0.50528873207E+02  0.30000040599E+02 0.  0.
        -12    1    3    3    0    0 -0.70236785258E+01 -0.22042383639E+02 -0.33435996397E+02  0.40659126793E+02  0.00000000000E+00 0.  1.
         11    1    4    4    0    0 -0.41095743585E-02 -0.47806354486E+01  0.93768778324E+01  0.10525223529E+02  0.51100000000E-03 0. -1.
        -11    1    4    4    0    0  0.88739583109E+01  0.62206485926E+01  0.11513538538E+02  0.15811551946E+02  0.51100000000E-03 0.  1.
        -12    1    4    4    0    0 -0.18461702108E+01  0.20602370495E+02  0.12545580027E+02  0.24192097732E+02  0.00000000000E+00 0.  1.
</event>
<event>
 8    1  0.1338956E-013  0.9118800E+02  0.7816164E-02  0.1184000E+00
        -11   -1    0    0    0    0  0.00000000000E+00  0.00000000000E+00  0.45593999997E+02  0.45594000000E+02  0.51100000000E-03 0.  1.
         11   -1    0    0    0    0 -0.00000000000E+00 -0.00000000000E+00 -0.45593999997E+02  0.45594000000E+02  0.51100000000E-03 0. -1.
         23    2    1    2    0    0  0.00000000000E+00  0.00000000000E+00  0.00000000000E+00  0.91188000000E+02  0.91188000000E+02 0.  0.
    9900012    2    3    3    0    0 -0.30455862440E+02 -0.16674194092E+02  0.21156088973E+02  0.50528826297E+02  0.29999898012E+02 0.  0.
        -12    1    3    3    0    0  0.30455862440E+02  0.16674194092E+02 -0.21156088973E+02  0.40659173703E+02  0.00000000000E+00 0.  1.
         11    1    4    4    0    0 -0.72323030706E+01  0.39288386550E+01  0.25073772069E+01  0.86040061367E+01  0.51100000000E-03 0. -1.
        -11    1    4    4    0    0 -0.73641489072E+01  0.34157638056E+01  0.10420654391E+01  0.81843773217E+01  0.51100000000E-03 0.  1.
         12    1    4    4    0    0 -0.15859410462E+02 -0.24018796553E+02  0.17606646327E+02  0.33740442838E+02  0.00000000000E+00 0. -1.
</event>
<event>
 8    1  0.1338956E-013  0.9118800E+02  0.7816164E-02  0.1184000E+00
        -11   -1    0    0    0    0  0.00000000000E+00  0.00000000000E+00  0.45593999997E+02  0.45594000000E+02  0.51100000000E-03 0. -1.
         11   -1    0    0    0    0 -0.00000000000E+00 -0.00000000000E+00 -0.45593999997E+02  0.45594000000E+02  0.51100000000E-03 0.  1.
         23    2    1    2    0    0 -0.26645352591E-14 -0.35527136788E-14 -0.35527136788E-14  0.91188000000E+02  0.91188000000E+02 0.  0.
    9900012    2    3    3    0    0 -0.41058589380E+01 -0.30832040931E+02 -0.26185795331E+02  0.50528822651E+02  0.29999886930E+02 0.  0.
         12    1    3    3    0    0  0.41058589380E+01  0.30832040931E+02  0.26185795331E+02  0.40659177349E+02  0.00000000000E+00 0. -1.
         11    1    4    4    0    0 -0.71454098506E+01 -0.10450791387E+02 -0.38438637449E+01  0.13230692019E+02  0.51100000000E-03 0. -1.
        -11    1    4    4    0    0 -0.46983184212E+01 -0.10822684074E+02 -0.38441116966E-02  0.11798504210E+02  0.51100000000E-03 0.  1.
        -12    1    4    4    0    0  0.77378693338E+01 -0.95585654697E+01 -0.22338087474E+02  0.25499626422E+02  0.00000000000E+00 0.  1.
</event>
<event>
 8    1  0.1338956E-013  0.9118800E+02  0.7816164E-02  0.1184000E+00
        -11   -1    0    0    0    0  0.00000000000E+00  0.00000000000E+00  0.45593999997E+02  0.45594000000E+02  0.51100000000E-03 0. -1.
         11   -1    0    0    0    0 -0.00000000000E+00 -0.00000000000E+00 -0.45593999997E+02  0.45594000000E+02  0.51100000000E-03 0.  1.
         23    2    1    2    0    0 -0.88817841970E-15  0.00000000000E+00  0.00000000000E+00  0.91188000000E+02  0.91188000000E+02 0.  0.
    9900012    2    3    3    0    0 -0.58771482325E+01 -0.48365630520E+01  0.39940372719E+02  0.50528848675E+02  0.29999966034E+02 0.  0.
        -12    1    3    3    0    0  0.58771482325E+01  0.48365630520E+01 -0.39940372719E+02  0.40659151325E+02  0.00000000000E+00 0.  1.
         11    1    4    4    0    0 -0.72611424608E+01  0.32386545545E+01  0.11337850208E+02  0.13847740637E+02  0.51100000000E-03 0. -1.
        -11    1    4    4    0    0 -0.86467723723E+01 -0.20581029008E+01  0.46641489607E+01  0.10037765976E+02  0.51100000000E-03 0.  1.
         12    1    4    4    0    0  0.10030766601E+02 -0.60171147056E+01  0.23938373551E+02  0.26643342062E+02  0.00000000000E+00 0. -1.
</event>
<event>
 8    1  0.1338956E-013  0.9118800E+02  0.7816164E-02  0.1184000E+00
        -11   -1    0    0    0    0  0.00000000000E+00  0.00000000000E+00  0.45593999997E+02  0.45594000000E+02  0.51100000000E-03 0.  1.
         11   -1    0    0    0    0 -0.00000000000E+00 -0.00000000000E+00 -0.45593999997E+02  0.45594000000E+02  0.51100000000E-03 0. -1.
         23    2    1    2    0    0  0.00000000000E+00 -0.17763568394E-14  0.00000000000E+00  0.91188000000E+02  0.91188000000E+02 0.  0.
    9900012    2    3    3    0    0 -0.34817136122E+02  0.15679140549E+02 -0.13967636092E+02  0.50528889409E+02  0.30000089847E+02 0.  0.
         12    1    3    3    0    0  0.34817136122E+02 -0.15679140549E+02  0.13967636092E+02  0.40659110591E+02  0.00000000000E+00 0. -1.
         11    1    4    4    0    0 -0.17193395530E+02  0.21296648844E+01 -0.14472146876E+02  0.22574130279E+02  0.51100000000E-03 0. -1.
        -11    1    4    4    0    0 -0.33462422857E+01 -0.38800523680E+01  0.16834843294E+01  0.53931682304E+01  0.51100000000E-03 0.  1.
         12    1    4    4    0    0 -0.14277498306E+02  0.17429528033E+02 -0.11789735456E+01  0.22561590900E+02  0.00000000000E+00 0. -1.
</event>
<event>
 8    1  0.1338956E-013  0.9118800E+02  0.7816164E-02  0.1184000E+00
        -11   -1    0    0    0    0  0.00000000000E+00  0.00000000000E+00  0.45593999997E+02  0.45594000000E+02  0.51100000000E-03 0. -1.
         11   -1    0    0    0    0 -0.00000000000E+00 -0.00000000000E+00 -0.45593999997E+02  0.45594000000E+02  0.51100000000E-03 0.  1.
         23    2    1    2    0    0  0.35527136788E-14 -0.88817841970E-15 -0.71054273576E-14  0.91188000000E+02  0.91188000000E+02 0.  0.
    9900012    2    3    3    0    0 -0.18061933633E+02 -0.11239601283E+01  0.36409737157E+02  0.50528859665E+02  0.29999999437E+02 0.  0.
        -12    1    3    3    0    0  0.18061933633E+02  0.11239601283E+01 -0.36409737157E+02  0.40659140335E+02  0.00000000000E+00 0.  1.
         11    1    4    4    0    0 -0.26793470143E+00  0.88676017794E+01  0.10619888628E+02  0.13837925605E+02  0.51100000000E-03 0. -1.
        -11    1    4    4    0    0  0.25820531739E+01  0.10032191679E+01  0.42149833379E+01  0.50437617005E+01  0.51100000000E-03 0.  1.
         12    1    4    4    0    0 -0.20376052106E+02 -0.10994781076E+02  0.21574865191E+02  0.31647172359E+02  0.00000000000E+00 0. -1.
</event>
<event>
 8    1  0.1338956E-013  0.9118800E+02  0.7816164E-02  0.1184000E+00
        -11   -1    0    0    0    0  0.00000000000E+00  0.00000000000E+00  0.45593999997E+02  0.45594000000E+02  0.51100000000E-03 0. -1.
         11   -1    0    0    0    0 -0.00000000000E+00 -0.00000000000E+00 -0.45593999997E+02  0.45594000000E+02  0.51100000000E-03 0.  1.
         23    2    1    2    0    0  0.00000000000E+00  0.00000000000E+00  0.00000000000E+00  0.91188000000E+02  0.91188000000E+02 0.  0.
    9900012    2    3    3    0    0 -0.11439832275E+02  0.11244962895E+02 -0.37361029504E+02  0.50528862299E+02  0.30000007444E+02 0.  0.
         12    1    3    3    0    0  0.11439832275E+02 -0.11244962895E+02  0.37361029504E+02  0.40659137701E+02  0.00000000000E+00 0. -1.
         11    1    4    4    0    0 -0.31719777856E+00  0.16243678005E+01  0.37545586870E+01  0.41031568794E+01  0.51100000000E-03 0. -1.
        -11    1    4    4    0    0  0.17660656495E+01 -0.21428688797E+01 -0.15434052098E+01  0.31769442577E+01  0.51100000000E-03 0.  1.
        -12    1    4    4    0    0 -0.12888700146E+02  0.11763463974E+02 -0.39572182981E+02  0.43248761162E+02  0.00000000000E+00 0.  1.
</event>
<event>
 8    1  0.1338956E-013  0.9118800E+02  0.7816164E-02  0.1184000E+00
        -11   -1    0    0    0    0  0.00000000000E+00  0.00000000000E+00  0.45593999997E+02  0.45594000000E+02  0.51100000000E-03 0. -1.
         11   -1    0    0    0    0 -0.00000000000E+00 -0.00000000000E+00 -0.45593999997E+02  0.45594000000E+02  0.51100000000E-03 0.  1.
         23    2    1    2    0    0 -0.88817841970E-15  0.00000000000E+00  0.00000000000E+00  0.91188000000E+02  0.91188000000E+02 0.  0.
    9900012    2    3    3    0    0  0.44504972577E+01 -0.36393521925E+01  0.40250625693E+02  0.50528872133E+02  0.30000037335E+02 0.  0.
        -12    1    3    3    0    0 -0.44504972577E+01  0.36393521925E+01 -0.40250625693E+02  0.40659127867E+02  0.00000000000E+00 0.  1.
         11    1    4    4    0    0  0.77910257296E+01 -0.69514100106E+00  0.70108231655E+01  0.10504044204E+02  0.51100000000E-03 0. -1.
        -11    1    4    4    0    0  0.21342998228E+01  0.20851715875E+01 -0.22674834628E+01  0.37476202846E+01  0.51100000000E-03 0.  1.
         12    1    4    4    0    0 -0.54748282947E+01 -0.50293827790E+01  0.35507285991E+02  0.36277207644E+02  0.00000000000E+00 0. -1.
</event>
<event>
 8    1  0.1338956E-013  0.9118800E+02  0.7816164E-02  0.1184000E+00
        -11   -1    0    0    0    0  0.00000000000E+00  0.00000000000E+00  0.45593999997E+02  0.45594000000E+02  0.51100000000E-03 0. -1.
         11   -1    0    0    0    0 -0.00000000000E+00 -0.00000000000E+00 -0.45593999997E+02  0.45594000000E+02  0.51100000000E-03 0.  1.
         23    2    1    2    0    0 -0.17763568394E-14  0.00000000000E+00  0.00000000000E+00  0.91188000000E+02  0.91188000000E+02 0.  0.
    9900012    2    3    3    0    0  0.76058723227E+01  0.28334325676E+02  0.28151058651E+02  0.50528863161E+02  0.30000010065E+02 0.  0.
        -12    1    3    3    0    0 -0.76058723227E+01 -0.28334325676E+02 -0.28151058651E+02  0.40659136839E+02  0.00000000000E+00 0.  1.
         11    1    4    4    0    0  0.42394362676E+01  0.21571414549E+01  0.18311662343E+02  0.18919383107E+02  0.51100000000E-03 0. -1.
        -11    1    4    4    0    0  0.36548952514E+01 -0.19858352484E+00  0.13004317142E+01  0.38844327281E+01  0.51100000000E-03 0.  1.
        -12    1    4    4    0    0 -0.28845919627E+00  0.26375767746E+02  0.85389645938E+01  0.27725047326E+02  0.00000000000E+00 0.  1.
</event>
<event>
 8    1  0.1338956E-013  0.9118800E+02  0.7816164E-02  0.1184000E+00
        -11   -1    0    0    0    0  0.00000000000E+00  0.00000000000E+00  0.45593999997E+02  0.45594000000E+02  0.51100000000E-03 0. -1.
         11   -1    0    0    0    0 -0.00000000000E+00 -0.00000000000E+00 -0.45593999997E+02  0.45594000000E+02  0.51100000000E-03 0.  1.
         23    2    1    2    0    0  0.00000000000E+00  0.00000000000E+00 -0.35527136788E-14  0.91188000000E+02  0.91188000000E+02 0.  0.
    9900012    2    3    3    0    0 -0.34543865423E+02 -0.30153117088E+01  0.21231934610E+02  0.50528858465E+02  0.29999995791E+02 0.  0.
        -12    1    3    3    0    0  0.34543865423E+02  0.30153117088E+01 -0.21231934610E+02  0.40659141535E+02  0.00000000000E+00 0.  1.
         11    1    4    4    0    0 -0.18290814599E+02 -0.49619319308E+01  0.50419720947E+01  0.19611123121E+02  0.51100000000E-03 0.  1.
        -11    1    4    4    0    0  0.71448185876E+00 -0.46153770853E+00 -0.41982952115E+01  0.42835947902E+01  0.51100000000E-03 0. -1.
         12    1    4    4    0    0 -0.16967532683E+02  0.24081579305E+01  0.20388257727E+02  0.26634140555E+02  0.00000000000E+00 0. -1.
</event>
<event>
 8    1  0.1338956E-013  0.9118800E+02  0.7816164E-02  0.1184000E+00
        -11   -1    0    0    0    0  0.00000000000E+00  0.00000000000E+00  0.45593999997E+02  0.45594000000E+02  0.51100000000E-03 0.  1.
         11   -1    0    0    0    0 -0.00000000000E+00 -0.00000000000E+00 -0.45593999997E+02  0.45594000000E+02  0.51100000000E-03 0. -1.
         23    2    1    2    0    0 -0.88817841970E-15  0.00000000000E+00  0.00000000000E+00  0.91188000000E+02  0.91188000000E+02 0.  0.
    9900012    2    3    3    0    0  0.49686075210E+01  0.39568528830E+02  0.79253079655E+01  0.50528855385E+02  0.29999986428E+02 0.  0.
         12    1    3    3    0    0 -0.49686075210E+01 -0.39568528830E+02 -0.79253079655E+01  0.40659144615E+02  0.00000000000E+00 0. -1.
         11    1    4    4    0    0 -0.84874114817E+01  0.12855698129E+02 -0.21941026783E+01  0.15560180425E+02  0.51100000000E-03 0. -1.
        -11    1    4    4    0    0  0.82356803611E+00  0.45022014155E+01 -0.37306169337E+01  0.59047087026E+01  0.51100000000E-03 0.  1.
        -12    1    4    4    0    0  0.12632450967E+02  0.22210629286E+02  0.13850027577E+02  0.29063966257E+02  0.00000000000E+00 0.  1.
</event>
<event>
 8    1  0.1338956E-013  0.9118800E+02  0.7816164E-02  0.1184000E+00
        -11   -1    0    0    0    0  0.00000000000E+00  0.00000000000E+00  0.45593999997E+02  0.45594000000E+02  0.51100000000E-03 0. -1.
         11   -1    0    0    0    0 -0.00000000000E+00 -0.00000000000E+00 -0.45593999997E+02  0.45594000000E+02  0.51100000000E-03 0.  1.
         23    2    1    2    0    0  0.35527136788E-14  0.17763568394E-14 -0.35527136788E-14  0.91188000000E+02  0.91188000000E+02 0.  0.
    9900012    2    3    3    0    0  0.25890743408E+02  0.72402846122E+01 -0.30502671187E+02  0.50528864925E+02  0.30000015426E+02 0.  0.
         12    1    3    3    0    0 -0.25890743408E+02 -0.72402846122E+01  0.30502671187E+02  0.40659135075E+02  0.00000000000E+00 0. -1.
         11    1    4    4    0    0 -0.35563070182E+01  0.16701992968E+01  0.42791284022E+00  0.39522139313E+01  0.51100000000E-03 0. -1.
        -11    1    4    4    0    0  0.22452536429E+02  0.80213109504E+01 -0.31069940714E+02  0.39163746472E+02  0.51100000000E-03 0.  1.
         12    1    4    4    0    0  0.69945139966E+01 -0.24512256350E+01  0.13935668671E+00  0.74129045217E+01  0.00000000000E+00 0. -1.
</event>
<event>
 8    1  0.1338956E-013  0.9118800E+02  0.7816164E-02  0.1184000E+00
        -11   -1    0    0    0    0  0.00000000000E+00  0.00000000000E+00  0.45593999997E+02  0.45594000000E+02  0.51100000000E-03 0.  1.
         11   -1    0    0    0    0 -0.00000000000E+00 -0.00000000000E+00 -0.45593999997E+02  0.45594000000E+02  0.51100000000E-03 0. -1.
         23    2    1    2    0    0  0.00000000000E+00  0.00000000000E+00  0.00000000000E+00  0.91188000000E+02  0.91188000000E+02 0.  0.
    9900012    2    3    3    0    0  0.37227512852E+02 -0.10316305304E+02  0.12682731056E+02  0.50528861602E+02  0.30000005325E+02 0.  0.
        -12    1    3    3    0    0 -0.37227512852E+02  0.10316305304E+02 -0.12682731056E+02  0.40659138398E+02  0.00000000000E+00 0.  1.
         11    1    4    4    0    0  0.13894937808E+02  0.88594587777E+01  0.53067826070E+01  0.17312459341E+02  0.51100000000E-03 0. -1.
        -11    1    4    4    0    0  0.24364805463E+01  0.15779887761E+01  0.10986343298E+01  0.31037853794E+01  0.51100000000E-03 0.  1.
        -12    1    4    4    0    0  0.20896094497E+02 -0.20753752858E+02  0.62773141191E+01  0.30112616881E+02  0.00000000000E+00 0.  1.
</event>
<event>
 8    1  0.1338956E-013  0.9118800E+02  0.7816164E-02  0.1184000E+00
        -11   -1    0    0    0    0  0.00000000000E+00  0.00000000000E+00  0.45593999997E+02  0.45594000000E+02  0.51100000000E-03 0. -1.
         11   -1    0    0    0    0 -0.00000000000E+00 -0.00000000000E+00 -0.45593999997E+02  0.45594000000E+02  0.51100000000E-03 0.  1.
         23    2    1    2    0    0 -0.35527136788E-14  0.00000000000E+00  0.00000000000E+00  0.91188000000E+02  0.91188000000E+02 0.  0.
    9900012    2    3    3    0    0 -0.24395978710E+02 -0.31958250484E+02 -0.60557576137E+01  0.50528858943E+02  0.29999997244E+02 0.  0.
         12    1    3    3    0    0  0.24395978710E+02  0.31958250484E+02  0.60557576137E+01  0.40659141057E+02  0.00000000000E+00 0. -1.
         11    1    4    4    0    0  0.90849403098E+00 -0.48358643916E+01 -0.35432200157E+01  0.60634440840E+01  0.51100000000E-03 0. -1.
        -11    1    4    4    0    0 -0.14168854318E+02 -0.21863417990E+02 -0.12227472116E+02  0.28779794188E+02  0.51100000000E-03 0.  1.
         12    1    4    4    0    0 -0.11135618422E+02 -0.52589681021E+01  0.97149345182E+01  0.15685620671E+02  0.00000000000E+00 0. -1.
</event>
<event>
 8    1  0.1338956E-013  0.9118800E+02  0.7816164E-02  0.1184000E+00
        -11   -1    0    0    0    0  0.00000000000E+00  0.00000000000E+00  0.45593999997E+02  0.45594000000E+02  0.51100000000E-03 0. -1.
         11   -1    0    0    0    0 -0.00000000000E+00 -0.00000000000E+00 -0.45593999997E+02  0.45594000000E+02  0.51100000000E-03 0.  1.
         23    2    1    2    0    0 -0.17763568394E-14  0.35527136788E-14 -0.35527136788E-14  0.91188000000E+02  0.91188000000E+02 0.  0.
    9900012    2    3    3    0    0  0.12738749926E+02  0.22412890907E+02 -0.31441249026E+02  0.50528861189E+02  0.30000004071E+02 0.  0.
         12    1    3    3    0    0 -0.12738749926E+02 -0.22412890907E+02  0.31441249026E+02  0.40659138811E+02  0.00000000000E+00 0. -1.
         11    1    4    4    0    0  0.35514565597E+01  0.98579411819E+01 -0.10977434798E+01  0.10535506113E+02  0.51100000000E-03 0. -1.
        -11    1    4    4    0    0  0.35221527620E+01  0.17824393145E+02 -0.23153858833E+02  0.29431543116E+02  0.51100000000E-03 0.  1.
         12    1    4    4    0    0  0.56651406047E+01 -0.52694434198E+01 -0.71896467131E+01  0.10561811960E+02  0.00000000000E+00 0. -1.
</event>
<event>
 8    1  0.1338956E-013  0.9118800E+02  0.7816164E-02  0.1184000E+00
        -11   -1    0    0    0    0  0.00000000000E+00  0.00000000000E+00  0.45593999997E+02  0.45594000000E+02  0.51100000000E-03 0. -1.
         11   -1    0    0    0    0 -0.00000000000E+00 -0.00000000000E+00 -0.45593999997E+02  0.45594000000E+02  0.51100000000E-03 0.  1.
         23    2    1    2    0    0 -0.17763568394E-14  0.00000000000E+00  0.00000000000E+00  0.91188000000E+02  0.91188000000E+02 0.  0.
    9900012    2    3    3    0    0 -0.10897645102E+02  0.83399456535E+01 -0.38273393446E+02  0.50528855787E+02  0.29999987651E+02 0.  0.
         12    1    3    3    0    0  0.10897645102E+02 -0.83399456535E+01  0.38273393446E+02  0.40659144213E+02  0.00000000000E+00 0. -1.
         11    1    4    4    0    0 -0.19829376768E+01  0.12715742713E+01 -0.42032407233E+01  0.48183166974E+01  0.51100000000E-03 0.  1.
        -11    1    4    4    0    0 -0.12067831078E+02  0.15107071951E+02 -0.14030186455E+02  0.23889376343E+02  0.51100000000E-03 0. -1.
         12    1    4    4    0    0  0.31531236531E+01 -0.80387005688E+01 -0.20039966267E+02  0.21821162746E+02  0.00000000000E+00 0. -1.
</event>
<event>
 8    1  0.1338956E-013  0.9118800E+02  0.7816164E-02  0.1184000E+00
        -11   -1    0    0    0    0  0.00000000000E+00  0.00000000000E+00  0.45593999997E+02  0.45594000000E+02  0.51100000000E-03 0. -1.
         11   -1    0    0    0    0 -0.00000000000E+00 -0.00000000000E+00 -0.45593999997E+02  0.45594000000E+02  0.51100000000E-03 0.  1.
         23    2    1    2    0    0  0.17763568394E-14 -0.17763568394E-14  0.71054273576E-14  0.91188000000E+02  0.91188000000E+02 0.  0.
    9900012    2    3    3    0    0  0.81113412526E+01 -0.66399476656E+01  0.39284656967E+02  0.50528843160E+02  0.29999949270E+02 0.  0.
        -12    1    3    3    0    0 -0.81113412526E+01  0.66399476656E+01 -0.39284656967E+02  0.40659156840E+02  0.00000000000E+00 0.  1.
         11    1    4    4    0    0  0.31330231218E+01  0.10977966639E+01  0.21269592442E+01  0.39427081156E+01  0.51100000000E-03 0. -1.
        -11    1    4    4    0    0  0.14082899263E+02 -0.10913485152E+02  0.28590228018E+02  0.33687287635E+02  0.51100000000E-03 0.  1.
        -12    1    4    4    0    0 -0.91045811323E+01  0.31757408226E+01  0.85674697050E+01  0.12898847410E+02  0.00000000000E+00 0.  1.
</event>
<event>
 8    1  0.1338956E-013  0.9118800E+02  0.7816164E-02  0.1184000E+00
        -11   -1    0    0    0    0  0.00000000000E+00  0.00000000000E+00  0.45593999997E+02  0.45594000000E+02  0.51100000000E-03 0. -1.
         11   -1    0    0    0    0 -0.00000000000E+00 -0.00000000000E+00 -0.45593999997E+02  0.45594000000E+02  0.51100000000E-03 0.  1.
         23    2    1    2    0    0  0.00000000000E+00  0.00000000000E+00  0.00000000000E+00  0.91188000000E+02  0.91188000000E+02 0.  0.
    9900012    2    3    3    0    0 -0.22088796478E+02 -0.97871492964E+01  0.32702636307E+02  0.50528860282E+02  0.30000001313E+02 0.  0.
        -12    1    3    3    0    0  0.22088796478E+02  0.97871492964E+01 -0.32702636307E+02  0.40659139718E+02  0.00000000000E+00 0.  1.
         11    1    4    4    0    0 -0.19514506774E+01 -0.40498470194E+00  0.41658483882E+01  0.46180586191E+01  0.51100000000E-03 0. -1.
        -11    1    4    4    0    0 -0.15225148773E+02  0.36880942395E+01  0.18271291438E+01  0.15771670662E+02  0.51100000000E-03 0.  1.
        -12    1    4    4    0    0 -0.49121970266E+01 -0.13070258834E+02  0.26709658775E+02  0.30139131001E+02  0.00000000000E+00 0.  1.
</event>
<event>
 8    1  0.1338956E-013  0.9118800E+02  0.7816164E-02  0.1184000E+00
        -11   -1    0    0    0    0  0.00000000000E+00  0.00000000000E+00  0.45593999997E+02  0.45594000000E+02  0.51100000000E-03 0. -1.
         11   -1    0    0    0    0 -0.00000000000E+00 -0.00000000000E+00 -0.45593999997E+02  0.45594000000E+02  0.51100000000E-03 0.  1.
         23    2    1    2    0    0 -0.88817841970E-15  0.00000000000E+00  0.00000000000E+00  0.91188000000E+02  0.91188000000E+02 0.  0.
    9900012    2    3    3    0    0  0.62618156230E+01 -0.10465197940E+02 -0.38787031948E+02  0.50528873716E+02  0.30000042148E+02 0.  0.
         12    1    3    3    0    0 -0.62618156230E+01  0.10465197940E+02  0.38787031948E+02  0.40659126284E+02  0.00000000000E+00 0. -1.
         11    1    4    4    0    0  0.91527423829E+01  0.53578821094E+01 -0.95070550422E+01  0.14243022490E+02  0.51100000000E-03 0. -1.
        -11    1    4    4    0    0  0.46722391894E+01 -0.60435588639E+01 -0.52716990801E+01  0.92814456975E+01  0.51100000000E-03 0.  1.
        -12    1    4    4    0    0 -0.75631659493E+01 -0.97795211860E+01 -0.24008277825E+02  0.27004405528E+02  0.00000000000E+00 0.  1.
</event>
<event>
 8    1  0.1338956E-013  0.9118800E+02  0.7816164E-02  0.1184000E+00
        -11   -1    0    0    0    0  0.00000000000E+00  0.00000000000E+00  0.45593999997E+02  0.45594000000E+02  0.51100000000E-03 0.  1.
         11   -1    0    0    0    0 -0.00000000000E+00 -0.00000000000E+00 -0.45593999997E+02  0.45594000000E+02  0.51100000000E-03 0. -1.
         23    2    1    2    0    0  0.00000000000E+00  0.00000000000E+00 -0.66613381478E-15  0.91188000000E+02  0.91188000000E+02 0.  0.
    9900012    2    3    3    0    0  0.33393875064E+02 -0.23129939603E+02  0.17380428303E+01  0.50528858460E+02  0.29999995777E+02 0.  0.
         12    1    3    3    0    0 -0.33393875064E+02  0.23129939603E+02 -0.17380428303E+01  0.40659141540E+02  0.00000000000E+00 0. -1.
         11    1    4    4    0    0  0.97216794879E+00 -0.91148521572E+00 -0.19681171987E+01  0.23768469425E+01  0.51100000000E-03 0. -1.
        -11    1    4    4    0    0  0.78581907242E+01  0.63372968676E+01 -0.12027111491E+01  0.10166563206E+02  0.51100000000E-03 0.  1.
        -12    1    4    4    0    0  0.24563516391E+02 -0.28555751255E+02  0.49088711780E+01  0.37985448312E+02  0.00000000000E+00 0.  1.
</event>
<event>
 8    1  0.1338956E-013  0.9118800E+02  0.7816164E-02  0.1184000E+00
        -11   -1    0    0    0    0  0.00000000000E+00  0.00000000000E+00  0.45593999997E+02  0.45594000000E+02  0.51100000000E-03 0. -1.
         11   -1    0    0    0    0 -0.00000000000E+00 -0.00000000000E+00 -0.45593999997E+02  0.45594000000E+02  0.51100000000E-03 0.  1.
         23    2    1    2    0    0  0.71054273576E-14  0.00000000000E+00  0.00000000000E+00  0.91188000000E+02  0.91188000000E+02 0.  0.
    9900012    2    3    3    0    0  0.37892867908E+02 -0.57724126130E+01 -0.13563767026E+02  0.50528856360E+02  0.29999989391E+02 0.  0.
         12    1    3    3    0    0 -0.37892867908E+02  0.57724126130E+01  0.13563767026E+02  0.40659143640E+02  0.00000000000E+00 0. -1.
         11    1    4    4    0    0  0.15759959464E+02  0.46022560017E+01  0.52835669890E+01  0.17247410327E+02  0.51100000000E-03 0. -1.
        -11    1    4    4    0    0  0.59380356330E+01  0.48271267588E+00  0.28539546485E+00  0.59644555107E+01  0.51100000000E-03 0.  1.
        -12    1    4    4    0    0  0.16194872811E+02 -0.10857381291E+02 -0.19132729479E+02  0.27316990522E+02  0.00000000000E+00 0.  1.
</event>
<event>
 8    1  0.1338956E-013  0.9118800E+02  0.7816164E-02  0.1184000E+00
        -11   -1    0    0    0    0  0.00000000000E+00  0.00000000000E+00  0.45593999997E+02  0.45594000000E+02  0.51100000000E-03 0.  1.
         11   -1    0    0    0    0 -0.00000000000E+00 -0.00000000000E+00 -0.45593999997E+02  0.45594000000E+02  0.51100000000E-03 0. -1.
         23    2    1    2    0    0 -0.35527136788E-14  0.35527136788E-14 -0.35527136788E-14  0.91188000000E+02  0.91188000000E+02 0.  0.
    9900012    2    3    3    0    0  0.16149149967E+02 -0.31107074136E+02  0.20608750866E+02  0.50528859352E+02  0.29999998487E+02 0.  0.
        -12    1    3    3    0    0 -0.16149149967E+02  0.31107074136E+02 -0.20608750866E+02  0.40659140648E+02  0.00000000000E+00 0.  1.
         11    1    4    4    0    0  0.48913560985E+01 -0.81766070303E+01  0.10451399706E+02  0.14142631406E+02  0.51100000000E-03 0. -1.
        -11    1    4    4    0    0  0.17494642035E+02 -0.11818678375E+02  0.10624486540E+02  0.23635214680E+02  0.51100000000E-03 0.  1.
         12    1    4    4    0    0 -0.62368481663E+01 -0.11111788731E+02 -0.46713538074E+00  0.12751013266E+02  0.00000000000E+00 0. -1.
</event>
<event>
 8    1  0.1338956E-013  0.9118800E+02  0.7816164E-02  0.1184000E+00
        -11   -1    0    0    0    0  0.00000000000E+00  0.00000000000E+00  0.45593999997E+02  0.45594000000E+02  0.51100000000E-03 0.  1.
         11   -1    0    0    0    0 -0.00000000000E+00 -0.00000000000E+00 -0.45593999997E+02  0.45594000000E+02  0.51100000000E-03 0. -1.
         23    2    1    2    0    0  0.00000000000E+00  0.00000000000E+00  0.00000000000E+00  0.91188000000E+02  0.91188000000E+02 0.  0.
    9900012    2    3    3    0    0 -0.26642172160E+02  0.29305615513E+02 -0.91948016334E+01  0.50528821269E+02  0.29999882730E+02 0.  0.
         12    1    3    3    0    0  0.26642172160E+02 -0.29305615513E+02  0.91948016334E+01  0.40659178731E+02  0.00000000000E+00 0. -1.
         11    1    4    4    0    0 -0.63593309374E+01 -0.98476091135E+00 -0.82307844313E+01  0.10447806308E+02  0.51100000000E-03 0. -1.
        -11    1    4    4    0    0 -0.12681531578E+01 -0.10762263854E+01  0.27495765863E+01  0.32135101260E+01  0.51100000000E-03 0.  1.
        -12    1    4    4    0    0 -0.19014688065E+02  0.31366602809E+02 -0.37135937884E+01  0.36867504836E+02  0.00000000000E+00 0.  1.
</event>
<event>
 8    1  0.1338956E-013  0.9118800E+02  0.7816164E-02  0.1184000E+00
        -11   -1    0    0    0    0  0.00000000000E+00  0.00000000000E+00  0.45593999997E+02  0.45594000000E+02  0.51100000000E-03 0. -1.
         11   -1    0    0    0    0 -0.00000000000E+00 -0.00000000000E+00 -0.45593999997E+02  0.45594000000E+02  0.51100000000E-03 0.  1.
         23    2    1    2    0    0  0.00000000000E+00 -0.35527136788E-14  0.00000000000E+00  0.91188000000E+02  0.91188000000E+02 0.  0.
    9900012    2    3    3    0    0 -0.19683077444E+02 -0.26843106177E+02  0.23349242573E+02  0.50528892587E+02  0.30000099507E+02 0.  0.
        -12    1    3    3    0    0  0.19683077444E+02  0.26843106177E+02 -0.23349242573E+02  0.40659107413E+02  0.00000000000E+00 0.  1.
         11    1    4    4    0    0  0.19947365337E+01  0.30965358991E+01  0.12040039907E+01  0.38751947414E+01  0.51100000000E-03 0.  1.
        -11    1    4    4    0    0 -0.14980967120E+01 -0.52119706659E+01 -0.28389320033E+01  0.61211491699E+01  0.51100000000E-03 0. -1.
         12    1    4    4    0    0 -0.20179717266E+02 -0.24727671410E+02  0.24984170585E+02  0.40532548676E+02  0.00000000000E+00 0. -1.
</event>
<event>
 8    1  0.1338956E-013  0.9118800E+02  0.7816164E-02  0.1184000E+00
        -11   -1    0    0    0    0  0.00000000000E+00  0.00000000000E+00  0.45593999997E+02  0.45594000000E+02  0.51100000000E-03 0. -1.
         11   -1    0    0    0    0 -0.00000000000E+00 -0.00000000000E+00 -0.45593999997E+02  0.45594000000E+02  0.51100000000E-03 0.  1.
         23    2    1    2    0    0  0.00000000000E+00  0.00000000000E+00  0.00000000000E+00  0.91188000000E+02  0.91188000000E+02 0.  0.
    9900012    2    3    3    0    0  0.55117353762E+01  0.33755476263E+02 -0.21985370353E+02  0.50528832348E+02  0.29999916404E+02 0.  0.
         12    1    3    3    0    0 -0.55117353762E+01 -0.33755476263E+02  0.21985370353E+02  0.40659167652E+02  0.00000000000E+00 0. -1.
         11    1    4    4    0    0  0.99983648004E+01  0.16411901027E+02 -0.71754606667E+01  0.20513532851E+02  0.51100000000E-03 0.  1.
        -11    1    4    4    0    0  0.57551401597E+01  0.12420083227E+02 -0.38318175392E+01  0.14214884155E+02  0.51100000000E-03 0. -1.
         12    1    4    4    0    0 -0.10241769584E+02  0.49234920097E+01 -0.10978092147E+02  0.15800415342E+02  0.00000000000E+00 0. -1.
</event>
<event>
 8    1  0.1338956E-013  0.9118800E+02  0.7816164E-02  0.1184000E+00
        -11   -1    0    0    0    0  0.00000000000E+00  0.00000000000E+00  0.45593999997E+02  0.45594000000E+02  0.51100000000E-03 0. -1.
         11   -1    0    0    0    0 -0.00000000000E+00 -0.00000000000E+00 -0.45593999997E+02  0.45594000000E+02  0.51100000000E-03 0.  1.
         23    2    1    2    0    0  0.88817841970E-15  0.00000000000E+00 -0.17763568394E-14  0.91188000000E+02  0.91188000000E+02 0.  0.
    9900012    2    3    3    0    0 -0.41126573345E+01 -0.38747279002E+02 -0.11614481801E+02  0.50528907930E+02  0.30000146145E+02 0.  0.
         12    1    3    3    0    0  0.41126573345E+01  0.38747279002E+02  0.11614481801E+02  0.40659092070E+02  0.00000000000E+00 0. -1.
         11    1    4    4    0    0  0.28753452374E+01 -0.27903959465E+02  0.31828784911E+00  0.28053517988E+02  0.51100000000E-03 0. -1.
        -11    1    4    4    0    0  0.39438620568E+01 -0.56971499741E+01 -0.37046335965E+01  0.78572180889E+01  0.51100000000E-03 0.  1.
        -12    1    4    4    0    0 -0.10931864629E+02 -0.51461695626E+01 -0.82281360536E+01  0.14618171854E+02  0.00000000000E+00 0.  1.
</event>
<event>
 8    1  0.1338956E-013  0.9118800E+02  0.7816164E-02  0.1184000E+00
        -11   -1    0    0    0    0  0.00000000000E+00  0.00000000000E+00  0.45593999997E+02  0.45594000000E+02  0.51100000000E-03 0. -1.
         11   -1    0    0    0    0 -0.00000000000E+00 -0.00000000000E+00 -0.45593999997E+02  0.45594000000E+02  0.51100000000E-03 0.  1.
         23    2    1    2    0    0 -0.11102230246E-14  0.11102230246E-15  0.71054273576E-14  0.91188000000E+02  0.91188000000E+02 0.  0.
    9900012    2    3    3    0    0  0.73167776331E+00  0.98135659926E+00 -0.40640712515E+02  0.50528856786E+02  0.29999990688E+02 0.  0.
         12    1    3    3    0    0 -0.73167776331E+00 -0.98135659926E+00  0.40640712515E+02  0.40659143214E+02  0.00000000000E+00 0. -1.
         11    1    4    4    0    0 -0.68460605568E+01 -0.48990551172E+01 -0.84481273604E+01  0.11926447180E+02  0.51100000000E-03 0.  1.
        -11    1    4    4    0    0 -0.40908111322E+01 -0.14594789159E+01 -0.19110775400E+02  0.19598126213E+02  0.51100000000E-03 0. -1.
        -12    1    4    4    0    0  0.11668549452E+02  0.73398906324E+01 -0.13081809755E+02  0.19004283393E+02  0.00000000000E+00 0.  1.
</event>
<event>
 8    1  0.1338956E-013  0.9118800E+02  0.7816164E-02  0.1184000E+00
        -11   -1    0    0    0    0  0.00000000000E+00  0.00000000000E+00  0.45593999997E+02  0.45594000000E+02  0.51100000000E-03 0. -1.
         11   -1    0    0    0    0 -0.00000000000E+00 -0.00000000000E+00 -0.45593999997E+02  0.45594000000E+02  0.51100000000E-03 0.  1.
         23    2    1    2    0    0  0.00000000000E+00  0.00000000000E+00  0.00000000000E+00  0.91188000000E+02  0.91188000000E+02 0.  0.
    9900012    2    3    3    0    0 -0.15450925055E+02  0.19392180241E+02 -0.32223875584E+02  0.50528857151E+02  0.29999991796E+02 0.  0.
         12    1    3    3    0    0  0.15450925055E+02 -0.19392180241E+02  0.32223875584E+02  0.40659142849E+02  0.00000000000E+00 0. -1.
         11    1    4    4    0    0 -0.11147869094E+02  0.25115227478E+01 -0.22135495094E+02  0.24911099437E+02  0.51100000000E-03 0. -1.
        -11    1    4    4    0    0  0.79251422975E+00  0.47193651812E+01 -0.11403268547E+02  0.12366689951E+02  0.51100000000E-03 0.  1.
        -12    1    4    4    0    0 -0.50955701911E+01  0.12161292311E+02  0.13148880566E+01  0.13251067763E+02  0.00000000000E+00 0.  1.
</event>
<event>
 8    1  0.1338956E-013  0.9118800E+02  0.7816164E-02  0.1184000E+00
        -11   -1    0    0    0    0  0.00000000000E+00  0.00000000000E+00  0.45593999997E+02  0.45594000000E+02  0.51100000000E-03 0. -1.
         11   -1    0    0    0    0 -0.00000000000E+00 -0.00000000000E+00 -0.45593999997E+02  0.45594000000E+02  0.51100000000E-03 0.  1.
         23    2    1    2    0    0  0.35527136788E-14 -0.71054273576E-14  0.17763568394E-14  0.91188000000E+02  0.91188000000E+02 0.  0.
    9900012    2    3    3    0    0  0.19231060769E+02 -0.34038070611E+02  0.11168782110E+02  0.50528860276E+02  0.30000001296E+02 0.  0.
        -12    1    3    3    0    0 -0.19231060769E+02  0.34038070611E+02 -0.11168782110E+02  0.40659139724E+02  0.00000000000E+00 0.  1.
         11    1    4    4    0    0 -0.30433539114E+01 -0.12538675973E+02  0.77057553903E+01  0.15028608205E+02  0.51100000000E-03 0. -1.
        -11    1    4    4    0    0  0.15685000778E+02 -0.23501045085E+02  0.42359339544E+01  0.28570290622E+02  0.51100000000E-03 0.  1.
         12    1    4    4    0    0  0.65894139025E+01  0.20016504470E+01 -0.77290723446E+00  0.69299614489E+01  0.00000000000E+00 0. -1.
</event>
<event>
 8    1  0.1338956E-013  0.9118800E+02  0.7816164E-02  0.1184000E+00
        -11   -1    0    0    0    0  0.00000000000E+00  0.00000000000E+00  0.45593999997E+02  0.45594000000E+02  0.51100000000E-03 0. -1.
         11   -1    0    0    0    0 -0.00000000000E+00 -0.00000000000E+00 -0.45593999997E+02  0.45594000000E+02  0.51100000000E-03 0.  1.
         23    2    1    2    0    0  0.00000000000E+00 -0.71054273576E-14  0.00000000000E+00  0.91188000000E+02  0.91188000000E+02 0.  0.
    9900012    2    3    3    0    0 -0.13363729591E+02 -0.28174096564E+02 -0.26092103766E+02  0.50528845254E+02  0.29999955633E+02 0.  0.
         12    1    3    3    0    0  0.13363729591E+02  0.28174096564E+02  0.26092103766E+02  0.40659154746E+02  0.00000000000E+00 0. -1.
         11    1    4    4    0    0  0.58779968861E+00 -0.17095142064E+02  0.80198283350E+00  0.17124034787E+02  0.51100000000E-03 0. -1.
        -11    1    4    4    0    0  0.69739126769E+00  0.67471673333E+00 -0.81807156606E+00  0.12691881652E+01  0.51100000000E-03 0.  1.
        -12    1    4    4    0    0 -0.14648920547E+02 -0.11753671233E+02 -0.26076015034E+02  0.32135622301E+02  0.00000000000E+00 0.  1.
</event>
<event>
 8    1  0.1338956E-013  0.9118800E+02  0.7816164E-02  0.1184000E+00
        -11   -1    0    0    0    0  0.00000000000E+00  0.00000000000E+00  0.45593999997E+02  0.45594000000E+02  0.51100000000E-03 0. -1.
         11   -1    0    0    0    0 -0.00000000000E+00 -0.00000000000E+00 -0.45593999997E+02  0.45594000000E+02  0.51100000000E-03 0.  1.
         23    2    1    2    0    0  0.00000000000E+00  0.77715611724E-15  0.00000000000E+00  0.91188000000E+02  0.91188000000E+02 0.  0.
    9900012    2    3    3    0    0  0.38847483853E+02 -0.75568180465E+00  0.11977901779E+02  0.50528828984E+02  0.29999906179E+02 0.  0.
         12    1    3    3    0    0 -0.38847483853E+02  0.75568180465E+00 -0.11977901779E+02  0.40659171016E+02  0.00000000000E+00 0. -1.
         11    1    4    4    0    0  0.23158799598E+02  0.28953107886E+01  0.13855859251E+02  0.27142174917E+02  0.51100000000E-03 0. -1.
        -11    1    4    4    0    0  0.11670953969E+02  0.50624903807E+01  0.22887016666E+01  0.12925870608E+02  0.51100000000E-03 0.  1.
        -12    1    4    4    0    0  0.40177302863E+01 -0.87134829740E+01 -0.41666591388E+01  0.10460783459E+02  0.00000000000E+00 0.  1.
</event>
<event>
 8    1  0.1338956E-013  0.9118800E+02  0.7816164E-02  0.1184000E+00
        -11   -1    0    0    0    0  0.00000000000E+00  0.00000000000E+00  0.45593999997E+02  0.45594000000E+02  0.51100000000E-03 0. -1.
         11   -1    0    0    0    0 -0.00000000000E+00 -0.00000000000E+00 -0.45593999997E+02  0.45594000000E+02  0.51100000000E-03 0.  1.
         23    2    1    2    0    0 -0.35527136788E-14  0.35527136788E-14 -0.35527136788E-14  0.91188000000E+02  0.91188000000E+02 0.  0.
    9900012    2    3    3    0    0 -0.29871655821E+02  0.21988910607E+02  0.16653466806E+02  0.50528856283E+02  0.29999989158E+02 0.  0.
        -12    1    3    3    0    0  0.29871655821E+02 -0.21988910607E+02 -0.16653466806E+02  0.40659143717E+02  0.00000000000E+00 0.  1.
         11    1    4    4    0    0 -0.11147766034E+02  0.16151648368E+02  0.10926617424E+02  0.22461954526E+02  0.51100000000E-03 0. -1.
        -11    1    4    4    0    0 -0.16522435611E+02  0.99558805967E+01 -0.16235993981E+01  0.19358370599E+02  0.51100000000E-03 0.  1.
         12    1    4    4    0    0 -0.22014541758E+01 -0.41186183578E+01  0.73504487801E+01  0.87085311583E+01  0.00000000000E+00 0. -1.
</event>
<event>
 8    1  0.1338956E-013  0.9118800E+02  0.7816164E-02  0.1184000E+00
        -11   -1    0    0    0    0  0.00000000000E+00  0.00000000000E+00  0.45593999997E+02  0.45594000000E+02  0.51100000000E-03 0. -1.
         11   -1    0    0    0    0 -0.00000000000E+00 -0.00000000000E+00 -0.45593999997E+02  0.45594000000E+02  0.51100000000E-03 0.  1.
         23    2    1    2    0    0  0.44408920985E-15  0.00000000000E+00  0.00000000000E+00  0.91188000000E+02  0.91188000000E+02 0.  0.
    9900012    2    3    3    0    0  0.36770495722E+01 -0.16170893507E+02 -0.37123406190E+02  0.50528858623E+02  0.29999996271E+02 0.  0.
         12    1    3    3    0    0 -0.36770495722E+01  0.16170893507E+02  0.37123406190E+02  0.40659141377E+02  0.00000000000E+00 0. -1.
         11    1    4    4    0    0 -0.64496817364E+01 -0.99818148063E+01 -0.13572746066E+02  0.18040356354E+02  0.51100000000E-03 0.  1.
        -11    1    4    4    0    0 -0.49880223570E+01  0.12305955711E+01 -0.31086670148E+01  0.60048766319E+01  0.51100000000E-03 0. -1.
         12    1    4    4    0    0  0.15114753666E+02 -0.74196742718E+01 -0.20441993108E+02  0.26483625638E+02  0.00000000000E+00 0. -1.
</event>
